<?xml version="1.0" encoding="ISO-8859-1"?>
<modeling>
 <generator>
  <i name="program" type="string">vasp </i>
  <i name="version" type="string">5.4.4.18Apr17-6-g9f103f2a35  </i>
  <i name="subversion" type="string">(build May 29 2019 08:40:53) complex            parallel </i>
  <i name="platform" type="string">LinuxPGI </i>
  <i name="date" type="string">2021 11 22 </i>
  <i name="time" type="string">02:26:47 </i>
 </generator>
 <incar>
  <i type="int" name="ISTART">     2</i>
  <i type="string" name="PREC">accurate</i>
  <i type="string" name="ALGO"> Fast</i>
  <i type="int" name="ICHARG">     2</i>
  <i type="int" name="INIWAV">     1</i>
  <i type="int" name="NELM">   100</i>
  <i type="int" name="NELMIN">     4</i>
  <i type="int" name="IBRION">     2</i>
  <i name="EDIFF">      0.00001000</i>
  <i type="int" name="NSW">   500</i>
  <i type="int" name="ISIF">     2</i>
  <i type="int" name="ISYM">     2</i>
  <i name="ENCUT">    500.00000000</i>
  <i name="POTIM">      0.25000000</i>
  <i type="string" name="LREAL"> Auto</i>
  <i type="int" name="ISMEAR">     0</i>
  <i name="SIGMA">      0.15000000</i>
  <i type="logical" name="LWAVE"> F  </i>
  <i type="logical" name="LCHARG"> F  </i>
  <v type="int" name="KPOINT_BSE">    -1     0     0     0</v>
  <i type="int" name="NELM">   100</i>
 </incar>
 <structure name="primitive_cell" >
  <crystal>
   <varray name="basis" >
    <v>       9.72667800       0.00000000       0.00000000 </v>
    <v>       0.00000000       8.42355000       0.00000000 </v>
    <v>       0.00000000       0.00000000      45.00000000 </v>
   </varray>
   <i name="volume">   3686.99213101 </i>
   <varray name="rec_basis" >
    <v>       0.10281002       0.00000000       0.00000000 </v>
    <v>       0.00000000       0.11871479       0.00000000 </v>
    <v>       0.00000000       0.00000000       0.02222222 </v>
   </varray>
  </crystal>
  <varray name="positions" >
   <v>       0.06160483      -0.29604605       0.47951227 </v>
   <v>       0.06251128      -0.13333290      -0.47854603 </v>
   <v>      -0.05919521      -0.37845575      -0.47844065 </v>
   <v>      -0.05862738       0.46020073       0.47935691 </v>
   <v>      -0.18172706      -0.29544889       0.47947006 </v>
   <v>       0.18558074      -0.38002202      -0.47799957 </v>
   <v>       0.18417748       0.45976312       0.47988521 </v>
   <v>       0.30721056      -0.29613466       0.47980757 </v>
   <v>      -0.06005653      -0.04652967       0.47900962 </v>
   <v>       0.18420908      -0.04639782       0.47867997 </v>
   <v>      -0.06041046      -0.37871832       0.43476682 </v>
   <v>       0.06251929      -0.12842841       0.43469601 </v>
   <v>       0.18549932      -0.37868550       0.43437228 </v>
   <v>      -0.18421024      -0.13143892      -0.47875422 </v>
   <v>       0.06325869       0.37710961      -0.47819548 </v>
   <v>       0.30990988      -0.13193821      -0.47797282 </v>
   <v>      -0.18371044      -0.12920202       0.43460653 </v>
   <v>       0.06336773       0.37236760       0.43477203 </v>
   <v>       0.30921425      -0.12784497       0.43436282 </v>
   <v>       0.06431833      -0.29930494      -0.43409953 </v>
   <v>      -0.18395444       0.37550239      -0.47829106 </v>
   <v>       0.30945169       0.37681356      -0.47777229 </v>
   <v>      -0.31001582      -0.37794325      -0.47823186 </v>
   <v>      -0.06092727       0.12168113      -0.47904977 </v>
   <v>       0.43364765      -0.37900875      -0.47759124 </v>
   <v>      -0.30951041       0.45742159       0.47929811 </v>
   <v>       0.43361899       0.45714032       0.47951206 </v>
   <v>       0.06169385       0.20813896       0.47884487 </v>
   <v>      -0.30895502      -0.04466464       0.47925862 </v>
   <v>       0.18702270       0.12262180      -0.47849718 </v>
   <v>      -0.18533178       0.37270374       0.43478414 </v>
   <v>       0.43492705      -0.04489018       0.47919141 </v>
   <v>      -0.31035329      -0.37944501       0.43457529 </v>
   <v>      -0.06007656       0.11996162       0.43504483 </v>
   <v>       0.30970721       0.37237313       0.43423965 </v>
   <v>       0.18569680       0.12001046       0.43436265 </v>
   <v>       0.43518201      -0.37967579       0.43408036 </v>
   <v>      -0.05944849      -0.21442218       0.39033541 </v>
   <v>       0.06548796      -0.46086320       0.39042761 </v>
   <v>       0.18704844      -0.21403636       0.39008255 </v>
   <v>       0.18559067       0.46189201      -0.43420905 </v>
   <v>      -0.05934009       0.46198939      -0.43364334 </v>
   <v>      -0.05930200      -0.04712600      -0.43428688 </v>
   <v>      -0.18394170      -0.29871556      -0.43385683 </v>
   <v>       0.30896495      -0.29778736      -0.43405875 </v>
   <v>       0.18686081      -0.04757854      -0.43398827 </v>
   <v>      -0.18360824       0.20627845       0.47895703 </v>
   <v>       0.30927982       0.20788702       0.47894133 </v>
   <v>      -0.43738486      -0.29546446       0.47945834 </v>
   <v>      -0.18628086      -0.45968865       0.39101094 </v>
   <v>       0.06484083       0.03447058       0.39045299 </v>
   <v>       0.30981687      -0.46190059       0.38999222 </v>
   <v>      -0.31186645       0.12257136      -0.47867623 </v>
   <v>      -0.43838582      -0.12942894      -0.47798759 </v>
   <v>       0.43597173       0.12247492      -0.47815870 </v>
   <v>      -0.18542067       0.03428450       0.39045876 </v>
   <v>      -0.31137582       0.12109987       0.43445936 </v>
   <v>       0.43556277       0.12100036       0.43434602 </v>
   <v>      -0.31127327      -0.21528149       0.39023683 </v>
   <v>      -0.43850575      -0.12786330       0.43437618 </v>
   <v>      -0.05973552       0.28619959       0.39040939 </v>
   <v>       0.30941579       0.03687520       0.39011519 </v>
   <v>       0.43340624      -0.21562047       0.38952224 </v>
   <v>       0.18802272       0.28683256       0.38992346 </v>
   <v>       0.06466259       0.21145480      -0.43417497 </v>
   <v>       0.43455850       0.46069706      -0.43388639 </v>
   <v>      -0.31120511       0.46081443      -0.43365650 </v>
   <v>       0.43486919      -0.04574533      -0.43420867 </v>
   <v>      -0.31325808      -0.04634891      -0.43437987 </v>
   <v>      -0.43907799       0.37464683      -0.47780766 </v>
   <v>      -0.43808811       0.37245586       0.43439552 </v>
   <v>       0.06680796      -0.29828528       0.34679745 </v>
   <v>       0.06205946      -0.45832685      -0.38900776 </v>
   <v>       0.18577942      -0.21238148      -0.38878598 </v>
   <v>      -0.05976388      -0.21424595      -0.38819902 </v>
   <v>       0.31041272       0.21031962      -0.43448669 </v>
   <v>      -0.18616327       0.20976052      -0.43435436 </v>
   <v>      -0.43965340      -0.29757113      -0.43364856 </v>
   <v>      -0.43741007       0.20614961       0.47902912 </v>
   <v>      -0.05975643      -0.04823597       0.34661248 </v>
   <v>       0.18873143      -0.04790315       0.34677067 </v>
   <v>       0.31080410      -0.30048170       0.34669198 </v>
   <v>      -0.31223937       0.28730698       0.39040188 </v>
   <v>      -0.43918089      -0.45984922       0.39017986 </v>
   <v>       0.43373621       0.28635462       0.39000410 </v>
   <v>      -0.18647127      -0.29690029       0.34628141 </v>
   <v>       0.18904709       0.45224771       0.34662436 </v>
   <v>      -0.05810648       0.45198024       0.34576049 </v>
   <v>       0.31037444      -0.45783932      -0.38918619 </v>
   <v>      -0.18489569      -0.45915923      -0.38861980 </v>
   <v>       0.06339341       0.03959879      -0.38757435 </v>
   <v>      -0.43882528       0.03551021       0.39060976 </v>
   <v>      -0.06059134       0.29744366      -0.38811099 </v>
   <v>       0.18494809       0.29536724      -0.38832266 </v>
   <v>       0.43622659      -0.21229003      -0.38859126 </v>
   <v>      -0.31121901      -0.21416592      -0.38819208 </v>
   <v>       0.30971808       0.04002272      -0.38822858 </v>
   <v>      -0.18466598       0.03996789      -0.38767534 </v>
   <v>       0.43443913      -0.04993216       0.34624086 </v>
   <v>       0.43421686       0.45488858       0.34623997 </v>
   <v>       0.06715305       0.19939423       0.34592929 </v>
   <v>      -0.31341065      -0.04970680       0.34614682 </v>
   <v>      -0.31546062       0.45325972       0.34595313 </v>
   <v>      -0.43933783       0.20906545      -0.43436971 </v>
   <v>       0.30943292       0.20036173       0.34645659 </v>
   <v>      -0.44144148      -0.29933977       0.34621055 </v>
   <v>      -0.18634488       0.19823937       0.34539808 </v>
   <v>      -0.43658462      -0.45820152      -0.38893405 </v>
   <v>      -0.31020687       0.29648599      -0.38795308 </v>
   <v>       0.43680100       0.29451342      -0.38856958 </v>
   <v>       0.18438580      -0.37349763      -0.34574758 </v>
   <v>      -0.06213359      -0.37419204      -0.34578737 </v>
   <v>       0.06158249      -0.12333857      -0.34552932 </v>
   <v>       0.18448001      -0.38437313       0.30129265 </v>
   <v>       0.06218678      -0.13205298       0.30061214 </v>
   <v>      -0.43729763       0.03983940      -0.38783572 </v>
   <v>      -0.06065140      -0.38547993       0.30004406 </v>
   <v>       0.06084953       0.37711499      -0.34560044 </v>
   <v>      -0.18591019      -0.12505866      -0.34514873 </v>
   <v>       0.31048914      -0.12270837      -0.34516958 </v>
   <v>       0.31074470      -0.13317730       0.30155726 </v>
   <v>      -0.18662677      -0.13099672       0.30024670 </v>
   <v>       0.06214831       0.36600021       0.29994110 </v>
   <v>      -0.18429520       0.37722866      -0.34569717 </v>
   <v>      -0.30935740      -0.37258066      -0.34576361 </v>
   <v>       0.30914515       0.37583341      -0.34549036 </v>
   <v>       0.43620954      -0.37226279      -0.34556713 </v>
   <v>       0.18442492       0.12638508      -0.34512849 </v>
   <v>      -0.06090560       0.12791980      -0.34505243 </v>
   <v>       0.43935705      -0.38416580       0.30276071 </v>
   <v>      -0.44049673       0.20048888       0.34548547 </v>
   <v>       0.31057050       0.36429642       0.30125440 </v>
   <v>       0.18605505       0.11923617       0.30075531 </v>
   <v>      -0.31250552      -0.38524066       0.30039097 </v>
   <v>      -0.06189451       0.12017365       0.30026279 </v>
   <v>      -0.18721043       0.36548243       0.29961428 </v>
   <v>      -0.43736226      -0.12296592      -0.34509306 </v>
   <v>       0.43596731       0.12482356      -0.34511073 </v>
   <v>      -0.31081698       0.12657704      -0.34481756 </v>
   <v>      -0.43640887      -0.13281531       0.30140283 </v>
   <v>       0.43662275       0.11933752       0.30086988 </v>
   <v>      -0.31146957       0.12090165       0.30017825 </v>
   <v>      -0.43679561       0.37558299      -0.34549689 </v>
   <v>      -0.43618312       0.36595751       0.30014301 </v>
   <v>       0.06226447      -0.29081666      -0.30165743 </v>
   <v>      -0.06217610      -0.03949858      -0.30238607 </v>
   <v>      -0.06042231       0.46042884      -0.30175964 </v>
   <v>      -0.18476707      -0.28878996      -0.30186180 </v>
   <v>       0.18509199       0.46186993      -0.30163558 </v>
   <v>       0.31093450      -0.28858346      -0.30174449 </v>
   <v>       0.18780376      -0.04014545      -0.30192720 </v>
   <v>       0.18238042      -0.21560033       0.25591641 </v>
   <v>      -0.06195574      -0.21932208       0.25544552 </v>
   <v>       0.05987826      -0.47341726       0.25536742 </v>
   <v>       0.30748786      -0.47456710       0.25540897 </v>
   <v>       0.06312017       0.03650543       0.25515351 </v>
   <v>      -0.18459083      -0.47207349       0.25480441 </v>
   <v>       0.06218992       0.21159461      -0.30207377 </v>
   <v>      -0.30964886       0.46036991      -0.30178859 </v>
   <v>       0.43601750       0.46083436      -0.30155354 </v>
   <v>      -0.31178320      -0.03901352      -0.30174876 </v>
   <v>       0.43777013      -0.03923339      -0.30178656 </v>
   <v>      -0.30791475      -0.21834313       0.25519455 </v>
   <v>       0.30836708       0.03692999       0.25545298 </v>
   <v>      -0.18589113       0.03538757       0.25534786 </v>
   <v>       0.43860109      -0.21592319       0.25565528 </v>
   <v>       0.18253019       0.28071015       0.25517112 </v>
   <v>      -0.06040775       0.28281423       0.25487567 </v>
   <v>      -0.18538490       0.21000251      -0.30192821 </v>
   <v>       0.31221576       0.20966338      -0.30168343 </v>
   <v>      -0.43699860      -0.28687087      -0.30187429 </v>
   <v>      -0.43207982      -0.47451955       0.25553856 </v>
   <v>      -0.30994559       0.28309659       0.25525295 </v>
   <v>       0.43849845       0.28018347       0.25563522 </v>
   <v>      -0.43484465       0.03677092       0.25533531 </v>
   <v>      -0.43717174       0.20836826      -0.30161328 </v>
   <v>       0.06230247      -0.45426024      -0.25832288 </v>
   <v>      -0.06187635      -0.20407600      -0.25835218 </v>
   <v>       0.18647276      -0.20423436      -0.25799722 </v>
   <v>       0.05844214      -0.30756458       0.21379538 </v>
   <v>      -0.18458273      -0.45431859      -0.25835827 </v>
   <v>       0.30950096      -0.45390938      -0.25777308 </v>
   <v>       0.06206116       0.04606291      -0.25800931 </v>
   <v>      -0.06269428       0.44272497       0.21369506 </v>
   <v>      -0.18726319      -0.30570056       0.21289193 </v>
   <v>       0.18496918      -0.04633324       0.21282665 </v>
   <v>       0.18139680       0.44049646       0.21316115 </v>
   <v>      -0.06342178      -0.04790843       0.21271785 </v>
   <v>       0.31029018      -0.30281037       0.21115752 </v>
   <v>      -0.06226272       0.29642231      -0.25822438 </v>
   <v>       0.18617484       0.29687534      -0.25785100 </v>
   <v>      -0.31113354      -0.20202357      -0.25817841 </v>
   <v>       0.43576165      -0.20270207      -0.25795976 </v>
   <v>      -0.18759449       0.04633533      -0.25817369 </v>
   <v>       0.31206194       0.04579906      -0.25774021 </v>
   <v>       0.06161704       0.20122038       0.21363424 </v>
   <v>      -0.30776509       0.44426427       0.21322140 </v>
   <v>      -0.31091301      -0.05132514       0.21256380 </v>
   <v>       0.43838924       0.44186878       0.21212221 </v>
   <v>       0.43810529      -0.04827519       0.21150316 </v>
   <v>      -0.31142804       0.29385303      -0.25788761 </v>
   <v>       0.43665088       0.29414372      -0.25771856 </v>
   <v>      -0.43823280      -0.45449991      -0.25769058 </v>
   <v>       0.30677642       0.19943471       0.21349079 </v>
   <v>      -0.18513646       0.20164620       0.21350009 </v>
   <v>      -0.43304797      -0.30282882       0.21150356 </v>
   <v>      -0.43742463       0.04614697      -0.25807970 </v>
   <v>      -0.43526001       0.19911675       0.21299528 </v>
   <v>      -0.06098346      -0.37094677      -0.21480533 </v>
   <v>       0.18867208      -0.37080457      -0.21487475 </v>
   <v>       0.06465433      -0.11916253      -0.21472052 </v>
   <v>      -0.06478378      -0.39375542       0.17247686 </v>
   <v>       0.06343232      -0.13571542       0.17165131 </v>
   <v>       0.19031568      -0.39522875       0.17169530 </v>
   <v>       0.06412635       0.38078308      -0.21470966 </v>
   <v>      -0.18688740      -0.11857269      -0.21472189 </v>
   <v>       0.31187559      -0.11956155      -0.21464519 </v>
   <v>      -0.19062604      -0.13977420       0.17204727 </v>
   <v>       0.06319804       0.35622349       0.17245939 </v>
   <v>       0.31470334      -0.13776970       0.17126660 </v>
   <v>      -0.18659938       0.38007494      -0.21479425 </v>
   <v>      -0.31262682      -0.36944405      -0.21462625 </v>
   <v>       0.31202611       0.38096435      -0.21432418 </v>
   <v>       0.43596371      -0.37043720      -0.21431903 </v>
   <v>      -0.06078602       0.13196273      -0.21484946 </v>
   <v>       0.18926302       0.13184294      -0.21462833 </v>
   <v>      -0.06065432       0.11070649       0.17214839 </v>
   <v>       0.18662131       0.11024446       0.17189725 </v>
   <v>      -0.31334126      -0.39038231       0.17215692 </v>
   <v>      -0.18745474       0.35854959       0.17231573 </v>
   <v>       0.43935839      -0.39114837       0.17142572 </v>
   <v>       0.31241274       0.35871252       0.17162459 </v>
   <v>      -0.43883173      -0.11891757      -0.21465843 </v>
   <v>       0.43592919       0.13075032      -0.21468330 </v>
   <v>      -0.31339499       0.13151607      -0.21472470 </v>
   <v>      -0.31133061       0.10807972       0.17222758 </v>
   <v>       0.43705993       0.10890566       0.17194016 </v>
   <v>      -0.43619297      -0.14127258       0.17177329 </v>
   <v>      -0.43850258       0.38035261      -0.21445103 </v>
   <v>      -0.43664742       0.35988414       0.17166620 </v>
   <v>       0.06209848      -0.28257651      -0.16626008 </v>
   <v>       0.19070653      -0.03085807      -0.16811952 </v>
   <v>      -0.06418103      -0.03122424      -0.16769836 </v>
   <v>      -0.06101651       0.46689649      -0.16675565 </v>
   <v>       0.31339314      -0.28217005      -0.16681889 </v>
   <v>       0.18715810       0.46715558      -0.16627317 </v>
   <v>      -0.18778950      -0.27950120      -0.16645525 </v>
   <v>       0.06345387       0.22320646      -0.16796800 </v>
   <v>       0.18639143      -0.21853019       0.11697623 </v>
   <v>       0.06266731      -0.47518580       0.11696771 </v>
   <v>      -0.06248049      -0.22090746       0.11661648 </v>
   <v>      -0.31317979       0.46804942      -0.16705397 </v>
   <v>       0.06554165       0.02401786       0.11867078 </v>
   <v>       0.43593496       0.46790805      -0.16641651 </v>
   <v>       0.43609849      -0.03060171      -0.16689769 </v>
   <v>       0.31249769      -0.47815414       0.11874283 </v>
   <v>      -0.31320974      -0.02941215      -0.16657576 </v>
   <v>      -0.18764877      -0.47495908       0.11752198 </v>
   <v>      -0.18787997       0.22020664      -0.16681566 </v>
   <v>       0.31159142       0.21971169      -0.16631421 </v>
   <v>      -0.18529031       0.02197033       0.11760668 </v>
   <v>       0.18832639       0.27611069       0.11855283 </v>
   <v>      -0.43914377      -0.28017963      -0.16566035 </v>
   <v>       0.30863655       0.02515401       0.11738342 </v>
   <v>      -0.06120919       0.27764509       0.11808506 </v>
   <v>      -0.31173606      -0.22338841       0.11704521 </v>
   <v>       0.43794949      -0.22125753       0.11669435 </v>
   <v>      -0.43727137      -0.47590431       0.11717710 </v>
   <v>       0.43744544       0.27618369       0.11740755 </v>
   <v>      -0.31428192       0.27858807       0.11728523 </v>
   <v>      -0.43834627       0.21940206      -0.16676612 </v>
   <v>      -0.43873380       0.02416534       0.11788411 </v>
   <v>       0.06486817      -0.45066976      -0.12121652 </v>
   <v>      -0.06815994      -0.20141678      -0.12144934 </v>
   <v>       0.19171134      -0.20478965      -0.12095538 </v>
   <v>      -0.18462922      -0.44217977      -0.12125487 </v>
   <v>       0.31552627      -0.45223344      -0.12135456 </v>
   <v>       0.06098045       0.05279838      -0.12152514 </v>
   <v>       0.19340485       0.30934433      -0.12160766 </v>
   <v>      -0.05931742       0.30693840      -0.12120639 </v>
   <v>      -0.19169149       0.04462584      -0.12158430 </v>
   <v>       0.31969166       0.05288338      -0.12174747 </v>
   <v>      -0.31467708      -0.19826432      -0.12082009 </v>
   <v>       0.44044872      -0.20016837      -0.12067107 </v>
   <v>       0.43529340       0.30480889      -0.12140348 </v>
   <v>      -0.44439674      -0.44672840      -0.12085507 </v>
   <v>      -0.31846524       0.30140789      -0.12040274 </v>
   <v>      -0.44053701       0.04643009      -0.12121438 </v>
  </varray>
 </structure>
 <varray name="primitive_index" >
  <v type="int" >        1 </v>
  <v type="int" >       98 </v>
  <v type="int" >      176 </v>
  <v type="int" >      160 </v>
  <v type="int" >      250 </v>
  <v type="int" >      200 </v>
  <v type="int" >       25 </v>
  <v type="int" >       88 </v>
  <v type="int" >      189 </v>
  <v type="int" >      168 </v>
  <v type="int" >      254 </v>
  <v type="int" >      263 </v>
  <v type="int" >      246 </v>
  <v type="int" >      198 </v>
  <v type="int" >      195 </v>
  <v type="int" >      270 </v>
  <v type="int" >      134 </v>
  <v type="int" >      251 </v>
  <v type="int" >       56 </v>
  <v type="int" >       43 </v>
  <v type="int" >      204 </v>
  <v type="int" >      231 </v>
  <v type="int" >      286 </v>
  <v type="int" >      283 </v>
  <v type="int" >      155 </v>
  <v type="int" >       11 </v>
  <v type="int" >       52 </v>
  <v type="int" >       54 </v>
  <v type="int" >      275 </v>
  <v type="int" >       85 </v>
  <v type="int" >      244 </v>
  <v type="int" >      174 </v>
  <v type="int" >      211 </v>
  <v type="int" >      101 </v>
  <v type="int" >      120 </v>
  <v type="int" >      197 </v>
  <v type="int" >       71 </v>
  <v type="int" >      201 </v>
  <v type="int" >      171 </v>
  <v type="int" >       76 </v>
  <v type="int" >      182 </v>
  <v type="int" >      268 </v>
  <v type="int" >       55 </v>
  <v type="int" >      219 </v>
  <v type="int" >      102 </v>
  <v type="int" >       83 </v>
  <v type="int" >       19 </v>
  <v type="int" >      232 </v>
  <v type="int" >       41 </v>
  <v type="int" >      236 </v>
  <v type="int" >       48 </v>
  <v type="int" >       35 </v>
  <v type="int" >      106 </v>
  <v type="int" >       82 </v>
  <v type="int" >      284 </v>
  <v type="int" >      267 </v>
  <v type="int" >      162 </v>
  <v type="int" >       13 </v>
  <v type="int" >      279 </v>
  <v type="int" >      185 </v>
  <v type="int" >      227 </v>
  <v type="int" >      249 </v>
  <v type="int" >      278 </v>
  <v type="int" >      151 </v>
  <v type="int" >       33 </v>
  <v type="int" >       45 </v>
  <v type="int" >      157 </v>
  <v type="int" >      287 </v>
  <v type="int" >      178 </v>
  <v type="int" >      242 </v>
  <v type="int" >      187 </v>
  <v type="int" >       68 </v>
  <v type="int" >      208 </v>
  <v type="int" >      158 </v>
  <v type="int" >       95 </v>
  <v type="int" >      181 </v>
  <v type="int" >       84 </v>
  <v type="int" >      213 </v>
  <v type="int" >       42 </v>
  <v type="int" >       70 </v>
  <v type="int" >      163 </v>
  <v type="int" >        3 </v>
  <v type="int" >      144 </v>
  <v type="int" >       63 </v>
  <v type="int" >       59 </v>
  <v type="int" >       22 </v>
  <v type="int" >       77 </v>
  <v type="int" >      137 </v>
  <v type="int" >       36 </v>
  <v type="int" >        5 </v>
  <v type="int" >      281 </v>
  <v type="int" >      265 </v>
  <v type="int" >       67 </v>
  <v type="int" >      188 </v>
  <v type="int" >       75 </v>
  <v type="int" >      132 </v>
  <v type="int" >       37 </v>
  <v type="int" >      274 </v>
  <v type="int" >      202 </v>
  <v type="int" >      175 </v>
  <v type="int" >      154 </v>
  <v type="int" >       64 </v>
  <v type="int" >       79 </v>
  <v type="int" >       80 </v>
  <v type="int" >       86 </v>
  <v type="int" >       15 </v>
  <v type="int" >       72 </v>
  <v type="int" >       49 </v>
  <v type="int" >      196 </v>
  <v type="int" >       69 </v>
  <v type="int" >      141 </v>
  <v type="int" >      221 </v>
  <v type="int" >      215 </v>
  <v type="int" >      111 </v>
  <v type="int" >      179 </v>
  <v type="int" >      153 </v>
  <v type="int" >       65 </v>
  <v type="int" >      107 </v>
  <v type="int" >      269 </v>
  <v type="int" >      119 </v>
  <v type="int" >      217 </v>
  <v type="int" >       12 </v>
  <v type="int" >      257 </v>
  <v type="int" >       46 </v>
  <v type="int" >      210 </v>
  <v type="int" >      241 </v>
  <v type="int" >      110 </v>
  <v type="int" >       94 </v>
  <v type="int" >       31 </v>
  <v type="int" >      277 </v>
  <v type="int" >      205 </v>
  <v type="int" >      243 </v>
  <v type="int" >      223 </v>
  <v type="int" >      255 </v>
  <v type="int" >       16 </v>
  <v type="int" >      234 </v>
  <v type="int" >      271 </v>
  <v type="int" >      276 </v>
  <v type="int" >       26 </v>
  <v type="int" >        2 </v>
  <v type="int" >      139 </v>
  <v type="int" >      258 </v>
  <v type="int" >      199 </v>
  <v type="int" >      161 </v>
  <v type="int" >       99 </v>
  <v type="int" >      288 </v>
  <v type="int" >      124 </v>
  <v type="int" >      149 </v>
  <v type="int" >       74 </v>
  <v type="int" >      123 </v>
  <v type="int" >      146 </v>
  <v type="int" >      216 </v>
  <v type="int" >      133 </v>
  <v type="int" >      142 </v>
  <v type="int" >      225 </v>
  <v type="int" >       87 </v>
  <v type="int" >      220 </v>
  <v type="int" >       18 </v>
  <v type="int" >       96 </v>
  <v type="int" >       24 </v>
  <v type="int" >       17 </v>
  <v type="int" >      116 </v>
  <v type="int" >       40 </v>
  <v type="int" >       20 </v>
  <v type="int" >       91 </v>
  <v type="int" >       51 </v>
  <v type="int" >      138 </v>
  <v type="int" >       57 </v>
  <v type="int" >       61 </v>
  <v type="int" >      169 </v>
  <v type="int" >       97 </v>
  <v type="int" >       73 </v>
  <v type="int" >      125 </v>
  <v type="int" >      183 </v>
  <v type="int" >      259 </v>
  <v type="int" >       28 </v>
  <v type="int" >      127 </v>
  <v type="int" >      145 </v>
  <v type="int" >      264 </v>
  <v type="int" >      282 </v>
  <v type="int" >      164 </v>
  <v type="int" >      186 </v>
  <v type="int" >      126 </v>
  <v type="int" >      105 </v>
  <v type="int" >        8 </v>
  <v type="int" >       10 </v>
  <v type="int" >      114 </v>
  <v type="int" >      180 </v>
  <v type="int" >      252 </v>
  <v type="int" >        4 </v>
  <v type="int" >       23 </v>
  <v type="int" >      240 </v>
  <v type="int" >       30 </v>
  <v type="int" >      229 </v>
  <v type="int" >       27 </v>
  <v type="int" >      194 </v>
  <v type="int" >      214 </v>
  <v type="int" >      206 </v>
  <v type="int" >       81 </v>
  <v type="int" >      103 </v>
  <v type="int" >       62 </v>
  <v type="int" >       66 </v>
  <v type="int" >      261 </v>
  <v type="int" >      280 </v>
  <v type="int" >       32 </v>
  <v type="int" >      128 </v>
  <v type="int" >      112 </v>
  <v type="int" >      117 </v>
  <v type="int" >      118 </v>
  <v type="int" >       34 </v>
  <v type="int" >       47 </v>
  <v type="int" >      233 </v>
  <v type="int" >      238 </v>
  <v type="int" >      143 </v>
  <v type="int" >       29 </v>
  <v type="int" >      222 </v>
  <v type="int" >      170 </v>
  <v type="int" >      122 </v>
  <v type="int" >       60 </v>
  <v type="int" >      193 </v>
  <v type="int" >      121 </v>
  <v type="int" >       44 </v>
  <v type="int" >       50 </v>
  <v type="int" >      237 </v>
  <v type="int" >      266 </v>
  <v type="int" >       58 </v>
  <v type="int" >      262 </v>
  <v type="int" >      159 </v>
  <v type="int" >      148 </v>
  <v type="int" >        7 </v>
  <v type="int" >      224 </v>
  <v type="int" >      248 </v>
  <v type="int" >      152 </v>
  <v type="int" >      129 </v>
  <v type="int" >      167 </v>
  <v type="int" >      253 </v>
  <v type="int" >      113 </v>
  <v type="int" >      228 </v>
  <v type="int" >      207 </v>
  <v type="int" >       89 </v>
  <v type="int" >      272 </v>
  <v type="int" >       93 </v>
  <v type="int" >      184 </v>
  <v type="int" >      190 </v>
  <v type="int" >       78 </v>
  <v type="int" >        6 </v>
  <v type="int" >       92 </v>
  <v type="int" >      247 </v>
  <v type="int" >      239 </v>
  <v type="int" >      136 </v>
  <v type="int" >      131 </v>
  <v type="int" >      173 </v>
  <v type="int" >      147 </v>
  <v type="int" >      172 </v>
  <v type="int" >      203 </v>
  <v type="int" >      226 </v>
  <v type="int" >      104 </v>
  <v type="int" >      192 </v>
  <v type="int" >      108 </v>
  <v type="int" >       38 </v>
  <v type="int" >       90 </v>
  <v type="int" >      235 </v>
  <v type="int" >      209 </v>
  <v type="int" >      100 </v>
  <v type="int" >      140 </v>
  <v type="int" >      256 </v>
  <v type="int" >      165 </v>
  <v type="int" >      109 </v>
  <v type="int" >       53 </v>
  <v type="int" >       14 </v>
  <v type="int" >        9 </v>
  <v type="int" >      230 </v>
  <v type="int" >      218 </v>
  <v type="int" >      130 </v>
  <v type="int" >      177 </v>
  <v type="int" >      135 </v>
  <v type="int" >      260 </v>
  <v type="int" >      245 </v>
  <v type="int" >      115 </v>
  <v type="int" >       39 </v>
  <v type="int" >       21 </v>
  <v type="int" >      191 </v>
  <v type="int" >      150 </v>
  <v type="int" >      273 </v>
  <v type="int" >      166 </v>
  <v type="int" >      156 </v>
  <v type="int" >      285 </v>
  <v type="int" >      212 </v>
 </varray>
 <kpoints>
  <generation param="Gamma">
   <v type="int" name="divisions">       4        4        1 </v>
   <v name="usershift">      0.00000000       0.00000000       0.00000000 </v>
   <v name="genvec1">      0.25000000       0.00000000       0.00000000 </v>
   <v name="genvec2">      0.00000000       0.25000000       0.00000000 </v>
   <v name="genvec3">      0.00000000       0.00000000       1.00000000 </v>
   <v name="shift">      0.00000000       0.00000000       0.00000000 </v>
  </generation>
  <varray name="kpointlist" >
   <v>       0.00000000       0.00000000       0.00000000 </v>
   <v>       0.25000000       0.00000000       0.00000000 </v>
   <v>       0.50000000       0.00000000       0.00000000 </v>
   <v>       0.00000000       0.25000000       0.00000000 </v>
   <v>       0.25000000       0.25000000       0.00000000 </v>
   <v>       0.50000000       0.25000000       0.00000000 </v>
   <v>      -0.25000000       0.25000000       0.00000000 </v>
   <v>       0.00000000       0.50000000       0.00000000 </v>
   <v>       0.25000000       0.50000000       0.00000000 </v>
   <v>       0.50000000       0.50000000       0.00000000 </v>
  </varray>
  <varray name="weights" >
   <v>       0.06250000 </v>
   <v>       0.12500000 </v>
   <v>       0.06250000 </v>
   <v>       0.12500000 </v>
   <v>       0.12500000 </v>
   <v>       0.12500000 </v>
   <v>       0.12500000 </v>
   <v>       0.06250000 </v>
   <v>       0.12500000 </v>
   <v>       0.06250000 </v>
  </varray>
 </kpoints>
 <parameters>
  <separator name="general" >
   <i type="string" name="SYSTEM">unknown system</i>
   <i type="logical" name="LCOMPAT"> F  </i>
  </separator>
  <separator name="electronic" >
   <i type="string" name="PREC">accura</i>
   <i name="ENMAX">    500.00000000</i>
   <i name="ENAUG">    838.43500000</i>
   <i name="EDIFF">      0.00001000</i>
   <i type="int" name="IALGO">    68</i>
   <i type="int" name="IWAVPR">    11</i>
   <i type="int" name="NBANDS">  1380</i>
   <i name="NELECT">   2289.00000000</i>
   <i type="int" name="TURBO">     0</i>
   <i type="int" name="IRESTART">     0</i>
   <i type="int" name="NREBOOT">     0</i>
   <i type="int" name="NMIN">     0</i>
   <i name="EREF">      0.00000000</i>
   <separator name="electronic smearing" >
    <i type="int" name="ISMEAR">     0</i>
    <i name="SIGMA">      0.15000000</i>
    <i name="KSPACING">      0.50000000</i>
    <i type="logical" name="KGAMMA"> T  </i>
   </separator>
   <separator name="electronic projectors" >
    <i type="logical" name="LREAL"> T  </i>
    <v name="ROPT">     -0.00025000     -0.00025000</v>
    <i type="int" name="LMAXPAW">  -100</i>
    <i type="int" name="LMAXMIX">     2</i>
    <i type="logical" name="NLSPLINE"> F  </i>
   </separator>
   <separator name="electronic startup" >
    <i type="int" name="ISTART">     0</i>
    <i type="int" name="ICHARG">     2</i>
    <i type="int" name="INIWAV">     1</i>
   </separator>
   <separator name="electronic spin" >
    <i type="int" name="ISPIN">     1</i>
    <i type="logical" name="LNONCOLLINEAR"> F  </i>
    <v name="MAGMOM">      1.00000000      1.00000000      1.00000000      1.00000000      1.00000000      1.00000000      1.00000000      1.00000000      1.00000000      1.00000000      1.00000000      1.00000000      1.00000000      1.00000000      1.00000000      1.00000000      1.00000000      1.00000000      1.00000000      1.00000000
      1.00000000      1.00000000      1.00000000      1.00000000      1.00000000      1.00000000      1.00000000      1.00000000      1.00000000      1.00000000      1.00000000      1.00000000      1.00000000      1.00000000      1.00000000      1.00000000      1.00000000      1.00000000      1.00000000      1.00000000
      1.00000000      1.00000000      1.00000000      1.00000000      1.00000000      1.00000000      1.00000000      1.00000000      1.00000000      1.00000000      1.00000000      1.00000000      1.00000000      1.00000000      1.00000000      1.00000000      1.00000000      1.00000000      1.00000000      1.00000000
      1.00000000      1.00000000      1.00000000      1.00000000      1.00000000      1.00000000      1.00000000      1.00000000      1.00000000      1.00000000      1.00000000      1.00000000      1.00000000      1.00000000      1.00000000      1.00000000      1.00000000      1.00000000      1.00000000      1.00000000
      1.00000000      1.00000000      1.00000000      1.00000000      1.00000000      1.00000000      1.00000000      1.00000000      1.00000000      1.00000000      1.00000000      1.00000000      1.00000000      1.00000000      1.00000000      1.00000000      1.00000000      1.00000000      1.00000000      1.00000000
      1.00000000      1.00000000      1.00000000      1.00000000      1.00000000      1.00000000      1.00000000      1.00000000      1.00000000      1.00000000      1.00000000      1.00000000      1.00000000      1.00000000      1.00000000      1.00000000      1.00000000      1.00000000      1.00000000      1.00000000
      1.00000000      1.00000000      1.00000000      1.00000000      1.00000000      1.00000000      1.00000000      1.00000000      1.00000000      1.00000000      1.00000000      1.00000000      1.00000000      1.00000000      1.00000000      1.00000000      1.00000000      1.00000000      1.00000000      1.00000000
      1.00000000      1.00000000      1.00000000      1.00000000      1.00000000      1.00000000      1.00000000      1.00000000      1.00000000      1.00000000      1.00000000      1.00000000      1.00000000      1.00000000      1.00000000      1.00000000      1.00000000      1.00000000      1.00000000      1.00000000
      1.00000000      1.00000000      1.00000000      1.00000000      1.00000000      1.00000000      1.00000000      1.00000000      1.00000000      1.00000000      1.00000000      1.00000000      1.00000000      1.00000000      1.00000000      1.00000000      1.00000000      1.00000000      1.00000000      1.00000000
      1.00000000      1.00000000      1.00000000      1.00000000      1.00000000      1.00000000      1.00000000      1.00000000      1.00000000      1.00000000      1.00000000      1.00000000      1.00000000      1.00000000      1.00000000      1.00000000      1.00000000      1.00000000      1.00000000      1.00000000
      1.00000000      1.00000000      1.00000000      1.00000000      1.00000000      1.00000000      1.00000000      1.00000000      1.00000000      1.00000000      1.00000000      1.00000000      1.00000000      1.00000000      1.00000000      1.00000000      1.00000000      1.00000000      1.00000000      1.00000000
      1.00000000      1.00000000      1.00000000      1.00000000      1.00000000      1.00000000      1.00000000      1.00000000      1.00000000      1.00000000      1.00000000      1.00000000      1.00000000      1.00000000      1.00000000      1.00000000      1.00000000      1.00000000      1.00000000      1.00000000
      1.00000000      1.00000000      1.00000000      1.00000000      1.00000000      1.00000000      1.00000000      1.00000000      1.00000000      1.00000000      1.00000000      1.00000000      1.00000000      1.00000000      1.00000000      1.00000000      1.00000000      1.00000000      1.00000000      1.00000000
      1.00000000      1.00000000      1.00000000      1.00000000      1.00000000      1.00000000      1.00000000      1.00000000      1.00000000      1.00000000      1.00000000      1.00000000      1.00000000      1.00000000      1.00000000      1.00000000      1.00000000      1.00000000      1.00000000      1.00000000
      1.00000000      1.00000000      1.00000000      1.00000000      1.00000000      1.00000000      1.00000000      1.00000000</v>
    <i name="NUPDOWN">     -1.00000000</i>
    <i type="logical" name="LSORBIT"> F  </i>
    <v name="SAXIS">      0.00000000      0.00000000      1.00000000</v>
    <i type="logical" name="LSPIRAL"> F  </i>
    <v name="QSPIRAL">      0.00000000      0.00000000      0.00000000</v>
    <i type="logical" name="LZEROZ"> F  </i>
   </separator>
   <separator name="electronic exchange-correlation" >
    <i type="logical" name="LASPH"> F  </i>
    <i type="logical" name="LMETAGGA"> F  </i>
   </separator>
   <separator name="electronic convergence" >
    <i type="int" name="NELM">   100</i>
    <i type="int" name="NELMDL">     0</i>
    <i type="int" name="NELMIN">     4</i>
    <i name="ENINI">    500.00000000</i>
    <separator name="electronic convergence detail" >
     <i type="logical" name="LDIAG"> T  </i>
     <i type="logical" name="LSUBROT"> F  </i>
     <i name="WEIMIN">      0.00100000</i>
     <i name="EBREAK">      0.00000000</i>
     <i name="DEPER">      0.30000000</i>
     <i type="int" name="NRMM">     4</i>
     <i name="TIME">      0.40000000</i>
    </separator>
   </separator>
   <separator name="electronic mixer" >
    <i name="AMIX">      0.40000000</i>
    <i name="BMIX">      1.00000000</i>
    <i name="AMIN">      0.10000000</i>
    <i name="AMIX_MAG">      1.60000000</i>
    <i name="BMIX_MAG">      1.00000000</i>
    <separator name="electronic mixer details" >
     <i type="int" name="IMIX">     4</i>
     <i type="logical" name="MIXFIRST"> F  </i>
     <i type="int" name="MAXMIX">   -45</i>
     <i name="WC">    100.00000000</i>
     <i type="int" name="INIMIX">     1</i>
     <i type="int" name="MIXPRE">     1</i>
     <i type="int" name="MREMOVE">     5</i>
    </separator>
   </separator>
   <separator name="electronic dipolcorrection" >
    <i type="logical" name="LDIPOL"> F  </i>
    <i type="logical" name="LMONO"> F  </i>
    <i type="int" name="IDIPOL">     0</i>
    <i name="EPSILON">      1.00000000</i>
    <v name="DIPOL">   -100.00000000   -100.00000000   -100.00000000</v>
    <i name="EFIELD">      0.00000000</i>
   </separator>
  </separator>
  <separator name="grids" >
   <i type="int" name="NGX">    72</i>
   <i type="int" name="NGY">    64</i>
   <i type="int" name="NGZ">   336</i>
   <i type="int" name="NGXF">   144</i>
   <i type="int" name="NGYF">   128</i>
   <i type="int" name="NGZF">   672</i>
   <i type="logical" name="ADDGRID"> F  </i>
  </separator>
  <separator name="ionic" >
   <i type="int" name="NSW">   500</i>
   <i type="int" name="IBRION">     2</i>
   <i type="int" name="MDALGO">     0</i>
   <i type="int" name="ISIF">     2</i>
   <i name="PSTRESS">      0.00000000</i>
   <i name="EDIFFG">      0.00010000</i>
   <i type="int" name="NFREE">     1</i>
   <i name="POTIM">      0.25000000</i>
   <i name="SMASS">     -3.00000000</i>
   <i name="SCALEE">      1.00000000</i>
  </separator>
  <separator name="ionic md" >
   <i name="TEBEG">      0.00010000</i>
   <i name="TEEND">      0.00010000</i>
   <i type="int" name="NBLOCK">     1</i>
   <i type="int" name="KBLOCK">   500</i>
   <i type="int" name="NPACO">   256</i>
   <i name="APACO">     16.00000000</i>
  </separator>
  <separator name="symmetry" >
   <i type="int" name="ISYM">     2</i>
   <i name="SYMPREC">      0.00001000</i>
  </separator>
  <separator name="dos" >
   <i type="int" name="LORBIT">     0</i>
   <v name="RWIGS">     -1.00000000     -1.00000000</v>
   <i type="int" name="NEDOS">   301</i>
   <i name="EMIN">     10.00000000</i>
   <i name="EMAX">    -10.00000000</i>
   <i name="EFERMI">      0.00000000</i>
  </separator>
  <separator name="writing" >
   <i type="int" name="NWRITE">     2</i>
   <i type="logical" name="LWAVE"> F  </i>
   <i type="logical" name="LDOWNSAMPLE"> F  </i>
   <i type="logical" name="LCHARG"> F  </i>
   <i type="logical" name="LPARD"> F  </i>
   <i type="logical" name="LVTOT"> F  </i>
   <i type="logical" name="LVHAR"> F  </i>
   <i type="logical" name="LELF"> F  </i>
   <i type="logical" name="LOPTICS"> F  </i>
   <v name="STM">      0.00000000      0.00000000      0.00000000      0.00000000      0.00000000      0.00000000      0.00000000</v>
  </separator>
  <separator name="performance" >
   <i type="int" name="NPAR">    10</i>
   <i type="int" name="NSIM">     4</i>
   <i type="int" name="NBLK">    -1</i>
   <i type="logical" name="LPLANE"> T  </i>
   <i type="logical" name="LSCALAPACK"> F  </i>
   <i type="logical" name="LSCAAWARE"> F  </i>
   <i type="logical" name="LSCALU"> F  </i>
   <i type="logical" name="LASYNC"> F  </i>
   <i type="logical" name="LORBITALREAL"> F  </i>
  </separator>
  <separator name="miscellaneous" >
   <i type="int" name="IDIOT">     3</i>
   <i type="int" name="ISPECIAL">     0</i>
   <i type="logical" name="LMUSIC"> F  </i>
   <v name="POMASS">     55.84700000     54.93800000</v>
   <v name="DARWINR">      0.00000000      0.00000000</v>
   <v name="DARWINV">      1.00000000      1.00000000</v>
   <i type="logical" name="LCORR"> T  </i>
  </separator>
  <i type="logical" name="GGA_COMPAT"> T  </i>
  <i type="logical" name="LBERRY"> F  </i>
  <i type="int" name="ICORELEVEL">     0</i>
  <i type="logical" name="LDAU"> F  </i>
  <i type="int" name="I_CONSTRAINED_M">     0</i>
  <separator name="electronic exchange-correlation" >
   <i type="string" name="GGA">--</i>
   <i type="int" name="VOSKOWN">     0</i>
   <i type="logical" name="LHFCALC"> F  </i>
   <i type="string" name="PRECFOCK"></i>
   <i type="logical" name="LSYMGRAD"> F  </i>
   <i type="logical" name="LHFONE"> F  </i>
   <i type="logical" name="LRHFCALC"> F  </i>
   <i type="logical" name="LTHOMAS"> F  </i>
   <i type="logical" name="LMODELHF"> F  </i>
   <i name="ENCUT4O">     -1.00000000</i>
   <i type="int" name="EXXOEP">     0</i>
   <i type="int" name="FOURORBIT">     0</i>
   <i name="AEXX">      0.00000000</i>
   <i name="HFALPHA">      0.00000000</i>
   <i name="MCALPHA">      0.00000000</i>
   <i name="ALDAX">      1.00000000</i>
   <i name="AGGAX">      1.00000000</i>
   <i name="ALDAC">      1.00000000</i>
   <i name="AGGAC">      1.00000000</i>
   <i type="int" name="NKREDX">     1</i>
   <i type="int" name="NKREDY">     1</i>
   <i type="int" name="NKREDZ">     1</i>
   <i type="logical" name="SHIFTRED"> F  </i>
   <i type="logical" name="ODDONLY"> F  </i>
   <i type="logical" name="EVENONLY"> F  </i>
   <i type="int" name="LMAXFOCK">     0</i>
   <i type="int" name="NMAXFOCKAE">     0</i>
   <i type="logical" name="LFOCKAEDFT"> F  </i>
   <i name="HFSCREEN">      0.00000000</i>
   <i name="HFSCREENC">      0.00000000</i>
   <i type="int" name="NBANDSGWLOW">     0</i>
  </separator>
  <separator name="vdW DFT" >
   <i type="logical" name="LUSE_VDW"> F  </i>
   <i name="Zab_VDW">     -0.84910000</i>
   <i name="PARAM1">      0.12340000</i>
   <i name="PARAM2">      1.00000000</i>
   <i name="PARAM3">      0.00000000</i>
  </separator>
  <separator name="model GW" >
   <i type="int" name="MODEL_GW">     0</i>
   <i name="MODEL_EPS0">      7.68123361</i>
   <i name="MODEL_ALPHA">      1.00000000</i>
  </separator>
  <separator name="linear response parameters" >
   <i type="logical" name="LEPSILON"> F  </i>
   <i type="logical" name="LRPA"> F  </i>
   <i type="logical" name="LNABLA"> F  </i>
   <i type="logical" name="LVEL"> F  </i>
   <i type="int" name="KINTER">     0</i>
   <i name="CSHIFT">      0.10000000</i>
   <i name="OMEGAMAX">     -1.00000000</i>
   <i name="DEG_THRESHOLD">      0.00200000</i>
   <i name="RTIME">     -0.10000000</i>
   <i name="WPLASMAI">      0.00000000</i>
   <v name="DFIELD">      0.00000000      0.00000000      0.00000000</v>
   <v name="WPLASMA">      0.00000000      0.00000000      0.00000000      0.00000000      0.00000000      0.00000000      0.00000000      0.00000000      0.00000000</v>
  </separator>
  <separator name="orbital magnetization" >
   <i type="logical" name="NUCIND"> F  </i>
   <v name="MAGPOS">      0.00000000      0.00000000      0.00000000</v>
   <i type="logical" name="LNICSALL"> T  </i>
   <i type="logical" name="ORBITALMAG"> F  </i>
   <i type="logical" name="LMAGBLOCH"> F  </i>
   <i type="logical" name="LCHIMAG"> F  </i>
   <i type="logical" name="LGAUGE"> T  </i>
   <i type="int" name="MAGATOM">     0</i>
   <v name="MAGDIPOL">      0.00000000      0.00000000      0.00000000</v>
   <v name="AVECCONST">      0.00000000      0.00000000      0.00000000</v>
  </separator>
  <separator name="response functions" >
   <i type="logical" name="LADDER"> F  </i>
   <i type="logical" name="LRPAFORCE"> F  </i>
   <i type="logical" name="LFXC"> F  </i>
   <i type="logical" name="LHARTREE"> T  </i>
   <i type="int" name="IBSE">     0</i>
   <v type="int" name="KPOINT">    -1     0     0     0</v>
   <i type="logical" name="LTCTE"> F  </i>
   <i type="logical" name="LTETE"> F  </i>
   <i type="logical" name="LTRIPLET"> F  </i>
   <i type="logical" name="LFXCEPS"> F  </i>
   <i type="logical" name="LFXHEG"> F  </i>
   <i type="int" name="NATURALO">     2</i>
   <i type="logical" name="L2ORDER"> F  </i>
   <i type="logical" name="LMP2LT"> F  </i>
   <i type="logical" name="LUSEW"> F  </i>
   <i name="ENCUTGW">     -2.00000000</i>
   <i name="ENCUTGWSOFT">     -2.00000000</i>
   <i name="ENCUTLF">     -1.00000000</i>
   <i type="int" name="LMAXMP2">    -1</i>
   <i name="SCISSOR">      0.00000000</i>
   <i type="int" name="NOMEGA">     0</i>
   <i type="int" name="NOMEGAR">     0</i>
   <i type="int" name="NBANDSGW">    -1</i>
   <i type="int" name="NBANDSO">    -1</i>
   <i type="int" name="NBANDSV">    -1</i>
   <i type="int" name="NELM">   100</i>
   <i type="int" name="NELMHF">     1</i>
   <i type="int" name="DIM">     3</i>
   <i type="int" name="ANTIRES">     0</i>
   <i name="OMEGAMAX">    -30.00000000</i>
   <i name="OMEGAMIN">    -30.00000000</i>
   <i name="OMEGATL">   -200.00000000</i>
   <i type="int" name="OMEGAGRID">   140</i>
   <i name="CSHIFT">     -0.10000000</i>
   <i type="logical" name="SELFENERGY"> F  </i>
   <i type="logical" name="LSPECTRAL"> F  </i>
   <i type="logical" name="LSPECTRALGW"> F  </i>
   <i type="logical" name="LSINGLES"> F  </i>
   <i type="logical" name="LFERMIGW"> F  </i>
   <i type="logical" name="ODDONLYGW"> F  </i>
   <i type="logical" name="EVENONLYGW"> F  </i>
   <i type="int" name="NKREDLFX">     1</i>
   <i type="int" name="NKREDLFY">     1</i>
   <i type="int" name="NKREDLFZ">     1</i>
   <i type="int" name="MAXMEM">  2800</i>
   <i type="int" name="TELESCOPE">     0</i>
   <i type="int" name="TAUPAR">     1</i>
   <i type="int" name="OMEGAPAR">    -1</i>
   <i name="LAMBDA">      1.00000000</i>
  </separator>
  <separator name="External order field" >
   <i name="OFIELD_KAPPA">      0.00000000</i>
   <v name="OFIELD_K">      0.00000000      0.00000000      0.00000000</v>
   <i name="OFIELD_Q6_NEAR">      0.00000000</i>
   <i name="OFIELD_Q6_FAR">      0.00000000</i>
   <i name="OFIELD_A">      0.00000000</i>
  </separator>
 </parameters>
 <atominfo>
  <atoms>     288 </atoms>
  <types>       2 </types>
  <array name="atoms" >
   <dimension dim="1">ion</dimension>
   <field type="string">element</field>
   <field type="int">atomtype</field>
   <set>
    <rc><c>Fe</c><c>   1</c></rc>
    <rc><c>Fe</c><c>   1</c></rc>
    <rc><c>Fe</c><c>   1</c></rc>
    <rc><c>Fe</c><c>   1</c></rc>
    <rc><c>Fe</c><c>   1</c></rc>
    <rc><c>Fe</c><c>   1</c></rc>
    <rc><c>Fe</c><c>   1</c></rc>
    <rc><c>Fe</c><c>   1</c></rc>
    <rc><c>Fe</c><c>   1</c></rc>
    <rc><c>Fe</c><c>   1</c></rc>
    <rc><c>Fe</c><c>   1</c></rc>
    <rc><c>Fe</c><c>   1</c></rc>
    <rc><c>Fe</c><c>   1</c></rc>
    <rc><c>Fe</c><c>   1</c></rc>
    <rc><c>Fe</c><c>   1</c></rc>
    <rc><c>Fe</c><c>   1</c></rc>
    <rc><c>Fe</c><c>   1</c></rc>
    <rc><c>Fe</c><c>   1</c></rc>
    <rc><c>Fe</c><c>   1</c></rc>
    <rc><c>Fe</c><c>   1</c></rc>
    <rc><c>Fe</c><c>   1</c></rc>
    <rc><c>Fe</c><c>   1</c></rc>
    <rc><c>Fe</c><c>   1</c></rc>
    <rc><c>Fe</c><c>   1</c></rc>
    <rc><c>Fe</c><c>   1</c></rc>
    <rc><c>Fe</c><c>   1</c></rc>
    <rc><c>Fe</c><c>   1</c></rc>
    <rc><c>Fe</c><c>   1</c></rc>
    <rc><c>Fe</c><c>   1</c></rc>
    <rc><c>Fe</c><c>   1</c></rc>
    <rc><c>Fe</c><c>   1</c></rc>
    <rc><c>Fe</c><c>   1</c></rc>
    <rc><c>Fe</c><c>   1</c></rc>
    <rc><c>Fe</c><c>   1</c></rc>
    <rc><c>Fe</c><c>   1</c></rc>
    <rc><c>Fe</c><c>   1</c></rc>
    <rc><c>Fe</c><c>   1</c></rc>
    <rc><c>Fe</c><c>   1</c></rc>
    <rc><c>Fe</c><c>   1</c></rc>
    <rc><c>Fe</c><c>   1</c></rc>
    <rc><c>Fe</c><c>   1</c></rc>
    <rc><c>Fe</c><c>   1</c></rc>
    <rc><c>Fe</c><c>   1</c></rc>
    <rc><c>Fe</c><c>   1</c></rc>
    <rc><c>Fe</c><c>   1</c></rc>
    <rc><c>Fe</c><c>   1</c></rc>
    <rc><c>Fe</c><c>   1</c></rc>
    <rc><c>Fe</c><c>   1</c></rc>
    <rc><c>Fe</c><c>   1</c></rc>
    <rc><c>Fe</c><c>   1</c></rc>
    <rc><c>Fe</c><c>   1</c></rc>
    <rc><c>Fe</c><c>   1</c></rc>
    <rc><c>Fe</c><c>   1</c></rc>
    <rc><c>Fe</c><c>   1</c></rc>
    <rc><c>Fe</c><c>   1</c></rc>
    <rc><c>Fe</c><c>   1</c></rc>
    <rc><c>Fe</c><c>   1</c></rc>
    <rc><c>Fe</c><c>   1</c></rc>
    <rc><c>Fe</c><c>   1</c></rc>
    <rc><c>Fe</c><c>   1</c></rc>
    <rc><c>Fe</c><c>   1</c></rc>
    <rc><c>Fe</c><c>   1</c></rc>
    <rc><c>Fe</c><c>   1</c></rc>
    <rc><c>Fe</c><c>   1</c></rc>
    <rc><c>Fe</c><c>   1</c></rc>
    <rc><c>Fe</c><c>   1</c></rc>
    <rc><c>Fe</c><c>   1</c></rc>
    <rc><c>Fe</c><c>   1</c></rc>
    <rc><c>Fe</c><c>   1</c></rc>
    <rc><c>Fe</c><c>   1</c></rc>
    <rc><c>Fe</c><c>   1</c></rc>
    <rc><c>Fe</c><c>   1</c></rc>
    <rc><c>Fe</c><c>   1</c></rc>
    <rc><c>Fe</c><c>   1</c></rc>
    <rc><c>Fe</c><c>   1</c></rc>
    <rc><c>Fe</c><c>   1</c></rc>
    <rc><c>Fe</c><c>   1</c></rc>
    <rc><c>Fe</c><c>   1</c></rc>
    <rc><c>Fe</c><c>   1</c></rc>
    <rc><c>Fe</c><c>   1</c></rc>
    <rc><c>Fe</c><c>   1</c></rc>
    <rc><c>Fe</c><c>   1</c></rc>
    <rc><c>Fe</c><c>   1</c></rc>
    <rc><c>Fe</c><c>   1</c></rc>
    <rc><c>Fe</c><c>   1</c></rc>
    <rc><c>Fe</c><c>   1</c></rc>
    <rc><c>Fe</c><c>   1</c></rc>
    <rc><c>Fe</c><c>   1</c></rc>
    <rc><c>Fe</c><c>   1</c></rc>
    <rc><c>Fe</c><c>   1</c></rc>
    <rc><c>Fe</c><c>   1</c></rc>
    <rc><c>Fe</c><c>   1</c></rc>
    <rc><c>Fe</c><c>   1</c></rc>
    <rc><c>Fe</c><c>   1</c></rc>
    <rc><c>Fe</c><c>   1</c></rc>
    <rc><c>Fe</c><c>   1</c></rc>
    <rc><c>Fe</c><c>   1</c></rc>
    <rc><c>Fe</c><c>   1</c></rc>
    <rc><c>Fe</c><c>   1</c></rc>
    <rc><c>Fe</c><c>   1</c></rc>
    <rc><c>Fe</c><c>   1</c></rc>
    <rc><c>Fe</c><c>   1</c></rc>
    <rc><c>Fe</c><c>   1</c></rc>
    <rc><c>Fe</c><c>   1</c></rc>
    <rc><c>Fe</c><c>   1</c></rc>
    <rc><c>Fe</c><c>   1</c></rc>
    <rc><c>Fe</c><c>   1</c></rc>
    <rc><c>Fe</c><c>   1</c></rc>
    <rc><c>Fe</c><c>   1</c></rc>
    <rc><c>Fe</c><c>   1</c></rc>
    <rc><c>Fe</c><c>   1</c></rc>
    <rc><c>Fe</c><c>   1</c></rc>
    <rc><c>Fe</c><c>   1</c></rc>
    <rc><c>Fe</c><c>   1</c></rc>
    <rc><c>Fe</c><c>   1</c></rc>
    <rc><c>Fe</c><c>   1</c></rc>
    <rc><c>Fe</c><c>   1</c></rc>
    <rc><c>Fe</c><c>   1</c></rc>
    <rc><c>Fe</c><c>   1</c></rc>
    <rc><c>Fe</c><c>   1</c></rc>
    <rc><c>Fe</c><c>   1</c></rc>
    <rc><c>Fe</c><c>   1</c></rc>
    <rc><c>Fe</c><c>   1</c></rc>
    <rc><c>Fe</c><c>   1</c></rc>
    <rc><c>Fe</c><c>   1</c></rc>
    <rc><c>Fe</c><c>   1</c></rc>
    <rc><c>Fe</c><c>   1</c></rc>
    <rc><c>Fe</c><c>   1</c></rc>
    <rc><c>Fe</c><c>   1</c></rc>
    <rc><c>Fe</c><c>   1</c></rc>
    <rc><c>Fe</c><c>   1</c></rc>
    <rc><c>Fe</c><c>   1</c></rc>
    <rc><c>Fe</c><c>   1</c></rc>
    <rc><c>Fe</c><c>   1</c></rc>
    <rc><c>Fe</c><c>   1</c></rc>
    <rc><c>Fe</c><c>   1</c></rc>
    <rc><c>Fe</c><c>   1</c></rc>
    <rc><c>Fe</c><c>   1</c></rc>
    <rc><c>Fe</c><c>   1</c></rc>
    <rc><c>Fe</c><c>   1</c></rc>
    <rc><c>Fe</c><c>   1</c></rc>
    <rc><c>Fe</c><c>   1</c></rc>
    <rc><c>Fe</c><c>   1</c></rc>
    <rc><c>Fe</c><c>   1</c></rc>
    <rc><c>Fe</c><c>   1</c></rc>
    <rc><c>Fe</c><c>   1</c></rc>
    <rc><c>Fe</c><c>   1</c></rc>
    <rc><c>Fe</c><c>   1</c></rc>
    <rc><c>Fe</c><c>   1</c></rc>
    <rc><c>Fe</c><c>   1</c></rc>
    <rc><c>Fe</c><c>   1</c></rc>
    <rc><c>Fe</c><c>   1</c></rc>
    <rc><c>Fe</c><c>   1</c></rc>
    <rc><c>Fe</c><c>   1</c></rc>
    <rc><c>Fe</c><c>   1</c></rc>
    <rc><c>Fe</c><c>   1</c></rc>
    <rc><c>Fe</c><c>   1</c></rc>
    <rc><c>Fe</c><c>   1</c></rc>
    <rc><c>Fe</c><c>   1</c></rc>
    <rc><c>Fe</c><c>   1</c></rc>
    <rc><c>Fe</c><c>   1</c></rc>
    <rc><c>Fe</c><c>   1</c></rc>
    <rc><c>Fe</c><c>   1</c></rc>
    <rc><c>Fe</c><c>   1</c></rc>
    <rc><c>Fe</c><c>   1</c></rc>
    <rc><c>Fe</c><c>   1</c></rc>
    <rc><c>Fe</c><c>   1</c></rc>
    <rc><c>Fe</c><c>   1</c></rc>
    <rc><c>Fe</c><c>   1</c></rc>
    <rc><c>Fe</c><c>   1</c></rc>
    <rc><c>Fe</c><c>   1</c></rc>
    <rc><c>Fe</c><c>   1</c></rc>
    <rc><c>Fe</c><c>   1</c></rc>
    <rc><c>Fe</c><c>   1</c></rc>
    <rc><c>Fe</c><c>   1</c></rc>
    <rc><c>Fe</c><c>   1</c></rc>
    <rc><c>Fe</c><c>   1</c></rc>
    <rc><c>Fe</c><c>   1</c></rc>
    <rc><c>Fe</c><c>   1</c></rc>
    <rc><c>Fe</c><c>   1</c></rc>
    <rc><c>Fe</c><c>   1</c></rc>
    <rc><c>Fe</c><c>   1</c></rc>
    <rc><c>Fe</c><c>   1</c></rc>
    <rc><c>Fe</c><c>   1</c></rc>
    <rc><c>Fe</c><c>   1</c></rc>
    <rc><c>Fe</c><c>   1</c></rc>
    <rc><c>Fe</c><c>   1</c></rc>
    <rc><c>Fe</c><c>   1</c></rc>
    <rc><c>Fe</c><c>   1</c></rc>
    <rc><c>Fe</c><c>   1</c></rc>
    <rc><c>Fe</c><c>   1</c></rc>
    <rc><c>Fe</c><c>   1</c></rc>
    <rc><c>Fe</c><c>   1</c></rc>
    <rc><c>Fe</c><c>   1</c></rc>
    <rc><c>Fe</c><c>   1</c></rc>
    <rc><c>Fe</c><c>   1</c></rc>
    <rc><c>Fe</c><c>   1</c></rc>
    <rc><c>Fe</c><c>   1</c></rc>
    <rc><c>Fe</c><c>   1</c></rc>
    <rc><c>Fe</c><c>   1</c></rc>
    <rc><c>Fe</c><c>   1</c></rc>
    <rc><c>Fe</c><c>   1</c></rc>
    <rc><c>Fe</c><c>   1</c></rc>
    <rc><c>Fe</c><c>   1</c></rc>
    <rc><c>Fe</c><c>   1</c></rc>
    <rc><c>Fe</c><c>   1</c></rc>
    <rc><c>Fe</c><c>   1</c></rc>
    <rc><c>Fe</c><c>   1</c></rc>
    <rc><c>Fe</c><c>   1</c></rc>
    <rc><c>Fe</c><c>   1</c></rc>
    <rc><c>Fe</c><c>   1</c></rc>
    <rc><c>Fe</c><c>   1</c></rc>
    <rc><c>Fe</c><c>   1</c></rc>
    <rc><c>Fe</c><c>   1</c></rc>
    <rc><c>Fe</c><c>   1</c></rc>
    <rc><c>Fe</c><c>   1</c></rc>
    <rc><c>Fe</c><c>   1</c></rc>
    <rc><c>Fe</c><c>   1</c></rc>
    <rc><c>Fe</c><c>   1</c></rc>
    <rc><c>Fe</c><c>   1</c></rc>
    <rc><c>Fe</c><c>   1</c></rc>
    <rc><c>Fe</c><c>   1</c></rc>
    <rc><c>Fe</c><c>   1</c></rc>
    <rc><c>Fe</c><c>   1</c></rc>
    <rc><c>Fe</c><c>   1</c></rc>
    <rc><c>Fe</c><c>   1</c></rc>
    <rc><c>Fe</c><c>   1</c></rc>
    <rc><c>Fe</c><c>   1</c></rc>
    <rc><c>Fe</c><c>   1</c></rc>
    <rc><c>Fe</c><c>   1</c></rc>
    <rc><c>Fe</c><c>   1</c></rc>
    <rc><c>Fe</c><c>   1</c></rc>
    <rc><c>Fe</c><c>   1</c></rc>
    <rc><c>Fe</c><c>   1</c></rc>
    <rc><c>Fe</c><c>   1</c></rc>
    <rc><c>Fe</c><c>   1</c></rc>
    <rc><c>Fe</c><c>   1</c></rc>
    <rc><c>Fe</c><c>   1</c></rc>
    <rc><c>Fe</c><c>   1</c></rc>
    <rc><c>Fe</c><c>   1</c></rc>
    <rc><c>Fe</c><c>   1</c></rc>
    <rc><c>Fe</c><c>   1</c></rc>
    <rc><c>Fe</c><c>   1</c></rc>
    <rc><c>Fe</c><c>   1</c></rc>
    <rc><c>Fe</c><c>   1</c></rc>
    <rc><c>Fe</c><c>   1</c></rc>
    <rc><c>Fe</c><c>   1</c></rc>
    <rc><c>Fe</c><c>   1</c></rc>
    <rc><c>Fe</c><c>   1</c></rc>
    <rc><c>Fe</c><c>   1</c></rc>
    <rc><c>Fe</c><c>   1</c></rc>
    <rc><c>Fe</c><c>   1</c></rc>
    <rc><c>Fe</c><c>   1</c></rc>
    <rc><c>Fe</c><c>   1</c></rc>
    <rc><c>Fe</c><c>   1</c></rc>
    <rc><c>Fe</c><c>   1</c></rc>
    <rc><c>Fe</c><c>   1</c></rc>
    <rc><c>Fe</c><c>   1</c></rc>
    <rc><c>Fe</c><c>   1</c></rc>
    <rc><c>Fe</c><c>   1</c></rc>
    <rc><c>Fe</c><c>   1</c></rc>
    <rc><c>Fe</c><c>   1</c></rc>
    <rc><c>Fe</c><c>   1</c></rc>
    <rc><c>Fe</c><c>   1</c></rc>
    <rc><c>Fe</c><c>   1</c></rc>
    <rc><c>Fe</c><c>   1</c></rc>
    <rc><c>Fe</c><c>   1</c></rc>
    <rc><c>Fe</c><c>   1</c></rc>
    <rc><c>Fe</c><c>   1</c></rc>
    <rc><c>Fe</c><c>   1</c></rc>
    <rc><c>Fe</c><c>   1</c></rc>
    <rc><c>Fe</c><c>   1</c></rc>
    <rc><c>Fe</c><c>   1</c></rc>
    <rc><c>Mn</c><c>   2</c></rc>
    <rc><c>Mn</c><c>   2</c></rc>
    <rc><c>Mn</c><c>   2</c></rc>
    <rc><c>Mn</c><c>   2</c></rc>
    <rc><c>Mn</c><c>   2</c></rc>
    <rc><c>Mn</c><c>   2</c></rc>
    <rc><c>Mn</c><c>   2</c></rc>
    <rc><c>Mn</c><c>   2</c></rc>
    <rc><c>Mn</c><c>   2</c></rc>
    <rc><c>Mn</c><c>   2</c></rc>
    <rc><c>Mn</c><c>   2</c></rc>
    <rc><c>Mn</c><c>   2</c></rc>
    <rc><c>Mn</c><c>   2</c></rc>
    <rc><c>Mn</c><c>   2</c></rc>
    <rc><c>Mn</c><c>   2</c></rc>
   </set>
  </array>
  <array name="atomtypes" >
   <dimension dim="1">type</dimension>
   <field type="int">atomspertype</field>
   <field type="string">element</field>
   <field>mass</field>
   <field>valence</field>
   <field type="string">pseudopotential</field>
   <set>
    <rc><c> 273</c><c>Fe</c><c>     55.84700000</c><c>      8.00000000</c><c>  PAW_PBE Fe_GW 31Mar2010               </c></rc>
    <rc><c>  15</c><c>Mn</c><c>     54.93800000</c><c>      7.00000000</c><c>  PAW_PBE Mn_GW 31Mar2010               </c></rc>
   </set>
  </array>
 </atominfo>
 <structure name="initialpos" >
  <crystal>
   <varray name="basis" >
    <v>       9.72667800       0.00000000       0.00000000 </v>
    <v>       0.00000000       8.42355000       0.00000000 </v>
    <v>       0.00000000       0.00000000      45.00000000 </v>
   </varray>
   <i name="volume">   3686.99213101 </i>
   <varray name="rec_basis" >
    <v>       0.10281002       0.00000000       0.00000000 </v>
    <v>       0.00000000       0.11871479       0.00000000 </v>
    <v>       0.00000000       0.00000000       0.02222222 </v>
   </varray>
  </crystal>
  <varray name="positions" >
   <v>       0.06160483       0.70395395       0.47951227 </v>
   <v>       0.56359113       0.86718469       0.30140283 </v>
   <v>       0.31080410       0.69951830       0.34669198 </v>
   <v>       0.93773728       0.29642231       0.74177562 </v>
   <v>       0.81510431       0.54084077       0.61138020 </v>
   <v>       0.18715810       0.46715558       0.83372683 </v>
   <v>       0.81254526       0.35854959       0.17231573 </v>
   <v>       0.81273681       0.69429944       0.21289193 </v>
   <v>       0.56165373       0.21940206       0.83323388 </v>
   <v>       0.18496918       0.95366676       0.21282665 </v>
   <v>       0.69048959       0.45742159       0.47929811 </v>
   <v>       0.81337323       0.86900328       0.30024670 </v>
   <v>       0.43556277       0.12100036       0.43434602 </v>
   <v>       0.68571808       0.27858807       0.11728523 </v>
   <v>       0.55855852       0.70066023       0.34621055 </v>
   <v>       0.93810549       0.12017365       0.30026279 </v>
   <v>       0.68821680       0.96098648       0.69825124 </v>
   <v>       0.06218992       0.21159461       0.69792623 </v>
   <v>       0.81639176       0.20627845       0.47895703 </v>
   <v>       0.30836708       0.03692999       0.25545298 </v>
   <v>       0.80830851       0.04462584       0.87841570 </v>
   <v>       0.81352873       0.70309971       0.34628141 </v>
   <v>       0.18617484       0.29687534       0.74214900 </v>
   <v>       0.43601750       0.46083436       0.69844646 </v>
   <v>       0.18417748       0.45976312       0.47988521 </v>
   <v>       0.68918302       0.12657704       0.65518244 </v>
   <v>       0.31206194       0.04579906       0.74225979 </v>
   <v>       0.56282826       0.20836826       0.69838672 </v>
   <v>       0.06412635       0.38078308       0.78529034 </v>
   <v>       0.43576165       0.79729793       0.74204024 </v>
   <v>       0.93909440       0.12791980       0.65494757 </v>
   <v>       0.81486354       0.20164620       0.21350009 </v>
   <v>       0.06466259       0.21145480       0.56582503 </v>
   <v>       0.18867208       0.62919543       0.78512525 </v>
   <v>       0.30981687       0.53809941       0.38999222 </v>
   <v>       0.31037444       0.54216068       0.61081381 </v>
   <v>       0.30971808       0.04002272       0.61177142 </v>
   <v>       0.31159142       0.21971169       0.83368579 </v>
   <v>       0.94068258       0.30693840       0.87879361 </v>
   <v>       0.69208525       0.78165687       0.25519455 </v>
   <v>       0.56261514       0.70453554       0.47945834 </v>
   <v>       0.56258993       0.20614961       0.47902912 </v>
   <v>       0.06431833       0.70069506       0.56590047 </v>
   <v>       0.68737318       0.63055595       0.78537375 </v>
   <v>       0.43455850       0.46069706       0.56611361 </v>
   <v>       0.81570480       0.37722866       0.65430283 </v>
   <v>       0.06465433       0.88083747       0.78527948 </v>
   <v>       0.06484083       0.03447058       0.39045299 </v>
   <v>       0.56341538       0.54179848       0.61106595 </v>
   <v>       0.31202611       0.38096435       0.78567582 </v>
   <v>       0.43860109       0.78407681       0.25565528 </v>
   <v>       0.43361899       0.45714032       0.47951206 </v>
   <v>       0.43744544       0.27618369       0.11740755 </v>
   <v>       0.06169385       0.20813896       0.47884487 </v>
   <v>       0.94069800       0.95287400       0.56571312 </v>
   <v>       0.30921425       0.87215503       0.43436282 </v>
   <v>       0.93959225       0.28281423       0.25487567 </v>
   <v>       0.18926302       0.13184294       0.78537167 </v>
   <v>       0.43373621       0.28635462       0.39000410 </v>
   <v>       0.06319804       0.35622349       0.17245939 </v>
   <v>       0.81461510       0.21000251       0.69807179 </v>
   <v>       0.68857196       0.29385303       0.74211239 </v>
   <v>       0.56081911       0.54015078       0.39017986 </v>
   <v>       0.68658935       0.95029320       0.34614682 </v>
   <v>       0.93934860       0.61452007       0.30004406 </v>
   <v>       0.43665088       0.29414372       0.74228144 </v>
   <v>       0.93940866       0.29744366       0.61188901 </v>
   <v>       0.06680796       0.70171472       0.34679745 </v>
   <v>       0.43680100       0.29451342       0.61143042 </v>
   <v>       0.94024357       0.95176403       0.34661248 </v>
   <v>       0.43518201       0.62032421       0.43408036 </v>
   <v>       0.81365512       0.19823937       0.34539808 </v>
   <v>       0.56792018       0.52548045       0.25553856 </v>
   <v>       0.18509199       0.46186993       0.69836442 </v>
   <v>       0.43622659       0.78770997       0.61140874 </v>
   <v>       0.18704844       0.78596364       0.39008255 </v>
   <v>       0.18904709       0.45224771       0.34662436 </v>
   <v>       0.31339314       0.71782995       0.83318111 </v>
   <v>       0.68453938       0.45325972       0.34595313 </v>
   <v>       0.56066217       0.20906545       0.56563029 </v>
   <v>       0.43838924       0.44186878       0.21212221 </v>
   <v>       0.56161418       0.87057106       0.52201241 </v>
   <v>       0.18686081       0.95242146       0.56601173 </v>
   <v>       0.81383673       0.20976052       0.56564564 </v>
   <v>       0.18702270       0.12262180       0.52150282 </v>
   <v>       0.30943292       0.20036173       0.34645659 </v>
   <v>       0.06312017       0.03650543       0.25515351 </v>
   <v>       0.30721056       0.70386534       0.47980757 </v>
   <v>       0.56335258       0.35988414       0.17166620 </v>
   <v>       0.81470969       0.02197033       0.11760668 </v>
   <v>       0.81410887       0.03538757       0.25534786 </v>
   <v>       0.81221050       0.72049880       0.83354475 </v>
   <v>       0.19070653       0.96914193       0.83188048 </v>
   <v>       0.18442492       0.12638508       0.65487151 </v>
   <v>       0.94023612       0.78575405       0.61180098 </v>
   <v>       0.69035114       0.46036991       0.69821141 </v>
   <v>       0.56300140       0.71312913       0.69812571 </v>
   <v>       0.06251128       0.86666710       0.52145397 </v>
   <v>       0.06226447       0.70918334       0.69834257 </v>
   <v>       0.30863655       0.02515401       0.11738342 </v>
   <v>       0.93992344       0.11996162       0.43504483 </v>
   <v>       0.30896495       0.70221264       0.56594125 </v>
   <v>       0.43810529       0.95172481       0.21150316 </v>
   <v>       0.68679026       0.97058785       0.83342424 </v>
   <v>       0.93730572       0.44272497       0.21369506 </v>
   <v>       0.68813355       0.12257136       0.52132377 </v>
   <v>       0.06084953       0.37711499       0.65439956 </v>
   <v>       0.81212003       0.22020664       0.83318434 </v>
   <v>       0.56272863       0.52409569       0.11717710 </v>
   <v>       0.43620954       0.62773721       0.65443287 </v>
   <v>       0.18448001       0.61562687       0.30129265 </v>
   <v>       0.56257537       0.04614697       0.74192030 </v>
   <v>       0.43705993       0.10890566       0.17194016 </v>
   <v>       0.18139680       0.44049646       0.21316115 </v>
   <v>       0.19340485       0.30934433       0.87839234 </v>
   <v>       0.43777013       0.96076661       0.69821344 </v>
   <v>       0.56473999       0.19911675       0.21299528 </v>
   <v>       0.93901654       0.62905323       0.78519467 </v>
   <v>       0.31048914       0.87729163       0.65483042 </v>
   <v>       0.30970721       0.37237313       0.43423965 </v>
   <v>       0.81340062       0.38007494       0.78520575 </v>
   <v>       0.80937396       0.86022580       0.17204727 </v>
   <v>       0.31093450       0.71141654       0.69825551 </v>
   <v>       0.93957769       0.46042884       0.69824036 </v>
   <v>       0.69005441       0.28309659       0.25525295 </v>
   <v>       0.06206116       0.04606291       0.74199069 </v>
   <v>       0.06230247       0.54573976       0.74167712 </v>
   <v>       0.56695203       0.69717118       0.21150356 </v>
   <v>       0.43592919       0.13075032       0.78531670 </v>
   <v>       0.93184006       0.79858322       0.87855066 </v>
   <v>       0.93751951       0.77909254       0.11661648 </v>
   <v>       0.68878099       0.78583408       0.61180792 </v>
   <v>       0.93804426       0.78067792       0.25544552 </v>
   <v>       0.81628956       0.87079798       0.43460653 </v>
   <v>       0.81537078       0.55782023       0.87874513 </v>
   <v>       0.06266731       0.52481420       0.11696771 </v>
   <v>       0.94189352       0.45198024       0.34576049 </v>
   <v>       0.18253019       0.28071015       0.25517112 </v>
   <v>       0.43662275       0.11933752       0.30086988 </v>
   <v>       0.93879081       0.27764509       0.11808506 </v>
   <v>       0.18438580       0.62650237       0.65425242 </v>
   <v>       0.05987826       0.52658274       0.25536742 </v>
   <v>       0.19031568       0.60477125       0.17169530 </v>
   <v>       0.68776063       0.28730698       0.39040188 </v>
   <v>       0.93812365       0.79592400       0.74164782 </v>
   <v>       0.18780376       0.95985455       0.69807280 </v>
   <v>       0.06554165       0.02401786       0.11867078 </v>
   <v>       0.68665874       0.60961769       0.17215692 </v>
   <v>       0.81523293       0.71121004       0.69813820 </v>
   <v>       0.68532292       0.80173568       0.87917991 </v>
   <v>       0.18802272       0.28683256       0.38992346 </v>
   <v>       0.56116827       0.88108243       0.78534157 </v>
   <v>       0.56270237       0.03983940       0.61216428 </v>
   <v>       0.06715305       0.19939423       0.34592929 </v>
   <v>       0.43364765       0.62099125       0.52240876 </v>
   <v>       0.55560326       0.55327160       0.87914493 </v>
   <v>       0.68879489       0.46081443       0.56634350 </v>
   <v>       0.18577942       0.78761852       0.61121402 </v>
   <v>       0.18662131       0.11024446       0.17189725 </v>
   <v>       0.94137262       0.46020073       0.47935691 </v>
   <v>       0.56381688       0.36595751       0.30014301 </v>
   <v>       0.68862418       0.12109987       0.43445936 </v>
   <v>       0.18873143       0.95209685       0.34677067 </v>
   <v>       0.81541727       0.54568141       0.74164173 </v>
   <v>       0.43794949       0.77874247       0.11669435 </v>
   <v>       0.43529340       0.30480889       0.87859652 </v>
   <v>       0.68660501       0.13151607       0.78527530 </v>
   <v>       0.18420908       0.95360218       0.47867997 </v>
   <v>       0.31221576       0.20966338       0.69831657 </v>
   <v>       0.31187559       0.88043845       0.78535481 </v>
   <v>       0.06548796       0.53913680       0.39042761 </v>
   <v>       0.43593496       0.46790805       0.83358349 </v>
   <v>       0.68682021       0.46804942       0.83294603 </v>
   <v>       0.43492705       0.95510982       0.47919141 </v>
   <v>       0.43421686       0.45488858       0.34623997 </v>
   <v>       0.94080479       0.62154425       0.52155935 </v>
   <v>       0.19171134       0.79521035       0.87904462 </v>
   <v>       0.68674192       0.95365109       0.56562013 </v>
   <v>       0.06218678       0.86794702       0.30061214 </v>
   <v>       0.93657822       0.95209157       0.21271785 </v>
   <v>       0.31041272       0.21031962       0.56551331 </v>
   <v>       0.18559067       0.46189201       0.56579095 </v>
   <v>       0.43849845       0.28018347       0.25563522 </v>
   <v>       0.93581897       0.96877576       0.83230164 </v>
   <v>       0.56149425       0.87213670       0.43437618 </v>
   <v>       0.30950096       0.54609062       0.74222692 </v>
   <v>       0.56191189       0.37245586       0.43439552 </v>
   <v>       0.18494809       0.29536724       0.61167734 </v>
   <v>       0.93994347       0.95347033       0.47900962 </v>
   <v>       0.93898349       0.46689649       0.83324435 </v>
   <v>       0.31969166       0.05288338       0.87825253 </v>
   <v>       0.81235123       0.52504092       0.11752198 </v>
   <v>       0.31470334       0.86223030       0.17126660 </v>
   <v>       0.06161704       0.20122038       0.21363424 </v>
   <v>       0.06325869       0.37710961       0.52180452 </v>
   <v>       0.68979313       0.29648599       0.61204692 </v>
   <v>       0.18569680       0.12001046       0.43436265 </v>
   <v>       0.81578976       0.86856108       0.52124578 </v>
   <v>       0.56320439       0.37558299       0.65450311 </v>
   <v>       0.18558074       0.61997798       0.52200043 </v>
   <v>       0.94055151       0.78557782       0.39033541 </v>
   <v>       0.43443913       0.95006784       0.34624086 </v>
   <v>       0.43609849       0.96939829       0.83310231 </v>
   <v>       0.81604556       0.37550239       0.52170894 </v>
   <v>       0.55950327       0.20048888       0.34548547 </v>
   <v>       0.68908699       0.94867486       0.21256380 </v>
   <v>       0.56149742       0.38035261       0.78554897 </v>
   <v>       0.06205946       0.54167315       0.61099224 </v>
   <v>       0.56085623       0.71982037       0.83433965 </v>
   <v>       0.69064260       0.62741934       0.65423639 </v>
   <v>       0.68964671       0.62055499       0.43457529 </v>
   <v>       0.55946299       0.04643009       0.87878562 </v>
   <v>       0.56034660       0.70242887       0.56635144 </v>
   <v>       0.69223491       0.44426427       0.21322140 </v>
   <v>       0.06158249       0.87666143       0.65447068 </v>
   <v>       0.18238042       0.78439967       0.25591641 </v>
   <v>       0.31074470       0.86682270       0.30155726 </v>
   <v>       0.06486817       0.54933024       0.87878348 </v>
   <v>       0.81605830       0.70128444       0.56614317 </v>
   <v>       0.81540917       0.52792651       0.25480441 </v>
   <v>       0.93786641       0.62580796       0.65421263 </v>
   <v>       0.81311260       0.88142731       0.78527811 </v>
   <v>       0.18605505       0.11923617       0.30075531 </v>
   <v>       0.43935839       0.60885163       0.17142572 </v>
   <v>       0.30748786       0.52543290       0.25540897 </v>
   <v>       0.31249769       0.52184586       0.11874283 </v>
   <v>       0.94026448       0.28619959       0.39040939 </v>
   <v>       0.56380703       0.85872742       0.17177329 </v>
   <v>       0.81240551       0.04633533       0.74182631 </v>
   <v>       0.56126620       0.02416534       0.11788411 </v>
   <v>       0.30945169       0.37681356       0.52222771 </v>
   <v>       0.30927982       0.20788702       0.47894133 </v>
   <v>       0.93521622       0.60624458       0.17247686 </v>
   <v>       0.81278957       0.36548243       0.29961428 </v>
   <v>       0.18832639       0.27611069       0.11855283 </v>
   <v>       0.81371914       0.54031135       0.39101094 </v>
   <v>       0.43596371       0.62956280       0.78568097 </v>
   <v>       0.06343232       0.86428458       0.17165131 </v>
   <v>       0.18639143       0.78146981       0.11697623 </v>
   <v>       0.68886646       0.79797643       0.74182159 </v>
   <v>       0.30914515       0.37583341       0.65450964 </v>
   <v>       0.56092201       0.37464683       0.52219234 </v>
   <v>       0.31057050       0.36429642       0.30125440 </v>
   <v>       0.81466822       0.37270374       0.43478414 </v>
   <v>       0.06098045       0.05279838       0.87847486 </v>
   <v>       0.18549932       0.62131450       0.43437228 </v>
   <v>       0.06345387       0.22320646       0.83203200 </v>
   <v>       0.31241274       0.35871252       0.17162459 </v>
   <v>       0.30941579       0.03687520       0.39011519 </v>
   <v>       0.81827294       0.70455111       0.47947006 </v>
   <v>       0.06336773       0.37236760       0.43477203 </v>
   <v>       0.31029018       0.69718963       0.21115752 </v>
   <v>       0.68866939       0.10807972       0.17222758 </v>
   <v>       0.93958954       0.62128168       0.43476682 </v>
   <v>       0.68749448       0.61475934       0.30039097 </v>
   <v>       0.68826394       0.77661159       0.11704521 </v>
   <v>       0.06214831       0.36600021       0.29994110 </v>
   <v>       0.68853043       0.12090165       0.30017825 </v>
   <v>       0.56515535       0.03677092       0.25533531 </v>
   <v>       0.31552627       0.54776656       0.87864544 </v>
   <v>       0.56176720       0.54550009       0.74230942 </v>
   <v>       0.93934568       0.11070649       0.17214839 </v>
   <v>       0.06251929       0.87157159       0.43469601 </v>
   <v>       0.18647276       0.79576564       0.74200278 </v>
   <v>       0.56117472       0.03551021       0.39060976 </v>
   <v>       0.93921398       0.13196273       0.78515054 </v>
   <v>       0.81457933       0.03428450       0.39045876 </v>
   <v>       0.94065991       0.46198939       0.56635666 </v>
   <v>       0.81408981       0.87494134       0.65485127 </v>
   <v>       0.30990988       0.86806179       0.52202718 </v>
   <v>       0.56263774       0.87703408       0.65490694 </v>
   <v>       0.06209848       0.71742349       0.83373992 </v>
   <v>       0.44044872       0.79983163       0.87932893 </v>
   <v>       0.81533402       0.03996789       0.61232466 </v>
   <v>       0.69104498       0.95533536       0.47925862 </v>
   <v>       0.43596731       0.12482356       0.65488927 </v>
   <v>       0.43935705       0.61583420       0.30276071 </v>
   <v>       0.43340624       0.78437953       0.38952224 </v>
   <v>       0.68872673       0.78471851       0.39023683 </v>
   <v>       0.30677642       0.19943471       0.21349079 </v>
   <v>       0.06339341       0.03959879       0.61242565 </v>
   <v>       0.05844214       0.69243542       0.21379538 </v>
   <v>       0.93907273       0.12168113       0.52095023 </v>
   <v>       0.43597173       0.12247492       0.52184130 </v>
   <v>       0.68153476       0.30140789       0.87959726 </v>
   <v>       0.68998418       0.62205675       0.52176814 </v>
   <v>       0.43486919       0.95425467       0.56579133 </v>
   <v>       0.93782390       0.96050142       0.69761393 </v>
  </varray>
 </structure>
 <calculation>
  <scstep>
   <time name="dav">  147.10  147.10</time>
   <time name="total">  147.55  147.55</time>
   <energy>
    <i name="alphaZ">  16277.55763135 </i>
    <i name="ewald"> 717222.68741987 </i>
    <i name="hartreedc">-907669.82421216 </i>
    <i name="XCdc">  -6537.12897025 </i>
    <i name="pawpsdc"> 162148.49262465 </i>
    <i name="pawaedc">-159453.03229289 </i>
    <i name="eentropy">     -0.97141822 </i>
    <i name="bandstr">  39772.23157901 </i>
    <i name="atom"> 168497.18126305 </i>
    <i name="e_fr_energy">  30257.19362441 </i>
    <i name="e_wo_entrp">  30258.16504262 </i>
    <i name="e_0_energy">  30257.67933352 </i>
   </energy>
  </scstep>
  <scstep>
   <time name="dav">  138.87  138.87</time>
   <time name="total">  138.88  138.87</time>
   <energy>
    <i name="e_fr_energy">   1513.15386171 </i>
    <i name="e_wo_entrp">   1514.53091133 </i>
    <i name="e_0_energy">   1513.84238652 </i>
   </energy>
  </scstep>
  <scstep>
   <time name="dav">  175.36  175.36</time>
   <time name="total">  175.37  175.36</time>
   <energy>
    <i name="e_fr_energy">  -1900.96240034 </i>
    <i name="e_wo_entrp">  -1897.32232177 </i>
    <i name="e_0_energy">  -1899.14236105 </i>
   </energy>
  </scstep>
  <scstep>
   <time name="dav">  218.59  218.58</time>
   <time name="total">  218.59  218.58</time>
   <energy>
    <i name="e_fr_energy">  -2609.26332741 </i>
    <i name="e_wo_entrp">  -2605.71544277 </i>
    <i name="e_0_energy">  -2607.48938509 </i>
   </energy>
  </scstep>
  <scstep>
   <time name="dav">  208.82  208.82</time>
   <time name="total">  213.62  213.61</time>
   <energy>
    <i name="e_fr_energy">  -2738.42094502 </i>
    <i name="e_wo_entrp">  -2734.77892254 </i>
    <i name="e_0_energy">  -2736.59993378 </i>
   </energy>
  </scstep>
  <scstep>
   <time name="diag">   29.50   29.50</time>
   <time name="diis">   78.92   78.92</time>
   <time name="orth">    9.54    9.54</time>
   <time name="total">  122.68  122.68</time>
   <energy>
    <i name="e_fr_energy"> -12919.80555485 </i>
    <i name="e_wo_entrp"> -12918.41364046 </i>
    <i name="e_0_energy"> -12919.10959765 </i>
   </energy>
  </scstep>
  <scstep>
   <time name="diag">   30.62   30.62</time>
   <time name="diis">   78.78   78.77</time>
   <time name="orth">    9.07    9.07</time>
   <time name="total">  123.30  123.30</time>
   <energy>
    <i name="e_fr_energy"> -17689.37693376 </i>
    <i name="e_wo_entrp"> -17687.83377047 </i>
    <i name="e_0_energy"> -17688.60535211 </i>
   </energy>
  </scstep>
  <scstep>
[...]
    <v>       0.81252286       0.87595284       0.65422425 </v>
    <v>       0.31176363       0.87247096       0.52155491 </v>
    <v>       0.56261292       0.87625630       0.65424007 </v>
    <v>       0.06222648       0.71710919       0.83280700 </v>
    <v>       0.43743771       0.80089252       0.87541699 </v>
    <v>       0.81220066       0.04136245       0.61032025 </v>
    <v>       0.68802722       0.95539236       0.47889074 </v>
    <v>       0.43746419       0.12583847       0.65413447 </v>
    <v>       0.43748405       0.61609547       0.30169739 </v>
    <v>       0.43653907       0.78615155       0.39005844 </v>
    <v>       0.68843646       0.78681998       0.39017439 </v>
    <v>       0.31241353       0.19671121       0.21233258 </v>
    <v>       0.06299429       0.04146346       0.61027289 </v>
    <v>       0.06176212       0.69531780       0.21200375 </v>
    <v>       0.93760282       0.12284917       0.52129038 </v>
    <v>       0.43723204       0.12245277       0.52141781 </v>
    <v>       0.68784822       0.30075401       0.87523808 </v>
    <v>       0.68750174       0.62272479       0.52141364 </v>
    <v>       0.43710309       0.95542821       0.56572150 </v>
    <v>       0.93743088       0.96110901       0.69889321 </v>
   </varray>
  </structure>
  <varray name="forces" >
   <v>       0.01319100       0.08653465      -0.02567942 </v>
   <v>      -0.00468496      -0.04331218      -0.18302389 </v>
   <v>      -0.03894831       0.02145102      -0.20978315 </v>
   <v>       0.02257472       0.01238140      -0.05880625 </v>
   <v>      -0.02475322      -0.00985906       0.01017976 </v>
   <v>      -0.00448303      -0.04292152       0.02922037 </v>
   <v>      -0.00539834       0.00252647       0.07113766 </v>
   <v>       0.03225924       0.08229612      -0.03850473 </v>
   <v>       0.02804938      -0.02368280       0.08460820 </v>
   <v>       0.01513714      -0.06817521      -0.01434701 </v>
   <v>      -0.04146289      -0.03860736       0.00970137 </v>
   <v>      -0.01562843      -0.01030008      -0.12476533 </v>
   <v>      -0.00868608       0.00337761       0.07016868 </v>
   <v>      -0.01368132       0.04609198       0.23030092 </v>
   <v>       0.07423666       0.00512898      -0.19426212 </v>
   <v>      -0.01485739      -0.02566309      -0.11162389 </v>
   <v>       0.00512275      -0.00155697       0.04570619 </v>
   <v>       0.01851974       0.02110838       0.06199905 </v>
   <v>      -0.03140700      -0.04403092       0.00868050 </v>
   <v>       0.00894772      -0.12965870       0.02082415 </v>
   <v>      -0.01477889      -0.01700827      -0.17595762 </v>
   <v>       0.04150118      -0.01224223      -0.16726011 </v>
   <v>       0.00399770       0.00088528      -0.05333787 </v>
   <v>       0.00786918       0.00776053       0.03367865 </v>
   <v>       0.02048690       0.00291528      -0.01360614 </v>
   <v>       0.00452640       0.02507678       0.04931454 </v>
   <v>      -0.03267483       0.00172474      -0.03091328 </v>
   <v>      -0.00891428       0.06394406       0.04367021 </v>
   <v>      -0.01463752      -0.00959626      -0.02304813 </v>
   <v>       0.01269603      -0.02498129      -0.02310788 </v>
   <v>      -0.01695446       0.01418056       0.04913947 </v>
   <v>      -0.03052206      -0.04133479      -0.09495750 </v>
   <v>      -0.02594428      -0.06640868       0.00604193 </v>
   <v>      -0.00970147       0.02418527      -0.03049695 </v>
   <v>       0.00400727      -0.03287918       0.07345265 </v>
   <v>       0.02056914      -0.02121285       0.06438365 </v>
   <v>      -0.01348100       0.02124864      -0.00451497 </v>
   <v>       0.02012029      -0.06663442       0.04037731 </v>
   <v>      -0.03931137       0.00245971      -0.14895575 </v>
   <v>      -0.03351356       0.01607138       0.02491510 </v>
   <v>       0.02503661       0.03906818      -0.04266686 </v>
   <v>      -0.03801053      -0.10368381       0.05689107 </v>
   <v>      -0.01487762       0.08534869       0.00625069 </v>
   <v>       0.00096544       0.02524333      -0.04472037 </v>
   <v>       0.02279820      -0.06317212      -0.01124103 </v>
   <v>      -0.03133232      -0.00050736       0.10955569 </v>
   <v>      -0.00314504       0.01052252      -0.02855692 </v>
   <v>      -0.01763769       0.02653881       0.02044045 </v>
   <v>      -0.01145984      -0.02160639       0.05220600 </v>
   <v>       0.00610221       0.01693081      -0.04768328 </v>
   <v>      -0.01958859      -0.02918860       0.01816802 </v>
   <v>       0.02846018      -0.04343395       0.01282265 </v>
   <v>       0.03589540       0.07117788       0.22125177 </v>
   <v>       0.02965431      -0.06786586      -0.03888908 </v>
   <v>      -0.00579976       0.08092061       0.02961484 </v>
   <v>       0.02409836      -0.00470905       0.06909267 </v>
   <v>      -0.00764234      -0.02620426       0.03999480 </v>
   <v>      -0.02194178      -0.02341504      -0.04695080 </v>
   <v>       0.01504299      -0.01785012       0.03665786 </v>
   <v>       0.01397939       0.00283038       0.03229292 </v>
   <v>      -0.00098099       0.03330015       0.04413254 </v>
   <v>      -0.01352289       0.04090740      -0.05907647 </v>
   <v>       0.02427377      -0.02744513       0.03962049 </v>
   <v>       0.03795631       0.03949358      -0.16370984 </v>
   <v>      -0.00647962       0.02980324      -0.11156828 </v>
   <v>      -0.01105275       0.03281369      -0.05280130 </v>
   <v>      -0.01077978      -0.05570779      -0.02464584 </v>
   <v>      -0.07801333      -0.00255608      -0.19850499 </v>
   <v>       0.00228247      -0.04279984       0.02151121 </v>
   <v>      -0.02673753       0.03185263      -0.16890510 </v>
   <v>      -0.01188254       0.00149082       0.05016627 </v>
   <v>       0.00089082       0.02438771      -0.14442037 </v>
   <v>      -0.07665010       0.09347167       0.02663207 </v>
   <v>       0.02125203       0.00496742       0.04347934 </v>
   <v>       0.02241437       0.06117988       0.03341194 </v>
   <v>      -0.01221309       0.01634690       0.03563398 </v>
   <v>      -0.06946001      -0.03890590      -0.18588399 </v>
   <v>      -0.00547510       0.01703081       0.04408823 </v>
   <v>       0.08206450      -0.04126025      -0.14441978 </v>
   <v>       0.02601114      -0.04915943      -0.00787016 </v>
   <v>      -0.00675629       0.04052799      -0.09137574 </v>
   <v>      -0.00210894       0.07348144      -0.06847721 </v>
   <v>      -0.01598042       0.08686687       0.04522989 </v>
   <v>       0.02762660      -0.05604022       0.01547475 </v>
   <v>       0.02509440       0.01270842      -0.01637105 </v>
   <v>       0.01413868      -0.00565090      -0.15754743 </v>
   <v>      -0.00216304      -0.09102999       0.02952855 </v>
   <v>       0.03373258       0.06372815      -0.05016716 </v>
   <v>      -0.01841037      -0.01513156       0.07567022 </v>
   <v>       0.00908839       0.02739234       0.20741388 </v>
   <v>      -0.00643276      -0.07908372       0.01777045 </v>
   <v>       0.00479257      -0.02674135       0.05519599 </v>
   <v>      -0.03179780      -0.02778893       0.11711820 </v>
   <v>       0.00447088       0.02883678       0.07529935 </v>
   <v>      -0.02997008       0.08687301      -0.00316577 </v>
   <v>      -0.02735090       0.02013822       0.04985315 </v>
   <v>      -0.00029849      -0.04491993       0.04326556 </v>
   <v>      -0.05972071      -0.01110565      -0.01352010 </v>
   <v>       0.00335048      -0.01511942       0.04788907 </v>
   <v>      -0.00954221       0.00485096       0.19841118 </v>
   <v>       0.01335459       0.01655065       0.04397777 </v>
   <v>       0.01872738       0.05847331      -0.00982909 </v>
   <v>      -0.00123075      -0.08602396      -0.06776034 </v>
   <v>       0.02236590      -0.02915265       0.08571875 </v>
   <v>      -0.00272271       0.05565685      -0.03659218 </v>
   <v>      -0.04624118       0.05069649      -0.03054391 </v>
   <v>       0.02979426       0.00629739       0.10634327 </v>
   <v>      -0.00358769      -0.04378535       0.10221761 </v>
   <v>      -0.00436030       0.01458647       0.22835967 </v>
   <v>      -0.00914562      -0.03999115       0.10373394 </v>
   <v>       0.00885665       0.03040052      -0.18728249 </v>
   <v>      -0.00038684      -0.01002327      -0.04049970 </v>
   <v>       0.03862210       0.02102837       0.07534946 </v>
   <v>       0.05773941       0.07994801      -0.07073253 </v>
   <v>       0.01876885       0.00359869      -0.10237866 </v>
   <v>      -0.01669570      -0.00110922       0.04822628 </v>
   <v>       0.04021385      -0.02226310      -0.01191169 </v>
   <v>      -0.00680653       0.01708458      -0.03144509 </v>
   <v>      -0.00133428      -0.00730299       0.05977491 </v>
   <v>      -0.00460172       0.00962591       0.02590685 </v>
   <v>      -0.00993187       0.02149241      -0.04160380 </v>
   <v>       0.05438268       0.04428977       0.16000459 </v>
   <v>       0.00333939      -0.02816412       0.03148579 </v>
   <v>      -0.01237452       0.01289627       0.05656573 </v>
   <v>      -0.05118875      -0.02113503       0.02794885 </v>
   <v>       0.00983113       0.01034256      -0.05544308 </v>
   <v>      -0.00301299       0.00247100      -0.04183626 </v>
   <v>      -0.05252895       0.00639708      -0.13363566 </v>
   <v>      -0.00206642       0.00384218      -0.02925602 </v>
   <v>       0.01697287      -0.03613147      -0.15799632 </v>
   <v>       0.02158638      -0.00167711       0.18386307 </v>
   <v>      -0.00944167       0.08069153      -0.00032253 </v>
   <v>       0.00670199       0.03710712       0.01126080 </v>
   <v>      -0.02307714      -0.00563521       0.07284433 </v>
   <v>       0.01145314      -0.03018964      -0.18263491 </v>
   <v>       0.00545510      -0.02096568       0.19466932 </v>
   <v>      -0.03455234      -0.02146474      -0.16813376 </v>
   <v>       0.05120052      -0.01474773       0.04823321 </v>
   <v>       0.01281029      -0.04193650      -0.13937895 </v>
   <v>      -0.00694020       0.07291236       0.20584036 </v>
   <v>       0.03594401      -0.02486343       0.10824113 </v>
   <v>       0.06362522       0.08830022       0.04094102 </v>
   <v>      -0.01062664      -0.00441146       0.09939062 </v>
   <v>       0.03210082      -0.00842514      -0.00274881 </v>
   <v>      -0.01374851       0.00422286      -0.01449356 </v>
   <v>      -0.00999175       0.01206533       0.05133981 </v>
   <v>       0.01035763       0.06526202       0.19922220 </v>
   <v>       0.02183544      -0.00257123       0.14356985 </v>
   <v>      -0.01371908      -0.03533211       0.06694921 </v>
   <v>       0.01019068      -0.00421398      -0.15543215 </v>
   <v>      -0.02344147      -0.01741693       0.05979710 </v>
   <v>       0.00565538       0.00261100      -0.01620527 </v>
   <v>       0.02654983       0.00932633       0.00030755 </v>
   <v>      -0.05348341       0.01731875      -0.15251736 </v>
   <v>      -0.03791878      -0.01327398      -0.04186785 </v>
   <v>      -0.02058238      -0.03322930      -0.17709691 </v>
   <v>       0.00950742      -0.06369055      -0.00853035 </v>
   <v>       0.01091617       0.07120381       0.02063844 </v>
   <v>      -0.02186034       0.02961454      -0.00177074 </v>
   <v>      -0.00998152      -0.06113659      -0.02647238 </v>
   <v>      -0.00972359       0.02662037      -0.12460957 </v>
   <v>       0.00077735      -0.00328565       0.06088702 </v>
   <v>      -0.02684466       0.03626011      -0.18062314 </v>
   <v>      -0.02575570       0.02443586      -0.07290115 </v>
   <v>      -0.02664102       0.00063042       0.21124646 </v>
   <v>       0.03072380      -0.01146886      -0.15224222 </v>
   <v>       0.00656498      -0.01087514      -0.03005575 </v>
   <v>       0.04107450       0.08730107      -0.05939458 </v>
   <v>      -0.01389850       0.05156300       0.04427640 </v>
   <v>      -0.02335239       0.00634489      -0.01733582 </v>
   <v>      -0.03039181      -0.03790964       0.01702931 </v>
   <v>       0.03555490      -0.00664669       0.03617664 </v>
   <v>      -0.00482646      -0.02901440       0.08016706 </v>
   <v>       0.00467693       0.05074100       0.00479510 </v>
   <v>       0.02888339      -0.06140288      -0.18434463 </v>
   <v>       0.01674468       0.01122257      -0.00263448 </v>
   <v>      -0.00157948      -0.04318224      -0.15025982 </v>
   <v>       0.02818849       0.06389488       0.04864752 </v>
   <v>      -0.01071686      -0.02188314      -0.15846158 </v>
   <v>      -0.01934946      -0.03402060      -0.03212046 </v>
   <v>      -0.02013466      -0.04864422       0.00693444 </v>
   <v>       0.00368015      -0.06710992      -0.01699389 </v>
   <v>       0.00382714       0.00644189       0.03288718 </v>
   <v>       0.03707346      -0.00702465       0.11361611 </v>
   <v>      -0.02339906      -0.00286155       0.08186507 </v>
   <v>       0.02777424      -0.00269312      -0.07329390 </v>
   <v>      -0.00495965       0.00858126       0.03248912 </v>
   <v>       0.00617664      -0.04625775       0.01390873 </v>
   <v>       0.02342238       0.02383247       0.00529714 </v>
   <v>      -0.02523849      -0.04141410       0.08548256 </v>
   <v>       0.03459667      -0.00191264      -0.12561569 </v>
   <v>       0.00278835      -0.00613918       0.22499671 </v>
   <v>      -0.06452715       0.00493382       0.16261447 </v>
   <v>      -0.02891766      -0.04509436      -0.05667757 </v>
   <v>       0.00711794      -0.02692951       0.02031432 </v>
   <v>      -0.00237862      -0.06068722       0.01500847 </v>
   <v>      -0.00574322       0.00177910       0.07402628 </v>
   <v>      -0.00223675       0.00130543       0.00393533 </v>
   <v>      -0.02310220       0.01404945       0.10920760 </v>
   <v>       0.02748135      -0.05236514      -0.03150332 </v>
   <v>       0.00440247      -0.00229551      -0.03316328 </v>
   <v>       0.01907562       0.03909764      -0.16949783 </v>
   <v>      -0.00865096      -0.01788970       0.05863540 </v>
   <v>      -0.03300539      -0.03700812       0.00513905 </v>
   <v>       0.04389669      -0.00191120      -0.12428001 </v>
   <v>       0.02206080      -0.01747956      -0.02409288 </v>
   <v>       0.00505208       0.03949030      -0.05411444 </v>
   <v>       0.00841633      -0.01221229       0.03613734 </v>
   <v>       0.00556182      -0.03236062       0.01005185 </v>
   <v>      -0.02954158      -0.03553850       0.10920293 </v>
   <v>      -0.03028639      -0.01511972       0.05204957 </v>
   <v>       0.00976760       0.00360853      -0.16333678 </v>
   <v>       0.02910072       0.05626571       0.02513130 </v>
   <v>      -0.03353220       0.02550517      -0.05690455 </v>
   <v>       0.01717420      -0.00476938       0.06345343 </v>
   <v>       0.04486789      -0.01778602      -0.00448881 </v>
   <v>       0.03490256      -0.03986259      -0.17597643 </v>
   <v>       0.00339160      -0.03766441      -0.15829788 </v>
   <v>      -0.02802466       0.08339983       0.00146570 </v>
   <v>      -0.03969093       0.09015342       0.05030005 </v>
   <v>       0.00562780      -0.01434210       0.12233092 </v>
   <v>       0.01426336       0.00061868      -0.01597411 </v>
   <v>      -0.00738481      -0.03686442      -0.14407667 </v>
   <v>      -0.06413410      -0.05525949       0.10237803 </v>
   <v>       0.04560995       0.07903034       0.03309495 </v>
   <v>       0.00571909       0.00293922       0.29668263 </v>
   <v>      -0.01840045      -0.01758372       0.00255653 </v>
   <v>       0.01436899       0.05470129       0.16745506 </v>
   <v>       0.02848905      -0.01943282      -0.01711140 </v>
   <v>       0.00137554       0.02858768       0.24041593 </v>
   <v>       0.04490879      -0.03169722      -0.00445853 </v>
   <v>       0.04673951      -0.10157879       0.01738551 </v>
   <v>       0.02437055       0.01976217       0.09021196 </v>
   <v>       0.02150257       0.00293301      -0.08368359 </v>
   <v>      -0.01366012       0.04430065       0.23376761 </v>
   <v>       0.00102203      -0.04972745      -0.01941052 </v>
   <v>       0.01021152       0.03700454      -0.03826077 </v>
   <v>      -0.00581378      -0.00081098       0.11039735 </v>
   <v>      -0.00499230       0.01684524       0.22825919 </v>
   <v>       0.01330229      -0.02525962      -0.01926085 </v>
   <v>       0.02923010       0.02355325       0.10643203 </v>
   <v>      -0.01733884      -0.03766257      -0.02955573 </v>
   <v>      -0.00380465       0.02699482      -0.16096439 </v>
   <v>       0.01222293      -0.02457096       0.02035218 </v>
   <v>      -0.02500372      -0.02141772      -0.14935111 </v>
   <v>       0.02722367      -0.02159961       0.04700823 </v>
   <v>      -0.02944291      -0.09566603       0.09701246 </v>
   <v>      -0.00207406       0.02716841      -0.00117025 </v>
   <v>       0.00235905       0.00514013       0.05791692 </v>
   <v>      -0.07129861       0.07117454      -0.02961195 </v>
   <v>      -0.00504959      -0.02247063       0.02553436 </v>
   <v>      -0.03164067       0.03805432      -0.06723273 </v>
   <v>      -0.00590321       0.01743123       0.06857777 </v>
   <v>       0.00892606      -0.03825423       0.02219197 </v>
   <v>      -0.00476684       0.03746880      -0.17109579 </v>
   <v>       0.00029201      -0.01000054       0.18747758 </v>
   <v>      -0.00707846      -0.00185966      -0.06510010 </v>
   <v>       0.01065016      -0.04563038      -0.12447359 </v>
   <v>      -0.00096430      -0.08784543       0.03070079 </v>
   <v>      -0.01091293      -0.01460939      -0.14277273 </v>
   <v>       0.00890681       0.01240729      -0.05566615 </v>
   <v>      -0.02225786       0.00580358       0.03120202 </v>
   <v>       0.02113902       0.00030207       0.06757749 </v>
   <v>      -0.00801243       0.00977118      -0.03266854 </v>
   <v>       0.00861511       0.03171715       0.02545177 </v>
   <v>       0.00710868      -0.02997943      -0.03864693 </v>
   <v>      -0.00170299       0.03029470      -0.01124801 </v>
   <v>      -0.02550442      -0.08940083      -0.00153562 </v>
   <v>       0.00214216       0.00419532       0.03491672 </v>
   <v>       0.06803410       0.01510348      -0.03318068 </v>
   <v>      -0.00517297      -0.00683898       0.03963230 </v>
   <v>       0.01171295       0.00707329       0.06176225 </v>
   <v>      -0.01684791      -0.01173284      -0.13722398 </v>
   <v>       0.00155837       0.01207626      -0.01343705 </v>
   <v>      -0.07500925       0.00667894      -0.00421921 </v>
   <v>       0.00711229       0.03607252       0.04825304 </v>
   <v>      -0.00005369       0.04784390      -0.22767650 </v>
   <v>      -0.00314109       0.01867660       0.04658519 </v>
   <v>       0.01485660      -0.00349731      -0.00513587 </v>
   <v>       0.02644283      -0.00820980      -0.06108344 </v>
   <v>      -0.02086436       0.02073724      -0.02258181 </v>
   <v>       0.04873888       0.07654025       0.02864326 </v>
   <v>      -0.02822063      -0.00585800       0.04588310 </v>
   <v>       0.04000213       0.03345436      -0.05957378 </v>
   <v>      -0.02160894      -0.01817726      -0.18517613 </v>
   <v>      -0.00549478       0.01220238      -0.03022122 </v>
   <v>       0.00049390       0.06009347       0.00856714 </v>
   <v>       0.01300596       0.00006558       0.06625597 </v>
  </varray>
  <varray name="stress" >
   <v>      -9.96632354      -0.01682427       0.04094758 </v>
   <v>      -0.01682467      -4.83796237      -6.67100909 </v>
   <v>       0.04094779      -6.67100972     -33.36313635 </v>
  </varray>
  <energy>
   <i name="e_fr_energy">  -2325.38877362 </i>
   <i name="e_wo_entrp">  -2322.58361814 </i>
   <i name="e_0_energy">     -5.61031096 </i>
  </energy>
  <time name="totalsc"> 3231.57 3231.53</time>
 </calculation>
