unknown system                          
            1
     9.726678    0.000000    0.000000
     0.000000    8.423550    0.000000
     0.000000    0.000000   45.000000
   Fe   Mn
 273  15
Direct configuration=     1
   0.06160483  0.70395395  0.47951227
   0.56359113  0.86718469  0.30140283
   0.31080410  0.69951830  0.34669198
   0.93773728  0.29642231  0.74177562
   0.81510431  0.54084077  0.61138020
   0.18715810  0.46715558  0.83372683
   0.81254526  0.35854959  0.17231573
   0.81273681  0.69429944  0.21289193
   0.56165373  0.21940206  0.83323388
   0.18496918  0.95366676  0.21282665
   0.69048959  0.45742159  0.47929811
   0.81337323  0.86900328  0.30024670
   0.43556277  0.12100036  0.43434602
   0.68571808  0.27858807  0.11728523
   0.55855852  0.70066023  0.34621055
   0.93810549  0.12017365  0.30026279
   0.68821680  0.96098648  0.69825124
   0.06218992  0.21159461  0.69792623
   0.81639176  0.20627845  0.47895703
   0.30836708  0.03692999  0.25545298
   0.80830851  0.04462584  0.87841570
   0.81352873  0.70309971  0.34628141
   0.18617484  0.29687534  0.74214900
   0.43601750  0.46083436  0.69844646
   0.18417748  0.45976312  0.47988521
   0.68918302  0.12657704  0.65518244
   0.31206194  0.04579906  0.74225979
   0.56282826  0.20836826  0.69838672
   0.06412635  0.38078308  0.78529034
   0.43576165  0.79729793  0.74204024
   0.93909440  0.12791980  0.65494757
   0.81486354  0.20164620  0.21350009
   0.06466259  0.21145480  0.56582503
   0.18867208  0.62919543  0.78512525
   0.30981687  0.53809941  0.38999222
   0.31037444  0.54216068  0.61081381
   0.30971808  0.04002272  0.61177142
   0.31159142  0.21971169  0.83368579
   0.94068258  0.30693840  0.87879361
   0.69208525  0.78165687  0.25519455
   0.56261514  0.70453554  0.47945834
   0.56258993  0.20614961  0.47902912
   0.06431833  0.70069506  0.56590047
   0.68737318  0.63055595  0.78537375
   0.43455850  0.46069706  0.56611361
   0.81570480  0.37722866  0.65430283
   0.06465433  0.88083747  0.78527948
   0.06484083  0.03447058  0.39045299
   0.56341538  0.54179848  0.61106595
   0.31202611  0.38096435  0.78567582
   0.43860109  0.78407681  0.25565528
   0.43361899  0.45714032  0.47951206
   0.43744544  0.27618369  0.11740755
   0.06169385  0.20813896  0.47884487
   0.94069800  0.95287400  0.56571312
   0.30921425  0.87215503  0.43436282
   0.93959225  0.28281423  0.25487567
   0.18926302  0.13184294  0.78537167
   0.43373621  0.28635462  0.39000410
   0.06319804  0.35622349  0.17245939
   0.81461510  0.21000251  0.69807179
   0.68857196  0.29385303  0.74211239
   0.56081911  0.54015078  0.39017986
   0.68658935  0.95029320  0.34614682
   0.93934860  0.61452007  0.30004406
   0.43665088  0.29414372  0.74228144
   0.93940866  0.29744366  0.61188901
   0.06680796  0.70171472  0.34679745
   0.43680100  0.29451342  0.61143042
   0.94024357  0.95176403  0.34661248
   0.43518201  0.62032421  0.43408036
   0.81365512  0.19823937  0.34539808
   0.56792018  0.52548045  0.25553856
   0.18509199  0.46186993  0.69836442
   0.43622659  0.78770997  0.61140874
   0.18704844  0.78596364  0.39008255
   0.18904709  0.45224771  0.34662436
   0.31339314  0.71782995  0.83318111
   0.68453938  0.45325972  0.34595313
   0.56066217  0.20906545  0.56563029
   0.43838924  0.44186878  0.21212221
   0.56161418  0.87057106  0.52201241
   0.18686081  0.95242146  0.56601173
   0.81383673  0.20976052  0.56564564
   0.18702270  0.12262180  0.52150282
   0.30943292  0.20036173  0.34645659
   0.06312017  0.03650543  0.25515351
   0.30721056  0.70386534  0.47980757
   0.56335258  0.35988414  0.17166620
   0.81470969  0.02197033  0.11760668
   0.81410887  0.03538757  0.25534786
   0.81221050  0.72049880  0.83354475
   0.19070653  0.96914193  0.83188048
   0.18442492  0.12638508  0.65487151
   0.94023612  0.78575405  0.61180098
   0.69035114  0.46036991  0.69821141
   0.56300140  0.71312913  0.69812571
   0.06251128  0.86666710  0.52145397
   0.06226447  0.70918334  0.69834257
   0.30863655  0.02515401  0.11738342
   0.93992344  0.11996162  0.43504483
   0.30896495  0.70221264  0.56594125
   0.43810529  0.95172481  0.21150316
   0.68679026  0.97058785  0.83342424
   0.93730572  0.44272497  0.21369506
   0.68813355  0.12257136  0.52132377
   0.06084953  0.37711499  0.65439956
   0.81212003  0.22020664  0.83318434
   0.56272863  0.52409569  0.11717710
   0.43620954  0.62773721  0.65443287
   0.18448001  0.61562687  0.30129265
   0.56257537  0.04614697  0.74192030
   0.43705993  0.10890566  0.17194016
   0.18139680  0.44049646  0.21316115
   0.19340485  0.30934433  0.87839234
   0.43777013  0.96076661  0.69821344
   0.56473999  0.19911675  0.21299528
   0.93901654  0.62905323  0.78519467
   0.31048914  0.87729163  0.65483042
   0.30970721  0.37237313  0.43423965
   0.81340062  0.38007494  0.78520575
   0.80937396  0.86022580  0.17204727
   0.31093450  0.71141654  0.69825551
   0.93957769  0.46042884  0.69824036
   0.69005441  0.28309659  0.25525295
   0.06206116  0.04606291  0.74199069
   0.06230247  0.54573976  0.74167712
   0.56695203  0.69717118  0.21150356
   0.43592919  0.13075032  0.78531670
   0.93184006  0.79858322  0.87855066
   0.93751951  0.77909254  0.11661648
   0.68878099  0.78583408  0.61180792
   0.93804426  0.78067792  0.25544552
   0.81628956  0.87079798  0.43460653
   0.81537078  0.55782023  0.87874513
   0.06266731  0.52481420  0.11696771
   0.94189352  0.45198024  0.34576049
   0.18253019  0.28071015  0.25517112
   0.43662275  0.11933752  0.30086988
   0.93879081  0.27764509  0.11808506
   0.18438580  0.62650237  0.65425242
   0.05987826  0.52658274  0.25536742
   0.19031568  0.60477125  0.17169530
   0.68776063  0.28730698  0.39040188
   0.93812365  0.79592400  0.74164782
   0.18780376  0.95985455  0.69807280
   0.06554165  0.02401786  0.11867078
   0.68665874  0.60961769  0.17215692
   0.81523293  0.71121004  0.69813820
   0.68532292  0.80173568  0.87917991
   0.18802272  0.28683256  0.38992346
   0.56116827  0.88108243  0.78534157
   0.56270237  0.03983940  0.61216428
   0.06715305  0.19939423  0.34592929
   0.43364765  0.62099125  0.52240876
   0.55560326  0.55327160  0.87914493
   0.68879489  0.46081443  0.56634350
   0.18577942  0.78761852  0.61121402
   0.18662131  0.11024446  0.17189725
   0.94137262  0.46020073  0.47935691
   0.56381688  0.36595751  0.30014301
   0.68862418  0.12109987  0.43445936
   0.18873143  0.95209685  0.34677067
   0.81541727  0.54568141  0.74164173
   0.43794949  0.77874247  0.11669435
   0.43529340  0.30480889  0.87859652
   0.68660501  0.13151607  0.78527530
   0.18420908  0.95360218  0.47867997
   0.31221576  0.20966338  0.69831657
   0.31187559  0.88043845  0.78535481
   0.06548796  0.53913680  0.39042761
   0.43593496  0.46790805  0.83358349
   0.68682021  0.46804942  0.83294603
   0.43492705  0.95510982  0.47919141
   0.43421686  0.45488858  0.34623997
   0.94080479  0.62154425  0.52155935
   0.19171134  0.79521035  0.87904462
   0.68674192  0.95365109  0.56562013
   0.06218678  0.86794702  0.30061214
   0.93657822  0.95209157  0.21271785
   0.31041272  0.21031962  0.56551331
   0.18559067  0.46189201  0.56579095
   0.43849845  0.28018347  0.25563522
   0.93581897  0.96877576  0.83230164
   0.56149425  0.87213670  0.43437618
   0.30950096  0.54609062  0.74222692
   0.56191189  0.37245586  0.43439552
   0.18494809  0.29536724  0.61167734
   0.93994347  0.95347033  0.47900962
   0.93898349  0.46689649  0.83324435
   0.31969166  0.05288338  0.87825253
   0.81235123  0.52504092  0.11752198
   0.31470334  0.86223030  0.17126660
   0.06161704  0.20122038  0.21363424
   0.06325869  0.37710961  0.52180452
   0.68979313  0.29648599  0.61204692
   0.18569680  0.12001046  0.43436265
   0.81578976  0.86856108  0.52124578
   0.56320439  0.37558299  0.65450311
   0.18558074  0.61997798  0.52200043
   0.94055151  0.78557782  0.39033541
   0.43443913  0.95006784  0.34624086
   0.43609849  0.96939829  0.83310231
   0.81604556  0.37550239  0.52170894
   0.55950327  0.20048888  0.34548547
   0.68908699  0.94867486  0.21256380
   0.56149742  0.38035261  0.78554897
   0.06205946  0.54167315  0.61099224
   0.56085623  0.71982037  0.83433965
   0.69064260  0.62741934  0.65423639
   0.68964671  0.62055499  0.43457529
   0.55946299  0.04643009  0.87878562
   0.56034660  0.70242887  0.56635144
   0.69223491  0.44426427  0.21322140
   0.06158249  0.87666143  0.65447068
   0.18238042  0.78439967  0.25591641
   0.31074470  0.86682270  0.30155726
   0.06486817  0.54933024  0.87878348
   0.81605830  0.70128444  0.56614317
   0.81540917  0.52792651  0.25480441
   0.93786641  0.62580796  0.65421263
   0.81311260  0.88142731  0.78527811
   0.18605505  0.11923617  0.30075531
   0.43935839  0.60885163  0.17142572
   0.30748786  0.52543290  0.25540897
   0.31249769  0.52184586  0.11874283
   0.94026448  0.28619959  0.39040939
   0.56380703  0.85872742  0.17177329
   0.81240551  0.04633533  0.74182631
   0.56126620  0.02416534  0.11788411
   0.30945169  0.37681356  0.52222771
   0.30927982  0.20788702  0.47894133
   0.93521622  0.60624458  0.17247686
   0.81278957  0.36548243  0.29961428
   0.18832639  0.27611069  0.11855283
   0.81371914  0.54031135  0.39101094
   0.43596371  0.62956280  0.78568097
   0.06343232  0.86428458  0.17165131
   0.18639143  0.78146981  0.11697623
   0.68886646  0.79797643  0.74182159
   0.30914515  0.37583341  0.65450964
   0.56092201  0.37464683  0.52219234
   0.31057050  0.36429642  0.30125440
   0.81466822  0.37270374  0.43478414
   0.06098045  0.05279838  0.87847486
   0.18549932  0.62131450  0.43437228
   0.06345387  0.22320646  0.83203200
   0.31241274  0.35871252  0.17162459
   0.30941579  0.03687520  0.39011519
   0.81827294  0.70455111  0.47947006
   0.06336773  0.37236760  0.43477203
   0.31029018  0.69718963  0.21115752
   0.68866939  0.10807972  0.17222758
   0.93958954  0.62128168  0.43476682
   0.68749448  0.61475934  0.30039097
   0.68826394  0.77661159  0.11704521
   0.06214831  0.36600021  0.29994110
   0.68853043  0.12090165  0.30017825
   0.56515535  0.03677092  0.25533531
   0.31552627  0.54776656  0.87864544
   0.56176720  0.54550009  0.74230942
   0.93934568  0.11070649  0.17214839
   0.06251929  0.87157159  0.43469601
   0.18647276  0.79576564  0.74200278
   0.56117472  0.03551021  0.39060976
   0.93921398  0.13196273  0.78515054
   0.81457933  0.03428450  0.39045876
   0.94065991  0.46198939  0.56635666
   0.81408981  0.87494134  0.65485127
   0.30990988  0.86806179  0.52202718
   0.56263774  0.87703408  0.65490694
   0.06209848  0.71742349  0.83373992
   0.44044872  0.79983163  0.87932893
   0.81533402  0.03996789  0.61232466
   0.69104498  0.95533536  0.47925862
   0.43596731  0.12482356  0.65488927
   0.43935705  0.61583420  0.30276071
   0.43340624  0.78437953  0.38952224
   0.68872673  0.78471851  0.39023683
   0.30677642  0.19943471  0.21349079
   0.06339341  0.03959879  0.61242565
   0.05844214  0.69243542  0.21379538
   0.93907273  0.12168113  0.52095023
   0.43597173  0.12247492  0.52184130
   0.68153476  0.30140789  0.87959726
   0.68998418  0.62205675  0.52176814
   0.43486919  0.95425467  0.56579133
   0.93782390  0.96050142  0.69761393
Direct configuration=     2
   0.06231216  0.70458542  0.47923041
   0.56333495  0.86703741  0.30137262
   0.31095159  0.70007170  0.34636427
   0.93772120  0.29644020  0.74191857
   0.81411368  0.54082078  0.61108850
   0.18730957  0.46747922  0.83383479
   0.81242584  0.35897501  0.17095084
   0.81267354  0.69549936  0.21290257
   0.56204316  0.21927952  0.83341521
   0.18572918  0.95107086  0.21287162
   0.68937518  0.45642688  0.47918327
   0.81296720  0.86863098  0.30052546
   0.43610562  0.12117162  0.43452119
   0.68595981  0.27876929  0.11805296
   0.56000103  0.70094182  0.34601053
   0.93774502  0.11927426  0.30056414
   0.68805566  0.96093208  0.69828251
   0.06250432  0.21161613  0.69810750
   0.81510735  0.20626549  0.47887277
   0.30957197  0.03501332  0.25615314
   0.80871654  0.04590148  0.87783857
   0.81347871  0.70260993  0.34607587
   0.18650525  0.29681116  0.74222845
   0.43650638  0.46080679  0.69840186
   0.18556603  0.45823232  0.47949578
   0.68878796  0.12681684  0.65496453
   0.31201558  0.04578072  0.74230253
   0.56272938  0.20932920  0.69838275
   0.06380964  0.38105445  0.78572790
   0.43626662  0.79661174  0.74217061
   0.93845090  0.12787167  0.65477750
   0.81382452  0.19978020  0.21330423
   0.06400940  0.21004007  0.56571087
   0.18844563  0.62958621  0.78563232
   0.31054431  0.53739585  0.39010525
   0.31125045  0.54165768  0.61078883
   0.31047641  0.04045915  0.61137471
   0.31189571  0.21932434  0.83378814
   0.93994163  0.30613687  0.87814350
   0.69071813  0.78174213  0.25603756
   0.56215766  0.70457488  0.47929665
   0.56243617  0.20615932  0.47890761
   0.06369749  0.70284839  0.56580231
   0.68746806  0.63078357  0.78577314
   0.43549096  0.45917882  0.56605488
   0.81447771  0.37700971  0.65436835
   0.06403891  0.88080400  0.78574844
   0.06402221  0.03525944  0.39037147
   0.56313427  0.54138530  0.61094072
   0.31225793  0.38102142  0.78606936
   0.43827501  0.78347195  0.25626582
   0.43460005  0.45665052  0.47928474
   0.43715252  0.27678825  0.11815632
   0.06242093  0.20784275  0.47881140
   0.93978573  0.95403803  0.56568677
   0.31014412  0.87194828  0.43454768
   0.93897244  0.28210086  0.25597818
   0.18884478  0.13161520  0.78583136
   0.43474345  0.28609240  0.39009552
   0.06292430  0.35750780  0.17106238
   0.81406274  0.21041273  0.69817133
   0.68827591  0.29457398  0.74220033
   0.56140751  0.53927652  0.39021780
   0.68698060  0.95090202  0.34601099
   0.93881553  0.61532815  0.30034296
   0.43675011  0.29473062  0.74232693
   0.93875584  0.29562619  0.61141345
   0.06518768  0.70159142  0.34647554
   0.43716933  0.29342925  0.61118995
   0.93932869  0.95187016  0.34638522
   0.43566995  0.62050717  0.43430287
   0.81325470  0.19917661  0.34540686
   0.56633520  0.52753256  0.25617122
   0.18597135  0.46166376  0.69833718
   0.43678524  0.78898945  0.61117427
   0.18716229  0.78629385  0.39017044
   0.18823957  0.45172104  0.34635310
   0.31329381  0.71798812  0.83330533
   0.68556375  0.45255371  0.34585656
   0.56126476  0.20816302  0.56566909
   0.43822539  0.44337689  0.21236784
   0.56205664  0.87129497  0.52193436
   0.18677306  0.95385426  0.56587885
   0.81347508  0.20872112  0.56561165
   0.18691791  0.12205161  0.52157904
   0.31040397  0.20052786  0.34623493
   0.06296181  0.03459425  0.25600791
   0.30905311  0.70437323  0.47947302
   0.56347391  0.35999816  0.17041238
   0.81437627  0.02284891  0.11838744
   0.81367089  0.03394403  0.25614816
   0.81209893  0.72025413  0.83362976
   0.19008588  0.96881656  0.83207649
   0.18509797  0.12676312  0.65480002
   0.93937770  0.78759333  0.61140987
   0.68949308  0.46055635  0.69824796
   0.56299859  0.71211714  0.69816904
   0.06284708  0.86875523  0.52159906
   0.06242080  0.70929327  0.69835463
   0.30904060  0.02533765  0.11815182
   0.93921259  0.12038298  0.43502362
   0.30992697  0.70381409  0.56586462
   0.43777911  0.95001834  0.21203300
   0.68688216  0.97018228  0.83356632
   0.93726826  0.44414559  0.21338150
   0.68817216  0.12250098  0.52147483
   0.06149864  0.37707311  0.65442771
   0.81177019  0.21986442  0.83339277
   0.56234914  0.52418649  0.11790953
   0.43646174  0.62703268  0.65444595
   0.18514787  0.61605074  0.30123126
   0.56252751  0.04594202  0.74211405
   0.43739089  0.11018312  0.17072724
   0.18338889  0.44281730  0.21307013
   0.19270984  0.30841387  0.87788572
   0.43769684  0.96063762  0.69826612
   0.56424040  0.19852300  0.21289431
   0.93852333  0.62971651  0.78563998
   0.31099401  0.87685554  0.65467757
   0.31044777  0.37228023  0.43440265
   0.81311375  0.38048559  0.78570171
   0.81059223  0.86011161  0.17083483
   0.31136650  0.71092928  0.69823671
   0.93900287  0.46056907  0.69829741
   0.68934429  0.28254684  0.25611776
   0.06216877  0.04605862  0.74210995
   0.06217219  0.54608461  0.74186425
   0.56538567  0.69710112  0.21208409
   0.43638581  0.13049360  0.78579521
   0.93284633  0.79898096  0.87798260
   0.93762798  0.77854217  0.11740671
   0.68830535  0.78758902  0.61139040
   0.93791012  0.78115039  0.25617981
   0.81524102  0.87098089  0.43464437
   0.81490451  0.55655841  0.87815357
   0.06314075  0.52526815  0.11774156
   0.94059067  0.45174902  0.34565728
   0.18407247  0.28085734  0.25611169
   0.43689981  0.11852262  0.30097735
   0.93829521  0.27742393  0.11882233
   0.18539147  0.62625008  0.65431242
   0.06096958  0.52833452  0.25621940
   0.18936963  0.60618347  0.17049435
   0.68794708  0.28723054  0.39027011
   0.93781457  0.79604316  0.74186153
   0.18788154  0.96006738  0.69818965
   0.06529526  0.02424233  0.11945328
   0.68726098  0.60925904  0.17079292
   0.81454441  0.71073076  0.69822070
   0.68555475  0.80171568  0.87854108
   0.18761194  0.28661080  0.39000472
   0.56156290  0.88079301  0.78576086
   0.56293445  0.04024693  0.61170198
   0.06552560  0.19992029  0.34583090
   0.43489108  0.62162688  0.52224414
   0.55683822  0.55271624  0.87852156
   0.68856226  0.45925380  0.56618024
   0.18640173  0.78884194  0.61098061
   0.18717774  0.11046143  0.17069839
   0.94014296  0.45837829  0.47913572
   0.56347400  0.36641787  0.30043952
   0.68831105  0.12113390  0.43454374
   0.18822675  0.95214959  0.34649913
   0.81454621  0.54602701  0.74185030
   0.43718817  0.77775716  0.11747713
   0.43592290  0.30400605  0.87807445
   0.68677564  0.13108720  0.78580216
   0.18550012  0.95447198  0.47870147
   0.31240928  0.21018250  0.69836514
   0.31216211  0.88021110  0.78582824
   0.06448644  0.53815592  0.39033210
   0.43658325  0.46796285  0.83369937
   0.68670024  0.46797592  0.83311030
   0.43531233  0.95510279  0.47910584
   0.43524112  0.45359367  0.34605266
   0.93975776  0.62172272  0.52175821
   0.19108095  0.79574393  0.87837682
   0.68709190  0.95462869  0.56558508
   0.06214757  0.86758776  0.30076852
   0.93672796  0.95015780  0.21276630
   0.31081472  0.20916813  0.56552615
   0.18604538  0.45993588  0.56577212
   0.43821361  0.28069628  0.25631255
   0.93601627  0.96872545  0.83249279
   0.56157993  0.87201070  0.43453702
   0.31044582  0.54603154  0.74230933
   0.56196158  0.37224989  0.43450302
   0.18580010  0.29417116  0.61137507
   0.93946700  0.95418883  0.47892463
   0.93838789  0.46745342  0.83342398
   0.31871299  0.05293524  0.87768030
   0.81198161  0.52501855  0.11824234
   0.31381322  0.86182868  0.17009333
   0.06168113  0.19921102  0.21343522
   0.06271504  0.37507192  0.52189700
   0.68913916  0.29485234  0.61168702
   0.18614988  0.12027137  0.43451946
   0.81463521  0.87001562  0.52148548
   0.56289312  0.37577223  0.65450188
   0.18609182  0.62121870  0.52200870
   0.93966926  0.78586610  0.39020312
   0.43541991  0.95073138  0.34605544
   0.43640035  0.96910436  0.83323045
   0.81520059  0.37456024  0.52178409
   0.56052729  0.20069929  0.34548121
   0.68861924  0.94797620  0.21274726
   0.56179176  0.38046119  0.78602510
   0.06239813  0.54146279  0.61083820
   0.56109906  0.71950743  0.83434920
   0.68965970  0.62680737  0.65431045
   0.68899483  0.62063071  0.43473369
   0.56005989  0.04744531  0.87821243
   0.56098889  0.70382653  0.56622313
   0.69052145  0.44515163  0.21306838
   0.06189575  0.87639766  0.65443829
   0.18407523  0.78368969  0.25646499
   0.31139747  0.86651092  0.30148786
   0.06458790  0.55008297  0.87825539
   0.81506824  0.70307069  0.56602927
   0.81449036  0.52942005  0.25584859
   0.93768594  0.62579854  0.65433412
   0.81298590  0.88123607  0.78570195
   0.18637985  0.11836439  0.30089789
   0.43882722  0.60902084  0.17020379
   0.30885886  0.52731366  0.25608680
   0.31275963  0.52271854  0.11941475
   0.93950012  0.28618289  0.39029193
   0.56357115  0.85942420  0.17051307
   0.81247891  0.04612727  0.74198977
   0.56138172  0.02473693  0.11867666
   0.31029026  0.37518671  0.52212166
   0.31001008  0.20763201  0.47887374
   0.93620871  0.60725521  0.17121451
   0.81273916  0.36601669  0.30007095
   0.18888777  0.27640273  0.11926100
   0.81339758  0.53918081  0.39073538
   0.43647441  0.62981499  0.78605331
   0.06325278  0.86251130  0.17058846
   0.18717046  0.78019537  0.11770947
   0.68860369  0.79735141  0.74199519
   0.31016630  0.37621603  0.65449017
   0.56147201  0.37427561  0.52209842
   0.31105552  0.36510445  0.30126931
   0.81419827  0.37230705  0.43474485
   0.06102937  0.05260259  0.87772687
   0.18618160  0.62130630  0.43451660
   0.06318030  0.22210645  0.83221311
   0.31257860  0.35915036  0.17042938
   0.31036000  0.03683200  0.39018653
   0.81630944  0.70462802  0.47921760
   0.06306970  0.37213792  0.43476451
   0.31085956  0.69732406  0.21169408
   0.68847317  0.10900230  0.17098821
   0.93905723  0.62106684  0.43474669
   0.68755900  0.61563144  0.30056197
   0.68822078  0.77586719  0.11784674
   0.06210391  0.36618804  0.30035477
   0.68837692  0.11981258  0.30046567
   0.56448139  0.03497671  0.25610866
   0.31500923  0.54855410  0.87819037
   0.56193829  0.54568437  0.74234723
   0.93855156  0.11041735  0.17093414
   0.06264483  0.87149298  0.43472198
   0.18660936  0.79583712  0.74209978
   0.56158979  0.03592746  0.39048649
   0.93893291  0.13157647  0.78564368
   0.81400119  0.03519521  0.39033360
   0.93950650  0.45993358  0.56620232
   0.81347852  0.87516853  0.65466591
   0.31030888  0.86973525  0.52196484
   0.56262758  0.87670959  0.65470404
   0.06210239  0.71778068  0.83388056
   0.43980280  0.79986190  0.87870244
   0.81446311  0.04031749  0.61180351
   0.68980514  0.95539367  0.47915275
   0.43652048  0.12554194  0.65468843
   0.43910799  0.61636933  0.30241230
   0.43422489  0.78505668  0.38970976
   0.68880244  0.78537234  0.39017132
   0.30846435  0.19875783  0.21337006
   0.06312781  0.04004644  0.61184996
   0.05964219  0.69388385  0.21345069
   0.93882097  0.12172593  0.52121470
   0.43622283  0.12245706  0.52177360
   0.68228501  0.30111850  0.87887750
   0.68923925  0.62230823  0.52176369
   0.43555663  0.95507048  0.56579966
   0.93780637  0.96059109  0.69784635
Direct configuration=     3
   0.06415883  0.70623404  0.47849454
   0.56266612  0.86665290  0.30129378
   0.31133664  0.70151650  0.34550872
   0.93767920  0.29648691  0.74229175
   0.81152740  0.54076859  0.61032694
   0.18770501  0.46832417  0.83411664
   0.81211404  0.36008569  0.16738744
   0.81250836  0.69863209  0.21293035
   0.56305987  0.21895961  0.83388863
   0.18771335  0.94429360  0.21298903
   0.68646570  0.45382996  0.47888347
   0.81190717  0.86765901  0.30125324
   0.43752286  0.12161874  0.43497851
   0.68659090  0.27924243  0.12005732
   0.56376707  0.70167696  0.34548833
   0.93680393  0.11692618  0.30135088
   0.68763496  0.96079006  0.69836414
   0.06332516  0.21167231  0.69858076
   0.81175406  0.20623163  0.47865279
   0.31271766  0.03000934  0.25798108
   0.80978180  0.04923186  0.87633182
   0.81334811  0.70133124  0.34553926
   0.18736787  0.29664358  0.74243587
   0.43778273  0.46073481  0.69828540
   0.18919121  0.45423576  0.47847907
   0.68775653  0.12744288  0.65439562
   0.31189455  0.04573285  0.74241413
   0.56247125  0.21183796  0.69837237
   0.06298278  0.38176295  0.78687027
   0.43758497  0.79482025  0.74251098
   0.93677086  0.12774603  0.65433349
   0.81111187  0.19490852  0.21279287
   0.06230407  0.20634655  0.56541283
   0.18785445  0.63060643  0.78695614
   0.31244348  0.53555903  0.39040034
   0.31353751  0.54034448  0.61072361
   0.31245624  0.04159856  0.61033902
   0.31269012  0.21831305  0.83405537
   0.93800720  0.30404428  0.87644623
   0.68714891  0.78196474  0.25823846
   0.56096330  0.70467759  0.47887450
   0.56203473  0.20618465  0.47859036
   0.06207662  0.70847021  0.56554605
   0.68771576  0.63137782  0.78681586
   0.43792539  0.45521504  0.56590157
   0.81127409  0.37643808  0.65453938
   0.06243219  0.88071661  0.78697279
   0.06188498  0.03731897  0.39015866
   0.56240037  0.54030658  0.61061379
   0.31286317  0.38117040  0.78709682
   0.43742371  0.78189281  0.25785980
   0.43716136  0.45537178  0.47869127
   0.43638777  0.27836662  0.12011117
   0.06431915  0.20706944  0.47872403
   0.93740401  0.95707705  0.56561796
   0.31257178  0.87140851  0.43503031
   0.93735425  0.28023841  0.25885656
   0.18775285  0.13102061  0.78703150
   0.43737312  0.28540779  0.39033418
   0.06220963  0.36086083  0.16741513
   0.81262068  0.21148372  0.69843119
   0.68750299  0.29645621  0.74242991
   0.56294370  0.53699406  0.39031684
   0.68800206  0.95249150  0.34565637
   0.93742381  0.61743785  0.30112329
   0.43700917  0.29626288  0.74244571
   0.93705151  0.29088121  0.61017190
   0.06095751  0.70126952  0.34563508
   0.43813094  0.29059873  0.61056213
   0.93694015  0.95214725  0.34579189
   0.43694383  0.62098484  0.43488377
   0.81220931  0.20162355  0.34542978
   0.56219721  0.53289013  0.25782297
   0.18826713  0.46112548  0.69826606
   0.43824376  0.79232985  0.61056214
   0.18745952  0.78715595  0.39039987
   0.18613135  0.45034602  0.34564491
   0.31303445  0.71840105  0.83362965
   0.68823813  0.45071048  0.34560444
   0.56283797  0.20580698  0.56577040
   0.43779761  0.44731421  0.21300912
   0.56321179  0.87318494  0.52173059
   0.18654397  0.95759493  0.56553193
   0.81253090  0.20600749  0.56552293
   0.18664434  0.12056299  0.52177805
   0.31293916  0.20096161  0.34565623
   0.06254840  0.02960462  0.25823852
   0.31386358  0.70569920  0.47859959
   0.56379064  0.36029586  0.16713897
   0.81350578  0.02514266  0.12042584
   0.81252745  0.03017529  0.25823755
   0.81180766  0.71961536  0.83385171
   0.18846550  0.96796709  0.83258822
   0.18685512  0.12775007  0.65461337
   0.93713656  0.79239527  0.61038880
   0.68725287  0.46104309  0.69834338
   0.56299126  0.70947508  0.69828216
   0.06372378  0.87420685  0.52197786
   0.06282896  0.70958028  0.69838609
   0.31009547  0.02581710  0.12015791
   0.93735674  0.12148305  0.43496825
   0.31243858  0.70799509  0.56566454
   0.43692753  0.94556314  0.21341631
   0.68712209  0.96912343  0.83393726
   0.93717045  0.44785449  0.21256287
   0.68827297  0.12231724  0.52186919
   0.06319332  0.37696375  0.65450121
   0.81085683  0.21897094  0.83393693
   0.56135836  0.52442355  0.11982174
   0.43712017  0.62519332  0.65448011
   0.18689151  0.61715735  0.30107096
   0.56240257  0.04540695  0.74261989
   0.43825496  0.11351827  0.16756059
   0.18858977  0.44887645  0.21283250
   0.19089533  0.30598466  0.87656304
   0.43750551  0.96030084  0.69840366
   0.56293608  0.19697286  0.21263069
   0.93723568  0.63144818  0.78680257
   0.31231209  0.87571701  0.65427849
   0.31238119  0.37203768  0.43482822
   0.81236482  0.38155769  0.78699654
   0.81377283  0.85981351  0.16766942
   0.31249437  0.70965714  0.69818765
   0.93750215  0.46093518  0.69844638
   0.68749032  0.28111159  0.25837556
   0.06244973  0.04604744  0.74242133
   0.06183207  0.54698494  0.74235282
   0.56129628  0.69691821  0.21359971
   0.43757792  0.12982337  0.78704448
   0.93547347  0.80001934  0.87649954
   0.93791117  0.77710527  0.11946979
   0.68706357  0.79217075  0.61030034
   0.93755991  0.78238389  0.25809686
   0.81250354  0.87145843  0.43474315
   0.81368721  0.55326411  0.87660914
   0.06437680  0.52645329  0.11976191
   0.93718925  0.45114535  0.34538781
   0.18809902  0.28124161  0.25856730
   0.43762315  0.11639512  0.30125793
   0.93700130  0.27684652  0.12074718
   0.18801703  0.62559140  0.65446904
   0.06381876  0.53290801  0.25844372
   0.18689973  0.60987042  0.16735895
   0.68843383  0.28703097  0.38992610
   0.93700763  0.79635426  0.74241950
   0.18808460  0.96062304  0.69849472
   0.06465199  0.02482838  0.12149619
   0.68883330  0.60832270  0.16723182
   0.81274685  0.70947948  0.69843609
   0.68616003  0.80166346  0.87687324
   0.18653951  0.28603182  0.39021687
   0.56259318  0.88003740  0.78685553
   0.56354037  0.04131089  0.61049504
   0.06127672  0.20129370  0.34557401
   0.43813736  0.62328636  0.52181434
   0.56006241  0.55126631  0.87689410
   0.68795490  0.45517938  0.56575402
   0.18802644  0.79203598  0.61037125
   0.18863044  0.11102789  0.16756845
   0.93693264  0.45362033  0.47855826
   0.56257884  0.36761976  0.30121362
   0.68749355  0.12122273  0.43476406
   0.18690915  0.95228728  0.34579021
   0.81227208  0.54692927  0.74239482
   0.43520057  0.77518476  0.11952077
   0.43756638  0.30191003  0.87671146
   0.68722110  0.12996755  0.78717766
   0.18887071  0.95674283  0.47875759
   0.31291452  0.21153780  0.69849193
   0.31291014  0.87961754  0.78706427
   0.06187170  0.53559506  0.39008275
   0.43827578  0.46810591  0.83400190
   0.68638703  0.46778405  0.83353915
   0.43631820  0.95508443  0.47888242
   0.43791523  0.45021299  0.34556364
   0.93702423  0.62218866  0.52227740
   0.18943518  0.79713697  0.87663337
   0.68800561  0.95718096  0.56549357
   0.06204519  0.86664982  0.30117681
   0.93711889  0.94510922  0.21289278
   0.31186425  0.20616185  0.56555967
   0.18723251  0.45482888  0.56572296
   0.43746996  0.28203510  0.25808089
   0.93653138  0.96859411  0.83299183
   0.56180362  0.87168175  0.43495694
   0.31291264  0.54587729  0.74252448
   0.56209130  0.37171216  0.43478368
   0.18802450  0.29104850  0.61058591
   0.93822305  0.95606466  0.47870275
   0.93683294  0.46890745  0.83389292
   0.31615793  0.05307065  0.87618634
   0.81101663  0.52496015  0.12012303
   0.31148931  0.86078016  0.16703021
   0.06184845  0.19396505  0.21291563
   0.06129569  0.36975199  0.52213844
   0.68743180  0.29058727  0.61074741
   0.18733278  0.12095256  0.43492885
   0.81162094  0.87381307  0.52211128
   0.56208045  0.37626627  0.65449867
   0.18742614  0.62445794  0.52203029
   0.93736589  0.78661875  0.38985773
   0.43798049  0.95246373  0.34557137
   0.43718843  0.96833699  0.83356500
   0.81299456  0.37210053  0.52198030
   0.56320075  0.20124864  0.34547010
   0.68739803  0.94615218  0.21322624