 288 288   0   0
  0.1280206E+02  0.9726678E-09  0.8423550E-09  0.4500000E-08  0.2500000E-15
  1.000000000000000E-004
  CAR 
 unknown system                          
      6.78823436     -6.02454376  301      4.29332468      1.00000000
     -6.025  0.0000E+00  0.0000E+00
     -5.982  0.0000E+00  0.0000E+00
     -5.939  0.0000E+00  0.0000E+00
     -5.896  0.0000E+00  0.0000E+00
     -5.854  0.0000E+00  0.0000E+00
     -5.811  0.0000E+00  0.0000E+00
     -5.768  0.0000E+00  0.0000E+00
     -5.726  0.0000E+00  0.0000E+00
     -5.683  0.0000E+00  0.0000E+00
     -5.640  0.0000E+00  0.0000E+00
     -5.597  0.0000E+00  0.0000E+00
     -5.555  0.0000E+00  0.0000E+00
     -5.512  0.0000E+00  0.0000E+00
     -5.469  0.0000E+00  0.0000E+00
     -5.427  0.0000E+00  0.0000E+00
     -5.384  0.1625E-15  0.6939E-17
     -5.341  0.3834E-14  0.1707E-15
     -5.298  0.8250E-13  0.3694E-14
     -5.256  0.1506E-11  0.6801E-13
     -5.213  0.2342E-10  0.1068E-11
     -5.170  0.3105E-09  0.1433E-10
     -5.128  0.3508E-08  0.1642E-09
     -5.085  0.3381E-07  0.1608E-08
     -5.042  0.2780E-06  0.1348E-07
     -5.000  0.1953E-05  0.9688E-07
     -4.957  0.1173E-04  0.5978E-06
     -4.914  0.6034E-04  0.3175E-05
     -4.871  0.2665E-03  0.1456E-04
     -4.829  0.1014E-02  0.5787E-04
     -4.786  0.3340E-02  0.2005E-03
     -4.743  0.9581E-02  0.6097E-03
     -4.701  0.2413E-01  0.1640E-02
     -4.658  0.5389E-01  0.3942E-02
     -4.615  0.1079E+00  0.8552E-02
     -4.572  0.1960E+00  0.1692E-01
     -4.530  0.3261E+00  0.3085E-01
     -4.487  0.5013E+00  0.5226E-01
     -4.444  0.7162E+00  0.8285E-01
     -4.402  0.9560E+00  0.1237E+00
     -4.359  0.1197E+01  0.1748E+00
     -4.316  0.1414E+01  0.2352E+00
     -4.273  0.1586E+01  0.3029E+00
     -4.231  0.1703E+01  0.3757E+00
     -4.188  0.1775E+01  0.4514E+00
     -4.145  0.1829E+01  0.5296E+00
     -4.103  0.1902E+01  0.6108E+00
     -4.060  0.2029E+01  0.6975E+00
     -4.017  0.2224E+01  0.7924E+00
     -3.974  0.2474E+01  0.8981E+00
     -3.932  0.2743E+01  0.1015E+01
     -3.889  0.2980E+01  0.1143E+01
     -3.846  0.3138E+01  0.1277E+01
     -3.804  0.3194E+01  0.1413E+01
     -3.761  0.3162E+01  0.1548E+01
     -3.718  0.3089E+01  0.1680E+01
     -3.676  0.3036E+01  0.1810E+01
     -3.633  0.3054E+01  0.1940E+01
     -3.590  0.3169E+01  0.2075E+01
     -3.547  0.3368E+01  0.2219E+01
     -3.505  0.3607E+01  0.2373E+01
     -3.462  0.3831E+01  0.2537E+01
     -3.419  0.4000E+01  0.2708E+01
     -3.377  0.4099E+01  0.2883E+01
     -3.334  0.4139E+01  0.3060E+01
     -3.291  0.4147E+01  0.3237E+01
     -3.248  0.4157E+01  0.3414E+01
     -3.206  0.4198E+01  0.3593E+01
     -3.163  0.4286E+01  0.3777E+01
     -3.120  0.4425E+01  0.3966E+01
     -3.078  0.4605E+01  0.4162E+01
     -3.035  0.4804E+01  0.4367E+01
     -2.992  0.4995E+01  0.4581E+01
     -2.949  0.5152E+01  0.4801E+01
     -2.907  0.5260E+01  0.5025E+01
     -2.864  0.5325E+01  0.5253E+01
     -2.821  0.5374E+01  0.5482E+01
     -2.779  0.5439E+01  0.5715E+01
     -2.736  0.5540E+01  0.5951E+01
     -2.693  0.5660E+01  0.6193E+01
     -2.651  0.5742E+01  0.6438E+01
     -2.608  0.5724E+01  0.6683E+01
     -2.565  0.5594E+01  0.6922E+01
     -2.522  0.5427E+01  0.7153E+01
     -2.480  0.5358E+01  0.7382E+01
     -2.437  0.5520E+01  0.7618E+01
     -2.394  0.5954E+01  0.7872E+01
     -2.352  0.6573E+01  0.8153E+01
     -2.309  0.7184E+01  0.8460E+01
     -2.266  0.7578E+01  0.8784E+01
     -2.223  0.7637E+01  0.9110E+01
     -2.181  0.7397E+01  0.9426E+01
     -2.138  0.7037E+01  0.9726E+01
     -2.095  0.6786E+01  0.1002E+02
     -2.053  0.6818E+01  0.1031E+02
     -2.010  0.7163E+01  0.1061E+02
     -1.967  0.7714E+01  0.1094E+02
     -1.924  0.8283E+01  0.1130E+02
     -1.882  0.8697E+01  0.1167E+02
     -1.839  0.8871E+01  0.1205E+02
     -1.796  0.8843E+01  0.1242E+02
     -1.754  0.8738E+01  0.1280E+02
     -1.711  0.8687E+01  0.1317E+02
     -1.668  0.8757E+01  0.1354E+02
     -1.625  0.8937E+01  0.1392E+02
     -1.583  0.9179E+01  0.1432E+02
     -1.540  0.9447E+01  0.1472E+02
     -1.497  0.9731E+01  0.1514E+02
     -1.455  0.1002E+02  0.1556E+02
     -1.412  0.1028E+02  0.1600E+02
     -1.369  0.1045E+02  0.1645E+02
     -1.327  0.1053E+02  0.1690E+02
     -1.284  0.1064E+02  0.1735E+02
     -1.241  0.1099E+02  0.1782E+02
     -1.198  0.1175E+02  0.1832E+02
     -1.156  0.1288E+02  0.1887E+02
     -1.113  0.1413E+02  0.1948E+02
     -1.070  0.1511E+02  0.2012E+02
     -1.028  0.1558E+02  0.2079E+02
     -0.985  0.1560E+02  0.2145E+02
     -0.942  0.1551E+02  0.2212E+02
     -0.899  0.1575E+02  0.2279E+02
     -0.857  0.1659E+02  0.2350E+02
     -0.814  0.1805E+02  0.2427E+02
     -0.771  0.2001E+02  0.2512E+02
     -0.729  0.2243E+02  0.2608E+02
     -0.686  0.2547E+02  0.2717E+02
     -0.643  0.2933E+02  0.2842E+02
     -0.600  0.3395E+02  0.2987E+02
     -0.558  0.3891E+02  0.3153E+02
     -0.515  0.4353E+02  0.3339E+02
     -0.472  0.4728E+02  0.3541E+02
     -0.430  0.5003E+02  0.3755E+02
     -0.387  0.5205E+02  0.3977E+02
     -0.344  0.5368E+02  0.4206E+02
     -0.302  0.5506E+02  0.4442E+02
     -0.259  0.5616E+02  0.4681E+02
     -0.216  0.5684E+02  0.4924E+02
     -0.173  0.5708E+02  0.5168E+02
     -0.131  0.5700E+02  0.5411E+02
     -0.088  0.5686E+02  0.5654E+02
     -0.045  0.5695E+02  0.5897E+02
     -0.003  0.5754E+02  0.6143E+02
      0.040  0.5881E+02  0.6394E+02
      0.083  0.6083E+02  0.6654E+02
      0.126  0.6356E+02  0.6926E+02
      0.168  0.6686E+02  0.7211E+02
      0.211  0.7052E+02  0.7512E+02
      0.254  0.7427E+02  0.7830E+02
      0.296  0.7783E+02  0.8162E+02
      0.339  0.8090E+02  0.8508E+02
      0.382  0.8333E+02  0.8863E+02
      0.425  0.8511E+02  0.9227E+02
      0.467  0.8635E+02  0.9596E+02
      0.510  0.8711E+02  0.9968E+02
      0.553  0.8739E+02  0.1034E+03
      0.595  0.8717E+02  0.1071E+03
      0.638  0.8652E+02  0.1108E+03
      0.681  0.8552E+02  0.1145E+03
      0.724  0.8418E+02  0.1181E+03
      0.766  0.8249E+02  0.1216E+03
      0.809  0.8051E+02  0.1250E+03
      0.852  0.7850E+02  0.1284E+03
      0.894  0.7684E+02  0.1317E+03
      0.937  0.7588E+02  0.1349E+03
      0.980  0.7567E+02  0.1381E+03
      1.022  0.7595E+02  0.1414E+03
      1.065  0.7627E+02  0.1446E+03
      1.108  0.7627E+02  0.1479E+03
      1.151  0.7584E+02  0.1511E+03
      1.193  0.7507E+02  0.1543E+03
      1.236  0.7421E+02  0.1575E+03
      1.279  0.7341E+02  0.1607E+03
      1.321  0.7271E+02  0.1638E+03
      1.364  0.7197E+02  0.1668E+03
      1.407  0.7097E+02  0.1699E+03
      1.450  0.6958E+02  0.1728E+03
      1.492  0.6791E+02  0.1757E+03
      1.535  0.6641E+02  0.1786E+03
      1.578  0.6570E+02  0.1814E+03
      1.620  0.6620E+02  0.1842E+03
      1.663  0.6798E+02  0.1871E+03
      1.706  0.7069E+02  0.1901E+03
      1.749  0.7384E+02  0.1933E+03
      1.791  0.7702E+02  0.1966E+03
      1.834  0.8003E+02  0.2000E+03
      1.877  0.8277E+02  0.2035E+03
      1.919  0.8521E+02  0.2072E+03
      1.962  0.8735E+02  0.2109E+03
      2.005  0.8926E+02  0.2147E+03
      2.048  0.9100E+02  0.2186E+03
      2.090  0.9253E+02  0.2225E+03
      2.133  0.9381E+02  0.2266E+03
      2.176  0.9486E+02  0.2306E+03
      2.218  0.9595E+02  0.2347E+03
      2.261  0.9749E+02  0.2389E+03
      2.304  0.9989E+02  0.2431E+03
      2.346  0.1033E+03  0.2475E+03
      2.389  0.1075E+03  0.2521E+03
      2.432  0.1120E+03  0.2569E+03
      2.475  0.1162E+03  0.2619E+03
      2.517  0.1197E+03  0.2670E+03
      2.560  0.1224E+03  0.2722E+03
      2.603  0.1246E+03  0.2775E+03
      2.645  0.1265E+03  0.2829E+03
      2.688  0.1284E+03  0.2884E+03
      2.731  0.1304E+03  0.2940E+03
      2.774  0.1327E+03  0.2997E+03
      2.816  0.1354E+03  0.3055E+03
      2.859  0.1384E+03  0.3114E+03
      2.902  0.1410E+03  0.3174E+03
      2.944  0.1422E+03  0.3235E+03
      2.987  0.1412E+03  0.3295E+03
      3.030  0.1373E+03  0.3354E+03
      3.073  0.1308E+03  0.3409E+03
      3.115  0.1224E+03  0.3462E+03
      3.158  0.1133E+03  0.3510E+03
      3.201  0.1047E+03  0.3555E+03
      3.243  0.9752E+02  0.3596E+03
      3.286  0.9215E+02  0.3636E+03
      3.329  0.8853E+02  0.3674E+03
      3.371  0.8632E+02  0.3710E+03
      3.414  0.8508E+02  0.3747E+03
      3.457  0.8440E+02  0.3783E+03
      3.500  0.8390E+02  0.3819E+03
      3.542  0.8330E+02  0.3854E+03
      3.585  0.8262E+02  0.3889E+03
      3.628  0.8220E+02  0.3925E+03
      3.670  0.8262E+02  0.3960E+03
      3.713  0.8434E+02  0.3996E+03
      3.756  0.8748E+02  0.4033E+03
      3.799  0.9165E+02  0.4072E+03
      3.841  0.9616E+02  0.4113E+03
      3.884  0.1004E+03  0.4156E+03
      3.927  0.1039E+03  0.4201E+03
      3.969  0.1065E+03  0.4246E+03
      4.012  0.1083E+03  0.4292E+03
      4.055  0.1091E+03  0.4339E+03
      4.098  0.1091E+03  0.4386E+03
      4.140  0.1085E+03  0.4432E+03
      4.183  0.1075E+03  0.4478E+03
      4.226  0.1063E+03  0.4523E+03
      4.268  0.1049E+03  0.4568E+03
      4.311  0.1036E+03  0.4612E+03
      4.354  0.1024E+03  0.4656E+03
      4.397  0.1016E+03  0.4699E+03
      4.439  0.1011E+03  0.4743E+03
      4.482  0.1005E+03  0.4786E+03
      4.525  0.9966E+02  0.4828E+03
      4.567  0.9855E+02  0.4870E+03
      4.610  0.9753E+02  0.4912E+03
      4.653  0.9710E+02  0.4953E+03
      4.695  0.9760E+02  0.4995E+03
      4.738  0.9910E+02  0.5037E+03
      4.781  0.1014E+03  0.5081E+03
      4.824  0.1040E+03  0.5125E+03
      4.866  0.1065E+03  0.5171E+03
      4.909  0.1084E+03  0.5217E+03
      4.952  0.1094E+03  0.5264E+03
      4.994  0.1092E+03  0.5310E+03
      5.037  0.1069E+03  0.5356E+03
      5.080  0.1016E+03  0.5399E+03
      5.123  0.9223E+02  0.5439E+03
      5.165  0.7870E+02  0.5472E+03
      5.208  0.6211E+02  0.5499E+03
      5.251  0.4472E+02  0.5518E+03
      5.293  0.2905E+02  0.5530E+03
      5.336  0.1689E+02  0.5538E+03
      5.379  0.8729E+01  0.5541E+03
      5.422  0.3991E+01  0.5543E+03
      5.464  0.1609E+01  0.5544E+03
      5.507  0.5702E+00  0.5544E+03
      5.550  0.1773E+00  0.5544E+03
      5.592  0.4828E-01  0.5544E+03
      5.635  0.1150E-01  0.5544E+03
      5.678  0.2395E-02  0.5544E+03
      5.721  0.4355E-03  0.5544E+03
      5.763  0.6906E-04  0.5544E+03
      5.806  0.9541E-05  0.5544E+03
      5.849  0.1147E-05  0.5544E+03
      5.891  0.1199E-06  0.5544E+03
      5.934  0.1087E-07  0.5544E+03
      5.977  0.8542E-09  0.5544E+03
      6.019  0.5804E-10  0.5544E+03
      6.062  0.3405E-11  0.5544E+03
      6.105  0.1713E-12  0.5544E+03
      6.148  0.6889E-14  0.5544E+03
      6.190  0.1950E-15  0.5544E+03
      6.233  0.0000E+00  0.5544E+03
      6.276  0.0000E+00  0.5544E+03
      6.318  0.0000E+00  0.5544E+03
      6.361  0.0000E+00  0.5544E+03
      6.404  0.0000E+00  0.5544E+03
      6.447  0.0000E+00  0.5544E+03
      6.489  0.0000E+00  0.5544E+03
      6.532  0.0000E+00  0.5544E+03
      6.575  0.0000E+00  0.5544E+03
      6.617  0.0000E+00  0.5544E+03
      6.660  0.0000E+00  0.5544E+03
      6.703  0.0000E+00  0.5544E+03
      6.746  0.0000E+00  0.5544E+03
      6.788  0.0000E+00  0.5544E+03
