       N       E                     dE             d eps       ncg     rms          rms(c)
DAV:   1     0.292201113303E+05    0.29220E+05   -0.86582E+05 27930   0.197E+03
DAV:   2     0.119433626139E+04   -0.28026E+05   -0.27414E+05 27720   0.604E+02
DAV:   3    -0.193969732068E+04   -0.31340E+04   -0.27234E+04 39074   0.279E+02
DAV:   4    -0.260698809328E+04   -0.66729E+03   -0.60710E+03 51002   0.975E+01
DAV:   5    -0.272693688387E+04   -0.11995E+03   -0.11206E+03 48286   0.396E+01    0.203E+02
RMM:   6    -0.581460825192E+04   -0.30877E+04   -0.12682E+04 48183   0.251E+02    0.695E+02
RMM:   7    -0.406850130511E+04    0.17461E+04   -0.36932E+03 48777   0.102E+02    0.414E+02
RMM:   8    -0.117128230818E+05   -0.76443E+04   -0.20523E+04 47158   0.396E+02    0.121E+03
RMM:   9    -0.143075075602E+05   -0.25947E+04   -0.16750E+04 50325   0.197E+02    0.817E+02
RMM:  10    -0.866869610941E+04    0.56388E+04   -0.66830E+03 40432   0.156E+02    0.560E+02
RMM:  11    -0.100483438380E+05   -0.13796E+04   -0.15985E+04 45287   0.255E+02    0.866E+02
RMM:  12    -0.113954860910E+05   -0.13471E+04   -0.15497E+04 49658   0.131E+02    0.754E+02
RMM:  13    -0.107527000568E+05    0.64279E+03   -0.64315E+03 48271   0.150E+02    0.634E+02
RMM:  14    -0.998746987362E+04    0.76523E+03   -0.94593E+03 38292   0.229E+02    0.655E+02
RMM:  15    -0.654693449194E+04    0.34405E+04   -0.56417E+03 46397   0.125E+02    0.532E+02
RMM:  16    -0.585745113670E+04    0.68948E+03   -0.36281E+03 47947   0.933E+01    0.481E+02
RMM:  17    -0.449942791218E+04    0.13580E+04   -0.36782E+03 41854   0.100E+02    0.387E+02
RMM:  18    -0.429437181581E+04    0.20506E+03   -0.18770E+03 45799   0.466E+01    0.373E+02
RMM:  19    -0.394564347725E+04    0.34873E+03   -0.26901E+03 37284   0.919E+01    0.325E+02
RMM:  20    -0.343910258410E+04    0.50654E+03   -0.30711E+03 47842   0.484E+01    0.250E+02
RMM:  21    -0.325063141511E+04    0.18847E+03   -0.16432E+03 44763   0.413E+01    0.244E+02
RMM:  22    -0.326317414506E+04   -0.12543E+02   -0.12498E+03 44477   0.309E+01    0.251E+02
RMM:  23    -0.322547349314E+04    0.37701E+02   -0.86384E+02 41614   0.211E+01    0.254E+02
RMM:  24    -0.283390854515E+04    0.39156E+03   -0.24188E+02 30482   0.236E+01    0.220E+02
RMM:  25    -0.240486944144E+04    0.42904E+03   -0.32165E+02 34752   0.241E+01    0.125E+02
RMM:  26    -0.235632068863E+04    0.48549E+02   -0.40197E+02 36315   0.236E+01    0.906E+01
RMM:  27    -0.245007051876E+04   -0.93750E+02   -0.46871E+02 43317   0.171E+01    0.138E+02
RMM:  28    -0.243234171992E+04    0.17729E+02   -0.19653E+02 39874   0.107E+01    0.127E+02
RMM:  29    -0.241752309739E+04    0.14819E+02   -0.91983E+01 39384   0.706E+00    0.124E+02
RMM:  30    -0.240066074269E+04    0.16862E+02   -0.47174E+01 42977   0.460E+00    0.119E+02
RMM:  31    -0.236723122125E+04    0.33430E+02   -0.16173E+01 33764   0.464E+00    0.990E+01
RMM:  32    -0.234187429517E+04    0.25357E+02   -0.21836E+01 31261   0.695E+00    0.701E+01
RMM:  33    -0.234908664214E+04   -0.72123E+01   -0.40756E+01 33762   0.777E+00    0.826E+01
RMM:  34    -0.234338987612E+04    0.56968E+01   -0.23060E+01 33755   0.603E+00    0.708E+01
RMM:  35    -0.233889255799E+04    0.44973E+01   -0.16424E+01 43484   0.247E+00    0.641E+01
RMM:  36    -0.233616091781E+04    0.27316E+01   -0.47088E+00 38852   0.166E+00    0.592E+01
RMM:  37    -0.233060868784E+04    0.55522E+01   -0.28933E+00 30737   0.277E+00    0.516E+01
RMM:  38    -0.232961480497E+04    0.99388E+00   -0.31994E+00 28936   0.368E+00    0.497E+01
RMM:  39    -0.232799033437E+04    0.16245E+01   -0.44667E+00 31185   0.330E+00    0.490E+01
RMM:  40    -0.232737197755E+04    0.61836E+00   -0.45780E+00 33186   0.293E+00    0.523E+01
RMM:  41    -0.232453055800E+04    0.28414E+01   -0.36524E+00 33752   0.259E+00    0.479E+01
RMM:  42    -0.232108744723E+04    0.34431E+01   -0.19201E+00 30857   0.229E+00    0.401E+01
RMM:  43    -0.231919597621E+04    0.18915E+01   -0.19489E+00 35293   0.177E+00    0.351E+01
RMM:  44    -0.231973496742E+04   -0.53899E+00   -0.23018E+00 30583   0.260E+00    0.379E+01
RMM:  45    -0.232220824632E+04   -0.24733E+01   -0.29121E+00 30404   0.293E+00    0.440E+01
RMM:  46    -0.232176557361E+04    0.44267E+00   -0.40801E+00 40923   0.207E+00    0.423E+01
RMM:  47    -0.231998545899E+04    0.17801E+01   -0.16397E+00 33881   0.157E+00    0.382E+01
RMM:  48    -0.231892770371E+04    0.10578E+01   -0.17314E+00 35494   0.150E+00    0.352E+01
RMM:  49    -0.231878222599E+04    0.14548E+00   -0.76473E-01 33894   0.104E+00    0.354E+01
RMM:  50    -0.231871038454E+04    0.71841E-01   -0.53875E-01 33419   0.936E-01    0.352E+01
RMM:  51    -0.245653520866E+04   -0.13782E+03   -0.43523E+01 31093   0.102E+01    0.153E+02
RMM:  52    -0.244247642932E+04    0.14059E+02   -0.42043E+01 43727   0.341E+00    0.149E+02
RMM:  53    -0.245630307441E+04   -0.13827E+02   -0.11272E+01 30729   0.507E+00    0.159E+02
RMM:  54    -0.242373777676E+04    0.32565E+02   -0.90401E+00 40434   0.278E+00    0.141E+02
RMM:  55    -0.240495587686E+04    0.18782E+02   -0.34789E+00 31430   0.275E+00    0.130E+02
RMM:  56    -0.236939104203E+04    0.35565E+02   -0.29854E+01 29475   0.928E+00    0.956E+01
RMM:  57    -0.234853306200E+04    0.20858E+02   -0.42519E+01 32568   0.984E+00    0.786E+01
RMM:  58    -0.234916934099E+04   -0.63628E+00   -0.17316E+01 28629   0.827E+00    0.804E+01
RMM:  59    -0.234058795498E+04    0.85814E+01   -0.87825E+00 29159   0.601E+00    0.709E+01
RMM:  60    -0.234166871087E+04   -0.10808E+01   -0.83853E+00 34957   0.338E+00    0.729E+01
RMM:  61    -0.235794428891E+04   -0.16276E+02   -0.36777E+01 32392   0.850E+00    0.848E+01
RMM:  62    -0.235483705837E+04    0.31072E+01   -0.33910E+01 45016   0.259E+00    0.830E+01
RMM:  63    -0.236069793570E+04   -0.58609E+01   -0.15109E+01 40888   0.242E+00    0.894E+01
RMM:  64    -0.235099863720E+04    0.96993E+01   -0.81949E+00 32120   0.439E+00    0.829E+01
RMM:  65    -0.232297214253E+04    0.28026E+02   -0.21787E+01 27759   0.979E+00    0.420E+01
RMM:  66    -0.235082731659E+04   -0.27855E+02   -0.74714E+01 33506   0.121E+01    0.769E+01
RMM:  67    -0.235733948819E+04   -0.65122E+01   -0.46149E+01 41044   0.636E+00    0.864E+01
RMM:  68    -0.236221422578E+04   -0.48747E+01   -0.18617E+01 35864   0.461E+00    0.929E+01
RMM:  69    -0.236229808431E+04   -0.83859E-01   -0.15894E+01 38031   0.446E+00    0.935E+01
RMM:  70    -0.235378979738E+04    0.85083E+01   -0.44649E+00 31114   0.341E+00    0.869E+01
RMM:  71    -0.235150368986E+04    0.22861E+01   -0.32679E+01 27970   0.113E+01    0.803E+01
RMM:  72    -0.232357459854E+04    0.27929E+02   -0.13534E+01 27721   0.948E+00    0.434E+01
RMM:  73    -0.232101138532E+04    0.25632E+01   -0.62472E+00 27927   0.544E+00    0.384E+01
RMM:  74    -0.232100869017E+04    0.26951E-02   -0.95671E+00 35108   0.406E+00    0.366E+01
RMM:  75    -0.231888243527E+04    0.21263E+01   -0.51206E+00 33501   0.306E+00    0.299E+01
RMM:  76    -0.233048783454E+04   -0.11605E+02   -0.15419E+01 30431   0.645E+00    0.540E+01
RMM:  77    -0.231804682196E+04    0.12441E+02   -0.64718E+00 28121   0.569E+00    0.259E+01
RMM:  78    -0.231622217187E+04    0.18247E+01   -0.70899E+00 38708   0.254E+00    0.173E+01
RMM:  79    -0.231642434165E+04   -0.20217E+00   -0.35419E+00 32332   0.284E+00    0.181E+01
RMM:  80    -0.231637444303E+04    0.49899E-01   -0.16870E+00 29598   0.246E+00    0.175E+01
RMM:  81    -0.231959594529E+04   -0.32215E+01   -0.40937E+00 28406   0.408E+00    0.299E+01
RMM:  82    -0.231649996571E+04    0.30960E+01   -0.16264E+00 27724   0.341E+00    0.179E+01
RMM:  83    -0.231582220587E+04    0.67776E+00   -0.69749E-01 29332   0.161E+00    0.138E+01
RMM:  84    -0.231530573931E+04    0.51647E+00   -0.68638E-01 30019   0.145E+00    0.955E+00
RMM:  85    -0.231520014532E+04    0.10559E+00   -0.70053E-01 32441   0.118E+00    0.799E+00
RMM:  86    -0.231581079262E+04   -0.61065E+00   -0.94940E-01 28102   0.197E+00    0.134E+01
RMM:  87    -0.231513479847E+04    0.67599E+00   -0.42148E-01 27753   0.164E+00    0.701E+00
RMM:  88    -0.231508920193E+04    0.45597E-01   -0.26625E-01 31010   0.837E-01    0.618E+00
RMM:  89    -0.231504136873E+04    0.47833E-01   -0.15136E-01 29411   0.725E-01    0.525E+00
RMM:  90    -0.231507385960E+04   -0.32491E-01   -0.19266E-01 29457   0.818E-01    0.564E+00
RMM:  91    -0.231536801670E+04   -0.29416E+00   -0.47851E-01 30406   0.114E+00    0.892E+00
RMM:  92    -0.231504320628E+04    0.32481E+00   -0.18639E-01 27780   0.106E+00    0.491E+00
RMM:  93    -0.231504089611E+04    0.23102E-02   -0.14122E-01 35721   0.475E-01    0.490E+00
RMM:  94    -0.231503566929E+04    0.52268E-02   -0.67778E-02 31171   0.416E-01    0.471E+00
RMM:  95    -0.231498790782E+04    0.47761E-01   -0.29578E-02 28675   0.351E-01    0.347E+00
RMM:  96    -0.231516577733E+04   -0.17787E+00   -0.14546E-01 28677   0.760E-01    0.672E+00
RMM:  97    -0.231504293905E+04    0.12284E+00   -0.70533E-02 27828   0.647E-01    0.458E+00
RMM:  98    -0.231502066129E+04    0.22278E-01   -0.42838E-02 28519   0.437E-01    0.412E+00
RMM:  99    -0.231498207612E+04    0.38585E-01   -0.28945E-02 28780   0.322E-01    0.309E+00
RMM: 100    -0.231495368106E+04    0.28395E-01   -0.24238E-02 30765   0.251E-01    0.197E+00
RMM: 101    -0.231505229671E+04   -0.98616E-01   -0.13417E-01 28124   0.724E-01    0.480E+00
RMM: 102    -0.231497277926E+04    0.79517E-01   -0.56668E-02 27722   0.658E-01    0.277E+00
RMM: 103    -0.231496004877E+04    0.12730E-01   -0.16157E-02 28894   0.245E-01    0.225E+00
RMM: 104    -0.231495561083E+04    0.44379E-02   -0.12182E-02 29024   0.212E-01    0.200E+00
RMM: 105    -0.231495445483E+04    0.11560E-02   -0.65667E-03 29056   0.162E-01    0.188E+00
RMM: 106    -0.231499898670E+04   -0.44532E-01   -0.76832E-02 28068   0.549E-01    0.333E+00
RMM: 107    -0.231495723876E+04    0.41748E-01   -0.28576E-02 27720   0.473E-01    0.193E+00
RMM: 108    -0.231494635266E+04    0.10886E-01   -0.80319E-03 28809   0.175E-01    0.126E+00
RMM: 109    -0.231494173215E+04    0.46205E-02   -0.53362E-03 30475   0.123E-01    0.842E-01
RMM: 110    -0.231494185333E+04   -0.12118E-03   -0.45949E-03 30496   0.115E-01    0.842E-01
RMM: 111    -0.231494229354E+04   -0.44021E-03   -0.52254E-03 27861   0.152E-01    0.893E-01
RMM: 112    -0.231493997307E+04    0.23205E-02   -0.29589E-03 27798   0.127E-01    0.580E-01
RMM: 113    -0.231493980815E+04    0.16493E-03   -0.25734E-03 29155   0.952E-02    0.521E-01
RMM: 114    -0.231493961843E+04    0.18971E-03   -0.14984E-03 28181   0.866E-02    0.483E-01
RMM: 115    -0.231493905589E+04    0.56255E-03   -0.14123E-03 30156   0.643E-02    0.323E-01
RMM: 116    -0.231493921777E+04   -0.16188E-03   -0.15620E-03 30275   0.671E-02    0.345E-01
RMM: 117    -0.231493881002E+04    0.40775E-03   -0.52674E-04 28875   0.459E-02    0.194E-01
RMM: 118    -0.231493879238E+04    0.17647E-04   -0.58987E-04 33450   0.319E-02    0.153E-01
RMM: 119    -0.231493880555E+04   -0.13176E-04   -0.28708E-04 31968   0.253E-02    0.134E-01
RMM: 120    -0.231493879338E+04    0.12175E-04   -0.20003E-04 32935   0.200E-02    0.966E-02
RMM: 121    -0.231493900114E+04   -0.20776E-03   -0.44278E-04 29102   0.397E-02    0.221E-01
RMM: 122    -0.231493879965E+04    0.20150E-03   -0.16337E-04 27753   0.333E-02    0.871E-02
RMM: 123    -0.231493880064E+04   -0.99360E-06   -0.70813E-05 30537   0.139E-02    0.529E-02
RMM: 124    -0.231493881159E+04   -0.10947E-04   -0.47284E-05 32765   0.902E-03    0.457E-02
RMM: 125    -0.231493882378E+04   -0.12197E-04   -0.35674E-05 34198   0.735E-03    0.348E-02
RMM: 126    -0.231493883435E+04   -0.10569E-04   -0.23976E-05 29768   0.890E-03    0.447E-02
RMM: 127    -0.231493883020E+04    0.41547E-05   -0.10653E-05 26304   0.636E-03    0.166E-02
RMM: 128    -0.231493884552E+04   -0.15327E-04   -0.12663E-05 25150   0.401E-03    0.192E-02
RMM: 129    -0.231493886099E+04   -0.15467E-04   -0.63668E-06 22644   0.435E-03    0.238E-02
RMM: 130    -0.231493886712E+04   -0.61275E-05   -0.36570E-06 19045   0.308E-03    0.227E-02
RMM: 131    -0.231493887223E+04   -0.51094E-05   -0.44618E-06 20514   0.404E-03    0.188E-02
RMM: 132    -0.231493887323E+04   -0.10058E-05   -0.24627E-06 16504   0.360E-03    0.106E-02
RMM: 133    -0.231493887969E+04   -0.64578E-05   -0.16051E-06 16528   0.188E-03    0.807E-03
RMM: 134    -0.231493888472E+04   -0.50317E-05   -0.14867E-06 15954   0.213E-03    0.706E-03
RMM: 135    -0.231493888974E+04   -0.50122E-05   -0.12710E-06 15784   0.164E-03    0.527E-03
RMM: 136    -0.231493889385E+04   -0.41111E-05   -0.14962E-06 15872   0.213E-03    0.113E-02
RMM: 137    -0.231493889545E+04   -0.15990E-05   -0.12292E-06 15538   0.230E-03    0.494E-03
RMM: 138    -0.231493889869E+04   -0.32459E-05   -0.92065E-07 15487   0.103E-03    0.396E-03
RMM: 139    -0.231493890465E+04   -0.59580E-05   -0.99044E-07 15527   0.147E-03    0.309E-03
RMM: 140    -0.231493890786E+04   -0.32058E-05   -0.80839E-07 15375   0.971E-04    0.343E-03
RMM: 141    -0.231493890709E+04    0.76930E-06   -0.69129E-07 15430   0.137E-03
   1 F= -.23149389E+04 E0= -.23120555E+04  d E =-.231494E+04
       N       E                     dE             d eps       ncg     rms          rms(c)
DAV:   1    -0.231517963459E+04   -0.24073E+00   -0.57205E+01 27776   0.791E+00    0.114E+00
RMM:   2    -0.231558841588E+04   -0.40878E+00   -0.86362E-01 27979   0.193E+00    0.809E+00
RMM:   3    -0.231601641761E+04   -0.42800E+00   -0.29475E-01 39617   0.630E-01    0.121E+01
RMM:   4    -0.231551452676E+04    0.50189E+00   -0.86493E-02 27992   0.577E-01    0.687E+00
RMM:   5    -0.231611688485E+04   -0.60236E+00   -0.12241E-01 37819   0.400E-01    0.129E+01
RMM:   6    -0.231542696640E+04    0.68992E+00   -0.12627E-01 28482   0.647E-01    0.544E+00
RMM:   7    -0.231571887327E+04   -0.29191E+00   -0.17141E-01 29070   0.733E-01    0.956E+00
RMM:   8    -0.231536370578E+04    0.35517E+00   -0.66679E-02 27792   0.545E-01    0.458E+00
RMM:   9    -0.231527560152E+04    0.88104E-01   -0.43138E-02 27745   0.498E-01    0.244E+00
RMM:  10    -0.231527228087E+04    0.33207E-02   -0.48263E-02 28106   0.434E-01    0.230E+00
RMM:  11    -0.231525288519E+04    0.19396E-01   -0.23338E-02 27833   0.338E-01    0.134E+00
RMM:  12    -0.231524630969E+04    0.65755E-02   -0.82729E-03 27905   0.214E-01    0.883E-01
RMM:  13    -0.231524528471E+04    0.10250E-02   -0.80683E-03 34090   0.104E-01    0.716E-01
RMM:  14    -0.231524511255E+04    0.17217E-03   -0.53373E-03 31549   0.111E-01    0.685E-01
RMM:  15    -0.231524319700E+04    0.19155E-02   -0.21989E-03 28683   0.935E-02    0.301E-01
RMM:  16    -0.231524293861E+04    0.25839E-03   -0.16773E-03 32669   0.564E-02    0.179E-01
RMM:  17    -0.231524320296E+04   -0.26435E-03   -0.15914E-03 35460   0.491E-02    0.264E-01
RMM:  18    -0.231524294111E+04    0.26185E-03   -0.53000E-04 29651   0.423E-02    0.126E-01
RMM:  19    -0.231524293700E+04    0.41102E-05   -0.51703E-04 37712   0.225E-02    0.970E-02
RMM:  20    -0.231524296486E+04   -0.27869E-04   -0.28243E-04 36568   0.184E-02    0.108E-01
RMM:  21    -0.231524294329E+04    0.21579E-04   -0.10357E-04 31058   0.166E-02    0.828E-02
RMM:  22    -0.231524293626E+04    0.70221E-05   -0.93291E-05 37280   0.103E-02    0.662E-02
RMM:  23    -0.231524293124E+04    0.50224E-05   -0.55352E-05 35271   0.906E-03    0.504E-02
RMM:  24    -0.231524292124E+04    0.99982E-05   -0.20954E-05 29603   0.778E-03    0.220E-02
RMM:  25    -0.231524292271E+04   -0.14646E-05   -0.20179E-05 29373   0.385E-03    0.218E-02
RMM:  26    -0.231524292259E+04    0.11906E-06   -0.67392E-06 22291   0.386E-03
   2 F= -.23152429E+04 E0= -.23123542E+04  d E =-.304016E+00
       N       E                     dE             d eps       ncg     rms          rms(c)
DAV:   1    -0.231509287954E+04    0.15004E+00   -0.51353E+02 27720   0.239E+01    0.407E+00
RMM:   2    -0.231904243355E+04   -0.39496E+01   -0.11212E+01 27855   0.684E+00    0.247E+01
RMM:   3    -0.232866711869E+04   -0.96247E+01   -0.37556E+00 39214   0.242E+00    0.470E+01
RMM:   4    -0.231987951865E+04    0.87876E+01   -0.13986E+00 27957   0.228E+00    0.271E+01
RMM:   5    -0.233967621135E+04   -0.19797E+02   -0.21886E+00 36281   0.186E+00    0.682E+01
RMM:   6    -0.231871453289E+04    0.20962E+02   -0.17510E+00 29533   0.227E+00    0.205E+01
RMM:   7    -0.231952527376E+04   -0.81074E+00   -0.15447E+00 27825   0.260E+00    0.264E+01
RMM:   8    -0.231738219400E+04    0.21431E+01   -0.72668E-01 28137   0.172E+00    0.166E+01
RMM:   9    -0.231652044056E+04    0.86175E+00   -0.85756E-01 27746   0.201E+00    0.109E+01
RMM:  10    -0.231646276238E+04    0.57678E-01   -0.74100E-01 27804   0.181E+00    0.103E+01
RMM:  11    -0.231604103444E+04    0.42173E+00   -0.29216E-01 27725   0.132E+00    0.549E+00
RMM:  12    -0.231590153561E+04    0.13950E+00   -0.10043E-01 28131   0.659E-01    0.253E+00
RMM:  13    -0.231589433081E+04    0.72048E-02   -0.11506E-01 32325   0.468E-01    0.219E+00
RMM:  14    -0.231589644665E+04   -0.21158E-02   -0.82385E-02 32616   0.418E-01    0.212E+00
RMM:  15    -0.231587959995E+04    0.16847E-01   -0.29197E-02 28882   0.346E-01    0.121E+00
RMM:  16    -0.231587968833E+04   -0.88380E-04   -0.33967E-02 35934   0.221E-01    0.110E+00
RMM:  17    -0.231587905426E+04    0.63408E-03   -0.14816E-02 30974   0.193E-01    0.102E+00
RMM:  18    -0.231587820666E+04    0.84760E-03   -0.85423E-03 30622   0.158E-01    0.915E-01
RMM:  19    -0.231587759065E+04    0.61600E-03   -0.10454E-02 34676   0.131E-01    0.794E-01
RMM:  20    -0.231587558395E+04    0.20067E-02   -0.39903E-03 30253   0.111E-01    0.491E-01
RMM:  21    -0.231587536961E+04    0.21434E-03   -0.34698E-03 36344   0.648E-02    0.401E-01
RMM:  22    -0.231587530999E+04    0.59621E-04   -0.23417E-03 35681   0.572E-02    0.348E-01
RMM:  23    -0.231587483477E+04    0.47523E-03   -0.78001E-04 30681   0.477E-02    0.152E-01
RMM:  24    -0.231587486125E+04   -0.26489E-04   -0.82405E-04 37310   0.315E-02    0.141E-01
RMM:  25    -0.231587486546E+04   -0.42023E-05   -0.37289E-04 32496   0.273E-02    0.135E-01
RMM:  26    -0.231587480666E+04    0.58799E-04   -0.16469E-04 31659   0.196E-02    0.759E-02
RMM:  27    -0.231587482061E+04   -0.13956E-04   -0.18834E-04 40672   0.118E-02    0.784E-02
RMM:  28    -0.231587480416E+04    0.16455E-04   -0.61021E-05 32344   0.108E-02    0.477E-02
RMM:  29    -0.231587479772E+04    0.64401E-05   -0.37438E-05 33343   0.761E-03    0.258E-02
RMM:  30    -0.231587479990E+04   -0.21817E-05   -0.29252E-05 33644   0.529E-03    0.277E-02
RMM:  31    -0.231587479862E+04    0.12806E-05   -0.11817E-05 26744   0.483E-03    0.210E-02
RMM:  32    -0.231587479782E+04    0.79750E-06   -0.57457E-06 21253   0.352E-03
   3 F= -.23158748E+04 E0= -.23129717E+04  d E =-.935891E+00
       N       E                     dE             d eps       ncg     rms          rms(c)
DAV:   1    -0.231184421924E+04    0.40306E+01   -0.20559E+03 27720   0.489E+01    0.852E+00
RMM:   2    -0.232966887970E+04   -0.17825E+02   -0.58021E+01 27806   0.136E+01    0.512E+01
RMM:   3    -0.237451149369E+04   -0.44843E+02   -0.21221E+01 38591   0.610E+00    0.948E+01
RMM:   4    -0.233263277992E+04    0.41879E+02   -0.60087E+00 28158   0.446E+00    0.563E+01
RMM:   5    -0.241685096221E+04   -0.84218E+02   -0.10993E+01 32896   0.459E+00    0.135E+02
RMM:   6    -0.232434320874E+04    0.92508E+02   -0.67517E+00 33369   0.387E+00    0.349E+01
RMM:   7    -0.232010774387E+04    0.42355E+01   -0.51061E+00 27734   0.496E+00    0.278E+01
RMM:   8    -0.232213919068E+04   -0.20314E+01   -0.45031E+00 27748   0.473E+00    0.342E+01
RMM:   9    -0.232704798603E+04   -0.49088E+01   -0.67857E+00 36472   0.323E+00    0.459E+01
RMM:  10    -0.231730668063E+04    0.97413E+01   -0.27881E+00 27728   0.370E+00    0.151E+01
RMM:  11    -0.231630683983E+04    0.99984E+00   -0.11120E+00 27759   0.233E+00    0.935E+00
RMM:  12    -0.231618846205E+04    0.11838E+00   -0.10891E+00 36938   0.128E+00    0.769E+00
RMM:  13    -0.231608985205E+04    0.98610E-01   -0.64383E-01 32053   0.118E+00    0.596E+00
RMM:  14    -0.231605395339E+04    0.35899E-01   -0.29557E-01 29424   0.979E-01    0.534E+00
RMM:  15    -0.231599752884E+04    0.56425E-01   -0.21992E-01 33646   0.622E-01    0.410E+00
RMM:  16    -0.231596814080E+04    0.29388E-01   -0.15163E-01 35219   0.493E-01    0.338E+00
RMM:  17    -0.231596219458E+04    0.59462E-02   -0.59197E-02 30033   0.444E-01    0.320E+00
RMM:  18    -0.231593305235E+04    0.29142E-01   -0.57670E-02 31234   0.379E-01    0.204E+00
RMM:  19    -0.231591720270E+04    0.15850E-01   -0.21074E-02 28982   0.293E-01    0.120E+00
RMM:  20    -0.231591897495E+04   -0.17723E-02   -0.21162E-02 32149   0.208E-01    0.127E+00
RMM:  21    -0.231591900125E+04   -0.26302E-04   -0.14489E-02 32567   0.172E-01    0.117E+00
RMM:  22    -0.231591604187E+04    0.29594E-02   -0.71067E-03 29723   0.163E-01    0.875E-01
RMM:  23    -0.231591650942E+04   -0.46755E-03   -0.10609E-02 31550   0.161E-01    0.891E-01
RMM:  24    -0.231591485704E+04    0.16524E-02   -0.46341E-03 28899   0.135E-01    0.706E-01
RMM:  25    -0.231591371762E+04    0.11394E-02   -0.32585E-03 31487   0.894E-02    0.504E-01
RMM:  26    -0.231591331469E+04    0.40294E-03   -0.34884E-03 38985   0.584E-02    0.356E-01
RMM:  27    -0.231591307556E+04    0.23912E-03   -0.11903E-03 32090   0.504E-02    0.265E-01
RMM:  28    -0.231591313898E+04   -0.63414E-04   -0.11267E-03 38359   0.360E-02    0.267E-01
RMM:  29    -0.231591290325E+04    0.23573E-03   -0.46465E-04 33558   0.285E-02    0.148E-01
RMM:  30    -0.231591282665E+04    0.76604E-04   -0.20851E-04 31985   0.212E-02    0.776E-02
RMM:  31    -0.231591284277E+04   -0.16128E-04   -0.21638E-04 38311   0.150E-02    0.852E-02
RMM:  32    -0.231591282483E+04    0.17940E-04   -0.76482E-05 32286   0.122E-02    0.590E-02
RMM:  33    -0.231591282293E+04    0.19067E-05   -0.61157E-05 37386   0.787E-03    0.497E-02
RMM:  34    -0.231591282062E+04    0.23091E-05   -0.34555E-05 33892   0.712E-03    0.395E-02
RMM:  35    -0.231591281689E+04    0.37308E-05   -0.16665E-05 29392   0.647E-03    0.268E-02
RMM:  36    -0.231591281725E+04   -0.35760E-06   -0.12289E-05 26223   0.389E-03    0.254E-02
RMM:  37    -0.231591281590E+04    0.13437E-05   -0.52449E-06 20621   0.360E-03    0.190E-02
RMM:  38    -0.231591281549E+04    0.41380E-06   -0.27502E-06 17913   0.329E-03
   4 F= -.23159128E+04 E0= -.23130095E+04  d E =-.973908E+00
       N       E                     dE             d eps       ncg     rms          rms(c)
DAV:   1    -0.231537898038E+04    0.53384E+00   -0.47423E+02 27720   0.230E+01    0.404E+00
RMM:   2    -0.231951871548E+04   -0.41397E+01   -0.11483E+01 27780   0.711E+00    0.269E+01
RMM:   3    -0.232960452394E+04   -0.10086E+02   -0.34812E+00 37536   0.262E+00    0.488E+01
RMM:   4    -0.231928124708E+04    0.10323E+02   -0.12550E+00 29210   0.196E+00    0.233E+01
RMM:   5    -0.232316110374E+04   -0.38799E+01   -0.15071E+00 28040   0.235E+00    0.361E+01
RMM:   6    -0.232311699838E+04    0.44105E-01   -0.23253E+00 40902   0.133E+00    0.359E+01
RMM:   7    -0.231746856626E+04    0.56484E+01   -0.13039E+00 27755   0.241E+00    0.151E+01
RMM:   8    -0.231790338798E+04   -0.43482E+00   -0.10145E+00 30145   0.161E+00    0.188E+01
RMM:   9    -0.231642619377E+04    0.14772E+01   -0.58306E-01 27940   0.156E+00    0.747E+00
RMM:  10    -0.231654809413E+04   -0.12190E+00   -0.79463E-01 28031   0.171E+00    0.886E+00
RMM:  11    -0.231626097077E+04    0.28712E+00   -0.33989E-01 27730   0.136E+00    0.552E+00
RMM:  12    -0.231615134701E+04    0.10962E+00   -0.11834E-01 28457   0.685E-01    0.337E+00
RMM:  13    -0.231612376574E+04    0.27581E-01   -0.12394E-01 34166   0.417E-01    0.230E+00
RMM:  14    -0.231612562371E+04   -0.18580E-02   -0.76092E-02 31027   0.447E-01    0.233E+00
RMM:  15    -0.231610156761E+04    0.24056E-01   -0.25413E-02 27830   0.362E-01    0.102E+00
RMM:  16    -0.231610133293E+04    0.23468E-03   -0.22569E-02 33596   0.201E-01    0.926E-01
RMM:  17    -0.231610331918E+04   -0.19862E-02   -0.15983E-02 30894   0.202E-01    0.107E+00
RMM:  18    -0.231610113804E+04    0.21811E-02   -0.61796E-03 28715   0.170E-01    0.863E-01
RMM:  19    -0.231610070887E+04    0.42918E-03   -0.66988E-03 33704   0.105E-01    0.773E-01
RMM:  20    -0.231609908115E+04    0.16277E-02   -0.36530E-03 31863   0.908E-02    0.520E-01
RMM:  21    -0.231609844716E+04    0.63399E-03   -0.22094E-03 31819   0.706E-02    0.374E-01
RMM:  22    -0.231609851303E+04   -0.65872E-04   -0.28225E-03 37393   0.581E-02    0.349E-01
RMM:  23    -0.231609811422E+04    0.39881E-03   -0.97064E-04 31414   0.479E-02    0.187E-01
RMM:  24    -0.231609810401E+04    0.10211E-04   -0.89055E-04 39510   0.270E-02    0.149E-01
RMM:  25    -0.231609806820E+04    0.35813E-04   -0.36945E-04 37934   0.202E-02    0.113E-01
RMM:  26    -0.231609801920E+04    0.48992E-04   -0.11127E-04 30999   0.171E-02    0.633E-02
RMM:  27    -0.231609802343E+04   -0.42270E-05   -0.11274E-04 37799   0.111E-02    0.601E-02
RMM:  28    -0.231609802805E+04   -0.46134E-05   -0.65934E-05 32448   0.115E-02    0.631E-02
RMM:  29    -0.231609801368E+04    0.14367E-04   -0.25959E-05 29682   0.950E-03    0.346E-02
RMM:  30    -0.231609801419E+04   -0.51389E-06   -0.28950E-05 32971   0.565E-03    0.314E-02
RMM:  31    -0.231609801261E+04    0.15859E-05   -0.12856E-05 27545   0.529E-03    0.236E-02
RMM:  32    -0.231609801088E+04    0.17303E-05   -0.50740E-06 21047   0.390E-03    0.144E-02
RMM:  33    -0.231609801099E+04   -0.11761E-06   -0.39132E-06 20173   0.240E-03
   5 F= -.23160980E+04 E0= -.23131886E+04  d E =-.115910E+01
