unknown system                          
           1
     9.726678    0.000000    0.000000
     0.000000    8.423550    0.000000
     0.000000    0.000000   45.000000
   Fe   Mn
 281   7
Direct configuration=     1
   0.05346887  0.70184325  0.21143723
   0.31767409  0.72426781  0.87633577
   0.68748886  0.95823305  0.61122712
   0.43819391  0.45767439  0.61123551
   0.43993550  0.28822433  0.25546554
   0.05856819  0.38784964  0.83349563
   0.30822157  0.88749498  0.83348987
   0.44709150  0.62658710  0.70013649
   0.06082897  0.21151683  0.74480261
   0.17858515  0.45101573  0.21131723
   0.56790215  0.21063784  0.47744503
   0.06698044  0.87483107  0.56671466
   0.56767652  0.22482750  0.87599538
   0.80940933  0.53334744  0.12428249
   0.42864236  0.95110148  0.21131148
   0.56710080  0.37489903  0.56675035
   0.81223623  0.04185053  0.38859752
   0.68255043  0.78850192  0.52219262
   0.44285968  0.46066285  0.47743299
   0.43512075  0.96172102  0.74456723
   0.44202120  0.62501112  0.56671453
   0.05933483  0.53344553  0.12426270
   0.30943848  0.03334256  0.12429014
   0.69035477  0.95933128  0.34418757
   0.68122128  0.77760888  0.12409621
   0.05294476  0.37381020  0.29981920
   0.68867330  0.46685313  0.87592845
   0.42866396  0.45112769  0.21130643
   0.80839442  0.37501388  0.43311797
   0.56268515  0.70805909  0.61133720
   0.56021416  0.54130607  0.65567381
   0.93340481  0.12504470  0.43311667
   0.56583609  0.53749101  0.25546167
   0.69031369  0.45928230  0.34418316
   0.19130808  0.61246549  0.16682369
   0.19480890  0.79853108  0.78871691
   0.44775252  0.12563893  0.70011397
   0.92789792  0.62367850  0.29973682
   0.31812104  0.22403440  0.87611659
   0.31678284  0.87484223  0.56677687
   0.81825243  0.22380486  0.87620701
   0.81012142  0.54082256  0.65579172
   0.55943281  0.53333967  0.12427607
   0.56623672  0.86248310  0.16669898
   0.18994689  0.28819841  0.25546204
   0.80837667  0.87497328  0.43311052
   0.57227571  0.37620713  0.70008160
   0.05947082  0.03336783  0.12426842
   0.30980406  0.54072113  0.65581117
   0.56539137  0.20936012  0.34418524
   0.18771737  0.95799842  0.61133311
   0.30299450  0.37378097  0.29981441
   0.43469890  0.79067165  0.65572614
   0.68471027  0.46182692  0.74456652
   0.06629337  0.36245902  0.16670367
   0.69785281  0.62578888  0.70035851
   0.31219332  0.54183476  0.38857545
   0.06839980  0.72415372  0.87611704
   0.93362159  0.63787545  0.83356174
   0.32019938  0.54963377  0.78869546
   0.30343063  0.20186299  0.21143782
   0.06786508  0.71070620  0.47745508
   0.55341247  0.20173892  0.21143801
   0.31091382  0.21203263  0.74441782
   0.07223573  0.37590345  0.70042102
   0.18361301  0.63734886  0.83330359
   0.07120300  0.04858942  0.78867352
   0.44172738  0.12492570  0.56676629
   0.93495361  0.29130518  0.65569540
   0.80344460  0.20187843  0.21142210
   0.92860565  0.95103579  0.21131623
   0.94175533  0.62500861  0.56682558
   0.80860424  0.38795555  0.83347832
   0.19735979  0.62630597  0.70009931
   0.57220139  0.87580696  0.70046336
   0.68480419  0.29078883  0.65576025
   0.31271662  0.20810371  0.61128294
   0.43559664  0.46219743  0.74441271
   0.43723299  0.79185746  0.38861212
   0.68519453  0.96194201  0.74450397
   0.80342473  0.70182080  0.21144305
   0.81264867  0.70818951  0.61122592
   0.43134229  0.77763263  0.12410080
   0.31061454  0.71241121  0.74441275
   0.32143565  0.04899030  0.78868005
   0.81212251  0.54176296  0.38856455
   0.68239191  0.28822148  0.52235305
   0.69470767  0.79797248  0.78858425
   0.18995996  0.78823267  0.25546745
   0.69143490  0.11235473  0.16681473
   0.69284636  0.96065980  0.47745943
   0.94034123  0.95933018  0.34418897
   0.80766453  0.03827611  0.52222226
   0.68344273  0.62502756  0.43310266
   0.44032659  0.45929809  0.34417968
   0.81081258  0.21194994  0.74458102
   0.43859734  0.96723090  0.87588684
   0.56662686  0.87502961  0.56687381
   0.80950878  0.03329385  0.12428963
   0.42802454  0.62363357  0.29972475
   0.81765195  0.72428722  0.87602099
   0.68757732  0.45820246  0.61122852
   0.55819763  0.38761368  0.83322855
   0.80283862  0.37374555  0.29977718
   0.18702867  0.29176011  0.38850600
   0.82105589  0.54916615  0.78881598
   0.18249248  0.78839260  0.52232228
   0.30289172  0.87377643  0.29978223
   0.17868281  0.95101961  0.21129839
   0.18568160  0.46139720  0.74460173
   0.43250753  0.28828317  0.52231888
   0.06535625  0.70938867  0.34418742
   0.18484481  0.79075835  0.65584921
   0.44604101  0.79841246  0.78874415
   0.68342604  0.12498449  0.43310816
   0.93247572  0.78829624  0.52233503
   0.69136592  0.61246723  0.16681136
   0.81534352  0.70937271  0.34417875
   0.93504000  0.46174030  0.74454003
   0.19032822  0.45936286  0.34418139
   0.56965815  0.54922011  0.78883445
   0.56630099  0.36249479  0.16671358
   0.56533635  0.70939594  0.34417375
   0.55295545  0.37383477  0.29979697
   0.19027284  0.46722992  0.87599062
   0.19140731  0.11241510  0.16680557
   0.44486607  0.29875374  0.78869820
   0.68998230  0.78820747  0.25547042
   0.93330782  0.13746911  0.83352296
   0.44293028  0.96076244  0.47744800
   0.56724369  0.72349501  0.87612190
   0.19292724  0.46068136  0.47745629
   0.93111053  0.27758370  0.12409540
   0.31222277  0.04182289  0.38857477
   0.05982657  0.04055711  0.65584008
   0.55845761  0.37504960  0.43310834
   0.93352443  0.62496617  0.43309866
   0.31627289  0.36244869  0.16669053
   0.94687026  0.12612926  0.70006826
   0.55995703  0.04139524  0.65567533
   0.55726814  0.53828349  0.52232419
   0.17807462  0.12362130  0.29974010
   0.44129580  0.11239533  0.16680717
   0.67797285  0.62371959  0.29976576
   0.92807620  0.12353795  0.29970574
   0.81680384  0.37467693  0.56677262
   0.05294302  0.87378186  0.29977975
   0.19174641  0.62492601  0.56674557
   0.94603683  0.79777791  0.78860254
   0.30808426  0.38726991  0.83348594
   0.93899735  0.46666970  0.87592845
   0.43378231  0.63749348  0.83340526
   0.06532533  0.20945618  0.34417427
   0.18962098  0.96611716  0.87601826
   0.93127721  0.77759191  0.12409928
   0.68711162  0.79178461  0.38854377
   0.93469259  0.79071894  0.65581585
   0.94136713  0.11245818  0.16677979
   0.43476666  0.29073328  0.65586108
   0.05341105  0.20184858  0.21143563
   0.67862436  0.95102967  0.21130540
   0.17803229  0.62380414  0.29978243
   0.82257083  0.87585054  0.70010446
   0.94711022  0.62588825  0.70018568
   0.19731321  0.12601966  0.70016371
   0.94283038  0.46079274  0.47745388
   0.81268338  0.20800475  0.61136332
   0.18344903  0.62497816  0.43309193
   0.42802109  0.12387071  0.29977731
   0.67809108  0.12384999  0.29978709
   0.56216838  0.54184746  0.38856892
   0.81533340  0.20940939  0.34418677
   0.43929868  0.46728398  0.87603258
   0.55862996  0.88775149  0.83346762
   0.31792579  0.21069369  0.47744059
   0.19287521  0.96079593  0.47745325
   0.05860079  0.88732974  0.83346845
   0.05734391  0.53822818  0.52234835
   0.94280412  0.96079148  0.47746553
   0.06276657  0.70802991  0.61124001
   0.55739889  0.03821120  0.52234460
   0.69625794  0.29842979  0.78862458
   0.81624889  0.36250083  0.16669210
   0.43344528  0.12504000  0.43309763
   0.06799788  0.21073955  0.47746894
   0.30978042  0.04079295  0.65573407
   0.43238371  0.78823855  0.52218526
   0.18385605  0.13856249  0.83359918
   0.18113689  0.27765942  0.12411013
   0.94029028  0.45932871  0.34418040
   0.31623609  0.86249026  0.16670306
   0.30345834  0.70186698  0.21142935
   0.94133122  0.61242698  0.16681674
   0.18766265  0.45832141  0.61124418
   0.07233543  0.87617466  0.69993771
   0.05977866  0.54065775  0.65580492
   0.30946239  0.53341022  0.12427798
   0.93716673  0.79180097  0.38856886
   0.94626070  0.29844835  0.78862086
   0.18483300  0.29108103  0.65572565
   0.93785278  0.95799479  0.61123434
   0.81130489  0.71138735  0.74461532
   0.69004650  0.28816850  0.25545618
   0.06124966  0.71140690  0.74474608
   0.67870651  0.45106677  0.21131056
   0.81797815  0.21069255  0.47742682
   0.56795828  0.71058828  0.47750638
   0.06621714  0.86247717  0.16669664
   0.93231668  0.28849841  0.52229304
   0.68466609  0.79068898  0.65580348
   0.05840722  0.87498400  0.43309188
   0.06841575  0.22399563  0.87610063
   0.81011014  0.04145627  0.65592274
   0.55950971  0.03333617  0.12428552
   0.30838564  0.37500064  0.43312099
   0.31686033  0.37482072  0.56677993
   0.31788826  0.71060033  0.47746225
   0.05728123  0.03822000  0.52232374
   0.32232827  0.87608870  0.70001629
   0.06581747  0.53756065  0.25544700
   0.68365029  0.13760878  0.83345621
   0.81581364  0.03751867  0.25545577
   0.18346761  0.12503807  0.43310797
   0.69849927  0.12630892  0.70010516
   0.18239371  0.28822077  0.52232104
   0.43993997  0.78822722  0.25546010
   0.81590163  0.53755022  0.25546879
   0.06273683  0.20814601  0.61123243
   0.18704326  0.79177687  0.38852107
   0.30745806  0.53844614  0.52233208
   0.81627271  0.86247928  0.16670757
   0.68707793  0.29178269  0.38854658
   0.19156385  0.12505251  0.56690031
   0.68953021  0.96738599  0.87607864
   0.69208006  0.12486845  0.56670556
   0.44030514  0.95926859  0.34419677
   0.18506778  0.96258122  0.74473238
   0.93999714  0.78822854  0.25545176
   0.55838583  0.87496186  0.43308481
   0.30839022  0.87498202  0.43312156
   0.80738786  0.53827890  0.52231226
   0.92860113  0.45101134  0.21131437
   0.31585253  0.53753312  0.25545120
   0.56211339  0.04179954  0.38855851
   0.93771351  0.45819359  0.61134529
   0.06220257  0.04178767  0.38857983
   0.06212334  0.54183922  0.38856034
   0.43719879  0.29185317  0.38857939
   0.69302619  0.46073060  0.47745946
   0.06703631  0.37462878  0.56675239
   0.55340065  0.70180752  0.21143751
   0.93992769  0.28823026  0.25546020
   0.82052803  0.04954404  0.78878778
   0.19026462  0.95932130  0.34418391
   0.55287520  0.87382818  0.29979131
   0.05840825  0.37499547  0.43310785
   0.31531724  0.70940108  0.34418447
   0.31537086  0.20940497  0.34418845
   0.94172700  0.12497757  0.56686319
   0.43816025  0.95808777  0.61129592
   0.56583222  0.03747695  0.25544415
   0.18111286  0.77763015  0.12410485
   0.06585573  0.03755227  0.25545207
   0.69172706  0.62496981  0.56679707
   0.44136727  0.61254043  0.16682576
   0.30714788  0.03835601  0.52225662
   0.68113097  0.27769235  0.12410903
   0.81793699  0.71068764  0.47744802
   0.43378410  0.13777753  0.83354726
   0.32245132  0.37553674  0.70010663
   0.68378696  0.63792673  0.83354635
   0.56103717  0.71294668  0.74454767
   0.93715097  0.29182208  0.38854193
   0.93878797  0.96672149  0.87594884
   0.93498164  0.96162064  0.74456759
   0.81686441  0.87436442  0.56682732
   0.80286408  0.87387403  0.29978343
   0.31591554  0.03753296  0.25546105
   0.43114050  0.27749247  0.12408805
   0.31250481  0.70788781  0.61137141
   0.43337145  0.62502893  0.43308977
   0.19674585  0.29706204  0.78841438
   0.57155879  0.04948809  0.78864646
   0.07098716  0.55017045  0.78876291
   0.82249995  0.37651685  0.70022410
   0.56090943  0.21249671  0.74468741
   0.56259106  0.20676817  0.61127620
   0.80729526  0.88880974  0.83431968
Direct configuration=     2
   0.05399095  0.70178796  0.21144391
   0.31748118  0.72363653  0.87624457
   0.68762702  0.95813580  0.61124234
   0.43818330  0.45765702  0.61125463
   0.43941091  0.28806717  0.25550361
   0.05899831  0.38769615  0.83360589
   0.30862942  0.88736570  0.83357465
   0.44647345  0.62660705  0.70014788
   0.06127296  0.21172644  0.74474766
   0.17909919  0.45107341  0.21131737
   0.56734945  0.21040242  0.47749884
   0.06656591  0.87476343  0.56670488
   0.56737032  0.22415232  0.87594256
   0.80952632  0.53283083  0.12435203
   0.42914490  0.95112857  0.21131254
   0.56669800  0.37483368  0.56673123
   0.81219831  0.04188480  0.38859232
   0.68307923  0.78877731  0.52218062
   0.44230206  0.46041255  0.47748607
   0.43565244  0.96181433  0.74454140
   0.44158429  0.62497486  0.56671233
   0.05947044  0.53290840  0.12433684
   0.30955335  0.03282418  0.12435661
   0.68989877  0.95924556  0.34421778
   0.68157355  0.77807396  0.12416296
   0.05361857  0.37375608  0.29981277
   0.68864099  0.46744780  0.87584457
   0.42915597  0.45114410  0.21130865
   0.80876924  0.37503812  0.43311562
   0.56276503  0.70800241  0.61133937
   0.56065238  0.54127178  0.65564456
   0.93378316  0.12506323  0.43311858
   0.56520330  0.53753002  0.25549356
   0.68986238  0.45920587  0.34421335
   0.19088240  0.61265409  0.16672193
   0.19459166  0.79852505  0.78868487
   0.44710581  0.12565489  0.70010763
   0.92860502  0.62366739  0.29974208
   0.31770094  0.22343359  0.87606670
   0.31639644  0.87476686  0.56675676
   0.81796591  0.22315719  0.87612472
   0.81053684  0.54095455  0.65575255
   0.55954529  0.53282196  0.12434823
   0.56574240  0.86265026  0.16663628
   0.18941771  0.28804902  0.25550249
   0.80875383  0.87499923  0.43311252
   0.57152933  0.37627173  0.70009514
   0.05958722  0.03285064  0.12433921
   0.31027307  0.54078345  0.65576207
   0.56493313  0.20926264  0.34420993
   0.18781277  0.95791337  0.61133679
   0.30364154  0.37373837  0.29980911
   0.43516490  0.79078439  0.65568843
   0.68529813  0.46194688  0.74455659
   0.06578251  0.36263786  0.16664015
   0.69706474  0.62590661  0.70032852
   0.31215995  0.54187543  0.38857553
   0.06796811  0.72346988  0.87604562
   0.93407254  0.63778700  0.83361376
   0.31987158  0.54960305  0.78870134
   0.30395848  0.20180381  0.21144534
   0.06732004  0.71045346  0.47750496
   0.55394611  0.20170951  0.21144433
   0.31140249  0.21205757  0.74439963
   0.07163198  0.37596430  0.70038172
   0.18403429  0.63717787  0.83336890
   0.07061232  0.04854328  0.78870665
   0.44136191  0.12487699  0.56675265
   0.93540123  0.29132847  0.65568015
   0.80396937  0.20181191  0.21143188
   0.92911425  0.95108068  0.21131518
   0.94141105  0.62493537  0.56680038
   0.80903440  0.38783089  0.83357582
   0.19668090  0.62639590  0.70010186
   0.57149532  0.87590443  0.70042226
   0.68526814  0.29088540  0.65572394
   0.31272076  0.20806540  0.61129285
   0.43603237  0.46227898  0.74439841
   0.43718878  0.79188589  0.38860360
   0.68584215  0.96203958  0.74448718
   0.80395033  0.70176478  0.21144982
   0.81278706  0.70813519  0.61123837
   0.43167036  0.77809988  0.12416698
   0.31101050  0.71246417  0.74440720
   0.32084066  0.04893403  0.78869878
   0.81209772  0.54181872  0.38856616
   0.68295604  0.28851208  0.52230538
   0.69438598  0.79795398  0.78858614
   0.18942544  0.78807042  0.25550589
   0.69098449  0.11257520  0.16671675
   0.69229846  0.96042055  0.47750974
   0.93988420  0.95924842  0.34421657
   0.80818584  0.03852916  0.52218414
   0.68382240  0.62504429  0.43310678
   0.43987429  0.45922563  0.34420997
   0.81128539  0.21197864  0.74456055
   0.43856891  0.96774492  0.87581427
   0.56630789  0.87497814  0.56683842
   0.80960497  0.03278739  0.12435663
   0.42870003  0.62363469  0.29973169
   0.81722896  0.72362010  0.87602340
   0.68767842  0.45812617  0.61124170
   0.55846844  0.38750547  0.83334646
   0.80353376  0.37370316  0.29977971
   0.18701948  0.29181297  0.38851795
   0.82057072  0.54922750  0.78883371
   0.18303406  0.78867261  0.52228370
   0.30357357  0.87373326  0.29978401
   0.17917473  0.95107416  0.21130224
   0.18613948  0.46161444  0.74458273
   0.43303224  0.28856552  0.52227698
   0.06490017  0.70929241  0.34421056
   0.18531431  0.79080527  0.65580442
   0.44556280  0.79841014  0.78872539
   0.68379520  0.12502153  0.43310864
   0.93301656  0.78856961  0.52230017
   0.69092248  0.61266270  0.16671360
   0.81489572  0.70927280  0.34420439
   0.93562466  0.46186412  0.74453138
   0.18987595  0.45926976  0.34421117
   0.56935603  0.54920525  0.78883456
   0.56579024  0.36266336  0.16664961
   0.56488557  0.70929394  0.34420042
   0.55362828  0.37377324  0.29979443
   0.19004147  0.46778199  0.87591417
   0.19096101  0.11262585  0.16670908
   0.44453745  0.29878071  0.78867328
   0.68943697  0.78805211  0.25550981
   0.93376129  0.13733965  0.83358388
   0.44235327  0.96050414  0.47750049
   0.56702142  0.72292728  0.87606001
   0.19235676  0.46044791  0.47751050
   0.93147212  0.27805675  0.12416032
   0.31217726  0.04186585  0.38857431
   0.06032176  0.04067507  0.65578309
   0.55881877  0.37506259  0.43311000
   0.93387342  0.62500369  0.43310059
   0.31577197  0.36262495  0.16662891
   0.94628580  0.12609052  0.70008279
   0.56039560  0.04134936  0.65566568
   0.55784241  0.53863381  0.52227364
   0.17874669  0.12361688  0.29974238
   0.44087862  0.11260574  0.16671059
   0.67866097  0.62370140  0.29976388
   0.92874736  0.12355263  0.29971589
   0.81639692  0.37464119  0.56676269
   0.05361119  0.87372917  0.29978213
   0.19137443  0.62488246  0.56673552
   0.94542983  0.79776128  0.78859955
   0.30841280  0.38714693  0.83357087
   0.93904320  0.46729874  0.87585526
   0.43417903  0.63728674  0.83348422
   0.06488431  0.20934040  0.34420015
   0.18954518  0.96673313  0.87592945
   0.93161603  0.77806535  0.12416567
   0.68709119  0.79183277  0.38854777
   0.93513959  0.79082555  0.65577746
   0.94093563  0.11265129  0.16668864
   0.43520972  0.29083553  0.65581445
   0.05394755  0.20178802  0.21144239
   0.67912959  0.95107651  0.21130861
   0.17870741  0.62376155  0.29977659
   0.82187300  0.87588777  0.70011282
   0.94655254  0.62598972  0.70018282
   0.19666105  0.12599874  0.70014935
   0.94228706  0.46053114  0.47750957
   0.81280553  0.20798831  0.61135063
   0.18381261  0.62501217  0.43309750
   0.42870766  0.12381627  0.29977523
   0.67875495  0.12379368  0.29978009
   0.56212907  0.54188792  0.38856987
   0.81489352  0.20929060  0.34420861
   0.43933431  0.46791143  0.87592720
   0.55890739  0.88750260  0.83356033
   0.31736349  0.21045281  0.47749467
   0.19232264  0.96054978  0.47751217
   0.05898821  0.88715256  0.83353946
   0.05789590  0.53852289  0.52230880
   0.94226197  0.96054106  0.47751961
   0.06281020  0.70796437  0.61125175
   0.55795664  0.03852649  0.52230293
   0.69581180  0.29843645  0.78862288
   0.81574918  0.36266341  0.16663118
   0.43381269  0.12506935  0.43310045
   0.06742597  0.21050202  0.47751892
   0.31025157  0.04090181  0.65568387
   0.43292763  0.78857198  0.52217139
   0.18428545  0.13836676  0.83362967
   0.18150519  0.27812628  0.12417279
   0.93984675  0.45924643  0.34420863
   0.31573997  0.86264978  0.16663992
   0.30397630  0.70179719  0.21143826
   0.94090676  0.61262053  0.16671934
   0.18776658  0.45829444  0.61126260
   0.07171989  0.87628960  0.69998249
   0.06026666  0.54075208  0.65577101
   0.30956884  0.53288646  0.12435093
   0.93713274  0.79184725  0.38856852
   0.94563992  0.29850479  0.78863852
   0.18527174  0.29109694  0.65570254
   0.93791965  0.95794341  0.61125640
   0.81186431  0.71160172  0.74457607
   0.68948827  0.28801743  0.25549579
   0.06167867  0.71163282  0.74468989
   0.67918737  0.45110743  0.21131233
   0.81739999  0.21043732  0.47748248
   0.56739245  0.71033975  0.47755272
   0.06572295  0.86265025  0.16663455
   0.93289243  0.28875627  0.52225929
   0.68514988  0.79084817  0.65577329
   0.05877370  0.87500099  0.43309211
   0.06803407  0.22342689  0.87605360
   0.81053109  0.04143295  0.65585806
   0.55961953  0.03282432  0.12435455
   0.30876722  0.37502877  0.43311801
   0.31651611  0.37478491  0.56676195
   0.31731845  0.71036249  0.47750747
   0.05783771  0.03853659  0.52228808
   0.32160744  0.87616140  0.70002980
   0.06519188  0.53758902  0.25548353
   0.68414663  0.13754815  0.83350459
   0.81518336  0.03755622  0.25548691
   0.18382864  0.12505545  0.43311095
   0.69758593  0.12629820  0.70010668
   0.18295372  0.28851127  0.52228483
   0.43941730  0.78806961  0.25550022
   0.81525400  0.53757987  0.25549916
   0.06282007  0.20806516  0.61123008
   0.18703747  0.79183261  0.38853126
   0.30799951  0.53869471  0.52229498
   0.81576980  0.86264020  0.16664535
   0.68706741  0.29183007  0.38855298
   0.19121372  0.12494782  0.56687163
   0.68938860  0.96793030  0.87604551
   0.69166499  0.12480913  0.56669408
   0.43985763  0.95919489  0.34422368
   0.18563886  0.96251155  0.74466371
   0.93945706  0.78807128  0.25549199
   0.55876101  0.87499898  0.43308929
   0.30876791  0.87500930  0.43312227
   0.80793130  0.53856823  0.52227749
   0.92911189  0.45106177  0.21131509
   0.31521081  0.53756410  0.25548425
   0.56208965  0.04183825  0.38856228
   0.93777388  0.45820193  0.61134412
   0.06215735  0.04183417  0.38857841
   0.06209135  0.54187244  0.38856200
   0.43715806  0.29188774  0.38857832
   0.69243948  0.46048392  0.47751033
   0.06662634  0.37460173  0.56674076
   0.55394461  0.70175774  0.21144551
   0.93940940  0.28807356  0.25550033
   0.82014117  0.04945610  0.78878218
   0.18982853  0.95924082  0.34421318
   0.55356005  0.87377161  0.29979083
   0.05878375  0.37501821  0.43311012
   0.31488265  0.70929199  0.34420815
   0.31491912  0.20929327  0.34421376
   0.94137232  0.12487474  0.56683198
   0.43811451  0.95799559  0.61129852
   0.56520408  0.03752312  0.25548142
   0.18148889  0.77808930  0.12416933
   0.06522017  0.03758298  0.25548502
   0.69135297  0.62492477  0.56677340
   0.44093134  0.61271074  0.16672550
   0.30772840  0.03860576  0.52222135
   0.68149913  0.27814248  0.12417330
   0.81737073  0.71043251  0.47750247
   0.43424722  0.13769189  0.83360342
   0.32177662  0.37569489  0.70011848
   0.68427782  0.63787638  0.83359425
   0.56148497  0.71290724  0.74453757
   0.93713142  0.29186162  0.38854716
   0.93884383  0.96741217  0.87590020
   0.93554845  0.96162040  0.74452952
   0.81649431  0.87440044  0.56680139
   0.80354707  0.87381232  0.29978498
   0.31526724  0.03757439  0.25549470
   0.43149365  0.27797699  0.12415659
   0.31253337  0.70782234  0.61136586
   0.43373966  0.62504060  0.43309503
   0.19624784  0.29714984  0.78842272
   0.57109699  0.04931501  0.78863912
   0.07048058  0.55008361  0.78874876
   0.82184396  0.37645372  0.70021494
   0.56137572  0.21255581  0.74463892
   0.56266546  0.20691678  0.61126994
   0.80773782  0.88850634  0.83431419
Direct configuration=     3
   0.05555720  0.70162210  0.21146394
   0.31690247  0.72174269  0.87597096
   0.68804150  0.95784404  0.61128801
   0.43815146  0.45760492  0.61131199
   0.43783713  0.28759568  0.25561779
   0.06028870  0.38723567  0.83393665
   0.30985294  0.88697784  0.83382896
   0.44461933  0.62666687  0.70018203
   0.06260490  0.21235527  0.74458281
   0.18064129  0.45124648  0.21131780
   0.56569137  0.20969615  0.47766028
   0.06532233  0.87456053  0.56667552
   0.56645173  0.22212679  0.87578410
   0.80987730  0.53128101  0.12456067
   0.43065252  0.95120984  0.21131573
   0.56548958  0.37463763  0.56667385
   0.81208454  0.04198758  0.38857671
   0.68466565  0.78960349  0.52214461
   0.44062919  0.45966166  0.47764531
   0.43724753  0.96209427  0.74446389
   0.44027355  0.62486607  0.56670574
   0.05987725  0.53129700  0.12455927
   0.30989795  0.03126902  0.12455603
   0.68853079  0.95898840  0.34430841
   0.68263035  0.77946920  0.12436320
   0.05564001  0.37359370  0.29979348
   0.68854405  0.46923181  0.87559290
   0.43063197  0.45119333  0.21131532
   0.80989368  0.37511082  0.43310857
   0.56300469  0.70783237  0.61134587
   0.56196706  0.54116889  0.65555684
   0.93491820  0.12511883  0.43312429
   0.56330490  0.53764707  0.25558925
   0.68850846  0.45897659  0.34430391
   0.18960539  0.61321991  0.16641665
   0.19393994  0.79850697  0.78858874
   0.44516568  0.12570275  0.70008858
   0.93072632  0.62363409  0.29975788
   0.31644064  0.22163118  0.87591702
   0.31523726  0.87454072  0.56669641
   0.81710635  0.22121418  0.87587783
   0.81178311  0.54135053  0.65563503
   0.55988274  0.53126884  0.12456468
   0.56425944  0.86315174  0.16644818
   0.18783016  0.28760086  0.25562384
   0.80988531  0.87507708  0.43311852
   0.56929018  0.37646551  0.70013579
   0.05993642  0.03129905  0.12455158
   0.31168009  0.54097041  0.65561476
   0.56355841  0.20897020  0.34428402
   0.18809899  0.95765822  0.61134783
   0.30558268  0.37361058  0.29979321
   0.43656293  0.79112263  0.65557529
   0.68706173  0.46230679  0.74452681
   0.06424991  0.36317437  0.16644960
   0.69470050  0.62625981  0.70023852
   0.31205986  0.54199746  0.38857576
   0.06667304  0.72141838  0.87583135
   0.93542539  0.63752166  0.83376984
   0.31888819  0.54951088  0.78871898
   0.30554203  0.20162628  0.21146789
   0.06568494  0.70969524  0.47765461
   0.55554700  0.20162129  0.21146330
   0.31286850  0.21213240  0.74434509
   0.06982073  0.37614687  0.70026383
   0.18529812  0.63666488  0.83356483
   0.06884029  0.04840487  0.78880602
   0.44026548  0.12473084  0.56671173
   0.93674409  0.29139833  0.65563440
   0.80554365  0.20161232  0.21146119
   0.93064005  0.95121538  0.21131203
   0.94037821  0.62471567  0.56672479
   0.81032485  0.38745693  0.83386831
   0.19464422  0.62666567  0.70010952
   0.56937711  0.87619682  0.70029897
   0.68666000  0.29117511  0.65561502
   0.31273316  0.20795045  0.61132259
   0.43733956  0.46252364  0.74435548
   0.43705613  0.79197117  0.38857804
   0.68778500  0.96233230  0.74443681
   0.80552710  0.70159671  0.21147011
   0.81320223  0.70797222  0.61127573
   0.43265457  0.77950162  0.12436554
   0.31219838  0.71262306  0.74439056
   0.31905569  0.04876522  0.78875495
   0.81202333  0.54198601  0.38857098
   0.68464842  0.28938389  0.52216237
   0.69342092  0.79789847  0.78859180
   0.18782190  0.78758367  0.25562120
   0.68963326  0.11323658  0.16642280
   0.69065476  0.95970282  0.47766069
   0.93851310  0.95900316  0.34429938
   0.80974975  0.03928833  0.52206980
   0.68496142  0.62509448  0.43311913
   0.43851737  0.45900827  0.34430084
   0.81270383  0.21206476  0.74449913
   0.43848361  0.96928700  0.87559658
   0.56535099  0.87482374  0.56673223
   0.80989354  0.03126799  0.12455761
   0.43072653  0.62363808  0.29975248
   0.81596001  0.72161873  0.87603064
   0.68798174  0.45789729  0.61128125
   0.55928090  0.38718086  0.83370018
   0.80561918  0.37357599  0.29978732
   0.18699190  0.29197156  0.38855380
   0.81911520  0.54941156  0.78888688
   0.18465880  0.78951263  0.52216795
   0.30561912  0.87360376  0.29978937
   0.18065051  0.95123782  0.21131377
   0.18751315  0.46226617  0.74452570
   0.43460636  0.28941258  0.52215127
   0.06353193  0.70900364  0.34427998
   0.18672278  0.79094602  0.65567006
   0.44412816  0.79840318  0.78866913
   0.68490269  0.12513262  0.43311010
   0.93463907  0.78938973  0.52219559
   0.68959215  0.61324911  0.16642034
   0.81355230  0.70897308  0.34428130
   0.93737864  0.46223556  0.74450544
   0.18851913  0.45899047  0.34430052
   0.56844964  0.54916065  0.78883488
   0.56425800  0.36316908  0.16645771
   0.56353325  0.70898793  0.34428044
   0.55564676  0.37358865  0.29978680
   0.18934734  0.46943820  0.87568480
   0.18962209  0.11325809  0.16641962
   0.44355161  0.29886160  0.78859852
   0.68780095  0.78758603  0.25562797
   0.93512170  0.13695126  0.83376663
   0.44062223  0.95972925  0.47765797
   0.56635461  0.72122411  0.87587434
   0.19064534  0.45974755  0.47767313
   0.93255691  0.27947587  0.12435508
   0.31204071  0.04199471  0.38857293
   0.06180731  0.04102895  0.65561213
   0.55990225  0.37510157  0.43311499
   0.93492039  0.62511624  0.43310641
   0.31426921  0.36315373  0.16644404
   0.94453243  0.12597431  0.70012640
   0.56171130  0.04121170  0.65563676
   0.55956522  0.53968479  0.52212201
   0.18076289  0.12360359  0.29974921
   0.43962707  0.11323698  0.16642086
   0.68072533  0.62364680  0.29975825
   0.93076086  0.12359666  0.29974634
   0.81517615  0.37453397  0.56673290
   0.05561568  0.87357112  0.29978926
   0.19025848  0.62475181  0.56670536
   0.94360882  0.79771139  0.78859060
   0.30939843  0.38677798  0.83382565
   0.93918076  0.46918589  0.87563571
   0.43536920  0.63666652  0.83372110
   0.06356126  0.20899307  0.34427778
   0.18931776  0.96858103  0.87566303
   0.93263248  0.77948566  0.12436483
   0.68702990  0.79197726  0.38855977
   0.93648059  0.79114537  0.65566232
   0.93964113  0.11323062  0.16641518
   0.43653889  0.29114226  0.65567456
   0.05555707  0.20160635  0.21146267
   0.68064529  0.95121701  0.21131825
   0.18073277  0.62363379  0.29975906
   0.81977951  0.87599946  0.70013792
   0.94487952  0.62629410  0.70017425
   0.19470456  0.12593597  0.70010625
   0.94065710  0.45974633  0.47767666
   0.81317196  0.20793900  0.61131257
   0.18490338  0.62511421  0.43311423
   0.43076738  0.12365293  0.29976899
   0.68074657  0.12362476  0.29975908
   0.56201112  0.54200928  0.38857273
   0.81357389  0.20893424  0.34427414
   0.43944123  0.46979377  0.87561106
   0.55973970  0.88675593  0.83383848
   0.31567660  0.20973016  0.47765688
   0.19066491  0.95981134  0.47768892
   0.06015046  0.88662103  0.83375248
   0.05955187  0.53940701  0.52219015
   0.94063553  0.95978983  0.47768186
   0.06294111  0.70776776  0.61128696
   0.55962992  0.03947237  0.52217790
   0.69447336  0.29845641  0.78861780
   0.81425005  0.36315115  0.16644841
   0.43491492  0.12515740  0.43310891
   0.06571023  0.20978944  0.47766884
   0.31166503  0.04122841  0.65553327
   0.43455936  0.78957229  0.52212980
   0.18557368  0.13777959  0.83372115
   0.18261007  0.27952688  0.12436075
   0.93851614  0.45899957  0.34429333
   0.31425159  0.86312835  0.16645049
   0.30553020  0.70158782  0.21146499
   0.93963337  0.61320118  0.16642715
   0.18807836  0.45821354  0.61131784
   0.06987327  0.87663440  0.70011683
   0.06173065  0.54103508  0.65566929
   0.30988822  0.53131520  0.12456979
   0.93703076  0.79198609  0.38856752
   0.94377760  0.29867412  0.78869149
   0.18658796  0.29114469  0.65563320
   0.93812029  0.95778927  0.61132259
   0.81354258  0.71224485  0.74445832
   0.68781358  0.28756420  0.25561460
   0.06296568  0.71231059  0.74452132
   0.68062995  0.45122940  0.21131761
   0.81566554  0.20967164  0.47764946