 288 288   0   0
  0.1280206E+02  0.9726678E-09  0.8423550E-09  0.4500000E-08  0.2500000E-15
   1.0000000000000000E-004
  CAR 
 unknown system                          
      6.75006574     -6.06576203  301      4.30909851      1.00000000
     -6.066  0.0000E+00  0.0000E+00
     -6.023  0.0000E+00  0.0000E+00
     -5.980  0.0000E+00  0.0000E+00
     -5.938  0.0000E+00  0.0000E+00
     -5.895  0.0000E+00  0.0000E+00
     -5.852  0.0000E+00  0.0000E+00
     -5.809  0.0000E+00  0.0000E+00
     -5.767  0.0000E+00  0.0000E+00
     -5.724  0.0000E+00  0.0000E+00
     -5.681  0.0000E+00  0.0000E+00
     -5.639  0.0000E+00  0.0000E+00
     -5.596  0.0000E+00  0.0000E+00
     -5.553  0.0000E+00  0.0000E+00
     -5.510  0.0000E+00  0.0000E+00
     -5.468  0.0000E+00  0.0000E+00
     -5.425  0.1624E-17  0.6939E-19
     -5.382  0.3898E-16  0.1735E-17
     -5.340  0.8329E-15  0.3732E-16
     -5.297  0.1519E-13  0.6862E-15
     -5.254  0.2360E-12  0.1077E-13
     -5.211  0.3123E-11  0.1442E-12
     -5.169  0.3521E-10  0.1649E-11
     -5.126  0.3384E-09  0.1610E-10
     -5.083  0.2772E-08  0.1345E-09
     -5.040  0.1937E-07  0.9619E-09
     -4.998  0.1155E-06  0.5898E-08
     -4.955  0.5893E-06  0.3107E-07
     -4.912  0.2575E-05  0.1411E-06
     -4.870  0.9667E-05  0.5541E-06
     -4.827  0.3133E-04  0.1892E-05
     -4.784  0.8821E-04  0.5661E-05
     -4.741  0.2177E-03  0.1496E-04
     -4.699  0.4766E-03  0.3532E-04
     -4.656  0.9375E-03  0.7537E-04
     -4.613  0.1679E-02  0.1471E-03
     -4.571  0.2770E-02  0.2654E-03
     -4.528  0.4243E-02  0.4467E-03
     -4.485  0.6074E-02  0.7062E-03
     -4.442  0.8167E-02  0.1055E-02
     -4.400  0.1037E-01  0.1498E-02
     -4.357  0.1248E-01  0.2031E-02
     -4.314  0.1433E-01  0.2643E-02
     -4.272  0.1580E-01  0.3318E-02
     -4.229  0.1689E-01  0.4040E-02
     -4.186  0.1776E-01  0.4798E-02
     -4.143  0.1861E-01  0.5593E-02
     -4.101  0.1969E-01  0.6434E-02
     -4.058  0.2117E-01  0.7339E-02
     -4.015  0.2308E-01  0.8325E-02
     -3.973  0.2527E-01  0.9404E-02
     -3.930  0.2746E-01  0.1058E-01
     -3.887  0.2931E-01  0.1183E-01
     -3.844  0.3057E-01  0.1314E-01
     -3.802  0.3114E-01  0.1447E-01
     -3.759  0.3114E-01  0.1580E-01
     -3.716  0.3089E-01  0.1712E-01
     -3.673  0.3077E-01  0.1843E-01
     -3.631  0.3109E-01  0.1976E-01
     -3.588  0.3203E-01  0.2113E-01
     -3.545  0.3353E-01  0.2256E-01
     -3.503  0.3541E-01  0.2407E-01
     -3.460  0.3739E-01  0.2567E-01
     -3.417  0.3918E-01  0.2734E-01
     -3.374  0.4057E-01  0.2908E-01
     -3.332  0.4145E-01  0.3085E-01
     -3.289  0.4185E-01  0.3263E-01
     -3.246  0.4194E-01  0.3443E-01
     -3.204  0.4202E-01  0.3622E-01
     -3.161  0.4244E-01  0.3803E-01
     -3.118  0.4350E-01  0.3989E-01
     -3.075  0.4528E-01  0.4183E-01
     -3.033  0.4762E-01  0.4386E-01
     -2.990  0.5012E-01  0.4600E-01
     -2.947  0.5226E-01  0.4823E-01
     -2.905  0.5357E-01  0.5052E-01
     -2.862  0.5392E-01  0.5283E-01
     -2.819  0.5360E-01  0.5512E-01
     -2.776  0.5324E-01  0.5739E-01
     -2.734  0.5345E-01  0.5967E-01
     -2.691  0.5437E-01  0.6200E-01
     -2.648  0.5564E-01  0.6437E-01
     -2.605  0.5659E-01  0.6679E-01
     -2.563  0.5677E-01  0.6922E-01
     -2.520  0.5638E-01  0.7162E-01
     -2.477  0.5620E-01  0.7403E-01
     -2.435  0.5725E-01  0.7647E-01
     -2.392  0.6020E-01  0.7904E-01
     -2.349  0.6484E-01  0.8181E-01
     -2.306  0.6998E-01  0.8480E-01
     -2.264  0.7390E-01  0.8796E-01
     -2.221  0.7526E-01  0.9117E-01
     -2.178  0.7395E-01  0.9433E-01
     -2.136  0.7123E-01  0.9738E-01
     -2.093  0.6909E-01  0.1003E+00
     -2.050  0.6919E-01  0.1033E+00
     -2.007  0.7208E-01  0.1064E+00
     -1.965  0.7706E-01  0.1097E+00
     -1.922  0.8249E-01  0.1132E+00
     -1.879  0.8663E-01  0.1169E+00
     -1.837  0.8851E-01  0.1207E+00
     -1.794  0.8838E-01  0.1244E+00
     -1.751  0.8746E-01  0.1282E+00
     -1.708  0.8703E-01  0.1319E+00
     -1.666  0.8773E-01  0.1356E+00
     -1.623  0.8944E-01  0.1395E+00
     -1.580  0.9175E-01  0.1434E+00
     -1.538  0.9437E-01  0.1474E+00
     -1.495  0.9723E-01  0.1516E+00
     -1.452  0.1003E+00  0.1558E+00
     -1.409  0.1032E+00  0.1603E+00
     -1.367  0.1056E+00  0.1648E+00
     -1.324  0.1074E+00  0.1694E+00
     -1.281  0.1095E+00  0.1740E+00
     -1.238  0.1134E+00  0.1789E+00
     -1.196  0.1206E+00  0.1840E+00
     -1.153  0.1308E+00  0.1896E+00
     -1.110  0.1418E+00  0.1957E+00
     -1.068  0.1507E+00  0.2021E+00
     -1.025  0.1553E+00  0.2087E+00
     -0.982  0.1565E+00  0.2154E+00
     -0.939  0.1575E+00  0.2222E+00
     -0.897  0.1625E+00  0.2291E+00
     -0.854  0.1741E+00  0.2365E+00
     -0.811  0.1926E+00  0.2448E+00
     -0.769  0.2170E+00  0.2540E+00
     -0.726  0.2462E+00  0.2646E+00
     -0.683  0.2804E+00  0.2765E+00
     -0.640  0.3198E+00  0.2902E+00
     -0.598  0.3632E+00  0.3057E+00
     -0.555  0.4071E+00  0.3231E+00
     -0.512  0.4468E+00  0.3422E+00
     -0.470  0.4792E+00  0.3627E+00
     -0.427  0.5036E+00  0.3842E+00
     -0.384  0.5220E+00  0.4065E+00
     -0.341  0.5369E+00  0.4294E+00
     -0.299  0.5500E+00  0.4529E+00
     -0.256  0.5612E+00  0.4769E+00
     -0.213  0.5692E+00  0.5012E+00
     -0.170  0.5734E+00  0.5257E+00
     -0.128  0.5746E+00  0.5502E+00
     -0.085  0.5751E+00  0.5748E+00
     -0.042  0.5776E+00  0.5995E+00
      0.000  0.5844E+00  0.6244E+00
      0.043  0.5971E+00  0.6500E+00
      0.086  0.6169E+00  0.6763E+00
      0.129  0.6442E+00  0.7038E+00
      0.171  0.6773E+00  0.7328E+00
      0.214  0.7129E+00  0.7632E+00
      0.257  0.7471E+00  0.7951E+00
      0.299  0.7771E+00  0.8283E+00
      0.342  0.8019E+00  0.8626E+00
      0.385  0.8219E+00  0.8977E+00
      0.428  0.8378E+00  0.9335E+00
      0.470  0.8500E+00  0.9698E+00
      0.513  0.8579E+00  0.1006E+01
      0.556  0.8610E+00  0.1043E+01
      0.598  0.8594E+00  0.1080E+01
      0.641  0.8538E+00  0.1116E+01
      0.684  0.8446E+00  0.1152E+01
      0.727  0.8315E+00  0.1188E+01
      0.769  0.8146E+00  0.1223E+01
      0.812  0.7961E+00  0.1257E+01
      0.855  0.7793E+00  0.1290E+01
      0.898  0.7674E+00  0.1323E+01
      0.940  0.7614E+00  0.1355E+01
      0.983  0.7591E+00  0.1388E+01
      1.026  0.7570E+00  0.1420E+01
      1.068  0.7517E+00  0.1452E+01
      1.111  0.7420E+00  0.1484E+01
      1.154  0.7305E+00  0.1515E+01
      1.197  0.7221E+00  0.1546E+01
      1.239  0.7206E+00  0.1577E+01
      1.282  0.7259E+00  0.1608E+01
      1.325  0.7325E+00  0.1639E+01
      1.367  0.7332E+00  0.1670E+01
      1.410  0.7242E+00  0.1701E+01
      1.453  0.7072E+00  0.1732E+01
      1.496  0.6888E+00  0.1761E+01
      1.538  0.6762E+00  0.1790E+01
      1.581  0.6738E+00  0.1819E+01
      1.624  0.6824E+00  0.1848E+01
      1.666  0.6998E+00  0.1878E+01
      1.709  0.7228E+00  0.1909E+01
      1.752  0.7478E+00  0.1941E+01
      1.795  0.7724E+00  0.1974E+01
      1.837  0.7946E+00  0.2008E+01
      1.880  0.8136E+00  0.2042E+01
      1.923  0.8295E+00  0.2078E+01
      1.965  0.8436E+00  0.2114E+01
      2.008  0.8577E+00  0.2150E+01
      2.051  0.8731E+00  0.2188E+01
      2.094  0.8897E+00  0.2226E+01
      2.136  0.9068E+00  0.2264E+01
      2.179  0.9238E+00  0.2304E+01
      2.222  0.9408E+00  0.2344E+01
      2.265  0.9592E+00  0.2385E+01
      2.307  0.9815E+00  0.2427E+01
      2.350  0.1010E+01  0.2470E+01
      2.393  0.1047E+01  0.2515E+01
      2.435  0.1089E+01  0.2561E+01
      2.478  0.1134E+01  0.2610E+01
      2.521  0.1179E+01  0.2660E+01
      2.564  0.1219E+01  0.2712E+01
      2.606  0.1251E+01  0.2766E+01
      2.649  0.1273E+01  0.2820E+01
      2.692  0.1286E+01  0.2875E+01
      2.734  0.1294E+01  0.2930E+01
      2.777  0.1301E+01  0.2986E+01
      2.820  0.1314E+01  0.3042E+01
      2.863  0.1337E+01  0.3099E+01
      2.905  0.1368E+01  0.3158E+01
      2.948  0.1400E+01  0.3217E+01
      2.991  0.1414E+01  0.3278E+01
      3.033  0.1397E+01  0.3337E+01
      3.076  0.1343E+01  0.3395E+01
      3.119  0.1258E+01  0.3449E+01
      3.162  0.1161E+01  0.3498E+01
      3.204  0.1070E+01  0.3544E+01
      3.247  0.9960E+00  0.3586E+01
      3.290  0.9441E+00  0.3627E+01
      3.333  0.9129E+00  0.3666E+01
      3.375  0.8977E+00  0.3704E+01
      3.418  0.8929E+00  0.3742E+01
      3.461  0.8915E+00  0.3780E+01
      3.503  0.8868E+00  0.3818E+01
      3.546  0.8746E+00  0.3856E+01
      3.589  0.8563E+00  0.3892E+01
      3.632  0.8389E+00  0.3928E+01
      3.674  0.8311E+00  0.3963E+01
      3.717  0.8382E+00  0.3999E+01
      3.760  0.8592E+00  0.4036E+01
      3.802  0.8882E+00  0.4074E+01
      3.845  0.9182E+00  0.4113E+01
      3.888  0.9451E+00  0.4154E+01
      3.931  0.9681E+00  0.4195E+01
      3.973  0.9879E+00  0.4237E+01
      4.016  0.1005E+01  0.4280E+01
      4.059  0.1020E+01  0.4324E+01
      4.101  0.1030E+01  0.4368E+01
      4.144  0.1032E+01  0.4412E+01
      4.187  0.1027E+01  0.4456E+01
      4.230  0.1015E+01  0.4499E+01
      4.272  0.1000E+01  0.4542E+01
      4.315  0.9866E+00  0.4584E+01
      4.358  0.9780E+00  0.4626E+01
      4.400  0.9760E+00  0.4667E+01
      4.443  0.9794E+00  0.4709E+01
      4.486  0.9850E+00  0.4751E+01
      4.529  0.9888E+00  0.4793E+01
      4.571  0.9882E+00  0.4836E+01
      4.614  0.9831E+00  0.4878E+01
      4.657  0.9769E+00  0.4919E+01
      4.700  0.9745E+00  0.4961E+01
      4.742  0.9800E+00  0.5003E+01
      4.785  0.9952E+00  0.5045E+01
      4.828  0.1018E+01  0.5089E+01
      4.870  0.1047E+01  0.5134E+01
      4.913  0.1076E+01  0.5180E+01
      4.956  0.1104E+01  0.5227E+01
      4.999  0.1121E+01  0.5275E+01
      5.041  0.1115E+01  0.5322E+01
      5.084  0.1072E+01  0.5368E+01
      5.127  0.9785E+00  0.5410E+01
      5.169  0.8348E+00  0.5446E+01
      5.212  0.6555E+00  0.5474E+01
      5.255  0.4677E+00  0.5494E+01
      5.298  0.3001E+00  0.5506E+01
      5.340  0.1716E+00  0.5514E+01
      5.383  0.8687E-01  0.5517E+01
      5.426  0.3873E-01  0.5519E+01
      5.468  0.1514E-01  0.5520E+01
      5.511  0.5171E-02  0.5520E+01
      5.554  0.1539E-02  0.5520E+01
      5.597  0.3980E-03  0.5520E+01
      5.639  0.8932E-04  0.5520E+01
      5.682  0.1735E-04  0.5520E+01
      5.725  0.2915E-05  0.5520E+01
      5.768  0.4228E-06  0.5520E+01
      5.810  0.5286E-07  0.5520E+01
      5.853  0.5692E-08  0.5520E+01
      5.896  0.5271E-09  0.5520E+01
      5.938  0.4195E-10  0.5520E+01
      5.981  0.2867E-11  0.5520E+01
      6.024  0.1680E-12  0.5520E+01
      6.067  0.8442E-14  0.5520E+01
      6.109  0.3482E-15  0.5520E+01
      6.152  0.7797E-17  0.5520E+01
      6.195  0.0000E+00  0.5520E+01
      6.237  0.0000E+00  0.5520E+01
      6.280  0.0000E+00  0.5520E+01
      6.323  0.0000E+00  0.5520E+01
      6.366  0.0000E+00  0.5520E+01
      6.408  0.0000E+00  0.5520E+01
      6.451  0.0000E+00  0.5520E+01
      6.494  0.0000E+00  0.5520E+01
      6.536  0.0000E+00  0.5520E+01
      6.579  0.0000E+00  0.5520E+01
      6.622  0.0000E+00  0.5520E+01
      6.665  0.0000E+00  0.5520E+01
      6.707  0.0000E+00  0.5520E+01
      6.750  0.0000E+00  0.5520E+01
