<?xml version="1.0" encoding="ISO-8859-1"?>
<modeling>
 <generator>
  <i name="program" type="string">vasp </i>
  <i name="version" type="string">5.4.4.18Apr17-6-g9f103f2a35  </i>
  <i name="subversion" type="string">(build May 29 2019 08:40:53) complex            parallel </i>
  <i name="platform" type="string">LinuxPGI </i>
  <i name="date" type="string">2021 11 22 </i>
  <i name="time" type="string">03:10:06 </i>
 </generator>
 <incar>
  <i type="int" name="ISTART">     2</i>
  <i type="string" name="PREC">accurate</i>
  <i type="string" name="ALGO"> Fast</i>
  <i type="int" name="ICHARG">     2</i>
  <i type="int" name="INIWAV">     1</i>
  <i type="int" name="NELM">   100</i>
  <i type="int" name="NELMIN">     4</i>
  <i type="int" name="IBRION">     2</i>
  <i name="EDIFF">      0.00001000</i>
  <i type="int" name="NSW">   500</i>
  <i type="int" name="ISIF">     2</i>
  <i type="int" name="ISYM">     2</i>
  <i name="ENCUT">    500.00000000</i>
  <i name="POTIM">      0.25000000</i>
  <i type="string" name="LREAL"> Auto</i>
  <i type="int" name="ISMEAR">     0</i>
  <i name="SIGMA">      0.15000000</i>
  <i type="logical" name="LWAVE"> F  </i>
  <i type="logical" name="LCHARG"> F  </i>
  <v type="int" name="KPOINT_BSE">    -1     0     0     0</v>
  <i type="int" name="NELM">   100</i>
 </incar>
 <structure name="primitive_cell" >
  <crystal>
   <varray name="basis" >
    <v>       9.72667800       0.00000000       0.00000000 </v>
    <v>       0.00000000       8.42355000       0.00000000 </v>
    <v>       0.00000000       0.00000000      45.00000000 </v>
   </varray>
   <i name="volume">   3686.99213101 </i>
   <varray name="rec_basis" >
    <v>       0.10281002       0.00000000       0.00000000 </v>
    <v>       0.00000000       0.11871479       0.00000000 </v>
    <v>       0.00000000       0.00000000       0.02222222 </v>
   </varray>
  </crystal>
  <varray name="positions" >
   <v>      -0.43781849       0.37218147      -0.47867515 </v>
   <v>      -0.31281849       0.45566498       0.47866110 </v>
   <v>       0.43729991       0.45560209       0.47856936 </v>
   <v>      -0.43724993       0.20507478       0.47854863 </v>
   <v>      -0.43741045       0.20607137      -0.43489951 </v>
   <v>       0.43721481       0.45626686      -0.43493972 </v>
   <v>      -0.31289291       0.45604416      -0.43483571 </v>
   <v>       0.43764198       0.12247259      -0.47868709 </v>
   <v>       0.43779950      -0.37780205      -0.47862794 </v>
   <v>      -0.31231591       0.12284063      -0.47859228 </v>
   <v>       0.31236434       0.37236011      -0.47866215 </v>
   <v>      -0.31261218      -0.37763131      -0.47868224 </v>
   <v>      -0.18746066       0.37217089      -0.47873135 </v>
   <v>       0.31282058       0.20566215       0.47857429 </v>
   <v>      -0.43734023      -0.29457311       0.47856678 </v>
   <v>      -0.18785076       0.20499470       0.47853550 </v>
   <v>       0.31268668       0.20613564      -0.43479447 </v>
   <v>      -0.43739586      -0.29385357      -0.43493842 </v>
   <v>      -0.18739421       0.20604995      -0.43475096 </v>
   <v>      -0.43760452       0.37147077       0.43481158 </v>
   <v>       0.18824668       0.45581251       0.47858060 </v>
   <v>       0.31267628      -0.29453664       0.47865910 </v>
   <v>      -0.18782136      -0.29507804       0.47858349 </v>
   <v>      -0.31289565      -0.04453661       0.47864470 </v>
   <v>      -0.06293267       0.45581691       0.47858744 </v>
   <v>       0.43740467      -0.04471097       0.47858825 </v>
   <v>       0.43731086      -0.04377500      -0.43493651 </v>
   <v>      -0.31274733      -0.04386316      -0.43490495 </v>
   <v>       0.18784257       0.45629944      -0.43470976 </v>
   <v>       0.31272037      -0.29365895      -0.43493660 </v>
   <v>       0.18778890       0.12246259      -0.47868962 </v>
   <v>      -0.06221127       0.45611182      -0.43510830 </v>
   <v>      -0.06280904       0.12275085      -0.47874563 </v>
   <v>       0.18724588      -0.37775647      -0.47864970 </v>
   <v>      -0.43788829      -0.12784639      -0.47866316 </v>
   <v>      -0.18744343      -0.29380767      -0.43475687 </v>
   <v>      -0.31251106       0.28992702      -0.39029359 </v>
   <v>       0.43759067       0.28994279      -0.39020798 </v>
   <v>      -0.06223078      -0.37731096      -0.47864419 </v>
   <v>      -0.43753237      -0.45999287      -0.39025322 </v>
   <v>       0.43751251      -0.37827494       0.43486370 </v>
   <v>       0.31223584       0.37149687       0.43481968 </v>
   <v>       0.43750781       0.12167956       0.43484192 </v>
   <v>      -0.31242132      -0.37850573       0.43468133 </v>
   <v>      -0.18718388       0.37143753       0.43479622 </v>
   <v>      -0.31240298       0.12182345       0.43475378 </v>
   <v>       0.06295848       0.37266181      -0.47877538 </v>
   <v>       0.31248074      -0.12741469      -0.47864297 </v>
   <v>      -0.18748548      -0.12752917      -0.47874219 </v>
   <v>      -0.43738159       0.03978245      -0.39019041 </v>
   <v>       0.31253113      -0.45983227      -0.39031563 </v>
   <v>      -0.18735679      -0.45996937      -0.39010455 </v>
   <v>       0.18757557      -0.04463298       0.47859913 </v>
   <v>       0.06248314       0.20482652       0.47861053 </v>
   <v>      -0.06222291      -0.04487708       0.47862185 </v>
   <v>       0.06246542       0.20582883      -0.43510427 </v>
   <v>       0.18750640      -0.04410124      -0.43480207 </v>
   <v>       0.18753011       0.28988070      -0.39037300 </v>
   <v>      -0.06198771      -0.04422014      -0.43481168 </v>
   <v>       0.31243947       0.03995174      -0.39023824 </v>
   <v>      -0.18761791       0.04004861      -0.39022513 </v>
   <v>      -0.06247563       0.29026362      -0.39022115 </v>
   <v>      -0.31228668      -0.21010859      -0.39035146 </v>
   <v>       0.43736615      -0.21032004      -0.39016415 </v>
   <v>       0.18794041       0.12155695       0.43481226 </v>
   <v>       0.18731574      -0.37817571       0.43483438 </v>
   <v>      -0.43762255      -0.12856726       0.43472868 </v>
   <v>      -0.06232803      -0.37805947       0.43477392 </v>
   <v>      -0.06275263       0.12186041       0.43472768 </v>
   <v>       0.06272179      -0.29441977       0.47860823 </v>
   <v>       0.06250715      -0.29361333      -0.43484389 </v>
   <v>      -0.43776916       0.37390174      -0.34630956 </v>
   <v>       0.43770999       0.28775942       0.39027317 </v>
   <v>      -0.43742730      -0.46225084       0.39018811 </v>
   <v>      -0.31270591       0.28766556       0.39014186 </v>
   <v>      -0.18776814      -0.12807035       0.43512243 </v>
   <v>       0.31276497      -0.12820060       0.43491621 </v>
   <v>       0.06270685       0.37155668       0.43488779 </v>
   <v>       0.43771061       0.12432289      -0.34647208 </v>
   <v>       0.31275528       0.37379308      -0.34645471 </v>
   <v>       0.06283407      -0.12756411      -0.47866131 </v>
   <v>      -0.31254245       0.12338183      -0.34627982 </v>
   <v>      -0.18740821       0.37377282      -0.34634503 </v>
   <v>      -0.31228190      -0.37642302      -0.34634073 </v>
   <v>       0.43746002      -0.37606706      -0.34628869 </v>
   <v>       0.06250332      -0.45995298      -0.39023303 </v>
   <v>       0.18762928      -0.20977299      -0.39030105 </v>
   <v>      -0.06258447      -0.20961926      -0.39032740 </v>
   <v>       0.31234566      -0.46227811       0.39015495 </v>
   <v>      -0.18717619      -0.46202669       0.39019039 </v>
   <v>      -0.43746878       0.03768926       0.39018306 </v>
   <v>       0.06266416       0.04048740      -0.39011870 </v>
   <v>       0.43760363      -0.21221098       0.39020674 </v>
   <v>      -0.06245777       0.28786594       0.39034189 </v>
   <v>      -0.31250251      -0.21208075       0.39016191 </v>
   <v>       0.18755305       0.28742391       0.39014968 </v>
   <v>       0.31282186       0.03764006       0.39018717 </v>
   <v>      -0.18768503       0.03775306       0.39008696 </v>
   <v>       0.18755629       0.12397305      -0.34640767 </v>
   <v>      -0.43788249      -0.12625691      -0.34626715 </v>
   <v>      -0.06241843       0.12402455      -0.34629755 </v>
   <v>       0.18723229      -0.37671019      -0.34634223 </v>
   <v>      -0.06215076      -0.37626331      -0.34625863 </v>
   <v>       0.06266764      -0.12823027       0.43476288 </v>
   <v>       0.31251487      -0.12614532      -0.34637029 </v>
   <v>       0.06298986       0.37386767      -0.34638470 </v>
   <v>      -0.18733208      -0.12609162      -0.34632919 </v>
   <v>       0.18750088      -0.21240187       0.39025204 </v>
   <v>       0.06237454      -0.46207124       0.39014020 </v>
   <v>      -0.06258622      -0.21174497       0.39008648 </v>
   <v>      -0.43738601       0.20433460       0.34635001 </v>
   <v>       0.43755854       0.45406813       0.34624817 </v>
   <v>      -0.31244816       0.45393242       0.34623776 </v>
   <v>      -0.43741988       0.20745785      -0.30192876 </v>
   <v>       0.43740928       0.45780137      -0.30186381 </v>
   <v>      -0.31294397       0.45721536      -0.30185110 </v>
   <v>       0.06247089       0.03791356       0.39015174 </v>
   <v>      -0.43742905      -0.29584565       0.34631573 </v>
   <v>       0.31288367       0.20415033       0.34633122 </v>
   <v>      -0.18791442       0.20403175       0.34620764 </v>
   <v>       0.31246809       0.20778187      -0.30191034 </v>
   <v>      -0.18759216       0.20704796      -0.30184482 </v>
   <v>      -0.43727297      -0.29195200      -0.30184949 </v>
   <v>       0.31276454      -0.29613270       0.34626862 </v>
   <v>      -0.18778345      -0.29590118       0.34625602 </v>
   <v>       0.18771825       0.45399590       0.34621225 </v>
   <v>      -0.06265334       0.45411829       0.34627052 </v>
   <v>       0.43731458      -0.04558560       0.34631161 </v>
   <v>      -0.31238043      -0.04563506       0.34633129 </v>
   <v>       0.06296414      -0.12580905      -0.34635630 </v>
   <v>       0.43766439      -0.04219054      -0.30198082 </v>
   <v>      -0.31291981      -0.04260312      -0.30187332 </v>
   <v>       0.18786516       0.45801068      -0.30199876 </v>
   <v>      -0.06292854       0.45712374      -0.30202443 </v>
   <v>       0.31228688      -0.29194424      -0.30188994 </v>
   <v>      -0.18741586      -0.29255166      -0.30180455 </v>
   <v>       0.06260493       0.20398927       0.34624490 </v>
   <v>       0.18767237      -0.04605601       0.34629621 </v>
   <v>      -0.06228728      -0.04614634       0.34626565 </v>
   <v>       0.18780379      -0.04227577      -0.30190612 </v>
   <v>      -0.06276868      -0.04266388      -0.30195516 </v>
   <v>       0.06251321       0.20781946      -0.30182892 </v>
   <v>       0.06255565      -0.29612415       0.34638060 </v>
   <v>       0.06210342      -0.29231133      -0.30192373 </v>
   <v>      -0.43755826       0.37035997       0.30188513 </v>
   <v>      -0.31181320       0.29091763      -0.25774210 </v>
   <v>      -0.43731199      -0.45867961      -0.25773749 </v>
   <v>       0.43703266       0.29072701      -0.25761726 </v>
   <v>       0.43785013      -0.38016686       0.30194230 </v>
   <v>      -0.31256524      -0.37973854       0.30185432 </v>
   <v>       0.31264170       0.36995625       0.30189812 </v>
   <v>      -0.18743128       0.37073941       0.30190828 </v>
   <v>      -0.31224857       0.12046414       0.30195222 </v>
   <v>       0.43779266       0.12013899       0.30183779 </v>
   <v>      -0.43747721       0.04127137      -0.25767718 </v>
   <v>       0.31278329      -0.45851975      -0.25776218 </v>
   <v>      -0.18761191      -0.45922553      -0.25766841 </v>
   <v>       0.31279072       0.04174015      -0.25778718 </v>
   <v>      -0.18778711       0.04098644      -0.25775384 </v>
   <v>       0.18702533       0.29117698      -0.25779752 </v>
   <v>      -0.06242886       0.29133120      -0.25769067 </v>
   <v>      -0.31206006      -0.20887649      -0.25768499 </v>
   <v>       0.43752754      -0.20846206      -0.25765752 </v>
   <v>      -0.43757343      -0.13006466       0.30184515 </v>
   <v>       0.18758799      -0.37967086       0.30183461 </v>
   <v>      -0.06280827      -0.37956487       0.30182107 </v>
   <v>       0.18728393       0.12052283       0.30192741 </v>
   <v>      -0.06274372       0.12072320       0.30183010 </v>
   <v>       0.31234318      -0.12966786       0.30190095 </v>
   <v>      -0.18732197      -0.12988029       0.30183270 </v>
   <v>       0.06240932       0.37069694       0.30187436 </v>
   <v>      -0.06258259      -0.20923924      -0.25781919 </v>
   <v>       0.06289578      -0.45849268      -0.25749674 </v>
   <v>       0.18703389      -0.20857295      -0.25765590 </v>
   <v>       0.06279820       0.04136486      -0.25762819 </v>
   <v>       0.06247373      -0.12953165       0.30181509 </v>
   <v>      -0.43783328       0.37462090      -0.21356961 </v>
   <v>      -0.43748960      -0.46348260       0.25770311 </v>
   <v>      -0.31256494       0.28646637       0.25776732 </v>
   <v>       0.43734503       0.28641755       0.25775578 </v>
   <v>       0.43802408       0.12414472      -0.21369839 </v>
   <v>       0.31231657       0.37474902      -0.21361897 </v>
   <v>      -0.31270382       0.12465038      -0.21350976 </v>
   <v>       0.43772912      -0.37563182      -0.21358982 </v>
   <v>      -0.18731334       0.37512173      -0.21352826 </v>
   <v>      -0.31288937      -0.37514565      -0.21349297 </v>
   <v>      -0.18762672      -0.46348470       0.25771978 </v>
   <v>       0.31261518      -0.46317138       0.25765286 </v>
   <v>      -0.43749791       0.03625848       0.25777406 </v>
   <v>      -0.31257762      -0.21337438       0.25775184 </v>
   <v>       0.43767909      -0.21320686       0.25773980 </v>
   <v>       0.18757323       0.28688032       0.25779643 </v>
   <v>      -0.06226946       0.28666787       0.25775502 </v>
   <v>       0.31260096       0.03671216       0.25770348 </v>
   <v>      -0.18745113       0.03643135       0.25772010 </v>
   <v>       0.18693701       0.12406433      -0.21401689 </v>
   <v>      -0.43777474      -0.12556628      -0.21355358 </v>
   <v>      -0.06284944       0.12423229      -0.21344692 </v>
   <v>       0.18742579      -0.37566093      -0.21353819 </v>
   <v>      -0.06302768      -0.37558253      -0.21351862 </v>
   <v>       0.31234792      -0.12552567      -0.21350720 </v>
   <v>      -0.18757455      -0.12551240      -0.21347333 </v>
   <v>       0.06230243       0.37448346      -0.21349100 </v>
   <v>       0.18753376      -0.21299459       0.25776148 </v>
   <v>      -0.06251482      -0.21330836       0.25770043 </v>
   <v>       0.06260253      -0.46292969       0.25771603 </v>
   <v>       0.06247544       0.03690733       0.25769957 </v>
   <v>       0.06239375      -0.12557634      -0.21355097 </v>
   <v>      -0.43709170       0.20354374       0.21373777 </v>
   <v>       0.43751450       0.45335519       0.21365379 </v>
   <v>      -0.31220358       0.45340251       0.21364383 </v>
   <v>      -0.43753072       0.20778238      -0.16876857 </v>
   <v>       0.43687401       0.45764602      -0.16870366 </v>
   <v>      -0.31243785       0.45859000      -0.16862763 </v>
   <v>      -0.43746383      -0.29675936       0.21361722 </v>
   <v>      -0.18764493       0.20336513       0.21361745 </v>
   <v>       0.31252388       0.20323753       0.21356988 </v>
   <v>      -0.18757369       0.20861686      -0.16872777 </v>
   <v>      -0.43695893      -0.29217289      -0.16879780 </v>
   <v>       0.31244254       0.20825104      -0.16787641 </v>
   <v>       0.31241176      -0.29725600       0.21368956 </v>
   <v>       0.43758239      -0.04683162       0.21373123 </v>
   <v>      -0.18752363      -0.29689888       0.21351709 </v>
   <v>       0.18715777       0.45337636       0.21354451 </v>
   <v>      -0.06245249       0.45339229       0.21356129 </v>
   <v>      -0.31218031      -0.04683121       0.21360625 </v>
   <v>      -0.31238960      -0.04179133      -0.16878876 </v>
   <v>       0.43738455      -0.04149066      -0.16864938 </v>
   <v>      -0.06260205       0.45827496      -0.16870166 </v>
   <v>       0.18775261       0.45807746      -0.16864108 </v>
   <v>       0.31247486      -0.29166236      -0.16871761 </v>
   <v>      -0.18780958      -0.29164554      -0.16872765 </v>
   <v>       0.06227364       0.20370922       0.21373886 </v>
   <v>       0.18722929      -0.04675390       0.21352848 </v>
   <v>      -0.06268953      -0.04679318       0.21352728 </v>
   <v>      -0.06274411      -0.04227619      -0.16884766 </v>
   <v>       0.18732614      -0.04093020      -0.16865924 </v>
   <v>       0.06270856       0.20755477      -0.16854372 </v>
   <v>       0.06259756      -0.29697142       0.21358306 </v>
   <v>       0.06208326      -0.29172470      -0.16872678 </v>
   <v>      -0.43730918       0.36977493       0.16888323 </v>
   <v>      -0.31198393       0.29126603      -0.12656515 </v>
   <v>      -0.43748505      -0.45767554      -0.12658163 </v>
   <v>       0.43720759       0.29160167      -0.12643846 </v>
   <v>       0.43747579      -0.38071443       0.16886722 </v>
   <v>      -0.31251296      -0.38000447       0.16884199 </v>
   <v>      -0.18748212       0.36978749       0.16889046 </v>
   <v>      -0.31228635       0.12000620       0.16887010 </v>
   <v>       0.31255899       0.36917334       0.16865793 </v>
   <v>       0.43705862       0.11913185       0.16865135 </v>
   <v>      -0.43742034       0.04164024      -0.12657170 </v>
   <v>      -0.18786193      -0.45852147      -0.12652236 </v>
   <v>       0.31222833      -0.45870925      -0.12651485 </v>
   <v>      -0.18789833       0.04134949      -0.12663884 </v>
   <v>      -0.06358838       0.29156215      -0.12655986 </v>
   <v>       0.43764387      -0.20880741      -0.12668768 </v>
   <v>      -0.31233846      -0.20868802      -0.12660643 </v>
   <v>       0.31211081       0.04198644      -0.12631560 </v>
   <v>       0.18785840       0.29087651      -0.12628757 </v>
   <v>       0.18753937      -0.38073672       0.16884502 </v>
   <v>      -0.06247750      -0.38016631       0.16881732 </v>
   <v>      -0.06268205       0.11985962       0.16890628 </v>
   <v>      -0.43829853      -0.12984081       0.16864777 </v>
   <v>       0.18810345       0.11914538       0.16872013 </v>
   <v>      -0.18742321      -0.13023478       0.16882093 </v>
   <v>       0.06228736       0.36970373       0.16888281 </v>
   <v>       0.31258700      -0.12964437       0.16855153 </v>
   <v>       0.06252166      -0.45789796      -0.12660975 </v>
   <v>       0.18708322      -0.20948666      -0.12659725 </v>
   <v>      -0.06280081      -0.20865169      -0.12656005 </v>
   <v>       0.06279297       0.04162003      -0.12655528 </v>
   <v>       0.06298693      -0.13022789       0.16864258 </v>
   <v>      -0.31257392       0.28669230       0.12674032 </v>
   <v>      -0.43750784      -0.46354133       0.12662194 </v>
   <v>       0.43749448       0.28783062       0.12663046 </v>
   <v>      -0.18747458      -0.46385006       0.12666160 </v>
   <v>       0.31264070      -0.46355355       0.12659636 </v>
   <v>      -0.43688916       0.03569659       0.12658677 </v>
   <v>       0.31269502       0.03642986       0.12678192 </v>
   <v>      -0.06244118       0.28663271       0.12672464 </v>
   <v>       0.43842989      -0.21342467       0.12655767 </v>
   <v>       0.18751184       0.28727077       0.12665604 </v>
   <v>      -0.31227192      -0.21422650       0.12652813 </v>
   <v>      -0.18739816       0.03643627       0.12664414 </v>
   <v>       0.06231720      -0.46371462       0.12660665 </v>
   <v>      -0.06236554      -0.21405938       0.12653603 </v>
   <v>       0.18621044      -0.21376844       0.12655108 </v>
   <v>       0.06164423       0.03589022       0.12664616 </v>
  </varray>
 </structure>
 <varray name="primitive_index" >
  <v type="int" >        1 </v>
  <v type="int" >       36 </v>
  <v type="int" >      197 </v>
  <v type="int" >      128 </v>
  <v type="int" >       44 </v>
  <v type="int" >       16 </v>
  <v type="int" >      276 </v>
  <v type="int" >       76 </v>
  <v type="int" >      133 </v>
  <v type="int" >      226 </v>
  <v type="int" >      151 </v>
  <v type="int" >       19 </v>
  <v type="int" >      210 </v>
  <v type="int" >      105 </v>
  <v type="int" >       51 </v>
  <v type="int" >      125 </v>
  <v type="int" >      258 </v>
  <v type="int" >       65 </v>
  <v type="int" >      153 </v>
  <v type="int" >      267 </v>
  <v type="int" >      132 </v>
  <v type="int" >      214 </v>
  <v type="int" >      158 </v>
  <v type="int" >      247 </v>
  <v type="int" >      282 </v>
  <v type="int" >      224 </v>
  <v type="int" >      136 </v>
  <v type="int" >       18 </v>
  <v type="int" >       11 </v>
  <v type="int" >      112 </v>
  <v type="int" >       59 </v>
  <v type="int" >      176 </v>
  <v type="int" >       48 </v>
  <v type="int" >      223 </v>
  <v type="int" >      106 </v>
  <v type="int" >       92 </v>
  <v type="int" >      184 </v>
  <v type="int" >      255 </v>
  <v type="int" >      191 </v>
  <v type="int" >      260 </v>
  <v type="int" >      155 </v>
  <v type="int" >       69 </v>
  <v type="int" >       12 </v>
  <v type="int" >      261 </v>
  <v type="int" >      107 </v>
  <v type="int" >        9 </v>
  <v type="int" >      162 </v>
  <v type="int" >      166 </v>
  <v type="int" >      284 </v>
  <v type="int" >       62 </v>
  <v type="int" >      103 </v>
  <v type="int" >        8 </v>
  <v type="int" >       22 </v>
  <v type="int" >      278 </v>
  <v type="int" >      259 </v>
  <v type="int" >      242 </v>
  <v type="int" >       29 </v>
  <v type="int" >      272 </v>
  <v type="int" >      175 </v>
  <v type="int" >       10 </v>
  <v type="int" >       78 </v>
  <v type="int" >      240 </v>
  <v type="int" >       61 </v>
  <v type="int" >       89 </v>
  <v type="int" >      199 </v>
  <v type="int" >       88 </v>
  <v type="int" >      137 </v>
  <v type="int" >       95 </v>
  <v type="int" >      268 </v>
  <v type="int" >      209 </v>
  <v type="int" >       82 </v>
  <v type="int" >      220 </v>
  <v type="int" >       66 </v>
  <v type="int" >      180 </v>
  <v type="int" >       26 </v>
  <v type="int" >      160 </v>
  <v type="int" >        2 </v>
  <v type="int" >      269 </v>
  <v type="int" >      231 </v>
  <v type="int" >      145 </v>
  <v type="int" >      205 </v>
  <v type="int" >      243 </v>
  <v type="int" >       24 </v>
  <v type="int" >      150 </v>
  <v type="int" >      146 </v>
  <v type="int" >       13 </v>
  <v type="int" >      138 </v>
  <v type="int" >       50 </v>
  <v type="int" >      141 </v>
  <v type="int" >      251 </v>
  <v type="int" >      195 </v>
  <v type="int" >      237 </v>
  <v type="int" >      119 </v>
  <v type="int" >      111 </v>
  <v type="int" >      196 </v>
  <v type="int" >       37 </v>
  <v type="int" >       85 </v>
  <v type="int" >      144 </v>
  <v type="int" >       14 </v>
  <v type="int" >       42 </v>
  <v type="int" >      148 </v>
  <v type="int" >      194 </v>
  <v type="int" >       54 </v>
  <v type="int" >      129 </v>
  <v type="int" >      183 </v>
  <v type="int" >       63 </v>
  <v type="int" >      288 </v>
  <v type="int" >       60 </v>
  <v type="int" >      165 </v>
  <v type="int" >       33 </v>
  <v type="int" >       93 </v>
  <v type="int" >      101 </v>
  <v type="int" >      182 </v>
  <v type="int" >       31 </v>
  <v type="int" >      187 </v>
  <v type="int" >        5 </v>
  <v type="int" >      262 </v>
  <v type="int" >      248 </v>
  <v type="int" >      179 </v>
  <v type="int" >      218 </v>
  <v type="int" >       56 </v>
  <v type="int" >      172 </v>
  <v type="int" >       40 </v>
  <v type="int" >      193 </v>
  <v type="int" >      169 </v>
  <v type="int" >       87 </v>
  <v type="int" >      238 </v>
  <v type="int" >      139 </v>
  <v type="int" >       20 </v>
  <v type="int" >      206 </v>
  <v type="int" >      115 </v>
  <v type="int" >        3 </v>
  <v type="int" >      104 </v>
  <v type="int" >      281 </v>
  <v type="int" >      203 </v>
  <v type="int" >      207 </v>
  <v type="int" >       81 </v>
  <v type="int" >       97 </v>
  <v type="int" >       94 </v>
  <v type="int" >       72 </v>
  <v type="int" >      135 </v>
  <v type="int" >       74 </v>
  <v type="int" >      286 </v>
  <v type="int" >      157 </v>
  <v type="int" >       80 </v>
  <v type="int" >       30 </v>
  <v type="int" >      249 </v>
  <v type="int" >      287 </v>
  <v type="int" >      202 </v>
  <v type="int" >       17 </v>
  <v type="int" >      241 </v>
  <v type="int" >       79 </v>
  <v type="int" >      113 </v>
  <v type="int" >       58 </v>
  <v type="int" >       47 </v>
  <v type="int" >      108 </v>
  <v type="int" >      228 </v>
  <v type="int" >      204 </v>
  <v type="int" >      168 </v>
  <v type="int" >       32 </v>
  <v type="int" >      200 </v>
  <v type="int" >       27 </v>
  <v type="int" >      274 </v>
  <v type="int" >      116 </v>
  <v type="int" >      250 </v>
  <v type="int" >      142 </v>
  <v type="int" >      283 </v>
  <v type="int" >      212 </v>
  <v type="int" >      186 </v>
  <v type="int" >      271 </v>
  <v type="int" >       41 </v>
  <v type="int" >      239 </v>
  <v type="int" >      279 </v>
  <v type="int" >      189 </v>
  <v type="int" >      122 </v>
  <v type="int" >      159 </v>
  <v type="int" >      130 </v>
  <v type="int" >      215 </v>
  <v type="int" >       34 </v>
  <v type="int" >      244 </v>
  <v type="int" >      100 </v>
  <v type="int" >      234 </v>
  <v type="int" >       90 </v>
  <v type="int" >      265 </v>
  <v type="int" >      213 </v>
  <v type="int" >       67 </v>
  <v type="int" >      121 </v>
  <v type="int" >      221 </v>
  <v type="int" >      208 </v>
  <v type="int" >      140 </v>
  <v type="int" >      124 </v>
  <v type="int" >      190 </v>
  <v type="int" >        6 </v>
  <v type="int" >      257 </v>
  <v type="int" >      102 </v>
  <v type="int" >      275 </v>
  <v type="int" >       73 </v>
  <v type="int" >      236 </v>
  <v type="int" >       75 </v>
  <v type="int" >      222 </v>
  <v type="int" >       91 </v>
  <v type="int" >       25 </v>
  <v type="int" >      266 </v>
  <v type="int" >       35 </v>
  <v type="int" >        7 </v>
  <v type="int" >      118 </v>
  <v type="int" >       77 </v>
  <v type="int" >       38 </v>
  <v type="int" >        4 </v>
  <v type="int" >      127 </v>
  <v type="int" >      219 </v>
  <v type="int" >       84 </v>
  <v type="int" >      201 </v>
  <v type="int" >      256 </v>
  <v type="int" >       71 </v>
  <v type="int" >      173 </v>
  <v type="int" >       98 </v>
  <v type="int" >      192 </v>
  <v type="int" >      152 </v>
  <v type="int" >      280 </v>
  <v type="int" >       83 </v>
  <v type="int" >      277 </v>
  <v type="int" >      229 </v>
  <v type="int" >       39 </v>
  <v type="int" >       15 </v>
  <v type="int" >      171 </v>
  <v type="int" >      161 </v>
  <v type="int" >       43 </v>
  <v type="int" >      225 </v>
  <v type="int" >      126 </v>
  <v type="int" >      181 </v>
  <v type="int" >      246 </v>
  <v type="int" >       64 </v>
  <v type="int" >      253 </v>
  <v type="int" >       55 </v>
  <v type="int" >      211 </v>
  <v type="int" >       99 </v>
  <v type="int" >       21 </v>
  <v type="int" >      178 </v>
  <v type="int" >      156 </v>
  <v type="int" >      174 </v>
  <v type="int" >      154 </v>
  <v type="int" >       49 </v>
  <v type="int" >       86 </v>
  <v type="int" >       53 </v>
  <v type="int" >      245 </v>
  <v type="int" >      216 </v>
  <v type="int" >      147 </v>
  <v type="int" >      230 </v>
  <v type="int" >      270 </v>
  <v type="int" >      164 </v>
  <v type="int" >      232 </v>
  <v type="int" >      143 </v>
  <v type="int" >      177 </v>
  <v type="int" >       23 </v>
  <v type="int" >      170 </v>
  <v type="int" >       96 </v>
  <v type="int" >      188 </v>
  <v type="int" >      252 </v>
  <v type="int" >      217 </v>
  <v type="int" >      235 </v>
  <v type="int" >       46 </v>
  <v type="int" >       57 </v>
  <v type="int" >      120 </v>
  <v type="int" >       68 </v>
  <v type="int" >      131 </v>
  <v type="int" >      149 </v>
  <v type="int" >      227 </v>
  <v type="int" >      110 </v>
  <v type="int" >       52 </v>
  <v type="int" >      163 </v>
  <v type="int" >      233 </v>
  <v type="int" >      185 </v>
  <v type="int" >       45 </v>
  <v type="int" >      167 </v>
  <v type="int" >       28 </v>
  <v type="int" >      264 </v>
  <v type="int" >      117 </v>
  <v type="int" >      285 </v>
  <v type="int" >      114 </v>
  <v type="int" >      263 </v>
  <v type="int" >       70 </v>
  <v type="int" >      273 </v>
  <v type="int" >      198 </v>
  <v type="int" >      123 </v>
  <v type="int" >      109 </v>
  <v type="int" >      254 </v>
  <v type="int" >      134 </v>
 </varray>
 <kpoints>
  <generation param="Gamma">
   <v type="int" name="divisions">       4        4        1 </v>
   <v name="usershift">      0.00000000       0.00000000       0.00000000 </v>
   <v name="genvec1">      0.25000000       0.00000000       0.00000000 </v>
   <v name="genvec2">      0.00000000       0.25000000       0.00000000 </v>
   <v name="genvec3">      0.00000000       0.00000000       1.00000000 </v>
   <v name="shift">      0.00000000       0.00000000       0.00000000 </v>
  </generation>
  <varray name="kpointlist" >
   <v>       0.00000000       0.00000000       0.00000000 </v>
   <v>       0.25000000       0.00000000       0.00000000 </v>
   <v>       0.50000000       0.00000000       0.00000000 </v>
   <v>       0.00000000       0.25000000       0.00000000 </v>
   <v>       0.25000000       0.25000000       0.00000000 </v>
   <v>       0.50000000       0.25000000       0.00000000 </v>
   <v>      -0.25000000       0.25000000       0.00000000 </v>
   <v>       0.00000000       0.50000000       0.00000000 </v>
   <v>       0.25000000       0.50000000       0.00000000 </v>
   <v>       0.50000000       0.50000000       0.00000000 </v>
  </varray>
  <varray name="weights" >
   <v>       0.06250000 </v>
   <v>       0.12500000 </v>
   <v>       0.06250000 </v>
   <v>       0.12500000 </v>
   <v>       0.12500000 </v>
   <v>       0.12500000 </v>
   <v>       0.12500000 </v>
   <v>       0.06250000 </v>
   <v>       0.12500000 </v>
   <v>       0.06250000 </v>
  </varray>
 </kpoints>
 <parameters>
  <separator name="general" >
   <i type="string" name="SYSTEM">unknown system</i>
   <i type="logical" name="LCOMPAT"> F  </i>
  </separator>
  <separator name="electronic" >
   <i type="string" name="PREC">accura</i>
   <i name="ENMAX">    500.00000000</i>
   <i name="ENAUG">    838.43500000</i>
   <i name="EDIFF">      0.00001000</i>
   <i type="int" name="IALGO">    68</i>
   <i type="int" name="IWAVPR">    11</i>
   <i type="int" name="NBANDS">  1380</i>
   <i name="NELECT">   2289.00000000</i>
   <i type="int" name="TURBO">     0</i>
   <i type="int" name="IRESTART">     0</i>
   <i type="int" name="NREBOOT">     0</i>
   <i type="int" name="NMIN">     0</i>
   <i name="EREF">      0.00000000</i>
   <separator name="electronic smearing" >
    <i type="int" name="ISMEAR">     0</i>
    <i name="SIGMA">      0.15000000</i>
    <i name="KSPACING">      0.50000000</i>
    <i type="logical" name="KGAMMA"> T  </i>
   </separator>
   <separator name="electronic projectors" >
    <i type="logical" name="LREAL"> T  </i>
    <v name="ROPT">     -0.00025000     -0.00025000</v>
    <i type="int" name="LMAXPAW">  -100</i>
    <i type="int" name="LMAXMIX">     2</i>
    <i type="logical" name="NLSPLINE"> F  </i>
   </separator>
   <separator name="electronic startup" >
    <i type="int" name="ISTART">     0</i>
    <i type="int" name="ICHARG">     2</i>
    <i type="int" name="INIWAV">     1</i>
   </separator>
   <separator name="electronic spin" >
    <i type="int" name="ISPIN">     1</i>
    <i type="logical" name="LNONCOLLINEAR"> F  </i>
    <v name="MAGMOM">      1.00000000      1.00000000      1.00000000      1.00000000      1.00000000      1.00000000      1.00000000      1.00000000      1.00000000      1.00000000      1.00000000      1.00000000      1.00000000      1.00000000      1.00000000      1.00000000      1.00000000      1.00000000      1.00000000      1.00000000
      1.00000000      1.00000000      1.00000000      1.00000000      1.00000000      1.00000000      1.00000000      1.00000000      1.00000000      1.00000000      1.00000000      1.00000000      1.00000000      1.00000000      1.00000000      1.00000000      1.00000000      1.00000000      1.00000000      1.00000000
      1.00000000      1.00000000      1.00000000      1.00000000      1.00000000      1.00000000      1.00000000      1.00000000      1.00000000      1.00000000      1.00000000      1.00000000      1.00000000      1.00000000      1.00000000      1.00000000      1.00000000      1.00000000      1.00000000      1.00000000
      1.00000000      1.00000000      1.00000000      1.00000000      1.00000000      1.00000000      1.00000000      1.00000000      1.00000000      1.00000000      1.00000000      1.00000000      1.00000000      1.00000000      1.00000000      1.00000000      1.00000000      1.00000000      1.00000000      1.00000000
      1.00000000      1.00000000      1.00000000      1.00000000      1.00000000      1.00000000      1.00000000      1.00000000      1.00000000      1.00000000      1.00000000      1.00000000      1.00000000      1.00000000      1.00000000      1.00000000      1.00000000      1.00000000      1.00000000      1.00000000
      1.00000000      1.00000000      1.00000000      1.00000000      1.00000000      1.00000000      1.00000000      1.00000000      1.00000000      1.00000000      1.00000000      1.00000000      1.00000000      1.00000000      1.00000000      1.00000000      1.00000000      1.00000000      1.00000000      1.00000000
      1.00000000      1.00000000      1.00000000      1.00000000      1.00000000      1.00000000      1.00000000      1.00000000      1.00000000      1.00000000      1.00000000      1.00000000      1.00000000      1.00000000      1.00000000      1.00000000      1.00000000      1.00000000      1.00000000      1.00000000
      1.00000000      1.00000000      1.00000000      1.00000000      1.00000000      1.00000000      1.00000000      1.00000000      1.00000000      1.00000000      1.00000000      1.00000000      1.00000000      1.00000000      1.00000000      1.00000000      1.00000000      1.00000000      1.00000000      1.00000000
      1.00000000      1.00000000      1.00000000      1.00000000      1.00000000      1.00000000      1.00000000      1.00000000      1.00000000      1.00000000      1.00000000      1.00000000      1.00000000      1.00000000      1.00000000      1.00000000      1.00000000      1.00000000      1.00000000      1.00000000
      1.00000000      1.00000000      1.00000000      1.00000000      1.00000000      1.00000000      1.00000000      1.00000000      1.00000000      1.00000000      1.00000000      1.00000000      1.00000000      1.00000000      1.00000000      1.00000000      1.00000000      1.00000000      1.00000000      1.00000000
      1.00000000      1.00000000      1.00000000      1.00000000      1.00000000      1.00000000      1.00000000      1.00000000      1.00000000      1.00000000      1.00000000      1.00000000      1.00000000      1.00000000      1.00000000      1.00000000      1.00000000      1.00000000      1.00000000      1.00000000
      1.00000000      1.00000000      1.00000000      1.00000000      1.00000000      1.00000000      1.00000000      1.00000000      1.00000000      1.00000000      1.00000000      1.00000000      1.00000000      1.00000000      1.00000000      1.00000000      1.00000000      1.00000000      1.00000000      1.00000000
      1.00000000      1.00000000      1.00000000      1.00000000      1.00000000      1.00000000      1.00000000      1.00000000      1.00000000      1.00000000      1.00000000      1.00000000      1.00000000      1.00000000      1.00000000      1.00000000      1.00000000      1.00000000      1.00000000      1.00000000
      1.00000000      1.00000000      1.00000000      1.00000000      1.00000000      1.00000000      1.00000000      1.00000000      1.00000000      1.00000000      1.00000000      1.00000000      1.00000000      1.00000000      1.00000000      1.00000000      1.00000000      1.00000000      1.00000000      1.00000000
      1.00000000      1.00000000      1.00000000      1.00000000      1.00000000      1.00000000      1.00000000      1.00000000</v>
    <i name="NUPDOWN">     -1.00000000</i>
    <i type="logical" name="LSORBIT"> F  </i>
    <v name="SAXIS">      0.00000000      0.00000000      1.00000000</v>
    <i type="logical" name="LSPIRAL"> F  </i>
    <v name="QSPIRAL">      0.00000000      0.00000000      0.00000000</v>
    <i type="logical" name="LZEROZ"> F  </i>
   </separator>
   <separator name="electronic exchange-correlation" >
    <i type="logical" name="LASPH"> F  </i>
    <i type="logical" name="LMETAGGA"> F  </i>
   </separator>
   <separator name="electronic convergence" >
    <i type="int" name="NELM">   100</i>
    <i type="int" name="NELMDL">     0</i>
    <i type="int" name="NELMIN">     4</i>
    <i name="ENINI">    500.00000000</i>
    <separator name="electronic convergence detail" >
     <i type="logical" name="LDIAG"> T  </i>
     <i type="logical" name="LSUBROT"> F  </i>
     <i name="WEIMIN">      0.00100000</i>
     <i name="EBREAK">      0.00000000</i>
     <i name="DEPER">      0.30000000</i>
     <i type="int" name="NRMM">     4</i>
     <i name="TIME">      0.40000000</i>
    </separator>
   </separator>
   <separator name="electronic mixer" >
    <i name="AMIX">      0.40000000</i>
    <i name="BMIX">      1.00000000</i>
    <i name="AMIN">      0.10000000</i>
    <i name="AMIX_MAG">      1.60000000</i>
    <i name="BMIX_MAG">      1.00000000</i>
    <separator name="electronic mixer details" >
     <i type="int" name="IMIX">     4</i>
     <i type="logical" name="MIXFIRST"> F  </i>
     <i type="int" name="MAXMIX">   -45</i>
     <i name="WC">    100.00000000</i>
     <i type="int" name="INIMIX">     1</i>
     <i type="int" name="MIXPRE">     1</i>
     <i type="int" name="MREMOVE">     5</i>
    </separator>
   </separator>
   <separator name="electronic dipolcorrection" >
    <i type="logical" name="LDIPOL"> F  </i>
    <i type="logical" name="LMONO"> F  </i>
    <i type="int" name="IDIPOL">     0</i>
    <i name="EPSILON">      1.00000000</i>
    <v name="DIPOL">   -100.00000000   -100.00000000   -100.00000000</v>
    <i name="EFIELD">      0.00000000</i>
   </separator>
  </separator>
  <separator name="grids" >
   <i type="int" name="NGX">    72</i>
   <i type="int" name="NGY">    64</i>
   <i type="int" name="NGZ">   336</i>
   <i type="int" name="NGXF">   144</i>
   <i type="int" name="NGYF">   128</i>
   <i type="int" name="NGZF">   672</i>
   <i type="logical" name="ADDGRID"> F  </i>
  </separator>
  <separator name="ionic" >
   <i type="int" name="NSW">   500</i>
   <i type="int" name="IBRION">     2</i>
   <i type="int" name="MDALGO">     0</i>
   <i type="int" name="ISIF">     2</i>
   <i name="PSTRESS">      0.00000000</i>
   <i name="EDIFFG">      0.00010000</i>
   <i type="int" name="NFREE">     1</i>
   <i name="POTIM">      0.25000000</i>
   <i name="SMASS">     -3.00000000</i>
   <i name="SCALEE">      1.00000000</i>
  </separator>
  <separator name="ionic md" >
   <i name="TEBEG">      0.00010000</i>
   <i name="TEEND">      0.00010000</i>
   <i type="int" name="NBLOCK">     1</i>
   <i type="int" name="KBLOCK">   500</i>
   <i type="int" name="NPACO">   256</i>
   <i name="APACO">     16.00000000</i>
  </separator>
  <separator name="symmetry" >
   <i type="int" name="ISYM">     2</i>
   <i name="SYMPREC">      0.00001000</i>
  </separator>
  <separator name="dos" >
   <i type="int" name="LORBIT">     0</i>
   <v name="RWIGS">     -1.00000000     -1.00000000</v>
   <i type="int" name="NEDOS">   301</i>
   <i name="EMIN">     10.00000000</i>
   <i name="EMAX">    -10.00000000</i>
   <i name="EFERMI">      0.00000000</i>
  </separator>
  <separator name="writing" >
   <i type="int" name="NWRITE">     2</i>
   <i type="logical" name="LWAVE"> F  </i>
   <i type="logical" name="LDOWNSAMPLE"> F  </i>
   <i type="logical" name="LCHARG"> F  </i>
   <i type="logical" name="LPARD"> F  </i>
   <i type="logical" name="LVTOT"> F  </i>
   <i type="logical" name="LVHAR"> F  </i>
   <i type="logical" name="LELF"> F  </i>
   <i type="logical" name="LOPTICS"> F  </i>
   <v name="STM">      0.00000000      0.00000000      0.00000000      0.00000000      0.00000000      0.00000000      0.00000000</v>
  </separator>
  <separator name="performance" >
   <i type="int" name="NPAR">    10</i>
   <i type="int" name="NSIM">     4</i>
   <i type="int" name="NBLK">    -1</i>
   <i type="logical" name="LPLANE"> T  </i>
   <i type="logical" name="LSCALAPACK"> F  </i>
   <i type="logical" name="LSCAAWARE"> F  </i>
   <i type="logical" name="LSCALU"> F  </i>
   <i type="logical" name="LASYNC"> F  </i>
   <i type="logical" name="LORBITALREAL"> F  </i>
  </separator>
  <separator name="miscellaneous" >
   <i type="int" name="IDIOT">     3</i>
   <i type="int" name="ISPECIAL">     0</i>
   <i type="logical" name="LMUSIC"> F  </i>
   <v name="POMASS">     55.84700000     54.93800000</v>
   <v name="DARWINR">      0.00000000      0.00000000</v>
   <v name="DARWINV">      1.00000000      1.00000000</v>
   <i type="logical" name="LCORR"> T  </i>
  </separator>
  <i type="logical" name="GGA_COMPAT"> T  </i>
  <i type="logical" name="LBERRY"> F  </i>
  <i type="int" name="ICORELEVEL">     0</i>
  <i type="logical" name="LDAU"> F  </i>
  <i type="int" name="I_CONSTRAINED_M">     0</i>
  <separator name="electronic exchange-correlation" >
   <i type="string" name="GGA">--</i>
   <i type="int" name="VOSKOWN">     0</i>
   <i type="logical" name="LHFCALC"> F  </i>
   <i type="string" name="PRECFOCK"></i>
   <i type="logical" name="LSYMGRAD"> F  </i>
   <i type="logical" name="LHFONE"> F  </i>
   <i type="logical" name="LRHFCALC"> F  </i>
   <i type="logical" name="LTHOMAS"> F  </i>
   <i type="logical" name="LMODELHF"> F  </i>
   <i name="ENCUT4O">     -1.00000000</i>
   <i type="int" name="EXXOEP">     0</i>
   <i type="int" name="FOURORBIT">     0</i>
   <i name="AEXX">      0.00000000</i>
   <i name="HFALPHA">      0.00000000</i>
   <i name="MCALPHA">      0.00000000</i>
   <i name="ALDAX">      1.00000000</i>
   <i name="AGGAX">      1.00000000</i>
   <i name="ALDAC">      1.00000000</i>
   <i name="AGGAC">      1.00000000</i>
   <i type="int" name="NKREDX">     1</i>
   <i type="int" name="NKREDY">     1</i>
   <i type="int" name="NKREDZ">     1</i>
   <i type="logical" name="SHIFTRED"> F  </i>
   <i type="logical" name="ODDONLY"> F  </i>
   <i type="logical" name="EVENONLY"> F  </i>
   <i type="int" name="LMAXFOCK">     0</i>
   <i type="int" name="NMAXFOCKAE">     0</i>
   <i type="logical" name="LFOCKAEDFT"> F  </i>
   <i name="HFSCREEN">      0.00000000</i>
   <i name="HFSCREENC">      0.00000000</i>
   <i type="int" name="NBANDSGWLOW">     0</i>
  </separator>
  <separator name="vdW DFT" >
   <i type="logical" name="LUSE_VDW"> F  </i>
   <i name="Zab_VDW">     -0.84910000</i>
   <i name="PARAM1">      0.12340000</i>
   <i name="PARAM2">      1.00000000</i>
   <i name="PARAM3">      0.00000000</i>
  </separator>
  <separator name="model GW" >
   <i type="int" name="MODEL_GW">     0</i>
   <i name="MODEL_EPS0">      7.68123361</i>
   <i name="MODEL_ALPHA">      1.00000000</i>
  </separator>
  <separator name="linear response parameters" >
   <i type="logical" name="LEPSILON"> F  </i>
   <i type="logical" name="LRPA"> F  </i>
   <i type="logical" name="LNABLA"> F  </i>
   <i type="logical" name="LVEL"> F  </i>
   <i type="int" name="KINTER">     0</i>
   <i name="CSHIFT">      0.10000000</i>
   <i name="OMEGAMAX">     -1.00000000</i>
   <i name="DEG_THRESHOLD">      0.00200000</i>
   <i name="RTIME">     -0.10000000</i>
   <i name="WPLASMAI">      0.00000000</i>
   <v name="DFIELD">      0.00000000      0.00000000      0.00000000</v>
   <v name="WPLASMA">      0.00000000      0.00000000      0.00000000      0.00000000      0.00000000      0.00000000      0.00000000      0.00000000      0.00000000</v>
  </separator>
  <separator name="orbital magnetization" >
   <i type="logical" name="NUCIND"> F  </i>
   <v name="MAGPOS">      0.00000000      0.00000000      0.00000000</v>
   <i type="logical" name="LNICSALL"> T  </i>
   <i type="logical" name="ORBITALMAG"> F  </i>
   <i type="logical" name="LMAGBLOCH"> F  </i>
   <i type="logical" name="LCHIMAG"> F  </i>
   <i type="logical" name="LGAUGE"> T  </i>
   <i type="int" name="MAGATOM">     0</i>
   <v name="MAGDIPOL">      0.00000000      0.00000000      0.00000000</v>
   <v name="AVECCONST">      0.00000000      0.00000000      0.00000000</v>
  </separator>
  <separator name="response functions" >
   <i type="logical" name="LADDER"> F  </i>
   <i type="logical" name="LRPAFORCE"> F  </i>
   <i type="logical" name="LFXC"> F  </i>
   <i type="logical" name="LHARTREE"> T  </i>
   <i type="int" name="IBSE">     0</i>
   <v type="int" name="KPOINT">    -1     0     0     0</v>
   <i type="logical" name="LTCTE"> F  </i>
   <i type="logical" name="LTETE"> F  </i>
   <i type="logical" name="LTRIPLET"> F  </i>
   <i type="logical" name="LFXCEPS"> F  </i>
   <i type="logical" name="LFXHEG"> F  </i>
   <i type="int" name="NATURALO">     2</i>
   <i type="logical" name="L2ORDER"> F  </i>
   <i type="logical" name="LMP2LT"> F  </i>
   <i type="logical" name="LUSEW"> F  </i>
   <i name="ENCUTGW">     -2.00000000</i>
   <i name="ENCUTGWSOFT">     -2.00000000</i>
   <i name="ENCUTLF">     -1.00000000</i>
   <i type="int" name="LMAXMP2">    -1</i>
   <i name="SCISSOR">      0.00000000</i>
   <i type="int" name="NOMEGA">     0</i>
   <i type="int" name="NOMEGAR">     0</i>
   <i type="int" name="NBANDSGW">    -1</i>
   <i type="int" name="NBANDSO">    -1</i>
   <i type="int" name="NBANDSV">    -1</i>
   <i type="int" name="NELM">   100</i>
   <i type="int" name="NELMHF">     1</i>
   <i type="int" name="DIM">     3</i>
   <i type="int" name="ANTIRES">     0</i>
   <i name="OMEGAMAX">    -30.00000000</i>
   <i name="OMEGAMIN">    -30.00000000</i>
   <i name="OMEGATL">   -200.00000000</i>
   <i type="int" name="OMEGAGRID">   140</i>
   <i name="CSHIFT">     -0.10000000</i>
   <i type="logical" name="SELFENERGY"> F  </i>
   <i type="logical" name="LSPECTRAL"> F  </i>
   <i type="logical" name="LSPECTRALGW"> F  </i>
   <i type="logical" name="LSINGLES"> F  </i>
   <i type="logical" name="LFERMIGW"> F  </i>
   <i type="logical" name="ODDONLYGW"> F  </i>
   <i type="logical" name="EVENONLYGW"> F  </i>
   <i type="int" name="NKREDLFX">     1</i>
   <i type="int" name="NKREDLFY">     1</i>
   <i type="int" name="NKREDLFZ">     1</i>
   <i type="int" name="MAXMEM">  2800</i>
   <i type="int" name="TELESCOPE">     0</i>
   <i type="int" name="TAUPAR">     1</i>
   <i type="int" name="OMEGAPAR">    -1</i>
   <i name="LAMBDA">      1.00000000</i>
  </separator>
  <separator name="External order field" >
   <i name="OFIELD_KAPPA">      0.00000000</i>
   <v name="OFIELD_K">      0.00000000      0.00000000      0.00000000</v>
   <i name="OFIELD_Q6_NEAR">      0.00000000</i>
   <i name="OFIELD_Q6_FAR">      0.00000000</i>
   <i name="OFIELD_A">      0.00000000</i>
  </separator>
 </parameters>
 <atominfo>
  <atoms>     288 </atoms>
  <types>       2 </types>
  <array name="atoms" >
   <dimension dim="1">ion</dimension>
   <field type="string">element</field>
   <field type="int">atomtype</field>
   <set>
    <rc><c>Fe</c><c>   1</c></rc>
    <rc><c>Fe</c><c>   1</c></rc>
    <rc><c>Fe</c><c>   1</c></rc>
    <rc><c>Fe</c><c>   1</c></rc>
    <rc><c>Fe</c><c>   1</c></rc>
    <rc><c>Fe</c><c>   1</c></rc>
    <rc><c>Fe</c><c>   1</c></rc>
    <rc><c>Fe</c><c>   1</c></rc>
    <rc><c>Fe</c><c>   1</c></rc>
    <rc><c>Fe</c><c>   1</c></rc>
    <rc><c>Fe</c><c>   1</c></rc>
    <rc><c>Fe</c><c>   1</c></rc>
    <rc><c>Fe</c><c>   1</c></rc>
    <rc><c>Fe</c><c>   1</c></rc>
    <rc><c>Fe</c><c>   1</c></rc>
    <rc><c>Fe</c><c>   1</c></rc>
    <rc><c>Fe</c><c>   1</c></rc>
    <rc><c>Fe</c><c>   1</c></rc>
    <rc><c>Fe</c><c>   1</c></rc>
    <rc><c>Fe</c><c>   1</c></rc>
    <rc><c>Fe</c><c>   1</c></rc>
    <rc><c>Fe</c><c>   1</c></rc>
    <rc><c>Fe</c><c>   1</c></rc>
    <rc><c>Fe</c><c>   1</c></rc>
    <rc><c>Fe</c><c>   1</c></rc>
    <rc><c>Fe</c><c>   1</c></rc>
    <rc><c>Fe</c><c>   1</c></rc>
    <rc><c>Fe</c><c>   1</c></rc>
    <rc><c>Fe</c><c>   1</c></rc>
    <rc><c>Fe</c><c>   1</c></rc>
    <rc><c>Fe</c><c>   1</c></rc>
    <rc><c>Fe</c><c>   1</c></rc>
    <rc><c>Fe</c><c>   1</c></rc>
    <rc><c>Fe</c><c>   1</c></rc>
    <rc><c>Fe</c><c>   1</c></rc>
    <rc><c>Fe</c><c>   1</c></rc>
    <rc><c>Fe</c><c>   1</c></rc>
    <rc><c>Fe</c><c>   1</c></rc>
    <rc><c>Fe</c><c>   1</c></rc>
    <rc><c>Fe</c><c>   1</c></rc>
    <rc><c>Fe</c><c>   1</c></rc>
    <rc><c>Fe</c><c>   1</c></rc>
    <rc><c>Fe</c><c>   1</c></rc>
    <rc><c>Fe</c><c>   1</c></rc>
    <rc><c>Fe</c><c>   1</c></rc>
    <rc><c>Fe</c><c>   1</c></rc>
    <rc><c>Fe</c><c>   1</c></rc>
    <rc><c>Fe</c><c>   1</c></rc>
    <rc><c>Fe</c><c>   1</c></rc>
    <rc><c>Fe</c><c>   1</c></rc>
    <rc><c>Fe</c><c>   1</c></rc>
    <rc><c>Fe</c><c>   1</c></rc>
    <rc><c>Fe</c><c>   1</c></rc>
    <rc><c>Fe</c><c>   1</c></rc>
    <rc><c>Fe</c><c>   1</c></rc>
    <rc><c>Fe</c><c>   1</c></rc>
    <rc><c>Fe</c><c>   1</c></rc>
    <rc><c>Fe</c><c>   1</c></rc>
    <rc><c>Fe</c><c>   1</c></rc>
    <rc><c>Fe</c><c>   1</c></rc>
    <rc><c>Fe</c><c>   1</c></rc>
    <rc><c>Fe</c><c>   1</c></rc>
    <rc><c>Fe</c><c>   1</c></rc>
    <rc><c>Fe</c><c>   1</c></rc>
    <rc><c>Fe</c><c>   1</c></rc>
    <rc><c>Fe</c><c>   1</c></rc>
    <rc><c>Fe</c><c>   1</c></rc>
    <rc><c>Fe</c><c>   1</c></rc>
    <rc><c>Fe</c><c>   1</c></rc>
    <rc><c>Fe</c><c>   1</c></rc>
    <rc><c>Fe</c><c>   1</c></rc>
    <rc><c>Fe</c><c>   1</c></rc>
    <rc><c>Fe</c><c>   1</c></rc>
    <rc><c>Fe</c><c>   1</c></rc>
    <rc><c>Fe</c><c>   1</c></rc>
    <rc><c>Fe</c><c>   1</c></rc>
    <rc><c>Fe</c><c>   1</c></rc>
    <rc><c>Fe</c><c>   1</c></rc>
    <rc><c>Fe</c><c>   1</c></rc>
    <rc><c>Fe</c><c>   1</c></rc>
    <rc><c>Fe</c><c>   1</c></rc>
    <rc><c>Fe</c><c>   1</c></rc>
    <rc><c>Fe</c><c>   1</c></rc>
    <rc><c>Fe</c><c>   1</c></rc>
    <rc><c>Fe</c><c>   1</c></rc>
    <rc><c>Fe</c><c>   1</c></rc>
    <rc><c>Fe</c><c>   1</c></rc>
    <rc><c>Fe</c><c>   1</c></rc>
    <rc><c>Fe</c><c>   1</c></rc>
    <rc><c>Fe</c><c>   1</c></rc>
    <rc><c>Fe</c><c>   1</c></rc>
    <rc><c>Fe</c><c>   1</c></rc>
    <rc><c>Fe</c><c>   1</c></rc>
    <rc><c>Fe</c><c>   1</c></rc>
    <rc><c>Fe</c><c>   1</c></rc>
    <rc><c>Fe</c><c>   1</c></rc>
    <rc><c>Fe</c><c>   1</c></rc>
    <rc><c>Fe</c><c>   1</c></rc>
    <rc><c>Fe</c><c>   1</c></rc>
    <rc><c>Fe</c><c>   1</c></rc>
    <rc><c>Fe</c><c>   1</c></rc>
    <rc><c>Fe</c><c>   1</c></rc>
    <rc><c>Fe</c><c>   1</c></rc>
    <rc><c>Fe</c><c>   1</c></rc>
    <rc><c>Fe</c><c>   1</c></rc>
    <rc><c>Fe</c><c>   1</c></rc>
    <rc><c>Fe</c><c>   1</c></rc>
    <rc><c>Fe</c><c>   1</c></rc>
    <rc><c>Fe</c><c>   1</c></rc>
    <rc><c>Fe</c><c>   1</c></rc>
    <rc><c>Fe</c><c>   1</c></rc>
    <rc><c>Fe</c><c>   1</c></rc>
    <rc><c>Fe</c><c>   1</c></rc>
    <rc><c>Fe</c><c>   1</c></rc>
    <rc><c>Fe</c><c>   1</c></rc>
    <rc><c>Fe</c><c>   1</c></rc>
    <rc><c>Fe</c><c>   1</c></rc>
    <rc><c>Fe</c><c>   1</c></rc>
    <rc><c>Fe</c><c>   1</c></rc>
    <rc><c>Fe</c><c>   1</c></rc>
    <rc><c>Fe</c><c>   1</c></rc>
    <rc><c>Fe</c><c>   1</c></rc>
    <rc><c>Fe</c><c>   1</c></rc>
    <rc><c>Fe</c><c>   1</c></rc>
    <rc><c>Fe</c><c>   1</c></rc>
    <rc><c>Fe</c><c>   1</c></rc>
    <rc><c>Fe</c><c>   1</c></rc>
    <rc><c>Fe</c><c>   1</c></rc>
    <rc><c>Fe</c><c>   1</c></rc>
    <rc><c>Fe</c><c>   1</c></rc>
    <rc><c>Fe</c><c>   1</c></rc>
    <rc><c>Fe</c><c>   1</c></rc>
    <rc><c>Fe</c><c>   1</c></rc>
    <rc><c>Fe</c><c>   1</c></rc>
    <rc><c>Fe</c><c>   1</c></rc>
    <rc><c>Fe</c><c>   1</c></rc>
    <rc><c>Fe</c><c>   1</c></rc>
    <rc><c>Fe</c><c>   1</c></rc>
    <rc><c>Fe</c><c>   1</c></rc>
    <rc><c>Fe</c><c>   1</c></rc>
    <rc><c>Fe</c><c>   1</c></rc>
    <rc><c>Fe</c><c>   1</c></rc>
    <rc><c>Fe</c><c>   1</c></rc>
    <rc><c>Fe</c><c>   1</c></rc>
    <rc><c>Fe</c><c>   1</c></rc>
    <rc><c>Fe</c><c>   1</c></rc>
    <rc><c>Fe</c><c>   1</c></rc>
    <rc><c>Fe</c><c>   1</c></rc>
    <rc><c>Fe</c><c>   1</c></rc>
    <rc><c>Fe</c><c>   1</c></rc>
    <rc><c>Fe</c><c>   1</c></rc>
    <rc><c>Fe</c><c>   1</c></rc>
    <rc><c>Fe</c><c>   1</c></rc>
    <rc><c>Fe</c><c>   1</c></rc>
    <rc><c>Fe</c><c>   1</c></rc>
    <rc><c>Fe</c><c>   1</c></rc>
    <rc><c>Fe</c><c>   1</c></rc>
    <rc><c>Fe</c><c>   1</c></rc>
    <rc><c>Fe</c><c>   1</c></rc>
    <rc><c>Fe</c><c>   1</c></rc>
    <rc><c>Fe</c><c>   1</c></rc>
    <rc><c>Fe</c><c>   1</c></rc>
    <rc><c>Fe</c><c>   1</c></rc>
    <rc><c>Fe</c><c>   1</c></rc>
    <rc><c>Fe</c><c>   1</c></rc>
    <rc><c>Fe</c><c>   1</c></rc>
    <rc><c>Fe</c><c>   1</c></rc>
    <rc><c>Fe</c><c>   1</c></rc>
    <rc><c>Fe</c><c>   1</c></rc>
    <rc><c>Fe</c><c>   1</c></rc>
    <rc><c>Fe</c><c>   1</c></rc>
    <rc><c>Fe</c><c>   1</c></rc>
    <rc><c>Fe</c><c>   1</c></rc>
    <rc><c>Fe</c><c>   1</c></rc>
    <rc><c>Fe</c><c>   1</c></rc>
    <rc><c>Fe</c><c>   1</c></rc>
    <rc><c>Fe</c><c>   1</c></rc>
    <rc><c>Fe</c><c>   1</c></rc>
    <rc><c>Fe</c><c>   1</c></rc>
    <rc><c>Fe</c><c>   1</c></rc>
    <rc><c>Fe</c><c>   1</c></rc>
    <rc><c>Fe</c><c>   1</c></rc>
    <rc><c>Fe</c><c>   1</c></rc>
    <rc><c>Fe</c><c>   1</c></rc>
    <rc><c>Fe</c><c>   1</c></rc>
    <rc><c>Fe</c><c>   1</c></rc>
    <rc><c>Fe</c><c>   1</c></rc>
    <rc><c>Fe</c><c>   1</c></rc>
    <rc><c>Fe</c><c>   1</c></rc>
    <rc><c>Fe</c><c>   1</c></rc>
    <rc><c>Fe</c><c>   1</c></rc>
    <rc><c>Fe</c><c>   1</c></rc>
    <rc><c>Fe</c><c>   1</c></rc>
    <rc><c>Fe</c><c>   1</c></rc>
    <rc><c>Fe</c><c>   1</c></rc>
    <rc><c>Fe</c><c>   1</c></rc>
    <rc><c>Fe</c><c>   1</c></rc>
    <rc><c>Fe</c><c>   1</c></rc>
    <rc><c>Fe</c><c>   1</c></rc>
    <rc><c>Fe</c><c>   1</c></rc>
    <rc><c>Fe</c><c>   1</c></rc>
    <rc><c>Fe</c><c>   1</c></rc>
    <rc><c>Fe</c><c>   1</c></rc>
    <rc><c>Fe</c><c>   1</c></rc>
    <rc><c>Fe</c><c>   1</c></rc>
    <rc><c>Fe</c><c>   1</c></rc>
    <rc><c>Fe</c><c>   1</c></rc>
    <rc><c>Fe</c><c>   1</c></rc>
    <rc><c>Fe</c><c>   1</c></rc>
    <rc><c>Fe</c><c>   1</c></rc>
    <rc><c>Fe</c><c>   1</c></rc>
    <rc><c>Fe</c><c>   1</c></rc>
    <rc><c>Fe</c><c>   1</c></rc>
    <rc><c>Fe</c><c>   1</c></rc>
    <rc><c>Fe</c><c>   1</c></rc>
    <rc><c>Fe</c><c>   1</c></rc>
    <rc><c>Fe</c><c>   1</c></rc>
    <rc><c>Fe</c><c>   1</c></rc>
    <rc><c>Fe</c><c>   1</c></rc>
    <rc><c>Fe</c><c>   1</c></rc>
    <rc><c>Fe</c><c>   1</c></rc>
    <rc><c>Fe</c><c>   1</c></rc>
    <rc><c>Fe</c><c>   1</c></rc>
    <rc><c>Fe</c><c>   1</c></rc>
    <rc><c>Fe</c><c>   1</c></rc>
    <rc><c>Fe</c><c>   1</c></rc>
    <rc><c>Fe</c><c>   1</c></rc>
    <rc><c>Fe</c><c>   1</c></rc>
    <rc><c>Fe</c><c>   1</c></rc>
    <rc><c>Fe</c><c>   1</c></rc>
    <rc><c>Fe</c><c>   1</c></rc>
    <rc><c>Fe</c><c>   1</c></rc>
    <rc><c>Fe</c><c>   1</c></rc>
    <rc><c>Fe</c><c>   1</c></rc>
    <rc><c>Fe</c><c>   1</c></rc>
    <rc><c>Fe</c><c>   1</c></rc>
    <rc><c>Fe</c><c>   1</c></rc>
    <rc><c>Fe</c><c>   1</c></rc>
    <rc><c>Fe</c><c>   1</c></rc>
    <rc><c>Fe</c><c>   1</c></rc>
    <rc><c>Fe</c><c>   1</c></rc>
    <rc><c>Fe</c><c>   1</c></rc>
    <rc><c>Fe</c><c>   1</c></rc>
    <rc><c>Fe</c><c>   1</c></rc>
    <rc><c>Fe</c><c>   1</c></rc>
    <rc><c>Fe</c><c>   1</c></rc>
    <rc><c>Fe</c><c>   1</c></rc>
    <rc><c>Fe</c><c>   1</c></rc>
    <rc><c>Fe</c><c>   1</c></rc>
    <rc><c>Fe</c><c>   1</c></rc>
    <rc><c>Fe</c><c>   1</c></rc>
    <rc><c>Fe</c><c>   1</c></rc>
    <rc><c>Fe</c><c>   1</c></rc>
    <rc><c>Fe</c><c>   1</c></rc>
    <rc><c>Fe</c><c>   1</c></rc>
    <rc><c>Fe</c><c>   1</c></rc>
    <rc><c>Fe</c><c>   1</c></rc>
    <rc><c>Fe</c><c>   1</c></rc>
    <rc><c>Fe</c><c>   1</c></rc>
    <rc><c>Fe</c><c>   1</c></rc>
    <rc><c>Fe</c><c>   1</c></rc>
    <rc><c>Fe</c><c>   1</c></rc>
    <rc><c>Fe</c><c>   1</c></rc>
    <rc><c>Fe</c><c>   1</c></rc>
    <rc><c>Fe</c><c>   1</c></rc>
    <rc><c>Fe</c><c>   1</c></rc>
    <rc><c>Fe</c><c>   1</c></rc>
    <rc><c>Fe</c><c>   1</c></rc>
    <rc><c>Fe</c><c>   1</c></rc>
    <rc><c>Fe</c><c>   1</c></rc>
    <rc><c>Fe</c><c>   1</c></rc>
    <rc><c>Fe</c><c>   1</c></rc>
    <rc><c>Fe</c><c>   1</c></rc>
    <rc><c>Mn</c><c>   2</c></rc>
    <rc><c>Mn</c><c>   2</c></rc>
    <rc><c>Mn</c><c>   2</c></rc>
    <rc><c>Mn</c><c>   2</c></rc>
    <rc><c>Mn</c><c>   2</c></rc>
    <rc><c>Mn</c><c>   2</c></rc>
    <rc><c>Mn</c><c>   2</c></rc>
    <rc><c>Mn</c><c>   2</c></rc>
    <rc><c>Mn</c><c>   2</c></rc>
    <rc><c>Mn</c><c>   2</c></rc>
    <rc><c>Mn</c><c>   2</c></rc>
    <rc><c>Mn</c><c>   2</c></rc>
    <rc><c>Mn</c><c>   2</c></rc>
    <rc><c>Mn</c><c>   2</c></rc>
    <rc><c>Mn</c><c>   2</c></rc>
   </set>
  </array>
  <array name="atomtypes" >
   <dimension dim="1">type</dimension>
   <field type="int">atomspertype</field>
   <field type="string">element</field>
   <field>mass</field>
   <field>valence</field>
   <field type="string">pseudopotential</field>
   <set>
    <rc><c> 273</c><c>Fe</c><c>     55.84700000</c><c>      8.00000000</c><c>  PAW_PBE Fe_GW 31Mar2010               </c></rc>
    <rc><c>  15</c><c>Mn</c><c>     54.93800000</c><c>      7.00000000</c><c>  PAW_PBE Mn_GW 31Mar2010               </c></rc>
   </set>
  </array>
 </atominfo>
 <structure name="initialpos" >
  <crystal>
   <varray name="basis" >
    <v>       9.72667800       0.00000000       0.00000000 </v>
    <v>       0.00000000       8.42355000       0.00000000 </v>
    <v>       0.00000000       0.00000000      45.00000000 </v>
   </varray>
   <i name="volume">   3686.99213101 </i>
   <varray name="rec_basis" >
    <v>       0.10281002       0.00000000       0.00000000 </v>
    <v>       0.00000000       0.11871479       0.00000000 </v>
    <v>       0.00000000       0.00000000       0.02222222 </v>
   </varray>
  </crystal>
  <varray name="positions" >
   <v>       0.56218151       0.37218147       0.52132485 </v>
   <v>       0.31276497       0.87179940       0.43491621 </v>
   <v>       0.68708019       0.95739688       0.69812668 </v>
   <v>       0.56290830       0.20354374       0.21373777 </v>
   <v>       0.68705603       0.45721536       0.69814890 </v>
   <v>       0.93773054       0.28666787       0.25775502 </v>
   <v>       0.93748518       0.78669164       0.25770043 </v>
   <v>       0.81264321       0.54003063       0.60989545 </v>
   <v>       0.68759702       0.12182345       0.43475378 </v>
   <v>       0.31243947       0.03995174       0.60976176 </v>
   <v>       0.18784257       0.45629944       0.56529024 </v>
   <v>       0.43750781       0.12167956       0.43484192 </v>
   <v>       0.06250332       0.54004702       0.60976697 </v>
   <v>       0.18755629       0.12397305       0.65359233 </v>
   <v>       0.93754751       0.45339229       0.21356129 </v>
   <v>       0.43721481       0.45626686       0.56506028 </v>
   <v>       0.68743476       0.62026146       0.30185432 </v>
   <v>       0.68725267       0.95613684       0.56509505 </v>
   <v>       0.68738782       0.62236869       0.52131776 </v>
   <v>       0.68761957       0.95436494       0.34633129 </v>
   <v>       0.06270856       0.20755477       0.83145628 </v>
   <v>       0.18757557       0.95536702       0.47859913 </v>
   <v>       0.93641162       0.29156215       0.87344014 </v>
   <v>       0.81259179       0.37377282       0.65365497 </v>
   <v>       0.81242545       0.87448760       0.78652667 </v>
   <v>       0.68729409       0.28766556       0.39014186 </v>
   <v>       0.68793994       0.79112351       0.74231501 </v>
   <v>       0.81252542       0.53614994       0.12666160 </v>
   <v>       0.18750640       0.95589876       0.56519793 </v>
   <v>       0.68818680       0.29091763       0.74225790 </v>
   <v>       0.56258012       0.20745785       0.69807124 </v>
   <v>       0.18702533       0.29117698       0.74220248 </v>
   <v>       0.93741378       0.78825503       0.39008648 </v>
   <v>       0.68743506       0.28646637       0.25776732 </v>
   <v>       0.18753376       0.78700541       0.25776148 </v>
   <v>       0.68718151       0.45566498       0.47866110 </v>
   <v>       0.18755305       0.28742391       0.39014968 </v>
   <v>       0.06239375       0.87442366       0.78644903 </v>
   <v>       0.18715777       0.45337636       0.21354451 </v>
   <v>       0.56272703       0.70804800       0.69815051 </v>
   <v>       0.06240932       0.37069694       0.30187436 </v>
   <v>       0.56211751       0.87374309       0.65373285 </v>
   <v>       0.43738455       0.95850934       0.83135062 </v>
   <v>       0.56258955       0.20607137       0.56510049 </v>
   <v>       0.56249216       0.53645867       0.12662194 </v>
   <v>       0.93731795       0.11985962       0.16890628 </v>
   <v>       0.56252279       0.04127137       0.74232282 </v>
   <v>       0.93719096       0.12275085       0.52125437 </v>
   <v>       0.56251495       0.54232446       0.87341837 </v>
   <v>       0.93741553       0.79038074       0.60967260 </v>
   <v>       0.56265977       0.70542689       0.47856678 </v>
   <v>       0.93719919       0.79134831       0.87343995 </v>
   <v>       0.43747579       0.61928557       0.16886722 </v>
   <v>       0.93784924       0.62373669       0.65374137 </v>
   <v>       0.93731047       0.95320682       0.21352728 </v>
   <v>       0.31246809       0.20778187       0.69808966 </v>
   <v>       0.56170147       0.87015919       0.16864777 </v>
   <v>       0.43779266       0.12013899       0.30183779 </v>
   <v>       0.18778890       0.12246259       0.52131038 </v>
   <v>       0.18750088       0.78759813       0.39025204 </v>
   <v>       0.68771332       0.78989141       0.60964854 </v>
   <v>       0.56261841       0.03978245       0.60980959 </v>
   <v>       0.06298986       0.37386767       0.65361530 </v>
   <v>       0.06227364       0.20370922       0.21373886 </v>
   <v>       0.56260414       0.70614643       0.56506158 </v>
   <v>       0.43770999       0.28775942       0.39027317 </v>
   <v>       0.68711063       0.62485435       0.78650703 </v>
   <v>       0.81257679       0.86976522       0.16882093 </v>
   <v>       0.31223584       0.37149687       0.43481968 </v>
   <v>       0.18751184       0.28727077       0.12665604 </v>
   <v>       0.56253617       0.70324064       0.21361722 </v>
   <v>       0.18780379       0.95772423       0.69809388 </v>
   <v>       0.56222526       0.87443372       0.78644642 </v>
   <v>       0.06251321       0.20781946       0.69817108 </v>
   <v>       0.18742579       0.62433907       0.78646181 </v>
   <v>       0.43764198       0.12247259       0.52131291 </v>
   <v>       0.06247544       0.03690733       0.25769957 </v>
   <v>       0.81238209       0.04004861       0.60977487 </v>
   <v>       0.81256872       0.37073941       0.30190828 </v>
   <v>       0.56244174       0.37035997       0.30188513 </v>
   <v>       0.06260493       0.20398927       0.34624490 </v>
   <v>       0.06250715       0.70638667       0.56515611 </v>
   <v>       0.31241176       0.70274400       0.21368956 </v>
   <v>       0.56246928       0.20778238       0.83123143 </v>
   <v>       0.31282186       0.03764006       0.39018717 </v>
   <v>       0.43720759       0.29160167       0.87356154 </v>
   <v>       0.18771825       0.45399590       0.34621225 </v>
   <v>       0.18731574       0.62182429       0.43483438 </v>
   <v>       0.43736615       0.78967996       0.60983585 </v>
   <v>       0.68729618       0.12465038       0.78649024 </v>
   <v>       0.31234792       0.87447433       0.78649280 </v>
   <v>       0.81255657       0.70619233       0.56524313 </v>
   <v>       0.56261399       0.20433460       0.34635001 </v>
   <v>       0.93771272       0.95385366       0.34626565 </v>
   <v>       0.93767197       0.62194053       0.43477392 </v>
   <v>       0.68766154       0.79131198       0.87339357 </v>
   <v>       0.18767237       0.95394399       0.34629621 </v>
   <v>       0.31252388       0.20323753       0.21356988 </v>
   <v>       0.18732614       0.95906980       0.83134076 </v>
   <v>       0.43802408       0.12414472       0.78630161 </v>
   <v>       0.43755854       0.45406813       0.34624817 </v>
   <v>       0.81254887       0.03643135       0.25772010 </v>
   <v>       0.31253113       0.54016773       0.60968437 </v>
   <v>       0.18786516       0.45801068       0.69800124 </v>
   <v>       0.31282058       0.20566215       0.47857429 </v>
   <v>       0.56211171       0.87215361       0.52133684 </v>
   <v>       0.81281612       0.37143753       0.43479622 </v>
   <v>       0.31278329       0.54148025       0.74223782 </v>
   <v>       0.93763446       0.78594062       0.12653603 </v>
   <v>       0.18708322       0.79051334       0.87340275 </v>
   <v>       0.93754223       0.28786594       0.39034189 </v>
   <v>       0.31272037       0.70634105       0.56506340 </v>
   <v>       0.68775143       0.12046414       0.30195222 </v>
   <v>       0.93755882       0.28663271       0.12672464 </v>
   <v>       0.43766439       0.95780946       0.69801918 </v>
   <v>       0.56242657       0.86993534       0.30184515 </v>
   <v>       0.56311084       0.03569659       0.12658677 </v>
   <v>       0.06260253       0.53707031       0.25771603 </v>
   <v>       0.43760363       0.78778902       0.39020674 </v>
   <v>       0.18810345       0.11914538       0.16872013 </v>
   <v>       0.81237328       0.53651530       0.25771978 </v>
   <v>       0.06279820       0.04136486       0.74237181 </v>
   <v>       0.06231720       0.53628538       0.12660665 </v>
   <v>       0.43767909       0.78679314       0.25773980 </v>
   <v>       0.81214924       0.20499470       0.47853550 </v>
   <v>       0.18775261       0.45807746       0.83135892 </v>
   <v>       0.43751450       0.45335519       0.21365379 </v>
   <v>       0.56275007       0.20507478       0.47854863 </v>
   <v>       0.06266764       0.87176973       0.43476288 </v>
   <v>       0.56216672       0.37462090       0.78643039 </v>
   <v>       0.06228736       0.36970373       0.16888281 </v>
   <v>       0.18824668       0.45581251       0.47858060 </v>
   <v>       0.43779950       0.62219795       0.52137206 </v>
   <v>       0.06164423       0.03589022       0.12664616 </v>
   <v>       0.93723132       0.95733612       0.69804484 </v>
   <v>       0.43731086       0.95622500       0.56506349 </v>
   <v>       0.56237745       0.87143274       0.43472868 </v>
   <v>       0.18762928       0.79022701       0.60969895 </v>
   <v>       0.43731458       0.95441440       0.34631161 </v>
   <v>       0.68742238       0.78662562       0.25775184 </v>
   <v>       0.31234566       0.53772189       0.39015495 </v>
   <v>       0.93719173       0.62043513       0.30182107 </v>
   <v>       0.31222833       0.54129075       0.87348515 </v>
   <v>       0.81231497       0.03775306       0.39008696 </v>
   <v>       0.31275528       0.37379308       0.65354529 </v>
   <v>       0.43746002       0.62393294       0.65371131 </v>
   <v>       0.68771365       0.12000620       0.16887010 </v>
   <v>       0.93758157       0.12402455       0.65370245 </v>
   <v>       0.31258700       0.87035563       0.16855153 </v>
   <v>       0.68771810       0.62357698       0.65365927 </v>
   <v>       0.31236434       0.37236011       0.52133785 </v>
   <v>       0.56304107       0.70782711       0.83120220 </v>
   <v>       0.81260579       0.20604995       0.56524904 </v>
   <v>       0.68801607       0.29126603       0.87343485 </v>
   <v>       0.43751251       0.62172506       0.43486370 </v>
   <v>       0.06208326       0.70827530       0.83127322 </v>
   <v>       0.06210342       0.70768867       0.69807627 </v>
   <v>       0.81217864       0.70492196       0.47858349 </v>
   <v>       0.06247373       0.87046835       0.30181509 </v>
   <v>       0.81223186       0.87192965       0.43512243 </v>
   <v>       0.68761040       0.95820867       0.83121124 </v>
   <v>       0.06295848       0.37266181       0.52122462 </v>
   <v>       0.06279297       0.04162003       0.87344472 </v>
   <v>       0.56257966       0.04164024       0.87342830 </v>
   <v>       0.06237454       0.53792876       0.39014020 </v>
   <v>       0.31248074       0.87258531       0.52135703 </v>
   <v>       0.43749448       0.28783062       0.12663046 </v>
   <v>       0.81221289       0.04098644       0.74224616 </v>
   <v>       0.81221655       0.70409882       0.34625602 </v>
   <v>       0.43764387       0.79119259       0.87331232 </v>
   <v>       0.68781969       0.95316879       0.21360625 </v>
   <v>       0.81240784       0.20704796       0.69815518 </v>
   <v>       0.81235507       0.20336513       0.21361745 </v>
   <v>       0.56269082       0.36977493       0.16888323 </v>
   <v>       0.93801229       0.95577986       0.56518832 </v>
   <v>       0.93778873       0.45611182       0.56489170 </v>
   <v>       0.81210167       0.04134949       0.87336116 </v>
   <v>       0.06259756       0.70302858       0.21358306 </v>
   <v>       0.31288367       0.20415033       0.34633122 </v>
   <v>       0.56257270       0.53774916       0.39018811 </v>
   <v>       0.31247486       0.70833764       0.83128239 </v>
   <v>       0.68755184       0.45393242       0.34623776 </v>
   <v>       0.31251487       0.87385468       0.65362971 </v>
   <v>       0.68748894       0.28992702       0.60970641 </v>
   <v>       0.68742608       0.28669230       0.12674032 </v>
   <v>       0.31234318       0.87033214       0.30190095 </v>
   <v>       0.43740928       0.45780137       0.69813619 </v>
   <v>       0.31211081       0.04198644       0.87368440 </v>
   <v>       0.18703389       0.79142705       0.74234410 </v>
   <v>       0.18757323       0.28688032       0.25779643 </v>
   <v>       0.93776922       0.62268904       0.52135581 </v>
   <v>       0.81242631       0.20861686       0.83127223 </v>
   <v>       0.31276454       0.70386730       0.34626862 </v>
   <v>       0.18723229       0.62328981       0.65365777 </v>
   <v>       0.56253122       0.03768926       0.39018306 </v>
   <v>       0.68749749       0.78791925       0.39016191 </v>
   <v>       0.43729991       0.45560209       0.47856936 </v>
   <v>       0.81260184       0.03643627       0.12664414 </v>
   <v>       0.18794041       0.12155695       0.43481226 </v>
   <v>       0.93757114       0.29133120       0.74230933 </v>
   <v>       0.43687401       0.45764602       0.83129634 </v>
   <v>       0.43785013       0.61983314       0.30194230 </v>
   <v>       0.31228688       0.70805576       0.69811006 </v>
   <v>       0.31279072       0.04174015       0.74221282 </v>
   <v>       0.06283407       0.87243589       0.52133869 </v>
   <v>       0.06296414       0.87419095       0.65364370 </v>
   <v>       0.81258414       0.70744834       0.69819545 </v>
   <v>       0.56250209       0.03625848       0.25777406 </v>
   <v>       0.06272179       0.70558023       0.47860823 </v>
   <v>       0.81253934       0.37217089       0.52126865 </v>
   <v>       0.93725589       0.95772381       0.83115234 </v>
   <v>       0.93725628       0.12072320       0.30183010 </v>
   <v>       0.81268666       0.37512173       0.78647174 </v>
   <v>       0.31267628       0.70546336       0.47865910 </v>
   <v>       0.56251040       0.53651740       0.25770311 </v>
   <v>       0.81251788       0.36978749       0.16889046 </v>
   <v>       0.18753937       0.61926328       0.16884502 </v>
   <v>       0.81208558       0.20403175       0.34620764 </v>
   <v>       0.68779642       0.45340251       0.21364383 </v>
   <v>       0.56223084       0.37390174       0.65369044 </v>
   <v>       0.31261518       0.53682862       0.25765286 </v>
   <v>       0.93697232       0.62441747       0.78648138 </v>
   <v>       0.18724588       0.62224353       0.52135030 </v>
   <v>       0.43740467       0.95528903       0.47858825 </v>
   <v>       0.93739795       0.45827496       0.83129834 </v>
   <v>       0.68768409       0.12284063       0.52140772 </v>
   <v>       0.06252166       0.54210204       0.87339025 </v>
   <v>       0.81238809       0.54077447       0.74233159 </v>
   <v>       0.81247637       0.70310112       0.21351709 </v>
   <v>       0.31255899       0.36917334       0.16865793 </v>
   <v>       0.43771061       0.12432289       0.65352792 </v>
   <v>       0.81213807       0.54147853       0.87347764 </v>
   <v>       0.06298693       0.86977211       0.16864258 </v>
   <v>       0.31231657       0.37474902       0.78638103 </v>
   <v>       0.93752250       0.61983369       0.16881732 </v>
   <v>       0.93715056       0.12423229       0.78655308 </v>
   <v>       0.06266416       0.04048740       0.60988130 </v>
   <v>       0.93734666       0.45411829       0.34627052 </v>
   <v>       0.93741741       0.79076076       0.74218081 </v>
   <v>       0.93752437       0.29026362       0.60977885 </v>
   <v>       0.31264170       0.36995625       0.30189812 </v>
   <v>       0.06246542       0.20582883       0.56489573 </v>
   <v>       0.68745755       0.12338183       0.65372018 </v>
   <v>       0.43734503       0.28641755       0.25775578 </v>
   <v>       0.68748704       0.61999553       0.16884199 </v>
   <v>       0.81219042       0.70835446       0.83127235 </v>
   <v>       0.68710435       0.95546339       0.47864470 </v>
   <v>       0.56257095       0.70415435       0.34631573 </v>
   <v>       0.56268801       0.54132039       0.74226251 </v>
   <v>       0.18758799       0.62032914       0.30183461 </v>
   <v>       0.81282381       0.53797331       0.39019039 </v>
   <v>       0.18785840       0.29087651       0.87371243 </v>
   <v>       0.18722929       0.95324610       0.21352848 </v>
   <v>       0.18621044       0.78623156       0.12655108 </v>
   <v>       0.43759067       0.28994279       0.60979202 </v>
   <v>       0.68756215       0.45859000       0.83137237 </v>
   <v>       0.31260096       0.03671216       0.25770348 </v>
   <v>       0.31268668       0.20613564       0.56520553 </v>
   <v>       0.93777709       0.95512292       0.47862185 </v>
   <v>       0.56246763       0.54000713       0.60974678 </v>
   <v>       0.68757868       0.62149427       0.43468133 </v>
   <v>       0.06247089       0.03791356       0.39015174 </v>
   <v>       0.43842989       0.78657533       0.12655767 </v>
   <v>       0.31264070       0.53644645       0.12659636 </v>
   <v>       0.43772912       0.62436818       0.78641018 </v>
   <v>       0.06230243       0.37448346       0.78650900 </v>
   <v>       0.56239548       0.37147077       0.43481158 </v>
   <v>       0.93724737       0.12186041       0.43472768 </v>
   <v>       0.06270685       0.37155668       0.43488779 </v>
   <v>       0.43705862       0.11913185       0.16865135 </v>
   <v>       0.81267803       0.87011971       0.30183270 </v>
   <v>       0.18753011       0.28988070       0.60962700 </v>
   <v>       0.68772808       0.78577350       0.12652813 </v>
   <v>       0.43752754       0.79153794       0.74234248 </v>
   <v>       0.18693701       0.12406433       0.78598311 </v>
   <v>       0.68710709       0.45604416       0.56516429 </v>
   <v>       0.43758239       0.95316838       0.21373123 </v>
   <v>       0.06248314       0.20482652       0.47861053 </v>
   <v>       0.06289578       0.54150732       0.74250326 </v>
   <v>       0.31244254       0.20825104       0.83212359 </v>
   <v>       0.93707146       0.45712374       0.69797557 </v>
   <v>       0.93706733       0.45581691       0.47858744 </v>
   <v>       0.18728393       0.12052283       0.30192741 </v>
   <v>       0.81251452       0.87247083       0.52125781 </v>
   <v>       0.31269502       0.03642986       0.12678192 </v>
   <v>       0.06255565       0.70387585       0.34638060 </v>
   <v>       0.43703266       0.29072701       0.74238274 </v>
   <v>       0.81266792       0.87390838       0.65367081 </v>
  </varray>
 </structure>
 <calculation>
  <scstep>
   <time name="dav">  145.08  145.08</time>
   <time name="total">  145.53  145.53</time>
   <energy>
    <i name="alphaZ">  16277.55763135 </i>
    <i name="ewald"> 769146.13578589 </i>
    <i name="hartreedc">-959390.50173958 </i>
    <i name="XCdc">  -6524.86776668 </i>
    <i name="pawpsdc"> 162148.49262465 </i>
    <i name="pawaedc">-159453.03229289 </i>
    <i name="eentropy">     -0.95880146 </i>
    <i name="bandstr">  39734.90773946 </i>
    <i name="atom"> 168497.18126305 </i>
    <i name="e_fr_energy">  30434.91444380 </i>
    <i name="e_wo_entrp">  30435.87324525 </i>
    <i name="e_0_energy">  30435.39384453 </i>
   </energy>
  </scstep>
  <scstep>
   <time name="dav">  142.78  142.78</time>
   <time name="total">  142.78  142.78</time>
   <energy>
    <i name="e_fr_energy">   1533.07523556 </i>
    <i name="e_wo_entrp">   1534.45414442 </i>
    <i name="e_0_energy">   1533.76468999 </i>
   </energy>
  </scstep>
  <scstep>
   <time name="dav">  176.61  176.61</time>
   <time name="total">  176.62  176.61</time>
   <energy>
    <i name="e_fr_energy">  -1896.59732758 </i>
    <i name="e_wo_entrp">  -1893.06966240 </i>
    <i name="e_0_energy">  -1894.83349499 </i>
   </energy>
  </scstep>
  <scstep>
   <time name="dav">  217.96  217.96</time>
   <time name="total">  217.97  217.96</time>
   <energy>
    <i name="e_fr_energy">  -2609.86769194 </i>
    <i name="e_wo_entrp">  -2606.40826418 </i>
    <i name="e_0_energy">  -2608.13797806 </i>
   </energy>
  </scstep>
  <scstep>
   <time name="dav">  207.49  207.48</time>
   <time name="total">  212.09  212.08</time>
   <energy>
    <i name="e_fr_energy">  -2739.77330228 </i>
    <i name="e_wo_entrp">  -2736.23871442 </i>
    <i name="e_0_energy">  -2738.00600835 </i>
   </energy>
  </scstep>
  <scstep>
   <time name="diag">   29.79   29.79</time>
   <time name="diis">   75.82   75.81</time>
   <time name="orth">    8.87    8.87</time>
   <time name="total">  119.79  119.79</time>
   <energy>
    <i name="e_fr_energy">  -6780.09271057 </i>
    <i name="e_wo_entrp">  -6776.55729130 </i>
    <i name="e_0_energy">  -6778.32500093 </i>
   </energy>
  </scstep>
  <scstep>
   <time name="diag">   32.34   32.34</time>
   <time name="diis">   77.29   77.28</time>
   <time name="orth">    9.23    9.23</time>
   <time name="total">  123.72  123.71</time>
   <energy>
    <i name="e_fr_energy">  -6582.62193461 </i>
    <i name="e_wo_entrp">  -6578.49267034 </i>
    <i name="e_0_energy">  -6580.55730247 </i>
   </energy>
  </scstep>
  <scstep>
[...]
       <r>     5.8102     0.0000  2760.0000 </r>
       <r>     5.8530     0.0000  2760.0000 </r>
       <r>     5.8957     0.0000  2760.0000 </r>
       <r>     5.9384     0.0000  2760.0000 </r>
       <r>     5.9811     0.0000  2760.0000 </r>
       <r>     6.0238     0.0000  2760.0000 </r>
       <r>     6.0666     0.0000  2760.0000 </r>
       <r>     6.1093     0.0000  2760.0000 </r>
       <r>     6.1520     0.0000  2760.0000 </r>
       <r>     6.1947     0.0000  2760.0000 </r>
       <r>     6.2374     0.0000  2760.0000 </r>
       <r>     6.2802     0.0000  2760.0000 </r>
       <r>     6.3229     0.0000  2760.0000 </r>
       <r>     6.3656     0.0000  2760.0000 </r>
       <r>     6.4083     0.0000  2760.0000 </r>
       <r>     6.4510     0.0000  2760.0000 </r>
       <r>     6.4937     0.0000  2760.0000 </r>
       <r>     6.5365     0.0000  2760.0000 </r>
       <r>     6.5792     0.0000  2760.0000 </r>
       <r>     6.6219     0.0000  2760.0000 </r>
       <r>     6.6646     0.0000  2760.0000 </r>
       <r>     6.7073     0.0000  2760.0000 </r>
       <r>     6.7501     0.0000  2760.0000 </r>
      </set>
     </set>
    </array>
   </total>
  </dos>
 </calculation>
 <structure name="finalpos" >
  <crystal>
   <varray name="basis" >
    <v>       9.72667800       0.00000000       0.00000000 </v>
    <v>       0.00000000       8.42355000       0.00000000 </v>
    <v>       0.00000000       0.00000000      45.00000000 </v>
   </varray>
   <i name="volume">   3686.99213101 </i>
   <varray name="rec_basis" >
    <v>       0.10281002       0.00000000       0.00000000 </v>
    <v>       0.00000000       0.11871479       0.00000000 </v>
    <v>       0.00000000       0.00000000       0.02222222 </v>
   </varray>
  </crystal>
  <varray name="positions" >
   <v>       0.56218635       0.37219577       0.52132450 </v>
   <v>       0.31275281       0.87178210       0.43490935 </v>
   <v>       0.68708621       0.95732734       0.69813608 </v>
   <v>       0.56290874       0.20356071       0.21372817 </v>
   <v>       0.68706073       0.45712413       0.69815697 </v>
   <v>       0.93773459       0.28672392       0.25773622 </v>
   <v>       0.93749028       0.78672567       0.25768324 </v>
   <v>       0.81264620       0.53998822       0.60990108 </v>
   <v>       0.68760092       0.12181553       0.43474709 </v>
   <v>       0.31243957       0.03991657       0.60977316 </v>
   <v>       0.18782412       0.45633568       0.56529823 </v>
   <v>       0.43751174       0.12165629       0.43483014 </v>
   <v>       0.06248711       0.54000542       0.60977491 </v>
   <v>       0.18754295       0.12390075       0.65360197 </v>
   <v>       0.93755409       0.45340453       0.21355524 </v>
   <v>       0.43722559       0.45626510       0.56506844 </v>
   <v>       0.68744331       0.62027798       0.30184281 </v>
   <v>       0.68727047       0.95614356       0.56509896 </v>
   <v>       0.68737170       0.62236617       0.52132222 </v>
   <v>       0.68762197       0.95444850       0.34631852 </v>
   <v>       0.06268390       0.20753966       0.83146223 </v>
   <v>       0.18756037       0.95532820       0.47859910 </v>
   <v>       0.93643474       0.29148040       0.87344937 </v>
   <v>       0.81259765       0.37371637       0.65366043 </v>
   <v>       0.81243147       0.87450226       0.78654165 </v>
   <v>       0.68729205       0.28773119       0.39013229 </v>
   <v>       0.68794307       0.79108051       0.74233628 </v>
   <v>       0.81253195       0.53622567       0.12663380 </v>
   <v>       0.18750722       0.95591061       0.56520557 </v>
   <v>       0.68820671       0.29087355       0.74227747 </v>
   <v>       0.56257890       0.20737183       0.69808017 </v>
   <v>       0.18699764       0.29113433       0.74222330 </v>
   <v>       0.93741541       0.78829156       0.39008393 </v>
   <v>       0.68743688       0.28652415       0.25774718 </v>
   <v>       0.18750679       0.78703404       0.25774526 </v>
   <v>       0.68715794       0.45564884       0.47865782 </v>
   <v>       0.18754288       0.28745701       0.39013843 </v>
   <v>       0.06238116       0.87443850       0.78646870 </v>
   <v>       0.18714634       0.45342935       0.21353393 </v>
   <v>       0.56273317       0.70797352       0.69815957 </v>
   <v>       0.06240260       0.37071474       0.30185661 </v>
   <v>       0.56213677       0.87368076       0.65374075 </v>
   <v>       0.43737351       0.95851046       0.83136497 </v>
   <v>       0.56260227       0.20608803       0.56510894 </v>
   <v>       0.56247950       0.53654531       0.12660197 </v>
   <v>       0.93735059       0.11987794       0.16889090 </v>
   <v>       0.56255254       0.04123495       0.74234332 </v>
   <v>       0.93721972       0.12282163       0.52126246 </v>
   <v>       0.56253912       0.54224491       0.87342532 </v>
   <v>       0.93740813       0.79036736       0.60968251 </v>
   <v>       0.56266167       0.70540713       0.47856688 </v>
   <v>       0.93720185       0.79131689       0.87345658 </v>
   <v>       0.43746504       0.61929051       0.16886313 </v>
   <v>       0.93783336       0.62367274       0.65374451 </v>
   <v>       0.93731617       0.95322370       0.21352430 </v>
   <v>       0.31247156       0.20769327       0.69810220 </v>
   <v>       0.56168309       0.87015919       0.16864382 </v>
   <v>       0.43777395       0.12016926       0.30182559 </v>
   <v>       0.18776473       0.12249166       0.52131394 </v>
   <v>       0.18749958       0.78762610       0.39024341 </v>
   <v>       0.68772025       0.78987093       0.60966115 </v>
   <v>       0.56262246       0.03974566       0.60981923 </v>
   <v>       0.06297351       0.37378231       0.65362754 </v>
   <v>       0.06226966       0.20373143       0.21373387 </v>
   <v>       0.56260758       0.70615815       0.56507353 </v>
   <v>       0.43771438       0.28782718       0.39025671 </v>
   <v>       0.68713262       0.62486803       0.78652484 </v>
   <v>       0.81258818       0.86975803       0.16881340 </v>
   <v>       0.31222961       0.37146867       0.43480862 </v>
   <v>       0.18752290       0.28734608       0.12663453 </v>
   <v>       0.56254417       0.70322140       0.21361777 </v>
   <v>       0.18778521       0.95765939       0.69811101 </v>
   <v>       0.56223261       0.87445392       0.78645715 </v>
   <v>       0.06249866       0.20774169       0.69818103 </v>
   <v>       0.18740874       0.62437640       0.78648098 </v>
   <v>       0.43763751       0.12249223       0.52131513 </v>
   <v>       0.06246814       0.03695454       0.25768461 </v>
   <v>       0.81238354       0.04001852       0.60978229 </v>
   <v>       0.81257856       0.37078170       0.30189223 </v>
   <v>       0.56244488       0.37039185       0.30187016 </v>
   <v>       0.06260719       0.20404201       0.34622971 </v>
   <v>       0.06249860       0.70640328       0.56516730 </v>
   <v>       0.31239283       0.70275597       0.21368418 </v>
   <v>       0.56247878       0.20777471       0.83124561 </v>
   <v>       0.31281664       0.03768945       0.39017688 </v>
   <v>       0.43720096       0.29150954       0.87356268 </v>
   <v>       0.18770403       0.45406867       0.34619996 </v>
   <v>       0.18730151       0.62179733       0.43482582 </v>
   <v>       0.43736434       0.78963965       0.60984775 </v>
   <v>       0.68732564       0.12468183       0.78650710 </v>
   <v>       0.31233444       0.87450486       0.78650689 </v>
   <v>       0.81256625       0.70621089       0.56524883 </v>
   <v>       0.56261943       0.20440470       0.34633778 </v>
   <v>       0.93772057       0.95390230       0.34625684 </v>
   <v>       0.93767532       0.62190339       0.43476939 </v>
   <v>       0.68767165       0.79127152       0.87340885 </v>
   <v>       0.18767029       0.95399935       0.34628312 </v>
   <v>       0.31251232       0.20327704       0.21356311 </v>
   <v>       0.18730524       0.95904798       0.83135135 </v>
   <v>       0.43804036       0.12416696       0.78631785 </v>
   <v>       0.43755869       0.45414716       0.34623495 </v>
   <v>       0.81255578       0.03648450       0.25770489 </v>
   <v>       0.31253103       0.54012251       0.60969218 </v>
   <v>       0.18783732       0.45791697       0.69801560 </v>
   <v>       0.31283409       0.20566344       0.47857060 </v>
   <v>       0.56209283       0.87215443       0.52134004 </v>
   <v>       0.81282181       0.37141999       0.43478571 </v>
   <v>       0.31279123       0.54145880       0.74226528 </v>
   <v>       0.93764712       0.78599005       0.12652049 </v>
   <v>       0.18705987       0.79043297       0.87341496 </v>
   <v>       0.93754061       0.28790699       0.39033153 </v>
   <v>       0.31271928       0.70633181       0.56507509 </v>
   <v>       0.68776117       0.12051529       0.30193591 </v>
   <v>       0.93757184       0.28669515       0.12669787 </v>
   <v>       0.43767315       0.95772591       0.69803651 </v>
   <v>       0.56242511       0.86996905       0.30183334 </v>
   <v>       0.56308587       0.03575232       0.12657168 </v>
   <v>       0.06259609       0.53712370       0.25769599 </v>
   <v>       0.43761008       0.78783125       0.39020035 </v>
   <v>       0.18811550       0.11916545       0.16870441 </v>
   <v>       0.81237455       0.53656316       0.25769841 </v>
   <v>       0.06278243       0.04132590       0.74239685 </v>
   <v>       0.06232945       0.53637210       0.12658523 </v>
   <v>       0.43767116       0.78684687       0.25772106 </v>
   <v>       0.81212757       0.20498321       0.47853154 </v>
   <v>       0.18773325       0.45804502       0.83136951 </v>
   <v>       0.43750687       0.45337306       0.21364981 </v>
   <v>       0.56274749       0.20507889       0.47854490 </v>
   <v>       0.06267260       0.87172120       0.43476032 </v>
   <v>       0.56219801       0.37464620       0.78644343 </v>
   <v>       0.06229135       0.36972254       0.16886366 </v>
   <v>       0.18826360       0.45582429       0.47857374 </v>
   <v>       0.43782150       0.62219915       0.52137585 </v>
   <v>       0.06168388       0.03597268       0.12662624 </v>
   <v>       0.93722629       0.95726576       0.69805737 </v>
   <v>       0.43731022       0.95624626       0.56507295 </v>
   <v>       0.56237725       0.87140995       0.43472132 </v>
   <v>       0.18763097       0.79018059       0.60971151 </v>
   <v>       0.43731775       0.95447763       0.34629894 </v>
   <v>       0.68743533       0.78666047       0.25773774 </v>
   <v>       0.31234369       0.53776437       0.39014472 </v>
   <v>       0.93719757       0.62045411       0.30180791 </v>
   <v>       0.31221480       0.54119138       0.87348666 </v>
   <v>       0.81230852       0.03780674       0.39007647 </v>
   <v>       0.31275451       0.37370071       0.65355698 </v>
   <v>       0.43747808       0.62385783       0.65372311 </v>
   <v>       0.68771188       0.12001957       0.16886168 </v>
   <v>       0.93757159       0.12394578       0.65370835 </v>
   <v>       0.31256605       0.87036930       0.16854221 </v>
   <v>       0.68772714       0.62350598       0.65366145 </v>
   <v>       0.31234591       0.37235491       0.52134053 </v>
   <v>       0.56306303       0.70783756       0.83121431 </v>
   <v>       0.81260728       0.20610395       0.56525436 </v>
   <v>       0.68805270       0.29121020       0.87344516 </v>
   <v>       0.43749589       0.62171437       0.43485374 </v>
   <v>       0.06205679       0.70825053       0.83129504 </v>
   <v>       0.06209303       0.70760203       0.69808546 </v>
   <v>       0.81216866       0.70491484       0.47857680 </v>
   <v>       0.06247418       0.87050217       0.30180222 </v>
   <v>       0.81225181       0.87191210       0.43511657 </v>
   <v>       0.68761988       0.95820423       0.83122980 </v>
   <v>       0.06294911       0.37265729       0.52122897 </v>
   <v>       0.06276063       0.04155938       0.87345234 </v>
   <v>       0.56257536       0.04157579       0.87343418 </v>
   <v>       0.06237343       0.53797559       0.39013193 </v>
   <v>       0.31248189       0.87258470       0.52136096 </v>
   <v>       0.43746832       0.28791392       0.12660577 </v>
   <v>       0.81221104       0.04092263       0.74226806 </v>
   <v>       0.81222521       0.70414462       0.34625040 </v>
   <v>       0.43763925       0.79114140       0.87332263 </v>
   <v>       0.68783782       0.95313591       0.21361196 </v>
   <v>       0.81240803       0.20697685       0.69815728 </v>
   <v>       0.81237899       0.20338915       0.21361406 </v>
   <v>       0.56267203       0.36978830       0.16886598 </v>
   <v>       0.93800998       0.95582730       0.56519357 </v>
   <v>       0.93778450       0.45613965       0.56489791 </v>
   <v>       0.81212552       0.04128893       0.87337096 </v>
   <v>       0.06259315       0.70306171       0.21358192 </v>
   <v>       0.31287948       0.20422694       0.34631503 </v>
   <v>       0.56256757       0.53781956       0.39017536 </v>
   <v>       0.31245231       0.70832106       0.83129825 </v>
   <v>       0.68754666       0.45398953       0.34622803 </v>
   <v>       0.31250367       0.87377301       0.65364598 </v>
   <v>       0.68749490       0.28993190       0.60971649 </v>
   <v>       0.68740981       0.28675146       0.12671757 </v>
   <v>       0.31232693       0.87036295       0.30188838 </v>
   <v>       0.43742922       0.45770712       0.69814917 </v>
   <v>       0.31210823       0.04189738       0.87368612 </v>
   <v>       0.18701916       0.79140162       0.74236979 </v>
   <v>       0.18755837       0.28693457       0.25777903 </v>
   <v>       0.93778514       0.62268286       0.52136461 </v>
   <v>       0.81245518       0.20861317       0.83128844 </v>
   <v>       0.31276060       0.70392180       0.34626101 </v>
   <v>       0.18723412       0.62321214       0.65366372 </v>
   <v>       0.56254069       0.03773455       0.39017165 </v>
   <v>       0.68750395       0.78796425       0.39015564 </v>
   <v>       0.43731429       0.45558989       0.47856467 </v>
   <v>       0.81261122       0.03648339       0.12663182 </v>
   <v>       0.18791162       0.12155201       0.43480441 </v>
   <v>       0.93755469       0.29129326       0.74232832 </v>
   <v>       0.43687257       0.45761472       0.83130602 </v>
   <v>       0.43785022       0.61987615       0.30193065 </v>
   <v>       0.31229416       0.70797407       0.69812234 </v>
   <v>       0.31280110       0.04167898       0.74223798 </v>
   <v>       0.06284755       0.87244553       0.52134090 </v>
   <v>       0.06295549       0.87415401       0.65365370 </v>
   <v>       0.81259104       0.70736403       0.69820225 </v>
   <v>       0.56249818       0.03632024       0.25775141 </v>
   <v>       0.06272589       0.70557431       0.47860293 </v>
   <v>       0.81255061       0.37218604       0.52127670 </v>
   <v>       0.93723231       0.95769610       0.83116800 </v>
   <v>       0.93724818       0.12077158       0.30181647 </v>
   <v>       0.81270067       0.37514785       0.78648794 </v>
   <v>       0.31266751       0.70544904       0.47865194 </v>
   <v>       0.56251332       0.53654422       0.25768443 </v>
   <v>       0.81253325       0.36981262       0.16886785 </v>
   <v>       0.18752903       0.61930323       0.16883389 </v>
   <v>       0.81208722       0.20410968       0.34619481 </v>
   <v>       0.68780207       0.45339896       0.21363554 </v>
   <v>       0.56225127       0.37382585       0.65370217 </v>
   <v>       0.31259518       0.53687086       0.25763120 </v>
   <v>       0.93698278       0.62443786       0.78650341 </v>
   <v>       0.18723155       0.62225602       0.52135777 </v>
   <v>       0.43741702       0.95528392       0.47858638 </v>
   <v>       0.93738823       0.45824774       0.83130986 </v>
   <v>       0.68769057       0.12288101       0.52141166 </v>
   <v>       0.06252140       0.54197117       0.87339867 </v>
   <v>       0.81239423       0.54071967       0.74235485 </v>
   <v>       0.81248826       0.70309792       0.21351590 </v>
   <v>       0.31254737       0.36921166       0.16864345 </v>
   <v>       0.43771473       0.12421251       0.65354341 </v>
   <v>       0.81218090       0.54140880       0.87348466 </v>
   <v>       0.06300638       0.86979531       0.16862978 </v>
   <v>       0.31230988       0.37478589       0.78639586 </v>
   <v>       0.93754379       0.61983664       0.16879976 </v>
   <v>       0.93714782       0.12421866       0.78656983 </v>
   <v>       0.06266180       0.04047758       0.60989068 </v>
   <v>       0.93735325       0.45417763       0.34625864 </v>
   <v>       0.93740640       0.79072447       0.74220245 </v>
   <v>       0.93752728       0.29025888       0.60978745 </v>
   <v>       0.31262607       0.36999340       0.30188078 </v>
   <v>       0.06246021       0.20585851       0.56490277 </v>
   <v>       0.68747295       0.12329976       0.65372784 </v>
   <v>       0.43733784       0.28646824       0.25773862 </v>
   <v>       0.68748848       0.62000467       0.16882786 </v>
   <v>       0.81219985       0.70833911       0.83128820 </v>
   <v>       0.68709160       0.95546382       0.47864038 </v>
   <v>       0.56257300       0.70422940       0.34630609 </v>
   <v>       0.56269136       0.54127851       0.74228664 </v>
   <v>       0.18756979       0.62035384       0.30182262 </v>
   <v>       0.81282947       0.53800917       0.39018501 </v>
   <v>       0.18784965       0.29077167       0.87371067 </v>
   <v>       0.18722190       0.95325332       0.21352177 </v>
   <v>       0.18622643       0.78629082       0.12653374 </v>
   <v>       0.43759284       0.28990580       0.60980525 </v>
   <v>       0.68758329       0.45858184       0.83138306 </v>
   <v>       0.31258524       0.03675809       0.25768665 </v>
   <v>       0.31269245       0.20614533       0.56521741 </v>
   <v>       0.93780006       0.95510535       0.47861578 </v>
   <v>       0.56248041       0.53996845       0.60975626 </v>
   <v>       0.68759135       0.62147605       0.43467188 </v>
   <v>       0.06247653       0.03794623       0.39014621 </v>
   <v>       0.43842627       0.78663105       0.12654786 </v>
   <v>       0.31263400       0.53654947       0.12658354 </v>
   <v>       0.43775713       0.62440340       0.78642855 </v>
   <v>       0.06228971       0.37450250       0.78652305 </v>
   <v>       0.56240444       0.37146455       0.43480170 </v>
   <v>       0.93726667       0.12184971       0.43471943 </v>
   <v>       0.06269932       0.37151797       0.43487819 </v>
   <v>       0.43704037       0.11917393       0.16863866 </v>
   <v>       0.81268974       0.87013808       0.30181990 </v>
   <v>       0.18751726       0.28986391       0.60963571 </v>
   <v>       0.68769806       0.78583165       0.12651503 </v>
   <v>       0.43753983       0.79150664       0.74236056 </v>
   <v>       0.18693661       0.12409428       0.78601138 </v>
   <v>       0.68711078       0.45606911       0.56517183 </v>
   <v>       0.43756523       0.95317943       0.21372164 </v>
   <v>       0.06249073       0.20480032       0.47860744 </v>
   <v>       0.06287368       0.54145783       0.74252326 </v>
   <v>       0.31242117       0.20824770       0.83212030 </v>
   <v>       0.93706645       0.45704469       0.69798825 </v>
   <v>       0.93706410       0.45581015       0.47858543 </v>
   <v>       0.18727372       0.12057007       0.30190678 </v>
   <v>       0.81252069       0.87249280       0.52126728 </v>
   <v>       0.31268580       0.03648574       0.12675854 </v>
   <v>       0.06256414       0.70393060       0.34637181 </v>
   <v>       0.43704129       0.29068409       0.74240019 </v>
   <v>       0.81267058       0.87385513       0.65367528 </v>
  </varray>
 </structure>
</modeling>
