unknown system                          
            1
     9.726678    0.000000    0.000000
     0.000000    8.423550    0.000000
     0.000000    0.000000   45.000000
   Fe   Mn
 273  15
Direct configuration=     1
   0.56218151  0.37218147  0.52132485
   0.31276497  0.87179940  0.43491621
   0.68708019  0.95739688  0.69812668
   0.56290830  0.20354374  0.21373777
   0.68705603  0.45721536  0.69814890
   0.93773054  0.28666787  0.25775502
   0.93748518  0.78669164  0.25770043
   0.81264321  0.54003063  0.60989545
   0.68759702  0.12182345  0.43475378
   0.31243947  0.03995174  0.60976176
   0.18784257  0.45629944  0.56529024
   0.43750781  0.12167956  0.43484192
   0.06250332  0.54004702  0.60976697
   0.18755629  0.12397305  0.65359233
   0.93754751  0.45339229  0.21356129
   0.43721481  0.45626686  0.56506028
   0.68743476  0.62026146  0.30185432
   0.68725267  0.95613684  0.56509505
   0.68738782  0.62236869  0.52131776
   0.68761957  0.95436494  0.34633129
   0.06270856  0.20755477  0.83145628
   0.18757557  0.95536702  0.47859913
   0.93641162  0.29156215  0.87344014
   0.81259179  0.37377282  0.65365497
   0.81242545  0.87448760  0.78652667
   0.68729409  0.28766556  0.39014186
   0.68793994  0.79112351  0.74231501
   0.81252542  0.53614994  0.12666160
   0.18750640  0.95589876  0.56519793
   0.68818680  0.29091763  0.74225790
   0.56258012  0.20745785  0.69807124
   0.18702533  0.29117698  0.74220248
   0.93741378  0.78825503  0.39008648
   0.68743506  0.28646637  0.25776732
   0.18753376  0.78700541  0.25776148
   0.68718151  0.45566498  0.47866110
   0.18755305  0.28742391  0.39014968
   0.06239375  0.87442366  0.78644903
   0.18715777  0.45337636  0.21354451
   0.56272703  0.70804800  0.69815051
   0.06240932  0.37069694  0.30187436
   0.56211751  0.87374309  0.65373285
   0.43738455  0.95850934  0.83135062
   0.56258955  0.20607137  0.56510049
   0.56249216  0.53645867  0.12662194
   0.93731795  0.11985962  0.16890628
   0.56252279  0.04127137  0.74232282
   0.93719096  0.12275085  0.52125437
   0.56251495  0.54232446  0.87341837
   0.93741553  0.79038074  0.60967260
   0.56265977  0.70542689  0.47856678
   0.93719919  0.79134831  0.87343995
   0.43747579  0.61928557  0.16886722
   0.93784924  0.62373669  0.65374137
   0.93731047  0.95320682  0.21352728
   0.31246809  0.20778187  0.69808966
   0.56170147  0.87015919  0.16864777
   0.43779266  0.12013899  0.30183779
   0.18778890  0.12246259  0.52131038
   0.18750088  0.78759813  0.39025204
   0.68771332  0.78989141  0.60964854
   0.56261841  0.03978245  0.60980959
   0.06298986  0.37386767  0.65361530
   0.06227364  0.20370922  0.21373886
   0.56260414  0.70614643  0.56506158
   0.43770999  0.28775942  0.39027317
   0.68711063  0.62485435  0.78650703
   0.81257679  0.86976522  0.16882093
   0.31223584  0.37149687  0.43481968
   0.18751184  0.28727077  0.12665604
   0.56253617  0.70324064  0.21361722
   0.18780379  0.95772423  0.69809388
   0.56222526  0.87443372  0.78644642
   0.06251321  0.20781946  0.69817108
   0.18742579  0.62433907  0.78646181
   0.43764198  0.12247259  0.52131291
   0.06247544  0.03690733  0.25769957
   0.81238209  0.04004861  0.60977487
   0.81256872  0.37073941  0.30190828
   0.56244174  0.37035997  0.30188513
   0.06260493  0.20398927  0.34624490
   0.06250715  0.70638667  0.56515611
   0.31241176  0.70274400  0.21368956
   0.56246928  0.20778238  0.83123143
   0.31282186  0.03764006  0.39018717
   0.43720759  0.29160167  0.87356154
   0.18771825  0.45399590  0.34621225
   0.18731574  0.62182429  0.43483438
   0.43736615  0.78967996  0.60983585
   0.68729618  0.12465038  0.78649024
   0.31234792  0.87447433  0.78649280
   0.81255657  0.70619233  0.56524313
   0.56261399  0.20433460  0.34635001
   0.93771272  0.95385366  0.34626565
   0.93767197  0.62194053  0.43477392
   0.68766154  0.79131198  0.87339357
   0.18767237  0.95394399  0.34629621
   0.31252388  0.20323753  0.21356988
   0.18732614  0.95906980  0.83134076
   0.43802408  0.12414472  0.78630161
   0.43755854  0.45406813  0.34624817
   0.81254887  0.03643135  0.25772010
   0.31253113  0.54016773  0.60968437
   0.18786516  0.45801068  0.69800124
   0.31282058  0.20566215  0.47857429
   0.56211171  0.87215361  0.52133684
   0.81281612  0.37143753  0.43479622
   0.31278329  0.54148025  0.74223782
   0.93763446  0.78594062  0.12653603
   0.18708322  0.79051334  0.87340275
   0.93754223  0.28786594  0.39034189
   0.31272037  0.70634105  0.56506340
   0.68775143  0.12046414  0.30195222
   0.93755882  0.28663271  0.12672464
   0.43766439  0.95780946  0.69801918
   0.56242657  0.86993534  0.30184515
   0.56311084  0.03569659  0.12658677
   0.06260253  0.53707031  0.25771603
   0.43760363  0.78778902  0.39020674
   0.18810345  0.11914538  0.16872013
   0.81237328  0.53651530  0.25771978
   0.06279820  0.04136486  0.74237181
   0.06231720  0.53628538  0.12660665
   0.43767909  0.78679314  0.25773980
   0.81214924  0.20499470  0.47853550
   0.18775261  0.45807746  0.83135892
   0.43751450  0.45335519  0.21365379
   0.56275007  0.20507478  0.47854863
   0.06266764  0.87176973  0.43476288
   0.56216672  0.37462090  0.78643039
   0.06228736  0.36970373  0.16888281
   0.18824668  0.45581251  0.47858060
   0.43779950  0.62219795  0.52137206
   0.06164423  0.03589022  0.12664616
   0.93723132  0.95733612  0.69804484
   0.43731086  0.95622500  0.56506349
   0.56237745  0.87143274  0.43472868
   0.18762928  0.79022701  0.60969895
   0.43731458  0.95441440  0.34631161
   0.68742238  0.78662562  0.25775184
   0.31234566  0.53772189  0.39015495
   0.93719173  0.62043513  0.30182107
   0.31222833  0.54129075  0.87348515
   0.81231497  0.03775306  0.39008696
   0.31275528  0.37379308  0.65354529
   0.43746002  0.62393294  0.65371131
   0.68771365  0.12000620  0.16887010
   0.93758157  0.12402455  0.65370245
   0.31258700  0.87035563  0.16855153
   0.68771810  0.62357698  0.65365927
   0.31236434  0.37236011  0.52133785
   0.56304107  0.70782711  0.83120220
   0.81260579  0.20604995  0.56524904
   0.68801607  0.29126603  0.87343485
   0.43751251  0.62172506  0.43486370
   0.06208326  0.70827530  0.83127322
   0.06210342  0.70768867  0.69807627
   0.81217864  0.70492196  0.47858349
   0.06247373  0.87046835  0.30181509
   0.81223186  0.87192965  0.43512243
   0.68761040  0.95820867  0.83121124
   0.06295848  0.37266181  0.52122462
   0.06279297  0.04162003  0.87344472
   0.56257966  0.04164024  0.87342830
   0.06237454  0.53792876  0.39014020
   0.31248074  0.87258531  0.52135703
   0.43749448  0.28783062  0.12663046
   0.81221289  0.04098644  0.74224616
   0.81221655  0.70409882  0.34625602
   0.43764387  0.79119259  0.87331232
   0.68781969  0.95316879  0.21360625
   0.81240784  0.20704796  0.69815518
   0.81235507  0.20336513  0.21361745
   0.56269082  0.36977493  0.16888323
   0.93801229  0.95577986  0.56518832
   0.93778873  0.45611182  0.56489170
   0.81210167  0.04134949  0.87336116
   0.06259756  0.70302858  0.21358306
   0.31288367  0.20415033  0.34633122
   0.56257270  0.53774916  0.39018811
   0.31247486  0.70833764  0.83128239
   0.68755184  0.45393242  0.34623776
   0.31251487  0.87385468  0.65362971
   0.68748894  0.28992702  0.60970641
   0.68742608  0.28669230  0.12674032
   0.31234318  0.87033214  0.30190095
   0.43740928  0.45780137  0.69813619
   0.31211081  0.04198644  0.87368440
   0.18703389  0.79142705  0.74234410
   0.18757323  0.28688032  0.25779643
   0.93776922  0.62268904  0.52135581
   0.81242631  0.20861686  0.83127223
   0.31276454  0.70386730  0.34626862
   0.18723229  0.62328981  0.65365777
   0.56253122  0.03768926  0.39018306
   0.68749749  0.78791925  0.39016191
   0.43729991  0.45560209  0.47856936
   0.81260184  0.03643627  0.12664414
   0.18794041  0.12155695  0.43481226
   0.93757114  0.29133120  0.74230933
   0.43687401  0.45764602  0.83129634
   0.43785013  0.61983314  0.30194230
   0.31228688  0.70805576  0.69811006
   0.31279072  0.04174015  0.74221282
   0.06283407  0.87243589  0.52133869
   0.06296414  0.87419095  0.65364370
   0.81258414  0.70744834  0.69819545
   0.56250209  0.03625848  0.25777406
   0.06272179  0.70558023  0.47860823
   0.81253934  0.37217089  0.52126865
   0.93725589  0.95772381  0.83115234
   0.93725628  0.12072320  0.30183010
   0.81268666  0.37512173  0.78647174
   0.31267628  0.70546336  0.47865910
   0.56251040  0.53651740  0.25770311
   0.81251788  0.36978749  0.16889046
   0.18753937  0.61926328  0.16884502
   0.81208558  0.20403175  0.34620764
   0.68779642  0.45340251  0.21364383
   0.56223084  0.37390174  0.65369044
   0.31261518  0.53682862  0.25765286
   0.93697232  0.62441747  0.78648138
   0.18724588  0.62224353  0.52135030
   0.43740467  0.95528903  0.47858825
   0.93739795  0.45827496  0.83129834
   0.68768409  0.12284063  0.52140772
   0.06252166  0.54210204  0.87339025
   0.81238809  0.54077447  0.74233159
   0.81247637  0.70310112  0.21351709
   0.31255899  0.36917334  0.16865793
   0.43771061  0.12432289  0.65352792
   0.81213807  0.54147853  0.87347764
   0.06298693  0.86977211  0.16864258
   0.31231657  0.37474902  0.78638103
   0.93752250  0.61983369  0.16881732
   0.93715056  0.12423229  0.78655308
   0.06266416  0.04048740  0.60988130
   0.93734666  0.45411829  0.34627052
   0.93741741  0.79076076  0.74218081
   0.93752437  0.29026362  0.60977885
   0.31264170  0.36995625  0.30189812
   0.06246542  0.20582883  0.56489573
   0.68745755  0.12338183  0.65372018
   0.43734503  0.28641755  0.25775578
   0.68748704  0.61999553  0.16884199
   0.81219042  0.70835446  0.83127235
   0.68710435  0.95546339  0.47864470
   0.56257095  0.70415435  0.34631573
   0.56268801  0.54132039  0.74226251
   0.18758799  0.62032914  0.30183461
   0.81282381  0.53797331  0.39019039
   0.18785840  0.29087651  0.87371243
   0.18722929  0.95324610  0.21352848
   0.18621044  0.78623156  0.12655108
   0.43759067  0.28994279  0.60979202
   0.68756215  0.45859000  0.83137237
   0.31260096  0.03671216  0.25770348
   0.31268668  0.20613564  0.56520553
   0.93777709  0.95512292  0.47862185
   0.56246763  0.54000713  0.60974678
   0.68757868  0.62149427  0.43468133
   0.06247089  0.03791356  0.39015174
   0.43842989  0.78657533  0.12655767
   0.31264070  0.53644645  0.12659636
   0.43772912  0.62436818  0.78641018
   0.06230243  0.37448346  0.78650900
   0.56239548  0.37147077  0.43481158
   0.93724737  0.12186041  0.43472768
   0.06270685  0.37155668  0.43488779
   0.43705862  0.11913185  0.16865135
   0.81267803  0.87011971  0.30183270
   0.18753011  0.28988070  0.60962700
   0.68772808  0.78577350  0.12652813
   0.43752754  0.79153794  0.74234248
   0.18693701  0.12406433  0.78598311
   0.68710709  0.45604416  0.56516429
   0.43758239  0.95316838  0.21373123
   0.06248314  0.20482652  0.47861053
   0.06289578  0.54150732  0.74250326
   0.31244254  0.20825104  0.83212359
   0.93707146  0.45712374  0.69797557
   0.93706733  0.45581691  0.47858744
   0.18728393  0.12052283  0.30192741
   0.81251452  0.87247083  0.52125781
   0.31269502  0.03642986  0.12678192
   0.06255565  0.70387585  0.34638060
   0.43703266  0.29072701  0.74238274
   0.81266792  0.87390838  0.65367081
Direct configuration=     2
   0.56216600  0.37218469  0.52130553
   0.31276268  0.87180227  0.43492297
   0.68707021  0.95737138  0.69815199
   0.56290272  0.20352044  0.21371023
   0.68701586  0.45721652  0.69817204
   0.93771124  0.28665694  0.25773689
   0.93746607  0.78670646  0.25768524
   0.81265940  0.54008321  0.60990604
   0.68756385  0.12181289  0.43476302
   0.31243022  0.03990108  0.60977000
   0.18785968  0.45633112  0.56528478
   0.43751699  0.12167470  0.43485044
   0.06253461  0.54009288  0.60977875
   0.18757290  0.12393836  0.65362035
   0.93752491  0.45338106  0.21352389
   0.43717763  0.45628561  0.56505500
   0.68741656  0.62026044  0.30184906
   0.68722347  0.95613451  0.56509173
   0.68734794  0.62236348  0.52130171
   0.68762414  0.95437621  0.34632115
   0.06275653  0.20754744  0.83145739
   0.18759685  0.95534490  0.47859446
   0.93639639  0.29154315  0.87343143
   0.81257992  0.37379545  0.65367778
   0.81240428  0.87450164  0.78655101
   0.68729226  0.28765603  0.39014912
   0.68791422  0.79113599  0.74232613
   0.81252463  0.53611008  0.12666451
   0.18753057  0.95587430  0.56519161
   0.68815997  0.29089792  0.74227148
   0.56255735  0.20745963  0.69809877
   0.18703328  0.29118364  0.74221163
   0.93743278  0.78826535  0.39009295
   0.68741225  0.28644992  0.25775379
   0.18756085  0.78702679  0.25774334
   0.68711669  0.45566334  0.47865476
   0.18754778  0.28743306  0.39014610
   0.06241223  0.87443558  0.78647056
   0.18717700  0.45336156  0.21351735
   0.56269336  0.70803692  0.69817361
   0.06242143  0.37069313  0.30187798
   0.56207033  0.87370518  0.65375776
   0.43738018  0.95852104  0.83135955
   0.56255386  0.20604170  0.56509191
   0.56252572  0.53643824  0.12662239
   0.93728566  0.11991621  0.16888596
   0.56250399  0.04125969  0.74233445
   0.93721898  0.12278035  0.52124902
   0.56249597  0.54234587  0.87341201
   0.93744503  0.79037422  0.60968063
   0.56262638  0.70543515  0.47856246
   0.93719614  0.79134481  0.87342952
   0.43751097  0.61924711  0.16885896
   0.93789392  0.62377125  0.65376149
   0.93729474  0.95323295  0.21350151
   0.31245470  0.20777661  0.69811337
   0.56172615  0.87014478  0.16864459
   0.43779841  0.12013848  0.30182892
   0.18779613  0.12245409  0.52130164
   0.18750028  0.78760680  0.39025539
   0.68770381  0.78988304  0.60965236
   0.56260528  0.03974416  0.60981156
   0.06303864  0.37388743  0.65364072
   0.06228173  0.20370493  0.21371052
   0.56256419  0.70618652  0.56505633
   0.43769047  0.28774924  0.39027704
   0.68708505  0.62486590  0.78653395
   0.81255313  0.86975721  0.16880296
   0.31226199  0.37148835  0.43482625
   0.18747496  0.28732344  0.12664985
   0.56252270  0.70325499  0.21359166
   0.18781227  0.95769770  0.69811329
   0.56221303  0.87442878  0.78647093
   0.06254680  0.20779756  0.69819345
   0.18743209  0.62435422  0.78648145
   0.43763704  0.12246005  0.52129744
   0.06250246  0.03691346  0.25768243
   0.81238527  0.04000082  0.60977620
   0.81252254  0.37074530  0.30190361
   0.56245660  0.37037046  0.30187795
   0.06263003  0.20398414  0.34624205
   0.06254073  0.70640765  0.56515564
   0.31244873  0.70276562  0.21366831
   0.56242645  0.20776685  0.83123571
   0.31280891  0.03764232  0.39019007
   0.43719531  0.29158142  0.87354414
   0.18772323  0.45398756  0.34621302
   0.18732125  0.62184318  0.43483802
   0.43733283  0.78965729  0.60984618
   0.68728387  0.12464192  0.78651283
   0.31235990  0.87447012  0.78651581
   0.81257364  0.70622579  0.56524256
   0.56260186  0.20434128  0.34634043
   0.93772370  0.95387759  0.34626613
   0.93768481  0.62197633  0.43477127
   0.68760566  0.79131101  0.87338547
   0.18767551  0.95398142  0.34629493
   0.31254490  0.20321240  0.21354526
   0.18736608  0.95909141  0.83134362
   0.43801746  0.12414416  0.78632780
   0.43752729  0.45408302  0.34623889
   0.81250574  0.03643231  0.25770345
   0.31252326  0.54021052  0.60969400
   0.18787433  0.45803230  0.69802439
   0.31285189  0.20565833  0.47856902
   0.56207836  0.87214375  0.52132205
   0.81277749  0.37143290  0.43479880
   0.31276995  0.54149650  0.74224610
   0.93760947  0.78594043  0.12653110
   0.18712974  0.79049652  0.87339559
   0.93756684  0.28787373  0.39033774
   0.31271143  0.70634972  0.56506107
   0.68773224  0.12047179  0.30194191
   0.93753392  0.28664437  0.12671753
   0.43764303  0.95777045  0.69804442
   0.56243447  0.86994252  0.30183628
   0.56318829  0.03573013  0.12658783
   0.06261026  0.53708155  0.25769844
   0.43756871  0.78780826  0.39020847
   0.18809143  0.11917827  0.16871099
   0.81234125  0.53651862  0.25770668
   0.06282462  0.04135078  0.74238092
   0.06228819  0.53625408  0.12660087
   0.43769961  0.78682652  0.25772008
   0.81209747  0.20496343  0.47852915
   0.18779655  0.45806840  0.83136402
   0.43752859  0.45334503  0.21362596
   0.56272229  0.20506698  0.47853834
   0.06267940  0.87175285  0.43476514
   0.56216322  0.37462080  0.78645364
   0.06223677  0.36969015  0.16886201
   0.18830248  0.45583261  0.47857511
   0.43780635  0.62220964  0.52135976
   0.06157790  0.03593735  0.12664045
   0.93725338  0.95730840  0.69806749
   0.43729678  0.95620667  0.56505558
   0.56236790  0.87144477  0.43474124
   0.18764239  0.79020723  0.60971010
   0.43729568  0.95441634  0.34630699
   0.68739043  0.78664989  0.25773861
   0.31231051  0.53773297  0.39015217
   0.93715898  0.62043345  0.30181841
   0.31226557  0.54130467  0.87347839
   0.81233451  0.03774614  0.39009017
   0.31275171  0.37382320  0.65357280
   0.43742291  0.62394270  0.65373508
   0.68773681  0.12005975  0.16885770
   0.93762795  0.12399211  0.65373020
   0.31260543  0.87035378  0.16855069
   0.68769258  0.62357227  0.65368271
   0.31236437  0.37234790  0.52132494
   0.56303182  0.70783812  0.83121006
   0.81260722  0.20600419  0.56523948
   0.68798555  0.29126401  0.87342710
   0.43750774  0.62172102  0.43487721
   0.06209582  0.70828289  0.83127794
   0.06214009  0.70767693  0.69809710
   0.81214901  0.70494019  0.47857147
   0.06247724  0.87048853  0.30181284
   0.81223178  0.87193259  0.43512637
   0.68758931  0.95819839  0.83121473
   0.06297318  0.37264600  0.52122453
   0.06282787  0.04159842  0.87343824
   0.56255048  0.04161653  0.87342335
   0.06238868  0.53794064  0.39014148
   0.31248554  0.87258260  0.52134730
   0.43751789  0.28790594  0.12662874
   0.81219776  0.04097064  0.74225854
   0.81221912  0.70411147  0.34624999
   0.43765334  0.79117927  0.87330587
   0.68778383  0.95317777  0.21358292
   0.81240592  0.20702231  0.69818184
   0.81233193  0.20337285  0.21358463
   0.56273336  0.36977443  0.16887022
   0.93803201  0.95577067  0.56518621
   0.93783578  0.45613531  0.56488092
   0.81206069  0.04133583  0.87335064
   0.06260414  0.70303497  0.21355688
   0.31284958  0.20415617  0.34632562
   0.56255416  0.53774250  0.39019276
   0.31249343  0.70834037  0.83128836
   0.68755468  0.45394281  0.34622517
   0.31249350  0.87380662  0.65365451
   0.68746375  0.28993179  0.60971516
   0.68746410  0.28671826  0.12673973
   0.31236193  0.87034230  0.30189761
   0.43739579  0.45780652  0.69815802
   0.31214356  0.04198549  0.87366793
   0.18704252  0.79140186  0.74234962
   0.18760266  0.28685002  0.25777843
   0.93779173  0.62269166  0.52135304
   0.81240101  0.20860607  0.83127711
   0.31276468  0.70386060  0.34626545
   0.18725048  0.62331740  0.65368129
   0.56251281  0.03769913  0.39018797
   0.68751582  0.78793849  0.39016565
   0.43731238  0.45560084  0.47856110
   0.81261654  0.03647215  0.12663988
   0.18797031  0.12153360  0.43481459
   0.93758946  0.29131891  0.74231879
   0.43686428  0.45762093  0.83130339
   0.43786593  0.61983926  0.30193765
   0.31227821  0.70805203  0.69812882
   0.31280097  0.04172495  0.74222513
   0.06287675  0.87244423  0.52132906
   0.06300794  0.87414373  0.65366729
   0.81259130  0.70746137  0.69821389
   0.56249032  0.03625088  0.25775488
   0.06276709  0.70560891  0.47860176
   0.81253686  0.37217664  0.52125766
   0.93724049  0.95770918  0.83115450
   0.93724472  0.12071833  0.30182979
   0.81265888  0.37511461  0.78649514
   0.31268964  0.70547625  0.47865244
   0.56250585  0.53653121  0.25768942
   0.81250533  0.36979011  0.16887088
   0.18753315  0.61924357  0.16882909
   0.81210697  0.20402978  0.34620133
   0.68778426  0.45339028  0.21360621
   0.56219921  0.37393936  0.65371670
   0.31264264  0.53685017  0.25763585
   0.93699018  0.62443147  0.78650278
   0.18726008  0.62226633  0.52134204
   0.43741595  0.95528604  0.47858299
   0.93738790  0.45829636  0.83130154
   0.68765641  0.12284848  0.52139399
   0.06255222  0.54210605  0.87337900
   0.81238578  0.54077782  0.74234351
   0.81244517  0.70310225  0.21348507
   0.31257616  0.36917066  0.16864403
   0.43766819  0.12429610  0.65355409
   0.81209441  0.54148178  0.87346665
   0.06296425  0.86977560  0.16862644
   0.31232497  0.37473950  0.78640551
   0.93747651  0.61980136  0.16879967
   0.93714626  0.12421291  0.78657380
   0.06268381  0.04042583  0.60988886
   0.93736827  0.45410362  0.34626890
   0.93744324  0.79075251  0.74218851
   0.93754258  0.29027533  0.60978533
   0.31265781  0.36995959  0.30189727
   0.06250165  0.20581727  0.56488141
   0.68743551  0.12336437  0.65374393
   0.43735736  0.28640084  0.25773939
   0.68750368  0.61996643  0.16882871
   0.81216637  0.70836479  0.83127728
   0.68705649  0.95547090  0.47863407
   0.56255082  0.70417109  0.34630344
   0.56265739  0.54132045  0.74227325
   0.18762356  0.62031895  0.30183507
   0.81286334  0.53799004  0.39019125
   0.18791854  0.29084343  0.87369433
   0.18727263  0.95326752  0.21350617
   0.18616520  0.78619602  0.12654505
   0.43758388  0.28996128  0.60979854
   0.68753801  0.45860540  0.83137869
   0.31262743  0.03671499  0.25768322
   0.31268614  0.20612197  0.56519636
   0.93779336  0.95509392  0.47861154
   0.56242711  0.54003211  0.60975951
   0.68756390  0.62149394  0.43469087
   0.06248242  0.03789869  0.39014823
   0.43846905  0.78653116  0.12655876
   0.31263580  0.53642036  0.12659015
   0.43773311  0.62439828  0.78643458
   0.06232848  0.37449793  0.78652703
   0.56238073  0.37145022  0.43482414
   0.93723967  0.12182715  0.43472732
   0.06273627  0.37157109  0.43488313
   0.43708463  0.11916013  0.16865096
   0.81264522  0.87011678  0.30183023
   0.18754564  0.28989399  0.60963614
   0.68776313  0.78576206  0.12652677
   0.43751444  0.79154906  0.74234879
   0.18696745  0.12405467  0.78600938
   0.68707297  0.45605514  0.56515701
   0.43759161  0.95317545  0.21370956
   0.06253534  0.20478793  0.47860748
   0.06294897  0.54152508  0.74250839
   0.31246221  0.20822854  0.83213654
   0.93712185  0.45715127  0.69800492
   0.93706421  0.45582741  0.47857838
   0.18731138  0.12052112  0.30192735
   0.81249642  0.87248312  0.52124693
   0.31266716  0.03647415  0.12679131
   0.06257629  0.70386783  0.34638612
   0.43702915  0.29072115  0.74238938
   0.81269526  0.87386067  0.65369998
Direct configuration=     3
   0.56216801  0.37218427  0.52130804
   0.31276298  0.87180190  0.43492209
   0.68707150  0.95737468  0.69814870
   0.56290344  0.20352346  0.21371380
   0.68702107  0.45721637  0.69816904
   0.93771374  0.28665836  0.25773924
   0.93746855  0.78670453  0.25768721
   0.81265730  0.54007639  0.60990467
   0.68756815  0.12181426  0.43476182
   0.31243142  0.03990765  0.60976893
   0.18785746  0.45632702  0.56528548
   0.43751580  0.12167533  0.43484934
   0.06253055  0.54008693  0.60977723
   0.18757074  0.12394286  0.65361672
   0.93752784  0.45338251  0.21352874
   0.43718245  0.45628318  0.56505568
   0.68741892  0.62026058  0.30184974
   0.68722726  0.95613481  0.56509216
   0.68735311  0.62236416  0.52130379
   0.68762355  0.95437475  0.34632247
   0.06275031  0.20754839  0.83145724
   0.18759409  0.95534777  0.47859507
   0.93639837  0.29154561  0.87343256
   0.81258146  0.37379252  0.65367482
   0.81240702  0.87449982  0.78654785
   0.68729250  0.28765726  0.39014818
   0.68791756  0.79113437  0.74232469
   0.81252473  0.53611525  0.12666413
   0.18752744  0.95587747  0.56519242
   0.68816345  0.29090048  0.74226972
   0.56256030  0.20745940  0.69809520
   0.18703225  0.29118277  0.74221045
   0.93743031  0.78826402  0.39009211
   0.68741521  0.28645205  0.25775554
   0.18755734  0.78702402  0.25774569
   0.68712510  0.45566355  0.47865558
   0.18754846  0.28743187  0.39014656
   0.06240983  0.87443403  0.78646777
   0.18717450  0.45336348  0.21352087
   0.56269773  0.70803835  0.69817061
   0.06241986  0.37069362  0.30187751
   0.56207645  0.87371009  0.65375453
   0.43738074  0.95851952  0.83135839
   0.56255849  0.20604555  0.56509302
   0.56252137  0.53644089  0.12662233
   0.93728985  0.11990887  0.16888859
   0.56250643  0.04126121  0.74233295
   0.93721534  0.12277652  0.52124972
   0.56249843  0.54234309  0.87341283
   0.93744120  0.79037506  0.60967959
   0.56263071  0.70543408  0.47856302
   0.93719653  0.79134526  0.87343088
   0.43750641  0.61925209  0.16886003
   0.93788812  0.62376677  0.65375888
   0.93729678  0.95322956  0.21350486
   0.31245644  0.20777729  0.69811030
   0.56172295  0.87014665  0.16864500
   0.43779766  0.12013854  0.30183007
   0.18779519  0.12245519  0.52130277
   0.18750036  0.78760568  0.39025496
   0.68770504  0.78988412  0.60965186
   0.56260698  0.03974912  0.60981131
   0.06303232  0.37388487  0.65363742
   0.06228068  0.20370549  0.21371420
   0.56256937  0.70618132  0.56505701
   0.43769300  0.28775056  0.39027654
   0.68708837  0.62486440  0.78653046
   0.81255620  0.86975825  0.16880529
   0.31225860  0.37148945  0.43482540
   0.18747974  0.28731661  0.12665065
   0.56252444  0.70325313  0.21359498
   0.18781117  0.95770114  0.69811077
   0.56221461  0.87442942  0.78646775
   0.06254244  0.20780040  0.69819055
   0.18743127  0.62435226  0.78647890
   0.43763768  0.12246167  0.52129945
   0.06249896  0.03691267  0.25768466
   0.81238486  0.04000702  0.60977602
   0.81252853  0.37074454  0.30190422
   0.56245467  0.37036910  0.30187888
   0.06262677  0.20398481  0.34624242
   0.06253638  0.70640493  0.56515570
   0.31244394  0.70276281  0.21367106
   0.56243200  0.20776887  0.83123515
   0.31281059  0.03764203  0.39018969
   0.43719690  0.29158405  0.87354640
   0.18772258  0.45398864  0.34621292
   0.18732053  0.62184073  0.43483754
   0.43733715  0.78966023  0.60984484
   0.68728546  0.12464302  0.78650990
   0.31235834  0.87447066  0.78651282
   0.81257142  0.70622145  0.56524263
   0.56260344  0.20434042  0.34634167
   0.93772227  0.95387449  0.34626607
   0.93768314  0.62197169  0.43477161
   0.68761290  0.79131114  0.87338652
   0.18767510  0.95397656  0.34629510
   0.31254217  0.20321566  0.21354845
   0.18736090  0.95908861  0.83134325
   0.43801832  0.12414424  0.78632441
   0.43753134  0.45408108  0.34624009
   0.81251133  0.03643218  0.25770561
   0.31252428  0.54020497  0.60969275
   0.18787314  0.45802950  0.69802138
   0.31284783  0.20565883  0.47856970
   0.56208268  0.87214503  0.52132397
   0.81278250  0.37143350  0.43479846
   0.31277168  0.54149440  0.74224503
   0.93761271  0.78594045  0.12653174
   0.18712370  0.79049870  0.87339652
   0.93756365  0.28787272  0.39033827
   0.31271259  0.70634859  0.56506137
   0.68773473  0.12047079  0.30194324
   0.93753715  0.28664286  0.12671845
   0.43764580  0.95777551  0.69804114
   0.56243345  0.86994159  0.30183743
   0.56317825  0.03572578  0.12658769
   0.06260926  0.53708010  0.25770072
   0.43757324  0.78780576  0.39020825
   0.18809299  0.11917401  0.16871218
   0.81234541  0.53651819  0.25770838
   0.06282119  0.04135261  0.74237974
   0.06229195  0.53625814  0.12660162
   0.43769695  0.78682219  0.25772263
   0.81210419  0.20496749  0.47852997
   0.18779085  0.45806957  0.83136336
   0.43752676  0.45334634  0.21362957
   0.56272589  0.20506799  0.47853967
   0.06267788  0.87175504  0.43476485
   0.56216368  0.37462081  0.78645063
   0.06224333  0.36969191  0.16886471
   0.18829524  0.45583000  0.47857582
   0.43780546  0.62220812  0.52136136
   0.06158650  0.03593124  0.12664119
   0.93725052  0.95731199  0.69806456
   0.43729860  0.95620905  0.56505660
   0.56236914  0.87144321  0.43473961
   0.18764069  0.79020979  0.60970865
   0.43729813  0.95441609  0.34630759
   0.68739458  0.78664674  0.25774032
   0.31231507  0.53773153  0.39015253
   0.93716323  0.62043367  0.30181875
   0.31226074  0.54130287  0.87347927
   0.81233198  0.03774704  0.39008975
   0.31275218  0.37381929  0.65356923
   0.43742772  0.62394144  0.65373199
   0.68773380  0.12005280  0.16885931
   0.93762194  0.12399631  0.65372660
   0.31260304  0.87035402  0.16855080
   0.68769589  0.62357288  0.65367967
   0.31236436  0.37234948  0.52132662
   0.56303302  0.70783669  0.83120905
   0.81260704  0.20601013  0.56524072
   0.68798951  0.29126427  0.87342811
   0.43750836  0.62172154  0.43487546
   0.06209419  0.70828191  0.83127733
   0.06213534  0.70767845  0.69809440
   0.81215285  0.70493783  0.47857303
   0.06247679  0.87048591  0.30181313
   0.81223179  0.87193221  0.43512586
   0.68759205  0.95819972  0.83121428
   0.06297127  0.37264805  0.52122454
   0.06282334  0.04160122  0.87343908
   0.56255427  0.04161961  0.87342399
   0.06238685  0.53793910  0.39014131
   0.31248492  0.87258296  0.52134856
   0.43751486  0.28789617  0.12662896
   0.81219972  0.04097269  0.74225693
   0.81221879  0.70410983  0.34625077
   0.43765211  0.79118100  0.87330670
   0.68778848  0.95317661  0.21358595
   0.81240617  0.20702564  0.69817839
   0.81233493  0.20337185  0.21358888
   0.56272785  0.36977450  0.16887191
   0.93802945  0.95577186  0.56518648
   0.93782968  0.45613226  0.56488232
   0.81206601  0.04133760  0.87335200
   0.06260329  0.70303414  0.21356028
   0.31285400  0.20415541  0.34632635
   0.56255656  0.53774336  0.39019215
   0.31249102  0.70834001  0.83128759
   0.68755431  0.45394146  0.34622680
   0.31249627  0.87381285  0.65365130
   0.68746702  0.28993117  0.60971403
   0.68745917  0.28671489  0.12673980
   0.31235949  0.87034098  0.30189804
   0.43739754  0.45780585  0.69815519
   0.31213931  0.04198561  0.87367006
   0.18704140  0.79140513  0.74234891
   0.18759884  0.28685395  0.25778076
   0.93778881  0.62269132  0.52135340
   0.81240429  0.20860747  0.83127647
   0.31276466  0.70386147  0.34626586
   0.18724812  0.62331382  0.65367823
   0.56251519  0.03769785  0.39018734
   0.68751345  0.78793599  0.39016517
   0.43731076  0.45560100  0.47856217
   0.81261464  0.03646749  0.12664044
   0.18796643  0.12153663  0.43481429
   0.93758709  0.29132050  0.74231757
   0.43686554  0.45762418  0.83130247
   0.43786388  0.61983847  0.30193826
   0.31227934  0.70805252  0.69812639
   0.31279964  0.04172692  0.74222353
   0.06287121  0.87244315  0.52133031
   0.06300226  0.87414986  0.65366423