 288 288   0   0
  0.1280206E+02  0.9726678E-09  0.8423550E-09  0.4500000E-08  0.2500000E-15
  1.000000000000000E-004
  CAR 
 unknown system                          
      6.78108675     -6.01624056  301      4.29388434      1.00000000
     -6.016  0.0000E+00  0.0000E+00
     -5.974  0.0000E+00  0.0000E+00
     -5.931  0.0000E+00  0.0000E+00
     -5.888  0.0000E+00  0.0000E+00
     -5.846  0.0000E+00  0.0000E+00
     -5.803  0.0000E+00  0.0000E+00
     -5.760  0.0000E+00  0.0000E+00
     -5.718  0.0000E+00  0.0000E+00
     -5.675  0.0000E+00  0.0000E+00
     -5.632  0.0000E+00  0.0000E+00
     -5.590  0.0000E+00  0.0000E+00
     -5.547  0.0000E+00  0.0000E+00
     -5.504  0.0000E+00  0.0000E+00
     -5.462  0.0000E+00  0.0000E+00
     -5.419  0.0000E+00  0.0000E+00
     -5.376  0.1627E-15  0.6939E-17
     -5.334  0.3611E-14  0.1610E-15
     -5.291  0.7792E-13  0.3485E-14
     -5.248  0.1423E-11  0.6418E-13
     -5.206  0.2216E-10  0.1009E-11
     -5.163  0.2942E-09  0.1356E-10
     -5.120  0.3333E-08  0.1557E-09
     -5.078  0.3222E-07  0.1530E-08
     -5.035  0.2660E-06  0.1288E-07
     -4.992  0.1877E-05  0.9296E-07
     -4.950  0.1134E-04  0.5766E-06
     -4.907  0.5869E-04  0.3080E-05
     -4.864  0.2611E-03  0.1422E-04
     -4.822  0.1001E-02  0.5691E-04
     -4.779  0.3322E-02  0.1986E-03
     -4.737  0.9604E-02  0.6083E-03
     -4.694  0.2436E-01  0.1647E-02
     -4.651  0.5474E-01  0.3982E-02
     -4.609  0.1101E+00  0.8680E-02
     -4.566  0.2006E+00  0.1724E-01
     -4.523  0.3344E+00  0.3150E-01
     -4.481  0.5143E+00  0.5344E-01
     -4.438  0.7348E+00  0.8479E-01
     -4.395  0.9797E+00  0.1266E+00
     -4.353  0.1225E+01  0.1788E+00
     -4.310  0.1442E+01  0.2403E+00
     -4.267  0.1611E+01  0.3091E+00
     -4.225  0.1723E+01  0.3825E+00
     -4.182  0.1787E+01  0.4588E+00
     -4.139  0.1834E+01  0.5370E+00
     -4.097  0.1904E+01  0.6182E+00
     -4.054  0.2032E+01  0.7049E+00
     -4.011  0.2233E+01  0.8002E+00
     -3.969  0.2494E+01  0.9066E+00
     -3.926  0.2774E+01  0.1025E+01
     -3.883  0.3018E+01  0.1154E+01
     -3.841  0.3177E+01  0.1289E+01
     -3.798  0.3226E+01  0.1427E+01
     -3.755  0.3181E+01  0.1562E+01
     -3.713  0.3092E+01  0.1694E+01
     -3.670  0.3025E+01  0.1823E+01
     -3.627  0.3036E+01  0.1953E+01
     -3.585  0.3154E+01  0.2087E+01
     -3.542  0.3364E+01  0.2231E+01
     -3.499  0.3618E+01  0.2385E+01
     -3.457  0.3855E+01  0.2550E+01
     -3.414  0.4029E+01  0.2722E+01
     -3.371  0.4125E+01  0.2898E+01
     -3.329  0.4154E+01  0.3075E+01
     -3.286  0.4148E+01  0.3252E+01
     -3.243  0.4146E+01  0.3429E+01
     -3.201  0.4179E+01  0.3607E+01
     -3.158  0.4268E+01  0.3789E+01
     -3.116  0.4415E+01  0.3977E+01
     -3.073  0.4606E+01  0.4174E+01
     -3.030  0.4819E+01  0.4379E+01
     -2.988  0.5019E+01  0.4593E+01
     -2.945  0.5177E+01  0.4814E+01
     -2.902  0.5279E+01  0.5039E+01
     -2.860  0.5334E+01  0.5267E+01
     -2.817  0.5373E+01  0.5496E+01
     -2.774  0.5432E+01  0.5728E+01
     -2.732  0.5531E+01  0.5964E+01
     -2.689  0.5651E+01  0.6205E+01
     -2.646  0.5733E+01  0.6449E+01
     -2.604  0.5713E+01  0.6693E+01
     -2.561  0.5581E+01  0.6931E+01
     -2.518  0.5414E+01  0.7162E+01
     -2.476  0.5353E+01  0.7390E+01
     -2.433  0.5529E+01  0.7626E+01
     -2.390  0.5983E+01  0.7882E+01
     -2.348  0.6617E+01  0.8164E+01
     -2.305  0.7231E+01  0.8472E+01
     -2.262  0.7612E+01  0.8797E+01
     -2.220  0.7648E+01  0.9123E+01
     -2.177  0.7384E+01  0.9438E+01
     -2.134  0.7007E+01  0.9737E+01
     -2.092  0.6757E+01  0.1003E+02
     -2.049  0.6807E+01  0.1032E+02
     -2.006  0.7182E+01  0.1062E+02
     -1.964  0.7763E+01  0.1095E+02
     -1.921  0.8348E+01  0.1131E+02
     -1.878  0.8755E+01  0.1168E+02
     -1.836  0.8900E+01  0.1206E+02
     -1.793  0.8835E+01  0.1244E+02
     -1.750  0.8703E+01  0.1281E+02
     -1.708  0.8647E+01  0.1318E+02
     -1.665  0.8738E+01  0.1355E+02
     -1.622  0.8953E+01  0.1393E+02
     -1.580  0.9224E+01  0.1433E+02
     -1.537  0.9499E+01  0.1473E+02
     -1.495  0.9764E+01  0.1515E+02
     -1.452  0.1002E+02  0.1558E+02
     -1.409  0.1025E+02  0.1601E+02
     -1.367  0.1042E+02  0.1646E+02
     -1.324  0.1051E+02  0.1691E+02
     -1.281  0.1064E+02  0.1736E+02
     -1.239  0.1101E+02  0.1783E+02
     -1.196  0.1176E+02  0.1833E+02
     -1.153  0.1289E+02  0.1888E+02
     -1.111  0.1414E+02  0.1949E+02
     -1.068  0.1512E+02  0.2013E+02
     -1.025  0.1560E+02  0.2080E+02
     -0.983  0.1563E+02  0.2146E+02
     -0.940  0.1554E+02  0.2213E+02
     -0.897  0.1577E+02  0.2280E+02
     -0.855  0.1660E+02  0.2351E+02
     -0.812  0.1805E+02  0.2428E+02
     -0.769  0.1999E+02  0.2513E+02
     -0.727  0.2241E+02  0.2609E+02
     -0.684  0.2544E+02  0.2717E+02
     -0.641  0.2930E+02  0.2842E+02
     -0.599  0.3392E+02  0.2987E+02
     -0.556  0.3887E+02  0.3153E+02
     -0.513  0.4349E+02  0.3338E+02
     -0.471  0.4725E+02  0.3540E+02
     -0.428  0.5004E+02  0.3753E+02
     -0.385  0.5210E+02  0.3975E+02
     -0.343  0.5374E+02  0.4205E+02
     -0.300  0.5511E+02  0.4440E+02
     -0.257  0.5616E+02  0.4679E+02
     -0.215  0.5679E+02  0.4921E+02
     -0.172  0.5699E+02  0.5165E+02
     -0.129  0.5692E+02  0.5407E+02
     -0.087  0.5680E+02  0.5650E+02
     -0.044  0.5692E+02  0.5892E+02
     -0.001  0.5751E+02  0.6138E+02
      0.041  0.5875E+02  0.6388E+02
      0.084  0.6073E+02  0.6647E+02
      0.126  0.6344E+02  0.6918E+02
      0.169  0.6674E+02  0.7203E+02
      0.212  0.7041E+02  0.7503E+02
      0.254  0.7418E+02  0.7820E+02
      0.297  0.7775E+02  0.8151E+02
      0.340  0.8085E+02  0.8496E+02
      0.382  0.8329E+02  0.8851E+02
      0.425  0.8509E+02  0.9214E+02
      0.468  0.8633E+02  0.9583E+02
      0.510  0.8709E+02  0.9954E+02
      0.553  0.8735E+02  0.1033E+03
      0.596  0.8714E+02  0.1070E+03
      0.638  0.8650E+02  0.1107E+03
      0.681  0.8551E+02  0.1143E+03
      0.724  0.8419E+02  0.1179E+03
      0.766  0.8251E+02  0.1214E+03
      0.809  0.8054E+02  0.1249E+03
      0.852  0.7854E+02  0.1282E+03
      0.894  0.7689E+02  0.1315E+03
      0.937  0.7592E+02  0.1347E+03
      0.980  0.7568E+02  0.1380E+03
      1.022  0.7594E+02  0.1412E+03
      1.065  0.7627E+02  0.1445E+03
      1.108  0.7629E+02  0.1477E+03
      1.150  0.7590E+02  0.1510E+03
      1.193  0.7519E+02  0.1542E+03
      1.236  0.7437E+02  0.1573E+03
      1.278  0.7360E+02  0.1605E+03
      1.321  0.7290E+02  0.1636E+03
      1.364  0.7215E+02  0.1667E+03
      1.406  0.7113E+02  0.1697E+03
      1.449  0.6972E+02  0.1727E+03
      1.492  0.6805E+02  0.1756E+03
      1.534  0.6653E+02  0.1784E+03
      1.577  0.6576E+02  0.1812E+03
      1.619  0.6618E+02  0.1840E+03
      1.662  0.6790E+02  0.1869E+03
      1.705  0.7057E+02  0.1899E+03
      1.747  0.7371E+02  0.1931E+03
      1.790  0.7689E+02  0.1964E+03
      1.833  0.7988E+02  0.1998E+03
      1.875  0.8260E+02  0.2033E+03
      1.918  0.8505E+02  0.2069E+03
      1.961  0.8723E+02  0.2106E+03
      2.003  0.8919E+02  0.2145E+03
      2.046  0.9097E+02  0.2183E+03
      2.089  0.9255E+02  0.2223E+03
      2.131  0.9385E+02  0.2263E+03
      2.174  0.9488E+02  0.2303E+03
      2.217  0.9589E+02  0.2344E+03
      2.259  0.9734E+02  0.2386E+03
      2.302  0.9964E+02  0.2428E+03
      2.345  0.1030E+03  0.2472E+03
      2.387  0.1072E+03  0.2518E+03
      2.430  0.1117E+03  0.2566E+03
      2.473  0.1160E+03  0.2615E+03
      2.515  0.1196E+03  0.2666E+03
      2.558  0.1224E+03  0.2718E+03
      2.601  0.1246E+03  0.2771E+03
      2.643  0.1266E+03  0.2825E+03
      2.686  0.1285E+03  0.2880E+03
      2.729  0.1305E+03  0.2936E+03
      2.771  0.1327E+03  0.2992E+03
      2.814  0.1353E+03  0.3050E+03
      2.857  0.1381E+03  0.3109E+03
      2.899  0.1407E+03  0.3169E+03
      2.942  0.1420E+03  0.3230E+03
      2.985  0.1412E+03  0.3290E+03
      3.027  0.1376E+03  0.3349E+03
      3.070  0.1313E+03  0.3405E+03
      3.113  0.1230E+03  0.3457E+03
      3.155  0.1140E+03  0.3506E+03
      3.198  0.1053E+03  0.3551E+03
      3.240  0.9800E+02  0.3592E+03
      3.283  0.9251E+02  0.3632E+03
      3.326  0.8878E+02  0.3670E+03
      3.368  0.8648E+02  0.3707E+03
      3.411  0.8515E+02  0.3743E+03
      3.454  0.8439E+02  0.3779E+03
      3.496  0.8384E+02  0.3815E+03
      3.539  0.8325E+02  0.3850E+03
      3.582  0.8261E+02  0.3886E+03
      3.624  0.8224E+02  0.3921E+03
      3.667  0.8269E+02  0.3956E+03
      3.710  0.8444E+02  0.3992E+03
      3.752  0.8759E+02  0.4029E+03
      3.795  0.9177E+02  0.4068E+03
      3.838  0.9631E+02  0.4109E+03
      3.880  0.1005E+03  0.4152E+03
      3.923  0.1040E+03  0.4197E+03
      3.966  0.1067E+03  0.4242E+03
      4.008  0.1084E+03  0.4288E+03
      4.051  0.1091E+03  0.4335E+03
      4.094  0.1091E+03  0.4382E+03
      4.136  0.1083E+03  0.4428E+03
      4.179  0.1072E+03  0.4474E+03
      4.222  0.1059E+03  0.4519E+03
      4.264  0.1046E+03  0.4563E+03
      4.307  0.1034E+03  0.4607E+03
      4.350  0.1024E+03  0.4651E+03
      4.392  0.1017E+03  0.4694E+03
      4.435  0.1013E+03  0.4738E+03
      4.478  0.1009E+03  0.4781E+03
      4.520  0.1001E+03  0.4823E+03
      4.563  0.9896E+02  0.4866E+03
      4.606  0.9777E+02  0.4907E+03
      4.648  0.9711E+02  0.4949E+03
      4.691  0.9739E+02  0.4990E+03
      4.734  0.9873E+02  0.5032E+03
      4.776  0.1009E+03  0.5076E+03
      4.819  0.1035E+03  0.5120E+03
      4.861  0.1060E+03  0.5165E+03
      4.904  0.1080E+03  0.5211E+03
      4.947  0.1091E+03  0.5257E+03
      4.989  0.1088E+03  0.5304E+03
      5.032  0.1067E+03  0.5349E+03
      5.075  0.1018E+03  0.5393E+03
      5.117  0.9316E+02  0.5433E+03
      5.160  0.8049E+02  0.5467E+03
      5.203  0.6462E+02  0.5495E+03
      5.245  0.4754E+02  0.5515E+03
      5.288  0.3167E+02  0.5528E+03
      5.331  0.1893E+02  0.5536E+03
      5.373  0.1009E+02  0.5541E+03
      5.416  0.4760E+01  0.5543E+03
      5.459  0.1981E+01  0.5544E+03
      5.501  0.7248E+00  0.5544E+03
      5.544  0.2323E+00  0.5544E+03
      5.587  0.6510E-01  0.5544E+03
      5.629  0.1591E-01  0.5544E+03
      5.672  0.3385E-02  0.5544E+03
      5.715  0.6260E-03  0.5544E+03
      5.757  0.1005E-03  0.5544E+03
      5.800  0.1398E-04  0.5544E+03
      5.843  0.1683E-05  0.5544E+03
      5.885  0.1752E-06  0.5544E+03
      5.928  0.1575E-07  0.5544E+03
      5.971  0.1221E-08  0.5544E+03
      6.013  0.8161E-10  0.5544E+03
      6.056  0.4695E-11  0.5544E+03
      6.099  0.2318E-12  0.5544E+03
      6.141  0.9304E-14  0.5544E+03
      6.184  0.1301E-15  0.5544E+03
      6.227  0.0000E+00  0.5544E+03
      6.269  0.0000E+00  0.5544E+03
      6.312  0.0000E+00  0.5544E+03
      6.355  0.0000E+00  0.5544E+03
      6.397  0.0000E+00  0.5544E+03
      6.440  0.0000E+00  0.5544E+03
      6.482  0.0000E+00  0.5544E+03
      6.525  0.0000E+00  0.5544E+03
      6.568  0.0000E+00  0.5544E+03
      6.610  0.0000E+00  0.5544E+03
      6.653  0.0000E+00  0.5544E+03
      6.696  0.0000E+00  0.5544E+03
      6.738  0.0000E+00  0.5544E+03
      6.781  0.0000E+00  0.5544E+03
