unknown system                          
           1
     9.726678    0.000000    0.000000
     0.000000    8.423550    0.000000
     0.000000    0.000000   45.000000
   Fe   Mn
 281   7
Direct configuration=     1
   0.05374787  0.70112036  0.21124756
   0.31822144  0.72371161  0.87625592
   0.68848558  0.95872152  0.61155140
   0.43841633  0.45853959  0.61155471
   0.44062719  0.28727872  0.25505754
   0.05862319  0.38823808  0.83355871
   0.30865002  0.88769926  0.83352165
   0.44702017  0.62629291  0.70036703
   0.05975188  0.21278864  0.74493321
   0.17875118  0.45164701  0.21139295
   0.56780583  0.21059358  0.47744912
   0.06660408  0.87521372  0.56682105
   0.56810275  0.22397142  0.87610609
   0.80851633  0.52768978  0.12397367
   0.42863679  0.95141725  0.21136809
   0.56679844  0.37503030  0.56678292
   0.81106854  0.04180297  0.38829238
   0.68209291  0.78886986  0.52230314
   0.44276109  0.46078377  0.47744929
   0.43409086  0.96258820  0.74478886
   0.44163710  0.62502298  0.56686128
   0.57178160  0.87607840  0.70057839
   0.30753202  0.02639445  0.12387663
   0.68967395  0.95895214  0.34396857
   0.68602204  0.78262545  0.12415536
   0.05279895  0.37379518  0.29955728
   0.68979239  0.46797269  0.87610028
   0.42919214  0.45155176  0.21152906
   0.80881529  0.37535425  0.43304847
   0.56345380  0.70841500  0.61150401
   0.55979599  0.54070179  0.65588102
   0.81694647  0.86252180  0.16657247
   0.56568186  0.53751659  0.25518640
   0.68942631  0.45882805  0.34393053
   0.19143770  0.61132065  0.16650953
   0.19451774  0.79951759  0.78884459
   0.44734004  0.12602444  0.70040895
   0.92791164  0.62353637  0.29961930
   0.31757522  0.22365290  0.87613154
   0.31647776  0.87503988  0.56689192
   0.81748928  0.22387692  0.87622514
   0.80965855  0.54060408  0.65582384
   0.55874881  0.52778922  0.12386344
   0.56922694  0.04985138  0.78896723
   0.19080027  0.28720244  0.25525184
   0.80886923  0.87527303  0.43301555
   0.57231924  0.37620320  0.70041053
   0.05764317  0.02638382  0.12399788
   0.30979894  0.54067003  0.65593319
   0.56500293  0.20903211  0.34400448
   0.18785829  0.95827869  0.61134201
   0.30281981  0.37385347  0.29960951
   0.43477185  0.79063240  0.65599681
   0.19504451  0.29885084  0.78879360
   0.06747038  0.36245977  0.16658810
   0.69707284  0.62630567  0.70045223
   0.31131556  0.54143956  0.38844025
   0.06767768  0.72350684  0.87619857
   0.93364767  0.63774261  0.83393679
   0.31977855  0.54964884  0.78891778
   0.30465820  0.20060841  0.21120545
   0.06792241  0.71056457  0.47746210
   0.55421154  0.20083671  0.21113303
   0.30965232  0.21227856  0.74489582
   0.07210361  0.37620843  0.70059683
   0.18328982  0.63755413  0.83356392
   0.06939992  0.04942972  0.78904966
   0.44165090  0.12485168  0.56691089
   0.93483642  0.29075462  0.65581797
   0.80412988  0.20106762  0.21124509
   0.92875672  0.95153143  0.21128743
   0.94147785  0.62530420  0.56682095
   0.80842108  0.38763238  0.83352532
   0.19675924  0.62570217  0.70032106
   0.80860154  0.88778043  0.83353895
   0.68508290  0.29068468  0.65605104
   0.31312453  0.20833893  0.61157992
   0.43462598  0.46276736  0.74488551
   0.43602729  0.79114857  0.38838387
   0.68433559  0.96263620  0.74490803
   0.80394619  0.70088593  0.21129351
   0.81372343  0.70857505  0.61158431
   0.43679704  0.78321489  0.12420469
   0.30976443  0.71204700  0.74482347
   0.32015370  0.04956120  0.78884862
   0.81115944  0.54198607  0.38830948
   0.68221089  0.28905115  0.52244084
   0.69500237  0.79920595  0.78888229
   0.19063135  0.78742102  0.25529659
   0.69154203  0.11226030  0.16642596
   0.69264806  0.96072884  0.47735796
   0.94043381  0.95927773  0.34411365
   0.80724868  0.03914172  0.52252874
   0.68376376  0.62481861  0.43299139
   0.43966089  0.45857917  0.34402173
   0.81032835  0.21198614  0.74460630
   0.43962813  0.96790168  0.87609222
   0.56647307  0.87506992  0.56685663
   0.80768808  0.02702668  0.12390044
   0.42844529  0.62355903  0.29941509
   0.81710424  0.72387339  0.87631812
   0.68811774  0.45844157  0.61156487
   0.55847640  0.38767894  0.83343077
   0.80294892  0.37359466  0.29947816
   0.18595909  0.29109889  0.38836363
   0.81991735  0.54973171  0.78895726
   0.18265439  0.78947987  0.52247203
   0.30287810  0.87387237  0.29957525
   0.17897533  0.95120271  0.21123284
   0.18445597  0.46262705  0.74498306
   0.43241365  0.28925079  0.52237987
   0.06485348  0.70857444  0.34384553
   0.18498255  0.79061163  0.65586090
   0.44460028  0.79919125  0.78884723
   0.68373822  0.12490569  0.43293465
   0.93233941  0.78894834  0.52247595
   0.69173317  0.61251932  0.16671633
   0.81447160  0.70831995  0.34383877
   0.93439986  0.46267375  0.74494284
   0.18988209  0.45883834  0.34396083
   0.56977752  0.54961886  0.78907791
   0.56640481  0.36246623  0.16647090
   0.56470963  0.70883261  0.34392893
   0.55304645  0.37355513  0.29958024
   0.18971237  0.46810117  0.87608541
   0.19248824  0.11201484  0.16658570
   0.44462237  0.29906160  0.78881709
   0.69101805  0.78746803  0.25541302
   0.93368580  0.13794323  0.83354567
   0.44271203  0.96072085  0.47741768
   0.56751615  0.72471412  0.87624161
   0.19268976  0.46089994  0.47747870
   0.93564199  0.28236139  0.12424555
   0.31134023  0.04134115  0.38842102
   0.06015324  0.04063521  0.65606756
   0.55869928  0.37521700  0.43303721
   0.68405120  0.46271122  0.74497594
   0.56011621  0.21239931  0.74484276
   0.94716121  0.12637267  0.70036724
   0.55974212  0.04067722  0.65582311
   0.55735985  0.53920879  0.52246121
   0.17787473  0.12377633  0.29954644
   0.44146496  0.11215493  0.16648960
   0.67775917  0.62355282  0.29962278
   0.92807683  0.12353238  0.29963299
   0.81668022  0.37512810  0.56691029
   0.05282183  0.87382317  0.29952542
   0.19176271  0.62488899  0.56688545
   0.94476916  0.79959080  0.78884075
   0.30849466  0.38741141  0.83351070
   0.93970458  0.46847436  0.87611753
   0.43372004  0.63772478  0.83352675
   0.06466013  0.20839393  0.34383111
   0.18972134  0.96805512  0.87611286
   0.93565957  0.78225754  0.12416224
   0.68649814  0.79155228  0.38843733
   0.93460244  0.79069404  0.65587011
   0.94152713  0.11221297  0.16643709
   0.43514453  0.29080845  0.65609198
   0.05467284  0.20098452  0.21120479
   0.67884978  0.95159008  0.21132333
   0.17832210  0.62366615  0.29941472
   0.82210436  0.87620129  0.70042806
   0.94697732  0.62586713  0.70056295
   0.19732667  0.12599163  0.70042753
   0.94266995  0.46060475  0.47728268
   0.81379793  0.20828584  0.61156323
   0.18349798  0.62469974  0.43309647
   0.42797618  0.12347279  0.29950524
   0.67816572  0.12362065  0.29942931
   0.56135343  0.54154157  0.38849341
   0.81446151  0.20850072  0.34395758
   0.43958668  0.46765512  0.87593005
   0.55851478  0.88761709  0.83351483
   0.31758921  0.21044302  0.47723108
   0.19262611  0.96084598  0.47737830
   0.05850474  0.88777901  0.83349687
   0.05746845  0.53917867  0.52238525
   0.94259830  0.96058648  0.47718666
   0.06322313  0.70849379  0.61156206
   0.55737842  0.03879223  0.52237031
   0.69548480  0.29892581  0.78877206
   0.81753594  0.36174057  0.16662808
   0.43365421  0.12469903  0.43299221
   0.06792015  0.21063592  0.47740686
   0.30975865  0.04071481  0.65588967
   0.43234144  0.78887205  0.52231878
   0.18354707  0.13783401  0.83361292
   0.18617570  0.28274366  0.12423825
   0.93969398  0.45930950  0.34398577
   0.56737637  0.86212347  0.16658401
   0.30401150  0.70107971  0.21122218
   0.94148152  0.61225875  0.16660993
   0.18815585  0.45825740  0.61142521
   0.07222879  0.87636120  0.70037517
   0.05974909  0.54062672  0.65594270
   0.30831443  0.52625829  0.12396874
   0.93639740  0.79126229  0.38845667
   0.94508898  0.29898583  0.78878914
   0.18495635  0.29055580  0.65594499
   0.31684616  0.86188653  0.16662177
   0.81001638  0.71195255  0.74485459
   0.69123427  0.28729628  0.25527354
   0.05946488  0.71239073  0.74499530
   0.67890653  0.45158702  0.21123103
   0.81769716  0.21073253  0.47742232
   0.56773578  0.71079288  0.47747287
   0.06686970  0.86246037  0.16663885
   0.93222248  0.28867548  0.52234938
   0.68483841  0.79063720  0.65591455
   0.05843068  0.87495376  0.43294984
   0.06818987  0.22328056  0.87616011
   0.80976484  0.04047153  0.65599164
   0.55883368  0.02663103  0.12399433
   0.30884569  0.37520853  0.43283999
   0.31659210  0.37501560  0.56686051
   0.31757503  0.71050586  0.47733044
   0.05711273  0.03896357  0.52250365
   0.32194099  0.87627753  0.70053692
   0.06546279  0.53764659  0.25519759
   0.68343124  0.13766394  0.83353523
   0.81517466  0.03788198  0.25516150
   0.18339838  0.12504231  0.43314476
   0.69696591  0.12625450  0.70050286
   0.18238383  0.28925940  0.52248768
   0.44103307  0.78759513  0.25531263
   0.44159852  0.61109173  0.16651186
   0.06307288  0.20835212  0.61149118
   0.18625657  0.79116666  0.38826713
   0.30698072  0.53876771  0.52235853
   0.82191905  0.37628785  0.70039984
   0.68628367  0.29109028  0.38841093
   0.19174284  0.12492709  0.56685356
   0.68982932  0.96849998  0.87611348
   0.69182503  0.12493442  0.56689615
   0.44011595  0.95893203  0.34403247
   0.18373456  0.96261265  0.74479208
   0.94050133  0.78777580  0.25515557
   0.55862470  0.87516025  0.43301892
   0.30871868  0.87521018  0.43301605
   0.80728461  0.53916747  0.52250824
   0.92928432  0.45140250  0.21124330
   0.31548993  0.53776842  0.25512128
   0.56156423  0.04152691  0.38843941
   0.93817995  0.45817925  0.61162771
   0.06154906  0.04144163  0.38840482
   0.06131348  0.54160181  0.38841030
   0.43603749  0.29109023  0.38838835
   0.69264277  0.46067398  0.47733332
   0.06656548  0.37501039  0.56689037
   0.55435329  0.70085749  0.21115953
   0.94045700  0.28727980  0.25520644
   0.81936398  0.04964490  0.78906765
   0.18979556  0.95893417  0.34393125
   0.55288796  0.87385310  0.29960664
   0.05854963  0.37485588  0.43284419
   0.31469191  0.70865042  0.34395056
   0.31441648  0.20896136  0.34389722
   0.94157392  0.12519333  0.56683041
   0.43856620  0.95888342  0.61156058
   0.56523321  0.03770550  0.25513597
   0.18601467  0.78302353  0.12424629
   0.06547767  0.03763817  0.25512867
   0.69166520  0.62491283  0.56691433
   0.05727629  0.52707331  0.12408135
   0.30711604  0.03861543  0.52227566
   0.68731522  0.28213248  0.12424091
   0.81785510  0.71069143  0.47746748
   0.43344390  0.13766881  0.83352549
   0.32231280  0.37632783  0.70038525
   0.68364122  0.63772636  0.83352103
   0.55988683  0.71197839  0.74487404
   0.93657060  0.29143196  0.38846292
   0.93968774  0.96830048  0.87617305
   0.56322112  0.20845706  0.61148390
   0.81649653  0.87506921  0.56689082
   0.80306631  0.87357494  0.29949966
   0.31567722  0.03770079  0.25533254
   0.43622895  0.28321826  0.12403230
   0.31346733  0.70830522  0.61158702
   0.43363562  0.62487555  0.43293565
   0.93306652  0.62476700  0.43308746
   0.93839363  0.95705592  0.61156755
   0.07067713  0.54939649  0.78879737
   0.93343018  0.12484687  0.43307540
   0.31859638  0.36275836  0.16583244
   0.93349228  0.96219269  0.74471390
   0.81637192  0.53787513  0.25530919
Direct configuration=     2
   0.05432456  0.70108315  0.21122804
   0.31791624  0.72324278  0.87618357
   0.68839009  0.95861520  0.61152926
   0.43839718  0.45845116  0.61154237
   0.44006056  0.28722352  0.25512782
   0.05895038  0.38805517  0.83364561
   0.30901228  0.88754861  0.83362470
   0.44634083  0.62630387  0.70037098
   0.06032494  0.21282969  0.74487831
   0.17929683  0.45159659  0.21137669
   0.56723190  0.21039546  0.47750647
   0.06626372  0.87514864  0.56681826
   0.56776660  0.22338213  0.87604817
   0.80875362  0.52805816  0.12405384
   0.42924616  0.95138566  0.21134064
   0.56640548  0.37496333  0.56678032
   0.81116079  0.04183978  0.38830520
   0.68265348  0.78915016  0.52227794
   0.44219970  0.46053384  0.47749771
   0.43463525  0.96259857  0.74474667
   0.44127688  0.62497794  0.56685268
   0.57115019  0.87613421  0.70054877
   0.30787819  0.02703421  0.12396584
   0.68923612  0.95879369  0.34398144
   0.68613727  0.78214652  0.12421236
   0.05348122  0.37372793  0.29956139
   0.68966933  0.46844744  0.87600967
   0.42973672  0.45152370  0.21147453
   0.80908694  0.37535156  0.43304345
   0.56344186  0.70832175  0.61149974
   0.56024732  0.54079021  0.65586828
   0.81655811  0.86272120  0.16649021
   0.56503336  0.53744719  0.25523658
   0.68902150  0.45871055  0.34395559
   0.19098654  0.61153031  0.16647034
   0.19414298  0.79947864  0.78883284
   0.44663740  0.12606878  0.70040973
   0.92861745  0.62351246  0.29962734
   0.31725254  0.22312279  0.87607166
   0.31615642  0.87495517  0.56687154
   0.81718384  0.22333464  0.87614950
   0.81012140  0.54073825  0.65581766
   0.55889824  0.52813247  0.12394188
   0.56889333  0.04980662  0.78896954
   0.19020434  0.28718454  0.25528760
   0.80913199  0.87527299  0.43301654
   0.57159316  0.37626970  0.70041734
   0.05801825  0.02685739  0.12406177
   0.31024440  0.54075110  0.65590857
   0.56453349  0.20887295  0.34402891
   0.18802322  0.95824089  0.61135871
   0.30351546  0.37382432  0.29961070
   0.43521993  0.79077423  0.65596538
   0.19458156  0.29879192  0.78880362
   0.06703502  0.36262292  0.16650700
   0.69637007  0.62633517  0.70044079
   0.31134720  0.54147767  0.38843287
   0.06735819  0.72299547  0.87615147
   0.93403973  0.63759487  0.83398720
   0.31943087  0.54965901  0.78892487
   0.30504595  0.20062158  0.21120105
   0.06735563  0.71033619  0.47751625
   0.55469430  0.20087466  0.21112434
   0.31022618  0.21243117  0.74482191
   0.07142910  0.37628140  0.70056813
   0.18370815  0.63745589  0.83363466
   0.06903487  0.04942668  0.78903432
   0.44129945  0.12483431  0.56689921
   0.93533022  0.29086224  0.65580251
   0.80462200  0.20114082  0.21121942
   0.92932088  0.95153878  0.21127691
   0.94114523  0.62525973  0.56680992
   0.80877746  0.38750542  0.83362639
   0.19612652  0.62586407  0.70032532
   0.80896014  0.88761053  0.83364464
   0.68550753  0.29078213  0.65602735
   0.31317740  0.20836320  0.61156606
   0.43514222  0.46275185  0.74481659
   0.43611197  0.79121165  0.38838685
   0.68482997  0.96263720  0.74485560
   0.80446173  0.70091672  0.21127151
   0.81360456  0.70843577  0.61156118
   0.43682768  0.78264978  0.12427412
   0.31025305  0.71218296  0.74476312
   0.31973284  0.04953874  0.78886610
   0.81121044  0.54196535  0.38832559
   0.68277821  0.28930962  0.52239704
   0.69456828  0.79924537  0.78888659
   0.19005967  0.78747142  0.25532962
   0.69115002  0.11232579  0.16638955
   0.69211737  0.96051755  0.47743106
   0.93990829  0.95913640  0.34410897
   0.80780033  0.03933187  0.52246135
   0.68394894  0.62486200  0.43300064
   0.43924629  0.45854960  0.34404269
   0.81075929  0.21215916  0.74459523
   0.43954470  0.96841993  0.87601061
   0.56615216  0.87496105  0.56683951
   0.80804383  0.02742781  0.12397064
   0.42900225  0.62353942  0.29945295
   0.81682810  0.72339336  0.87625348
   0.68806908  0.45835089  0.61154059
   0.55886290  0.38755650  0.83352492
   0.80359573  0.37353282  0.29950013
   0.18601627  0.29119193  0.38836456
   0.81944069  0.54969481  0.78897336
   0.18319575  0.78962122  0.52241607
   0.30355235  0.87379424  0.29958783
   0.17948967  0.95123158  0.21123150
   0.18507215  0.46265859  0.74491042
   0.43292831  0.28942892  0.52233344
   0.06445413  0.70858440  0.34389709
   0.18540997  0.79070271  0.65584151
   0.44420547  0.79922691  0.78884027
   0.68392120  0.12494270  0.43295035
   0.93289398  0.78914549  0.52242866
   0.69131058  0.61269477  0.16663356
   0.81408028  0.70837175  0.34389867
   0.93495338  0.46272250  0.74486856
   0.18943054  0.45875774  0.34398717
   0.56943274  0.54957925  0.78906176
   0.56615185  0.36264836  0.16638016
   0.56423928  0.70877756  0.34398085
   0.55373876  0.37353680  0.29958448
   0.18959533  0.46855948  0.87601121
   0.19198786  0.11216917  0.16650876
   0.44422897  0.29903665  0.78882477
   0.69033259  0.78744041  0.25542883
   0.93411661  0.13775840  0.83363108
   0.44215797  0.96051007  0.47747097
   0.56722517  0.72406576  0.87616826
   0.19211314  0.46061071  0.47751928
   0.93571715  0.28196633  0.12428836
   0.31136616  0.04138939  0.38842150
   0.06056509  0.04070545  0.65602851
   0.55902923  0.37520568  0.43303802
   0.68456069  0.46269852  0.74490973
   0.56061061  0.21254958  0.74478065
   0.94649094  0.12641665  0.70037363
   0.56019492  0.04076507  0.65581940
   0.55788817  0.53943024  0.52240559
   0.17855888  0.12369230  0.29954838
   0.44099920  0.11221996  0.16644089
   0.67841178  0.62352868  0.29962796
   0.92870578  0.12344551  0.29963785
   0.81631021  0.37510217  0.56690257
   0.05353150  0.87374659  0.29953814
   0.19139357  0.62488455  0.56687600
   0.94424208  0.79951444  0.78885524
   0.30888519  0.38732601  0.83360621
   0.93963683  0.46891315  0.87603709
   0.43412679  0.63764864  0.83361311
   0.06422108  0.20841450  0.34388114
   0.18960105  0.96849245  0.87602625
   0.93578483  0.78185081  0.12422051
   0.68647428  0.79157777  0.38842798
   0.93510551  0.79076749  0.65586815
   0.94114442  0.11228841  0.16639003
   0.43552305  0.29091239  0.65605700
   0.05516524  0.20099646  0.21118238
   0.67942116  0.95157860  0.21131949
   0.17892201  0.62364732  0.29945295
   0.82140067  0.87624283  0.70042071
   0.94632856  0.62595815  0.70055513
   0.19660532  0.12612315  0.70042616
   0.94215885  0.46032029  0.47736073
   0.81370745  0.20819272  0.61154572
   0.18395600  0.62478795  0.43308710
   0.42864848  0.12348195  0.29953326
   0.67876935  0.12354182  0.29946421
   0.56134529  0.54156242  0.38848431
   0.81408074  0.20844148  0.34399741
   0.43953499  0.46821414  0.87586525
   0.55888852  0.88747393  0.83361748
   0.31709379  0.21030217  0.47731729
   0.19204109  0.96059517  0.47743982
   0.05886759  0.88763326  0.83360137
   0.05799268  0.53938935  0.52233896
   0.94209076  0.96033510  0.47727763
   0.06327937  0.70838157  0.61154351
   0.55788941  0.03911007  0.52233091
   0.69496941  0.29891978  0.78877444
   0.81709318  0.36199805  0.16653725
   0.43395775  0.12475981  0.43299536
   0.06734589  0.21041694  0.47747308
   0.31025293  0.04081358  0.65587718
   0.43288298  0.78914309  0.52228589
   0.18400715  0.13768249  0.83368554
   0.18624711  0.28219963  0.12426720
   0.93926630  0.45919309  0.34400378
   0.56703820  0.86234526  0.16649869
   0.30451756  0.70102084  0.21120656
   0.94102005  0.61247653  0.16655145
   0.18825716  0.45818217  0.61142999
   0.07153497  0.87639936  0.70036315
   0.06022880  0.54071357  0.65593068
   0.30862555  0.52685059  0.12398950
   0.93637541  0.79136698  0.38845286
   0.94458523  0.29891897  0.78880193
   0.18539043  0.29069198  0.65593026
   0.31645642  0.86210063  0.16652629
   0.81051483  0.71211238  0.74481455
   0.69052406  0.28732811  0.25529826
   0.06009646  0.71248035  0.74491875
   0.67943642  0.45151110  0.21123213
   0.81714758  0.21047610  0.47747727
   0.56718662  0.71055804  0.47752885
   0.06643436  0.86261504  0.16654728
   0.93279080  0.28898295  0.52231747
   0.68526996  0.79074282  0.65589319
   0.05885340  0.87491795  0.43295134
   0.06782135  0.22274309  0.87611264
   0.81022708  0.04059343  0.65596662
   0.55899389  0.02707932  0.12405511
   0.30911643  0.37518479  0.43287672
   0.31623109  0.37496407  0.56684478
   0.31705477  0.71033525  0.47740206
   0.05769635  0.03920782  0.52243029
   0.32126936  0.87630531  0.70051844
   0.06492634  0.53755140  0.25524396
   0.68387808  0.13760702  0.83361582
   0.81464194  0.03771189  0.25522087
   0.18389702  0.12504712  0.43312342
   0.69630469  0.12630487  0.70049685
   0.18294342  0.28947534  0.52244580
   0.44039974  0.78755540  0.25533936
   0.44120546  0.61131605  0.16644832
   0.06314109  0.20831399  0.61148356
   0.18626276  0.79122442  0.38828068
   0.30760371  0.53904870  0.52232218
   0.82123300  0.37631953  0.70038820
   0.68629889  0.29122312  0.38841196
   0.19135604  0.12490726  0.56684818
   0.68970820  0.96895262  0.87602627
   0.69143786  0.12490594  0.56688918
   0.43963979  0.95887387  0.34405399
   0.18440036  0.96263759  0.74475516
   0.93998691  0.78774844  0.25520879
   0.55897401  0.87514930  0.43301729
   0.30901250  0.87516744  0.43301749
   0.80783485  0.53935735  0.52245059
   0.92978166  0.45138541  0.21125718
   0.31495015  0.53761261  0.25519757
   0.56151056  0.04155534  0.38843437
   0.93821622  0.45812333  0.61160429
   0.06153906  0.04150254  0.38840733
   0.06131709  0.54162955  0.38840919
   0.43611827  0.29117112  0.38838899
   0.69209627  0.46045556  0.47741020
   0.06623290  0.37500745  0.56688604
   0.55482732  0.70087517  0.21115999
   0.93992184  0.28724591  0.25525165
   0.81896583  0.04960104  0.78904744
   0.18938667  0.95881801  0.34396017
   0.55358105  0.87377836  0.29961842
   0.05895153  0.37486466  0.43287226
   0.31429187  0.70856521  0.34398197
   0.31406485  0.20882396  0.34393412
   0.94122671  0.12515682  0.56681516
   0.43852251  0.95874522  0.61154625
   0.56460401  0.03761944  0.25519449
   0.18600324  0.78247182  0.12430231
   0.06498416  0.03755142  0.25518686
   0.69127386  0.62489359  0.56690301
   0.05774842  0.52749059  0.12413177
   0.30771484  0.03897673  0.52224740
   0.68731449  0.28182933  0.12429045
   0.81728047  0.71045482  0.47751873
   0.43391737  0.13753478  0.83359032
   0.32163387  0.37632612  0.70038575
   0.68410064  0.63763938  0.83360565
   0.56037443  0.71209528  0.74481691
   0.93651162  0.29153750  0.38845518
   0.93962575  0.96873642  0.87607745
   0.56326327  0.20844470  0.61147694
   0.81614308  0.87503457  0.56688291
   0.80371615  0.87352767  0.29951326
   0.31503365  0.03759214  0.25535822
   0.43629386  0.28270030  0.12405621
   0.31344145  0.70822561  0.61156184
   0.43390458  0.62491337  0.43294543
   0.93346200  0.62484038  0.43308425
   0.93838386  0.95722436  0.61156139
   0.07018828  0.54939101  0.78879904
   0.93375130  0.12489507  0.43307489
   0.31807223  0.36284731  0.16580162
   0.93408216  0.96232976  0.74470025
   0.81573587  0.53771966  0.25532197
Direct configuration=     3
   0.05605463  0.70097153  0.21116949
   0.31700063  0.72183628  0.87596650
   0.68810362  0.95829625  0.61146285
   0.43833974  0.45818586  0.61150534
   0.43836068  0.28705792  0.25533867
   0.05993197  0.38750645  0.83390630
   0.31009904  0.88709664  0.83393386
   0.44430281  0.62633675  0.70038283
   0.06204411  0.21295283  0.74471360
   0.18093380  0.45144533  0.21132790
   0.56551011  0.20980110  0.47767852
   0.06524263  0.87495339  0.56680990
   0.56675815  0.22161425  0.87587440
   0.80946548  0.52916330  0.12429436
   0.43107429  0.95129090  0.21125827
   0.56522662  0.37476242  0.56677255
   0.81143751  0.04195021  0.38834364
   0.68433521  0.78999108  0.52220236
   0.44051554  0.45978405  0.47764296
   0.43626841  0.96262966  0.74462009
   0.44019622  0.62484285  0.56682687
   0.56925595  0.87630163  0.70045989
   0.30891672  0.02895348  0.12423348
   0.68792263  0.95831834  0.34402004
   0.68648294  0.78070973  0.12438335
   0.05552804  0.37352619  0.29957375
   0.68930015  0.46987168  0.87573785
   0.43137049  0.45143951  0.21131095
   0.80990188  0.37534348  0.43302838
   0.56340602  0.70804202  0.61148693
   0.56160131  0.54105547  0.65583006
   0.81539302  0.86331939  0.16624342
   0.56308786  0.53723901  0.25538712
   0.68780706  0.45835806  0.34403075
   0.18963306  0.61215927  0.16635278
   0.19301870  0.79936180  0.78879759
   0.44452948  0.12620179  0.70041208
   0.93073488  0.62344073  0.29965148
   0.31628450  0.22153245  0.87589202
   0.31519239  0.87470106  0.56681040
   0.81626750  0.22170780  0.87592259
   0.81150993  0.54114077  0.65579912
   0.55934653  0.52916224  0.12417720
   0.56789251  0.04967234  0.78897646
   0.18841654  0.28713084  0.25539487
   0.80992025  0.87527288  0.43301952
   0.56941493  0.37646920  0.70043775
   0.05914348  0.02827808  0.12425345
   0.31158077  0.54099432  0.65583471
   0.56312517  0.20839548  0.34410218
   0.18851802  0.95812750  0.61140881
   0.30560240  0.37373686  0.29961428
   0.43656418  0.79119969  0.65587111
   0.19319272  0.29861517  0.78883371
   0.06572893  0.36311236  0.16626369
   0.69426175  0.62642366  0.70040647
   0.31144214  0.54159201  0.38841070
   0.06639969  0.72146136  0.87601017
   0.93521589  0.63715163  0.83413843
   0.31838782  0.54968953  0.78894616
   0.30620921  0.20066108  0.21118782
   0.06565528  0.70965102  0.47767868
   0.55614257  0.20098852  0.21109827
   0.31194777  0.21288900  0.74460017
   0.06940554  0.37650031  0.70048202
   0.18496313  0.63716118  0.83384687
   0.06793971  0.04941755  0.78898831
   0.44024510  0.12478219  0.56686417
   0.93681162  0.29118510  0.65575615
   0.80609834  0.20136042  0.21114244
   0.93101335  0.95156083  0.21124536
   0.94014738  0.62512632  0.56677684
   0.80984657  0.38712452  0.83392962
   0.19422835  0.62634978  0.70033813
   0.81003595  0.88710082  0.83396173
   0.68678141  0.29107449  0.65595626
   0.31333601  0.20843599  0.61152448
   0.43669092  0.46270531  0.74460983
   0.43636602  0.79140089  0.38839579
   0.68631311  0.96264021  0.74469832
   0.80600834  0.70100910  0.21120549
   0.81324798  0.70801792  0.61149181
   0.43691959  0.78095444  0.12448241
   0.31171893  0.71259084  0.74458208
   0.31847026  0.04947133  0.78891855
   0.81136341  0.54190316  0.38837391
   0.68448018  0.29008505  0.52226566
   0.69326602  0.79936362  0.78889949
   0.18834463  0.78762260  0.25542871
   0.68997398  0.11252226  0.16628032
   0.69052528  0.95988370  0.47765035
   0.93833171  0.95871242  0.34409494
   0.80945528  0.03990231  0.52225915
   0.68450448  0.62499217  0.43302839
   0.43800249  0.45846087  0.34410559
   0.81205211  0.21267821  0.74456202
   0.43929439  0.96997467  0.87576577
   0.56518942  0.87463442  0.56678817
   0.80911109  0.02863121  0.12418124
   0.43067313  0.62348061  0.29956651
   0.81599969  0.72195329  0.87605956
   0.68792313  0.45807883  0.61146774
   0.56002242  0.38718918  0.83380739
   0.80553618  0.37334730  0.29956602
   0.18618778  0.29147106  0.38836734
   0.81801072  0.54958413  0.78902169
   0.18481983  0.79004526  0.52224820
   0.30557511  0.87355987  0.29962558
   0.18103271  0.95131819  0.21122749
   0.18692069  0.46275322  0.74469250
   0.43447230  0.28996333  0.52219415
   0.06325610  0.70861427  0.34405175
   0.18669221  0.79097595  0.65578333
   0.44302107  0.79933386  0.78881938
   0.68447017  0.12505374  0.43299746
   0.93455770  0.78973694  0.52228681
   0.69004282  0.61322112  0.16638526
   0.81290629  0.70852715  0.34407837
   0.93661394  0.46286874  0.74464572
   0.18807591  0.45851593  0.34406620
   0.56839840  0.54946041  0.78901330
   0.56539297  0.36319474  0.16610792
   0.56282823  0.70861239  0.34413661
   0.55581568  0.37348180  0.29959721
   0.18924421  0.46993440  0.87578862
   0.19048674  0.11263218  0.16627794
   0.44304877  0.29896177  0.78884782
   0.68827619  0.78735755  0.25547625
   0.93540903  0.13720391  0.83388730
   0.44049579  0.95987774  0.47763081
   0.56635220  0.72212067  0.87594821
   0.19038326  0.45974301  0.47764101
   0.93594266  0.28078114  0.12441680
   0.31144396  0.04153409  0.38842293
   0.06180063  0.04091617  0.65591136
   0.56001910  0.37517171  0.43304044
   0.68608915  0.46266040  0.74471112
   0.56209381  0.21300041  0.74459431
   0.94448011  0.12654858  0.70039282
   0.56155333  0.04102862  0.65580824
   0.55947313  0.54009462  0.52223871
   0.18061135  0.12344022  0.29955423
   0.43960194  0.11241503  0.16629477
   0.68036962  0.62345629  0.29964349
   0.93059260  0.12318490  0.29965242
   0.81520019  0.37502437  0.56687942
   0.05566049  0.87351684  0.29957631
   0.19028615  0.62487122  0.56684768
   0.94266083  0.79928535  0.78889872
   0.31005678  0.38706983  0.83389273
   0.93943357  0.47022951  0.87579576
   0.43534704  0.63742024  0.83387219
   0.06290393  0.20847622  0.34403126
   0.18924018  0.96980446  0.87576643
   0.93616060  0.78063062  0.12439531
   0.68640269  0.79165423  0.38839990
   0.93661474  0.79098783  0.65586226
   0.93999628  0.11251474  0.16624885
   0.43665858  0.29122422  0.65595207
   0.05664245  0.20103230  0.21111515
   0.68113532  0.95154416  0.21130799
   0.18072173  0.62359082  0.29956764
   0.81928960  0.87636746  0.70039868
   0.94438227  0.62623122  0.70053167
   0.19444124  0.12651769  0.70042203
   0.94062557  0.45946690  0.47759487
   0.81343600  0.20791339  0.61149320
   0.18533004  0.62505256  0.43305897
   0.43066538  0.12350944  0.29961734
   0.68058026  0.12330531  0.29956889
   0.56132087  0.54162495  0.38845700
   0.81293842  0.20826376  0.34411689
   0.43937991  0.46989122  0.87567087
   0.56000976  0.88704446  0.83392542
   0.31560752  0.20987964  0.47757595
   0.19028601  0.95984273  0.47762436
   0.05995614  0.88719601  0.83391487
   0.05956539  0.54002141  0.52220006
   0.94056814  0.95958097  0.47755055
   0.06344809  0.70804489  0.61148786
   0.55942238  0.04006361  0.52221271
   0.69342322  0.29890169  0.78878161
   0.81576489  0.36277047  0.16626475
   0.43486838  0.12494217  0.43300480
   0.06562309  0.20975998  0.47767174
   0.31173575  0.04110988  0.65583969
   0.43450760  0.78995619  0.52218724
   0.18538737  0.13722794  0.83390339
   0.18646135  0.28056756  0.12435404
   0.93798326  0.45884384  0.34405780
   0.56602367  0.86301062  0.16624274
   0.30603573  0.70084426  0.21115970
   0.93963565  0.61312988  0.16637602
   0.18856107  0.45795648  0.61144431
   0.06945350  0.87651381  0.70032707
   0.06166796  0.54097414  0.65589460
   0.30955890  0.52862748  0.12405177
   0.93630945  0.79168102  0.38844143
   0.94307397  0.29871840  0.78884031
   0.18669266  0.29110052  0.65588607
   0.31528719  0.86274294  0.16623983
   0.81201020  0.71259186  0.74469440
   0.68839345  0.28742359  0.25537244
   0.06199122  0.71274922  0.74468911
   0.68102607  0.45128337  0.21123544
   0.81549883  0.20970682  0.47764211