 288 288   0   0
  0.1280206E+02  0.9726678E-09  0.8423550E-09  0.4500000E-08  0.2500000E-15
  1.000000000000000E-004
  CAR 
 unknown system                          
      6.76809306     -6.01614932  301      4.29385084      1.00000000
     -6.016  0.0000E+00  0.0000E+00
     -5.974  0.0000E+00  0.0000E+00
     -5.931  0.0000E+00  0.0000E+00
     -5.888  0.0000E+00  0.0000E+00
     -5.846  0.0000E+00  0.0000E+00
     -5.803  0.0000E+00  0.0000E+00
     -5.760  0.0000E+00  0.0000E+00
     -5.718  0.0000E+00  0.0000E+00
     -5.675  0.0000E+00  0.0000E+00
     -5.633  0.0000E+00  0.0000E+00
     -5.590  0.0000E+00  0.0000E+00
     -5.547  0.0000E+00  0.0000E+00
     -5.505  0.0000E+00  0.0000E+00
     -5.462  0.0000E+00  0.0000E+00
     -5.420  0.0000E+00  0.0000E+00
     -5.377  0.1303E-15  0.5551E-17
     -5.334  0.3452E-14  0.1527E-15
     -5.292  0.7412E-13  0.3311E-14
     -5.249  0.1353E-11  0.6097E-13
     -5.206  0.2108E-10  0.9592E-12
     -5.164  0.2801E-09  0.1290E-10
     -5.121  0.3177E-08  0.1483E-09
     -5.079  0.3075E-07  0.1459E-08
     -5.036  0.2544E-06  0.1230E-07
     -4.993  0.1799E-05  0.8896E-07
     -4.951  0.1089E-04  0.5531E-06
     -4.908  0.5655E-04  0.2963E-05
     -4.866  0.2523E-03  0.1372E-04
     -4.823  0.9707E-03  0.5508E-04
     -4.780  0.3233E-02  0.1929E-03
     -4.738  0.9379E-02  0.5925E-03
     -4.695  0.2387E-01  0.1610E-02
     -4.652  0.5379E-01  0.3902E-02
     -4.610  0.1085E+00  0.8526E-02
     -4.567  0.1981E+00  0.1697E-01
     -4.525  0.3307E+00  0.3106E-01
     -4.482  0.5093E+00  0.5276E-01
     -4.439  0.7284E+00  0.8380E-01
     -4.397  0.9721E+00  0.1252E+00
     -4.354  0.1216E+01  0.1770E+00
     -4.312  0.1433E+01  0.2381E+00
     -4.269  0.1602E+01  0.3064E+00
     -4.226  0.1715E+01  0.3795E+00
     -4.184  0.1781E+01  0.4554E+00
     -4.141  0.1830E+01  0.5333E+00
     -4.099  0.1901E+01  0.6144E+00
     -4.056  0.2031E+01  0.7009E+00
     -4.013  0.2232E+01  0.7960E+00
     -3.971  0.2491E+01  0.9022E+00
     -3.928  0.2768E+01  0.1020E+01
     -3.885  0.3009E+01  0.1148E+01
     -3.843  0.3164E+01  0.1283E+01
     -3.800  0.3212E+01  0.1420E+01
     -3.758  0.3168E+01  0.1555E+01
     -3.715  0.3083E+01  0.1686E+01
     -3.672  0.3022E+01  0.1815E+01
     -3.630  0.3040E+01  0.1945E+01
     -3.587  0.3162E+01  0.2080E+01
     -3.545  0.3371E+01  0.2223E+01
     -3.502  0.3618E+01  0.2377E+01
     -3.459  0.3846E+01  0.2541E+01
     -3.417  0.4012E+01  0.2712E+01
     -3.374  0.4102E+01  0.2887E+01
     -3.331  0.4133E+01  0.3063E+01
     -3.289  0.4136E+01  0.3239E+01
     -3.246  0.4146E+01  0.3416E+01
     -3.204  0.4189E+01  0.3595E+01
     -3.161  0.4280E+01  0.3777E+01
     -3.118  0.4421E+01  0.3965E+01
     -3.076  0.4600E+01  0.4161E+01
     -3.033  0.4800E+01  0.4366E+01
     -2.991  0.4994E+01  0.4579E+01
     -2.948  0.5154E+01  0.4798E+01
     -2.905  0.5265E+01  0.5023E+01
     -2.863  0.5330E+01  0.5250E+01
     -2.820  0.5374E+01  0.5479E+01
     -2.777  0.5431E+01  0.5710E+01
     -2.735  0.5523E+01  0.5946E+01
     -2.692  0.5638E+01  0.6186E+01
     -2.650  0.5723E+01  0.6430E+01
     -2.607  0.5714E+01  0.6673E+01
     -2.564  0.5594E+01  0.6912E+01
     -2.522  0.5432E+01  0.7143E+01
     -2.479  0.5361E+01  0.7372E+01
     -2.437  0.5514E+01  0.7607E+01
     -2.394  0.5940E+01  0.7860E+01
     -2.351  0.6555E+01  0.8139E+01
     -2.309  0.7169E+01  0.8445E+01
     -2.266  0.7573E+01  0.8767E+01
     -2.223  0.7646E+01  0.9093E+01
     -2.181  0.7417E+01  0.9409E+01
     -2.138  0.7057E+01  0.9710E+01
     -2.096  0.6796E+01  0.9999E+01
     -2.053  0.6811E+01  0.1029E+02
     -2.010  0.7145E+01  0.1059E+02
     -1.968  0.7696E+01  0.1092E+02
     -1.925  0.8276E+01  0.1127E+02
     -1.883  0.8704E+01  0.1165E+02
     -1.840  0.8884E+01  0.1202E+02
     -1.797  0.8849E+01  0.1240E+02
     -1.755  0.8728E+01  0.1277E+02
     -1.712  0.8662E+01  0.1314E+02
     -1.670  0.8731E+01  0.1351E+02
     -1.627  0.8926E+01  0.1389E+02
     -1.584  0.9185E+01  0.1429E+02
     -1.542  0.9458E+01  0.1469E+02
     -1.499  0.9729E+01  0.1510E+02
     -1.456  0.9996E+01  0.1553E+02
     -1.414  0.1024E+02  0.1597E+02
     -1.371  0.1041E+02  0.1641E+02
     -1.329  0.1051E+02  0.1686E+02
     -1.286  0.1062E+02  0.1731E+02
     -1.243  0.1095E+02  0.1778E+02
     -1.201  0.1166E+02  0.1827E+02
     -1.158  0.1275E+02  0.1882E+02
     -1.116  0.1400E+02  0.1941E+02
     -1.073  0.1503E+02  0.2005E+02
     -1.030  0.1557E+02  0.2072E+02
     -0.988  0.1564E+02  0.2138E+02
     -0.945  0.1554E+02  0.2205E+02
     -0.902  0.1571E+02  0.2272E+02
     -0.860  0.1646E+02  0.2342E+02
     -0.817  0.1783E+02  0.2418E+02
     -0.775  0.1973E+02  0.2502E+02
     -0.732  0.2208E+02  0.2596E+02
     -0.689  0.2503E+02  0.2703E+02
     -0.647  0.2878E+02  0.2825E+02
     -0.604  0.3331E+02  0.2967E+02
     -0.562  0.3824E+02  0.3130E+02
     -0.519  0.4292E+02  0.3313E+02
     -0.476  0.4680E+02  0.3512E+02
     -0.434  0.4971E+02  0.3724E+02
     -0.391  0.5185E+02  0.3945E+02
     -0.348  0.5354E+02  0.4173E+02
     -0.306  0.5494E+02  0.4408E+02
     -0.263  0.5604E+02  0.4646E+02
     -0.221  0.5673E+02  0.4888E+02
     -0.178  0.5698E+02  0.5131E+02
     -0.135  0.5693E+02  0.5374E+02
     -0.093  0.5680E+02  0.5616E+02
     -0.050  0.5688E+02  0.5858E+02
     -0.008  0.5739E+02  0.6103E+02
      0.035  0.5852E+02  0.6352E+02
      0.078  0.6040E+02  0.6609E+02
      0.120  0.6301E+02  0.6878E+02
      0.163  0.6623E+02  0.7160E+02
      0.206  0.6985E+02  0.7458E+02
      0.248  0.7362E+02  0.7771E+02
      0.291  0.7723E+02  0.8101E+02
      0.333  0.8041E+02  0.8443E+02
      0.376  0.8296E+02  0.8797E+02
      0.419  0.8485E+02  0.9158E+02
      0.461  0.8618E+02  0.9526E+02
      0.504  0.8701E+02  0.9896E+02
      0.546  0.8735E+02  0.1027E+03
      0.589  0.8721E+02  0.1064E+03
      0.632  0.8663E+02  0.1101E+03
      0.674  0.8569E+02  0.1137E+03
      0.717  0.8442E+02  0.1173E+03
      0.759  0.8280E+02  0.1209E+03
      0.802  0.8086E+02  0.1243E+03
      0.845  0.7884E+02  0.1277E+03
      0.887  0.7711E+02  0.1310E+03
      0.930  0.7602E+02  0.1342E+03
      0.973  0.7568E+02  0.1374E+03
      1.015  0.7589E+02  0.1407E+03
      1.058  0.7623E+02  0.1439E+03
      1.100  0.7632E+02  0.1472E+03
      1.143  0.7598E+02  0.1504E+03
      1.186  0.7530E+02  0.1536E+03
      1.228  0.7449E+02  0.1568E+03
      1.271  0.7372E+02  0.1599E+03
      1.313  0.7304E+02  0.1630E+03
      1.356  0.7231E+02  0.1661E+03
      1.399  0.7135E+02  0.1692E+03
      1.441  0.7001E+02  0.1721E+03
      1.484  0.6836E+02  0.1751E+03
      1.527  0.6677E+02  0.1779E+03
      1.569  0.6582E+02  0.1807E+03
      1.612  0.6601E+02  0.1835E+03
      1.654  0.6750E+02  0.1864E+03
      1.697  0.7004E+02  0.1894E+03
      1.740  0.7313E+02  0.1925E+03
      1.782  0.7632E+02  0.1957E+03
      1.825  0.7936E+02  0.1991E+03
      1.867  0.8213E+02  0.2026E+03
      1.910  0.8462E+02  0.2062E+03
      1.953  0.8683E+02  0.2099E+03
      1.995  0.8881E+02  0.2137E+03
      2.038  0.9063E+02  0.2176E+03
      2.081  0.9225E+02  0.2215E+03
      2.123  0.9362E+02  0.2255E+03
      2.166  0.9469E+02  0.2295E+03
      2.208  0.9569E+02  0.2336E+03
      2.251  0.9702E+02  0.2378E+03
      2.294  0.9913E+02  0.2420E+03
      2.336  0.1023E+03  0.2463E+03
      2.379  0.1063E+03  0.2509E+03
      2.421  0.1108E+03  0.2556E+03
      2.464  0.1151E+03  0.2605E+03
      2.507  0.1189E+03  0.2656E+03
      2.549  0.1219E+03  0.2708E+03
      2.592  0.1242E+03  0.2760E+03
      2.635  0.1262E+03  0.2814E+03
      2.677  0.1281E+03  0.2869E+03
      2.720  0.1300E+03  0.2924E+03
      2.762  0.1322E+03  0.2981E+03
      2.805  0.1347E+03  0.3038E+03
      2.848  0.1375E+03  0.3097E+03
      2.890  0.1402E+03  0.3156E+03
      2.933  0.1419E+03  0.3217E+03
      2.975  0.1416E+03  0.3277E+03
      3.018  0.1386E+03  0.3336E+03
      3.061  0.1328E+03  0.3393E+03
      3.103  0.1249E+03  0.3446E+03
      3.146  0.1160E+03  0.3495E+03
      3.189  0.1071E+03  0.3541E+03
      3.231  0.9952E+02  0.3583E+03
      3.274  0.9363E+02  0.3623E+03
      3.316  0.8953E+02  0.3662E+03
      3.359  0.8693E+02  0.3699E+03
      3.402  0.8538E+02  0.3735E+03
      3.444  0.8448E+02  0.3771E+03
      3.487  0.8389E+02  0.3807E+03
      3.529  0.8332E+02  0.3842E+03
      3.572  0.8270E+02  0.3877E+03
      3.615  0.8228E+02  0.3913E+03
      3.657  0.8254E+02  0.3948E+03
      3.700  0.8400E+02  0.3983E+03
      3.742  0.8685E+02  0.4020E+03
      3.785  0.9082E+02  0.4059E+03
      3.828  0.9530E+02  0.4100E+03
      3.870  0.9961E+02  0.4142E+03
      3.913  0.1033E+03  0.4186E+03
      3.956  0.1061E+03  0.4232E+03
      3.998  0.1080E+03  0.4278E+03
      4.041  0.1090E+03  0.4324E+03
      4.083  0.1091E+03  0.4371E+03
      4.126  0.1085E+03  0.4417E+03
      4.169  0.1075E+03  0.4463E+03
      4.211  0.1062E+03  0.4508E+03
      4.254  0.1049E+03  0.4553E+03
      4.296  0.1036E+03  0.4597E+03
      4.339  0.1026E+03  0.4640E+03
      4.382  0.1019E+03  0.4684E+03
      4.424  0.1014E+03  0.4727E+03
      4.467  0.1010E+03  0.4770E+03
      4.510  0.1003E+03  0.4813E+03
      4.552  0.9926E+02  0.4855E+03
      4.595  0.9804E+02  0.4897E+03
      4.637  0.9721E+02  0.4938E+03
      4.680  0.9723E+02  0.4980E+03
      4.723  0.9832E+02  0.5022E+03
      4.765  0.1003E+03  0.5064E+03
      4.808  0.1029E+03  0.5108E+03
      4.850  0.1055E+03  0.5153E+03
      4.893  0.1078E+03  0.5199E+03
      4.936  0.1094E+03  0.5246E+03
      4.978  0.1098E+03  0.5293E+03
      5.021  0.1084E+03  0.5339E+03
      5.064  0.1043E+03  0.5383E+03
      5.106  0.9648E+02  0.5424E+03
      5.149  0.8438E+02  0.5460E+03
      5.191  0.6868E+02  0.5490E+03
      5.234  0.5128E+02  0.5512E+03
      5.277  0.3471E+02  0.5526E+03
      5.319  0.2109E+02  0.5535E+03
      5.362  0.1142E+02  0.5540E+03
      5.404  0.5477E+01  0.5542E+03
      5.447  0.2316E+01  0.5543E+03
      5.490  0.8599E+00  0.5544E+03
      5.532  0.2795E+00  0.5544E+03
      5.575  0.7932E-01  0.5544E+03
      5.618  0.1961E-01  0.5544E+03
      5.660  0.4214E-02  0.5544E+03
      5.703  0.7859E-03  0.5544E+03
      5.745  0.1270E-03  0.5544E+03
      5.788  0.1777E-04  0.5544E+03
      5.831  0.2148E-05  0.5544E+03
      5.873  0.2242E-06  0.5544E+03
      5.916  0.2019E-07  0.5544E+03
      5.958  0.1567E-08  0.5544E+03
      6.001  0.1047E-09  0.5544E+03
      6.044  0.6015E-11  0.5544E+03
      6.086  0.2965E-12  0.5544E+03
      6.129  0.1159E-13  0.5544E+03
      6.171  0.2605E-15  0.5544E+03
      6.214  0.0000E+00  0.5544E+03
      6.257  0.0000E+00  0.5544E+03
      6.299  0.0000E+00  0.5544E+03
      6.342  0.0000E+00  0.5544E+03
      6.385  0.0000E+00  0.5544E+03
      6.427  0.0000E+00  0.5544E+03
      6.470  0.0000E+00  0.5544E+03
      6.512  0.0000E+00  0.5544E+03
      6.555  0.0000E+00  0.5544E+03
      6.598  0.0000E+00  0.5544E+03
      6.640  0.0000E+00  0.5544E+03
      6.683  0.0000E+00  0.5544E+03
      6.725  0.0000E+00  0.5544E+03
      6.768  0.0000E+00  0.5544E+03
