unknown system                          
           1
     9.726678    0.000000    0.000000
     0.000000    8.423550    0.000000
     0.000000    0.000000   45.000000
   Fe   Mn
 281   7
Direct configuration=     1
   0.05414302  0.70119301  0.21119734
   0.31823333  0.72377109  0.87624192
   0.68842267  0.95869713  0.61155225
   0.43844017  0.45841018  0.61162260
   0.44081272  0.28722908  0.25506059
   0.05862789  0.38856667  0.83355924
   0.30860122  0.88765174  0.83348888
   0.44696555  0.62631343  0.70041089
   0.05983177  0.21265118  0.74491519
   0.17924978  0.45100309  0.21127273
   0.56740914  0.21024171  0.47740715
   0.06652753  0.87507406  0.56692935
   0.56826029  0.22384900  0.87613745
   0.80782003  0.52739467  0.12389315
   0.42921508  0.95144302  0.21137913
   0.56654912  0.37498996  0.56686368
   0.81111164  0.04196412  0.38823928
   0.68229469  0.78905378  0.52247610
   0.44266233  0.46075066  0.47744532
   0.43377610  0.96263255  0.74478440
   0.44142578  0.62492420  0.56686041
   0.57164368  0.87648609  0.70054785
   0.30939962  0.02632086  0.12401230
   0.68962859  0.95899091  0.34393301
   0.68717909  0.78239036  0.12426624
   0.05286776  0.37380963  0.29953455
   0.68981993  0.46787433  0.87609062
   0.42850344  0.45139728  0.21137753
   0.80862563  0.37536743  0.43308479
   0.56332946  0.70852304  0.61153925
   0.55962846  0.54068578  0.65587738
   0.81739043  0.86195841  0.16655862
   0.56546727  0.53773366  0.25515384
   0.68965689  0.45893961  0.34395229
   0.19242042  0.61212507  0.16650633
   0.19458231  0.79941192  0.78883654
   0.44719192  0.12610371  0.70041788
   0.92786014  0.62364838  0.29964434
   0.31745919  0.22357176  0.87615508
   0.31674720  0.87484634  0.56690517
   0.81746676  0.22379417  0.87620309
   0.80970198  0.54066874  0.65583660
   0.55873572  0.52699560  0.12404055
   0.56941895  0.04970271  0.78900713
   0.19036647  0.28710128  0.25520867
   0.80897400  0.87519448  0.43299515
   0.57221852  0.37632744  0.70038640
   0.05799065  0.02760822  0.12404137
   0.30978167  0.54054440  0.65598513
   0.56517082  0.20911220  0.34401255
   0.18823440  0.95848359  0.61134681
   0.30293359  0.37391110  0.29956309
   0.43468671  0.79061153  0.65596510
   0.19486110  0.29900529  0.78879946
   0.06680593  0.36234177  0.16655593
   0.69711805  0.62633988  0.70045080
   0.31124151  0.54118437  0.38841859
   0.06763088  0.72328066  0.87619934
   0.93372591  0.63758380  0.83393356
   0.31978602  0.54966689  0.78890477
   0.30474039  0.20064552  0.21113075
   0.06811146  0.70992646  0.47747803
   0.55424767  0.20068188  0.21114730
   0.30964276  0.21232080  0.74491696
   0.07199075  0.37647506  0.70053092
   0.18323802  0.63763445  0.83358554
   0.06949083  0.04954448  0.78900020
   0.44167979  0.12505653  0.56691789
   0.93485127  0.29077541  0.65586299
   0.80435335  0.20102838  0.21121174
   0.92919047  0.95149632  0.21122907
   0.94148341  0.62504888  0.56684620
   0.80847212  0.38761863  0.83352183
   0.19708719  0.62632751  0.70034418
   0.80863819  0.88780168  0.83355107
   0.68502395  0.29062812  0.65606284
   0.31324895  0.20832577  0.61153936
   0.43460268  0.46280863  0.74487603
   0.43599411  0.79099377  0.38838459
   0.68455328  0.96263920  0.74483862
   0.80354057  0.70093453  0.21131947
   0.81343012  0.70833337  0.61162491
   0.43606135  0.78324960  0.12402621
   0.30983629  0.71204162  0.74482567
   0.32016219  0.04951024  0.78886671
   0.81121809  0.54211302  0.38831085
   0.68225372  0.28912782  0.52249505
   0.69497534  0.79930796  0.78889096
   0.19086330  0.78748617  0.25528840
   0.69181157  0.11233478  0.16663796
   0.69259884  0.96064830  0.47742874
   0.94027241  0.95917292  0.34405789
   0.80734122  0.03912356  0.52253662
   0.68373674  0.62456212  0.43291750
   0.43987533  0.45899381  0.34401351
   0.81064179  0.21151878  0.74462008
   0.43961009  0.96784839  0.87607704
   0.56661952  0.87477516  0.56681776
   0.80927102  0.02818135  0.12399221
   0.42821166  0.62332947  0.29944415
   0.81692308  0.72377807  0.87634643
   0.68848833  0.45856769  0.61154450
   0.55853277  0.38762158  0.83348955
   0.80294348  0.37348148  0.29950242
   0.18610200  0.29124978  0.38837484
   0.82000414  0.54959778  0.78892438
   0.18238621  0.78926039  0.52252436
   0.30268574  0.87384465  0.29961213
   0.17864559  0.95151538  0.21133109
   0.18442294  0.46253081  0.74493523
   0.43232558  0.28903712  0.52234741
   0.06482819  0.70828230  0.34384200
   0.18481225  0.79055329  0.65592997
   0.44478597  0.79922421  0.78882687
   0.68392410  0.12491641  0.43292190
   0.93232205  0.78919219  0.52252790
   0.69198394  0.61214909  0.16652803
   0.81458762  0.70877521  0.34384486
   0.93431613  0.46260629  0.74492787
   0.18994427  0.45881995  0.34401723
   0.56990755  0.54987553  0.78903868
   0.56705672  0.36203385  0.16655254
   0.56481503  0.70913937  0.34397492
   0.55297438  0.37379659  0.29957339
   0.18949764  0.46799177  0.87607211
   0.19153400  0.11156815  0.16649980
   0.44464730  0.29906671  0.78881551
   0.69113291  0.78732997  0.25541457
   0.93386390  0.13775737  0.83356506
   0.44267885  0.96069066  0.47739643
   0.56752777  0.72473323  0.87624931
   0.31688777  0.36213311  0.16661024
   0.93540620  0.28228578  0.12418961
   0.31128162  0.04157434  0.38840556
   0.06018945  0.04053359  0.65604499
   0.55875825  0.37506867  0.43314001
   0.68397385  0.46272004  0.74497215
   0.56007078  0.21259478  0.74484058
   0.94721626  0.12629514  0.70038565
   0.55973212  0.04065822  0.65586299
   0.55739702  0.53894096  0.52240277
   0.17795401  0.12379048  0.29955172
   0.44177476  0.11129210  0.16652350
   0.67777135  0.62358676  0.29958382
   0.92799266  0.12348348  0.29961029
   0.81653665  0.37503850  0.56689746
   0.05307894  0.87370868  0.29950537
   0.19166747  0.62482629  0.56688374
   0.94481042  0.79963393  0.78884036
   0.30849536  0.38737099  0.83352868
   0.93971576  0.46837260  0.87611699
   0.43363187  0.63767768  0.83352371
   0.06483723  0.20855061  0.34375378
   0.18977360  0.96788053  0.87611668
   0.93551464  0.78250641  0.12421462
   0.68626590  0.79127145  0.38842339
   0.93479623  0.79059316  0.65590850
   0.94165487  0.11228763  0.16657792
   0.43508443  0.29079089  0.65607984
   0.05424468  0.20092027  0.21122371
   0.67890403  0.95135041  0.21127288
   0.17831666  0.62346778  0.29939266
   0.82205200  0.87623542  0.70040152
   0.94676918  0.62647278  0.70048790
   0.19712275  0.12630810  0.70035661
   0.94261363  0.46056758  0.47726061
   0.81347213  0.20836250  0.61157542
   0.18360621  0.62465061  0.43314847
   0.42800550  0.12364691  0.29944600
   0.67830572  0.12357225  0.29941830
   0.56148055  0.54152750  0.38844109
   0.81450855  0.20834796  0.34394307
   0.43976340  0.46786102  0.87593217
   0.55859846  0.88749825  0.83345377
   0.31726431  0.21048913  0.47727948
   0.19243418  0.96050398  0.47736738
   0.05857600  0.88759806  0.83348467
   0.05713991  0.53943957  0.52253926
   0.94219357  0.96071677  0.47720850
   0.06345645  0.70825790  0.61158304
   0.55745340  0.03858564  0.52236777
   0.69507499  0.29905022  0.78877647
   0.81666852  0.36236278  0.16668955
   0.43372020  0.12463157  0.43295642
   0.06802994  0.21065371  0.47746962
   0.30992047  0.04072605  0.65591601
   0.43237680  0.78915447  0.52237459
   0.18369533  0.13771448  0.83360702
   0.18564821  0.28298131  0.12425534
   0.93995676  0.45959064  0.34404472
   0.56654132  0.86259712  0.16647492
   0.30382229  0.70089732  0.21127234
   0.94131392  0.61197736  0.16646254
   0.18859996  0.45876627  0.61154739
   0.07225858  0.87648016  0.70035506
   0.05982042  0.54054871  0.65590861
   0.30733772  0.52696273  0.12389879
   0.93625509  0.79140376  0.38841785
   0.94480369  0.29877572  0.78877064
   0.18466078  0.29054598  0.65590776
   0.93812070  0.95833446  0.61149804
   0.80994364  0.71216115  0.74480786
   0.69090050  0.28741426  0.25524186
   0.05924409  0.71218229  0.74499738
   0.67893056  0.45144877  0.21131286
   0.81754314  0.21038703  0.47742448
   0.56744535  0.71058498  0.47747478
   0.06737137  0.86261672  0.16658772
   0.93246719  0.28892629  0.52251620
   0.68463361  0.79040685  0.65591283
   0.05837209  0.87497968  0.43300734
   0.06813479  0.22315093  0.87615910
   0.80988249  0.04051039  0.65597313
   0.55963923  0.02795494  0.12390553
   0.30885833  0.37517723  0.43288704
   0.31649694  0.37487347  0.56686692
   0.31720010  0.71018749  0.47725930
   0.05710804  0.03897191  0.52248535
   0.32192902  0.87637114  0.70052140
   0.06544204  0.53766763  0.25508488
   0.68350118  0.13768464  0.83351516
   0.81534141  0.03751279  0.25509787
   0.18357142  0.12508188  0.43314894
   0.69726934  0.12628139  0.70042033
   0.18247457  0.28910982  0.52253608
   0.44054955  0.78750736  0.25521696
   0.44125346  0.61202848  0.16656206
   0.06339330  0.20836868  0.61158276
   0.18598942  0.79141744  0.38819625
   0.30713338  0.53865716  0.52246927
   0.82187807  0.37657757  0.70029156
   0.68657603  0.29100782  0.38843210
   0.19150523  0.12502898  0.56688167
   0.68981112  0.96831752  0.87610907
   0.69144346  0.12497379  0.56689535
   0.44006003  0.95891002  0.34404414
   0.18403336  0.96272089  0.74477230
   0.94051356  0.78753220  0.25510857
   0.55893808  0.87486527  0.43301845
   0.30867485  0.87525843  0.43288445
   0.80734541  0.53927475  0.52250961
   0.92886500  0.45137790  0.21131302
   0.31540067  0.53790418  0.25523694
   0.56126661  0.04149173  0.38843254
   0.93817597  0.45813380  0.61162638
   0.06121834  0.04146283  0.38838196
   0.06119027  0.54137068  0.38839760
   0.43633169  0.29097706  0.38836448
   0.69288095  0.46076403  0.47739425
   0.06663949  0.37496873  0.56688012
   0.55398266  0.70095880  0.21117452
   0.94062700  0.28747103  0.25522384
   0.81930786  0.04961243  0.78907863
   0.19013551  0.95892201  0.34404316
   0.55293447  0.87380014  0.29962365
   0.05858320  0.37509868  0.43296412
   0.31483027  0.70900277  0.34393234
   0.31451789  0.20883192  0.34390706
   0.94164377  0.12518850  0.56680450
   0.43861996  0.95878877  0.61156392
   0.56515671  0.03756136  0.25512787
   0.18656544  0.78255341  0.12422606
   0.06539597  0.03759518  0.25517287
   0.69158858  0.62500022  0.56690468
   0.05725481  0.52645875  0.12406046
   0.30730352  0.03834483  0.52230355
   0.68610075  0.28259024  0.12417663
   0.81772723  0.71075953  0.47746363
   0.43356071  0.13760606  0.83351871
   0.32233896  0.37645520  0.70042533
   0.68358090  0.63772274  0.83351597
   0.55990255  0.71204890  0.74485156
   0.93622573  0.29130074  0.38843842
   0.93976644  0.96826706  0.87614187
   0.56282669  0.20795833  0.61135666
   0.81680767  0.87514549  0.56691657
   0.80316323  0.87339415  0.29943421
   0.31541836  0.03738439  0.25517722
   0.43666638  0.28316013  0.12424265
   0.31344385  0.70846032  0.61159111
   0.43361005  0.62499051  0.43301319
   0.93366927  0.62434496  0.43312656
   0.31827908  0.86244550  0.16580225
   0.07056686  0.54939763  0.78876674
   0.93342977  0.12460306  0.43304266
   0.19304607  0.46104144  0.47736129
   0.93330968  0.96214204  0.74473262
   0.81596482  0.53826950  0.25536001
Direct configuration=     2
   0.05465839  0.70114274  0.21117289
   0.31791720  0.72328538  0.87616970
   0.68841250  0.95859043  0.61153420
   0.43843192  0.45835553  0.61160445
   0.44023149  0.28716585  0.25512971
   0.05896336  0.38829444  0.83364436
   0.30897618  0.88751649  0.83359628
   0.44630794  0.62635113  0.70040790
   0.06038559  0.21274117  0.74485801
   0.17972129  0.45102401  0.21125242
   0.56689783  0.21002676  0.47747155
   0.06619953  0.87500917  0.56691845
   0.56789576  0.22327479  0.87607379
   0.80813647  0.52781845  0.12396425
   0.42975456  0.95140486  0.21135625
   0.56622061  0.37494947  0.56685204
   0.81118627  0.04194390  0.38826026
   0.68282693  0.78930499  0.52242739
   0.44218890  0.46048876  0.47750018
   0.43439045  0.96266028  0.74474236
   0.44112840  0.62490946  0.56686417
   0.57103310  0.87648331  0.70052002
   0.30958929  0.02693219  0.12402867
   0.68920704  0.95884121  0.34394228
   0.68723842  0.78203422  0.12430892
   0.05352310  0.37374149  0.29953697
   0.68969062  0.46836033  0.87600386
   0.42912373  0.45136339  0.21134500
   0.80895703  0.37533084  0.43307585
   0.56331965  0.70843412  0.61152346
   0.56012006  0.54076973  0.65586448
   0.81698686  0.86219929  0.16647151
   0.56483803  0.53761912  0.25521031
   0.68922393  0.45883203  0.34397471
   0.19192208  0.61228192  0.16644813
   0.19418178  0.79939061  0.78882191
   0.44652692  0.12616192  0.70041854
   0.92858670  0.62357989  0.29964772
   0.31716431  0.22305361  0.87608889
   0.31636847  0.87480226  0.56688852
   0.81716910  0.22325171  0.87613099
   0.81015137  0.54081279  0.65582849
   0.55891751  0.52740151  0.12410211
   0.56905296  0.04969250  0.78899524
   0.18984084  0.28705740  0.25525327
   0.80920715  0.87520025  0.43300098
   0.57151094  0.37635977  0.70039830
   0.05841997  0.02795873  0.12409708
   0.31023374  0.54065645  0.65595697
   0.56464843  0.20899316  0.34403872
   0.18827190  0.95841849  0.61136142
   0.30359488  0.37384439  0.29956887
   0.43514691  0.79075229  0.65594268
   0.19442266  0.29892664  0.78881197
   0.06640855  0.36248229  0.16647548
   0.69639678  0.62637955  0.70043842
   0.31128028  0.54125741  0.38841824
   0.06731410  0.72279341  0.87615401
   0.93408811  0.63746939  0.83398360
   0.31943640  0.54966765  0.78891369
   0.30511885  0.20067114  0.21112637
   0.06744388  0.70979664  0.47754077
   0.55473847  0.20074980  0.21113822
   0.31023862  0.21248407  0.74484826
   0.07131752  0.37653880  0.70050808
   0.18367464  0.63750416  0.83365015
   0.06912408  0.04950502  0.78899257
   0.44129712  0.12498299  0.56689877
   0.93532418  0.29089853  0.65584360
   0.80482319  0.20109271  0.21119742
   0.92969704  0.95146967  0.21123021
   0.94110324  0.62506443  0.56684924
   0.80881690  0.38747316  0.83361875
   0.19638971  0.62638150  0.70034614
   0.80899692  0.88761540  0.83365814
   0.68544962  0.29074129  0.65602560
   0.31328319  0.20827859  0.61153185
   0.43511924  0.46278534  0.74481024
   0.43607111  0.79108588  0.38838762
   0.68500287  0.96266189  0.74479469
   0.80410836  0.70097198  0.21128982
   0.81341134  0.70827599  0.61158854
   0.43615562  0.78269258  0.12405069
   0.31029819  0.71218264  0.74476567
   0.31974364  0.04951718  0.78888293
   0.81124829  0.54205922  0.38832674
   0.68279807  0.28939359  0.52243752
   0.69455289  0.79931861  0.78889106
   0.19023320  0.78754373  0.25532568
   0.69138209  0.11256091  0.16657357
   0.69205888  0.96043373  0.47749239
   0.93979069  0.95903797  0.34406177
   0.80787168  0.03934345  0.52247512
   0.68391564  0.62464910  0.43294604
   0.43944146  0.45889746  0.34403020
   0.81099389  0.21179392  0.74460296
   0.43953500  0.96837046  0.87599430
   0.56627187  0.87474401  0.56681092
   0.80945509  0.02843238  0.12406964
   0.42881285  0.62336035  0.29947703
   0.81667498  0.72329948  0.87627380
   0.68843922  0.45845925  0.61152661
   0.55890726  0.38751193  0.83357272
   0.80359872  0.37343085  0.29951917
   0.18612366  0.29132444  0.38837335
   0.81950735  0.54958810  0.78894466
   0.18294421  0.78946307  0.52247761
   0.30341542  0.87379707  0.29962281
   0.17917617  0.95153088  0.21132835
   0.18501687  0.46258664  0.74486954
   0.43283424  0.28926158  0.52230721
   0.06442866  0.70834347  0.34389330
   0.18529798  0.79063878  0.65589875
   0.44435769  0.79926696  0.78882190
   0.68408659  0.12490435  0.43294190
   0.93287178  0.78931057  0.52247971
   0.69149061  0.61224139  0.16647125
   0.81418850  0.70874329  0.34389835
   0.93488525  0.46263226  0.74486021
   0.18950957  0.45874198  0.34403025
   0.56953482  0.54978863  0.78903108
   0.56673730  0.36225800  0.16646418
   0.56434212  0.70900839  0.34401899
   0.55368517  0.37371614  0.29957542
   0.18941430  0.46845475  0.87600190
   0.19109584  0.11170573  0.16645329
   0.44423750  0.29903155  0.78881786
   0.69041351  0.78730765  0.25542693
   0.93427389  0.13760216  0.83364614
   0.44218461  0.96045727  0.47745138
   0.56723662  0.72407285  0.87617245
   0.31647310  0.36231751  0.16651881
   0.93555722  0.28190093  0.12424288
   0.31131838  0.04160835  0.38840392
   0.06058350  0.04059841  0.65600526
   0.55910274  0.37506633  0.43311821
   0.68450637  0.46268684  0.74490380
   0.56056632  0.21271827  0.74478387
   0.94655084  0.12638998  0.70038637
   0.56021598  0.04072356  0.65585533
   0.55792153  0.53923325  0.52236121
   0.17863553  0.12372913  0.29954877
   0.44136387  0.11145417  0.16645189
   0.67840681  0.62356483  0.29960148
   0.92864597  0.12340451  0.29961645
   0.81617523  0.37499686  0.56689760
   0.05375020  0.87364146  0.29952191
   0.19128394  0.62481297  0.56688776
   0.94428105  0.79955054  0.78885387
   0.30889414  0.38727347  0.83362276
   0.93964635  0.46881311  0.87603897
   0.43405926  0.63759100  0.83360672
   0.06438464  0.20854669  0.34381135
   0.18965091  0.96833760  0.87602797
   0.93561471  0.78210827  0.12426078
   0.68627321  0.79135628  0.38842095
   0.93527323  0.79072288  0.65588775
   0.94125455  0.11250958  0.16651824
   0.43546861  0.29088985  0.65604594
   0.05478277  0.20093694  0.21120952
   0.67944543  0.95134862  0.21126893
   0.17891285  0.62346320  0.29943151
   0.82134754  0.87628479  0.70039623
   0.94616232  0.62652204  0.70047963
   0.19642752  0.12638752  0.70036011
   0.94204983  0.46029280  0.47734602
   0.81343232  0.20829663  0.61155298
   0.18407588  0.62474442  0.43312340
   0.42866479  0.12361403  0.29947671
   0.67887374  0.12346829  0.29944065
   0.56143532  0.54152418  0.38844076
   0.81415118  0.20834777  0.34399526
   0.43967644  0.46837075  0.87586974
   0.55896589  0.88736892  0.83356648
   0.31679762  0.21025951  0.47736378
   0.19186874  0.96028568  0.47743204
   0.05892875  0.88749567  0.83358751
   0.05770123  0.53958813  0.52247348
   0.94168505  0.96045660  0.47729414
   0.06343333  0.70822268  0.61156183
   0.55795034  0.03892340  0.52232798
   0.69463165  0.29901228  0.78877543
   0.81630829  0.36255449  0.16659911
   0.43404952  0.12467750  0.43296708
   0.06740066  0.21040715  0.47753400
   0.31037154  0.04080274  0.65589499
   0.43293620  0.78934713  0.52233182
   0.18412694  0.13758992  0.83367903
   0.18567364  0.28247835  0.12431062
   0.93949710  0.45943011  0.34404590
   0.56628097  0.86277268  0.16639846
   0.30434769  0.70084689  0.21125835
   0.94090849  0.61211659  0.16641796
   0.18855465  0.45864022  0.61153141
   0.07155348  0.87653112  0.70034566
   0.06027910  0.54067852  0.65590443
   0.30773777  0.52752244  0.12397617
   0.93628004  0.79150670  0.38841379
   0.94435186  0.29875665  0.78877859
   0.18513447  0.29068503  0.65589964
   0.93818673  0.95829394  0.61150289
   0.81046481  0.71227133  0.74477301
   0.69023741  0.28741977  0.25527694
   0.05991158  0.71230405  0.74491669
   0.67946117  0.45143851  0.21130428
   0.81703711  0.21012478  0.47748189
   0.56693528  0.71043376  0.47752985
   0.06688849  0.86279737  0.16651211
   0.93303793  0.28915099  0.52246228
   0.68506048  0.79055821  0.65590106
   0.05882206  0.87495604  0.43300216
   0.06777937  0.22262162  0.87610884
   0.81033410  0.04061396  0.65594071
   0.55969614  0.02828334  0.12397600
   0.30910738  0.37517100  0.43291067
   0.31613534  0.37483529  0.56685702
   0.31676001  0.71005906  0.47733621
   0.05771316  0.03919056  0.52241653
   0.32126039  0.87640926  0.70050502
   0.06489216  0.53755372  0.25514624
   0.68394449  0.13762225  0.83360025
   0.81476881  0.03742426  0.25516831
   0.18400754  0.12509278  0.43313689
   0.69656164  0.12632995  0.70041131
   0.18302412  0.28931342  0.52249595
   0.43996654  0.78749881  0.25526301
   0.44082944  0.61215176  0.16650626
   0.06337685  0.20831547  0.61155730
   0.18601957  0.79148305  0.38820527
   0.30772863  0.53894457  0.52241468
   0.82119966  0.37657222  0.70030069
   0.68654079  0.29114838  0.38842693
   0.19118749  0.12492251  0.56688171
   0.68969242  0.96879093  0.87602235
   0.69109877  0.12494042  0.56688997
   0.43959911  0.95885812  0.34406049
   0.18464801  0.96272586  0.74473486
   0.93997654  0.78750290  0.25516184
   0.55923228  0.87490852  0.43301565
   0.30897457  0.87523379  0.43291203
   0.80787170  0.53945207  0.52245230
   0.92941332  0.45138805  0.21130966
   0.31486044  0.53774211  0.25527744
   0.56128098  0.04150929  0.38842911
   0.93822056  0.45808681  0.61160879
   0.06124763  0.04153953  0.38838847
   0.06123495  0.54143653  0.38839991
   0.43639932  0.29106229  0.38835516
   0.69229473  0.46052955  0.47746655
   0.06629539  0.37495656  0.56688765
   0.55452246  0.70094022  0.21116923
   0.94005855  0.28744060  0.25527471
   0.81892024  0.04959354  0.78905596
   0.18966240  0.95880394  0.34406040
   0.55361846  0.87375419  0.29963064
   0.05897322  0.37504391  0.43296160
   0.31440441  0.70886156  0.34396185
   0.31415958  0.20873147  0.34394160
   0.94127105  0.12514684  0.56680424
   0.43855471  0.95868439  0.61155158
   0.56452961  0.03749791  0.25519012
   0.18658378  0.78204796  0.12424324
   0.06491073  0.03752871  0.25522410
   0.69123299  0.62495898  0.56690438
   0.05769649  0.52693942  0.12411004
   0.30784624  0.03871819  0.52226904
   0.68617264  0.28216111  0.12423094
   0.81717763  0.71054012  0.47751934
   0.43401530  0.13748520  0.83358651
   0.32164484  0.37643472  0.70041723
   0.68406044  0.63762985  0.83359972
   0.56038480  0.71215307  0.74480017
   0.93621669  0.29140097  0.38842867
   0.93969453  0.96868914  0.87605170
   0.56293854  0.20799670  0.61137130
   0.81641243  0.87508979  0.56691516
   0.80377621  0.87340080  0.29945617
   0.31483258  0.03730782  0.25524000
   0.43674062  0.28267039  0.12430271
   0.31342539  0.70839896  0.61157377
   0.43392057  0.62501234  0.43301467
   0.93401118  0.62445483  0.43313537
   0.31779497  0.86257648  0.16577856
   0.07009532  0.54937857  0.78877066
   0.93374359  0.12468661  0.43304755
   0.19246022  0.46078869  0.47741072
   0.93391956  0.96227898  0.74471690
   0.81538374  0.53803692  0.25536510
Direct configuration=     3
   0.05620452  0.70099193  0.21109955
   0.31696880  0.72182824  0.87595305
   0.68838198  0.95827032  0.61148004
   0.43840716  0.45819159  0.61154999
   0.43848781  0.28697617  0.25533706
   0.05996976  0.38747775  0.83389973
   0.31010108  0.88711076  0.83391849
   0.44433514  0.62646425  0.70039894
   0.06204707  0.21301114  0.74468647
   0.18113580  0.45108677  0.21119149
   0.56536390  0.20938191  0.47766477
   0.06521554  0.87481452  0.56688574
   0.56680215  0.22155217  0.87588283
   0.80908580  0.52908981  0.12417755
   0.43137299  0.95129039  0.21128759
   0.56523507  0.37482802  0.56681710
   0.81141019  0.04188326  0.38832318
   0.68442363  0.79005863  0.52228127
   0.44076863  0.45970304  0.47766475
   0.43623350  0.96274345  0.74461625
   0.44023625  0.62486526  0.56687546
   0.56920137  0.87647496  0.70043653
   0.31015827  0.02876620  0.12407779
   0.68794237  0.95839211  0.34397008
   0.68741640  0.78096579  0.12443695
   0.05548911  0.37353707  0.29954420
   0.68930271  0.46981831  0.87574361
   0.43098460  0.45126172  0.21124740
   0.80995123  0.37522110  0.43304902
   0.56329024  0.70816736  0.61147606
   0.56159486  0.54102161  0.65582577
   0.81577614  0.86292193  0.16621017
   0.56295030  0.53727550  0.25537971
   0.68792504  0.45850927  0.34404198
   0.19042707  0.61275245  0.16627351
   0.19298020  0.79932670  0.78877801
   0.44453193  0.12633653  0.70042050
   0.93076639  0.62337442  0.29965788
   0.31627968  0.22149915  0.87589030
   0.31523228  0.87467002  0.56683857
   0.81627613  0.22162433  0.87591466
   0.81149953  0.54124494  0.65580416
   0.55946290  0.52861924  0.12428678
   0.56795499  0.04966188  0.78895956
   0.18826395  0.28692575  0.25538705
   0.80990660  0.87521756  0.43301846
   0.56938818  0.37645675  0.70043400
   0.05970793  0.02901025  0.12426419
   0.31158995  0.54099261  0.65587249
   0.56308127  0.20863604  0.34411723
   0.18838441  0.95822317  0.61140527
   0.30557873  0.37364427  0.29958619
   0.43652750  0.79117459  0.65587543
   0.19310734  0.29869068  0.78884947
   0.06521642  0.36290385  0.16623415
   0.69423298  0.62649859  0.70040130
   0.31139659  0.54147654  0.38841720
   0.06636375  0.72133167  0.87601802
   0.93517474  0.63712616  0.83413373
   0.31838752  0.54966992  0.78894044
   0.30625423  0.20074801  0.21111321
   0.06544112  0.70940717  0.47772897
   0.55621086  0.20095355  0.21111099
   0.31202621  0.21297389  0.74464217
   0.06929782  0.37673003  0.70043956
   0.18498452  0.63711329  0.83384398
   0.06802385  0.04938662  0.78896970
   0.44014911  0.12476236  0.56684142
   0.93674293  0.29126789  0.65578543
   0.80623271  0.20128567  0.21115446
   0.93121673  0.95138971  0.21123361
   0.93996275  0.62511109  0.56685836
   0.80985124  0.38703674  0.83390949
   0.19429726  0.62654349  0.70035201
   0.81007311  0.88705655  0.83397935
   0.68672664  0.29108081  0.65591388
   0.31338592  0.20813704  0.61150934
   0.43666891  0.46271548  0.74461286
   0.43630210  0.79136223  0.38839672
   0.68635165  0.96272995  0.74466292
   0.80581172  0.70108435  0.21120088
   0.81335499  0.70810385  0.61147944
   0.43643843  0.78102152  0.12412413
   0.31168389  0.71260571  0.74458568
   0.31848802  0.04953800  0.78893159
   0.81133890  0.54189784  0.38837440
   0.68443112  0.29019090  0.52226492
   0.69328553  0.79935057  0.78889137
   0.18834289  0.78771642  0.25543752
   0.69009366  0.11323933  0.16638041
   0.69043902  0.95979002  0.47768334
   0.93834554  0.95863310  0.34407341
   0.80946307  0.04000314  0.52229062
   0.68445234  0.62491001  0.43303166
   0.43813984  0.45860840  0.34408030
   0.81205020  0.21261933  0.74455160
   0.43930974  0.96993668  0.87574609
   0.56522890  0.87465059  0.56679042
   0.81000731  0.02918546  0.12430195
   0.43061641  0.62345298  0.29957564
   0.81593069  0.72186370  0.87605589
   0.68829189  0.45813393  0.61147292
   0.56003073  0.38718297  0.83382223
   0.80556442  0.37327896  0.29956942
   0.18618862  0.29154841  0.38836889
   0.81801700  0.54955907  0.78900550
   0.18461820  0.79007113  0.52233735
   0.30560445  0.87365435  0.29965486
   0.18076791  0.95157739  0.21132014
   0.18679866  0.46275415  0.74467249
   0.43436024  0.28993497  0.52218660
   0.06323007  0.70852697  0.34404721
   0.18675520  0.79089526  0.65580511
   0.44307287  0.79939523  0.78880697
   0.68457405  0.12486815  0.43300191
   0.93452095  0.78966572  0.52233513
   0.69001062  0.61251828  0.16630091
   0.81299114  0.70864753  0.34405881
   0.93659261  0.46271019  0.74465725
   0.18820548  0.45850810  0.34406930
   0.56841661  0.54952791  0.78900826
   0.56577904  0.36293045  0.16619912
   0.56292339  0.70861547  0.34415121
   0.55581753  0.37347481  0.29958153
   0.18916428  0.46984369  0.87579127
   0.18978136  0.11211848  0.16631377
   0.44300809  0.29892608  0.78882490
   0.68825532  0.78724068  0.25546401
   0.93550384  0.13713654  0.83388939
   0.44070188  0.95975710  0.47761624
   0.56636316  0.72209171  0.87594186
   0.31522910  0.36287069  0.16624449
   0.93601029  0.28074640  0.12440269
   0.31142865  0.04171036  0.38839898
   0.06176563  0.04079287  0.65588605
   0.56013620  0.37505933  0.43305282
   0.68610393  0.46258724  0.74469877
   0.56205294  0.21308875  0.74461375
   0.94455455  0.12667449  0.70038852
   0.56166755  0.04091960  0.65583235
   0.55949504  0.54011012  0.52223654
   0.18068011  0.12354507  0.29953993
   0.44013120  0.11194036  0.16623708
   0.68031320  0.62349903  0.29965445
   0.93060589  0.12316759  0.29963492
   0.81509097  0.37487193  0.56689804
   0.05576398  0.87343982  0.29957150
   0.19013333  0.62477300  0.56689980
   0.94269295  0.79930038  0.78889439
   0.31009047  0.38698093  0.83390500
   0.93943811  0.47013461  0.87580492
   0.43534141  0.63733099  0.83385576
   0.06302686  0.20853490  0.34398404
   0.18928286  0.96970880  0.87576184
   0.93591491  0.78091383  0.12439925
   0.68629511  0.79161078  0.38841363
   0.93670423  0.79111205  0.65582550
   0.94005357  0.11317544  0.16633920
   0.43662113  0.29118673  0.65594426
   0.05639705  0.20098693  0.21116696
   0.68106964  0.95134323  0.21125707
   0.18070142  0.62344946  0.29954805
   0.81923416  0.87643290  0.70038034
   0.94434171  0.62666980  0.70045483
   0.19434182  0.12662578  0.70037063
   0.94035843  0.45946845  0.47760223
   0.81331288  0.20809899  0.61148567
   0.18548489  0.62502582  0.43304819
   0.43064263  0.12351536  0.29956886
   0.68057782  0.12315643  0.29950769
   0.56129964  0.54151421  0.38843978
   0.81307906  0.20834720  0.34415186
   0.43941556  0.46989993  0.87568246
   0.56006816  0.88698092  0.83390461
   0.31539753  0.20957065  0.47761668
   0.19017243  0.95963076  0.47762603
   0.05998700  0.88718848  0.83389602
   0.05938519  0.54003384  0.52227614
   0.94015948  0.95967612  0.47755105
   0.06336397  0.70811702  0.61149820
   0.55944115  0.03993665  0.52220861
   0.69330165  0.29889844  0.78877230
   0.81522760  0.36312962  0.16632780
   0.43503749  0.12481529  0.43299905
   0.06551282  0.20966745  0.47772714
   0.31172473  0.04103281  0.65583192
   0.43461443  0.78992511  0.52220351
   0.18542176  0.13721625  0.83389503
   0.18574992  0.28096949  0.12447648
   0.93811814  0.45894852  0.34404943
   0.56549990  0.86329936  0.16616905
   0.30592386  0.70069561  0.21121638
   0.93969220  0.61253430  0.16628421
   0.18841869  0.45826208  0.61148346
   0.06943819  0.87668399  0.70031749
   0.06165514  0.54106797  0.65589187
   0.30893793  0.52920158  0.12420828
   0.93635488  0.79181550  0.38840161
   0.94299638  0.29869945  0.78880247
   0.18655554  0.29110216  0.65587526
   0.93838485  0.95817240  0.61151742
   0.81202832  0.71260185  0.74466844
   0.68824813  0.28743627  0.25538218
   0.06191403  0.71266932  0.74467460
   0.68105299  0.45140773  0.21127852
   0.81551902  0.20933801  0.47765414