 288 288   0   0
  0.1280206E+02  0.9726678E-09  0.8423550E-09  0.4500000E-08  0.2500000E-15
   1.0000000000000000E-004
  CAR 
 unknown system                          
      6.74817830     -6.06588437  301      4.31169790      1.00000000
     -6.066  0.0000E+00  0.0000E+00
     -6.023  0.0000E+00  0.0000E+00
     -5.980  0.0000E+00  0.0000E+00
     -5.938  0.0000E+00  0.0000E+00
     -5.895  0.0000E+00  0.0000E+00
     -5.852  0.0000E+00  0.0000E+00
     -5.810  0.0000E+00  0.0000E+00
     -5.767  0.0000E+00  0.0000E+00
     -5.724  0.0000E+00  0.0000E+00
     -5.681  0.0000E+00  0.0000E+00
     -5.639  0.0000E+00  0.0000E+00
     -5.596  0.0000E+00  0.0000E+00
     -5.553  0.0000E+00  0.0000E+00
     -5.511  0.0000E+00  0.0000E+00
     -5.468  0.0000E+00  0.0000E+00
     -5.425  0.1625E-17  0.6939E-19
     -5.382  0.3866E-16  0.1721E-17
     -5.340  0.8272E-15  0.3705E-16
     -5.297  0.1509E-13  0.6815E-15
     -5.254  0.2344E-12  0.1069E-13
     -5.212  0.3102E-11  0.1432E-12
     -5.169  0.3498E-10  0.1637E-11
     -5.126  0.3362E-09  0.1600E-10
     -5.083  0.2754E-08  0.1336E-09
     -5.041  0.1925E-07  0.9560E-09
     -4.998  0.1149E-06  0.5864E-08
     -4.955  0.5863E-06  0.3091E-07
     -4.913  0.2563E-05  0.1404E-06
     -4.870  0.9628E-05  0.5516E-06
     -4.827  0.3122E-04  0.1885E-05
     -4.784  0.8799E-04  0.5644E-05
     -4.742  0.2174E-03  0.1493E-04
     -4.699  0.4764E-03  0.3528E-04
     -4.656  0.9383E-03  0.7536E-04
     -4.614  0.1683E-02  0.1472E-03
     -4.571  0.2779E-02  0.2659E-03
     -4.528  0.4263E-02  0.4480E-03
     -4.485  0.6109E-02  0.7090E-03
     -4.443  0.8220E-02  0.1060E-02
     -4.400  0.1044E-01  0.1506E-02
     -4.357  0.1256E-01  0.2042E-02
     -4.315  0.1440E-01  0.2658E-02
     -4.272  0.1585E-01  0.3335E-02
     -4.229  0.1689E-01  0.4056E-02
     -4.186  0.1768E-01  0.4811E-02
     -4.144  0.1844E-01  0.5598E-02
     -4.101  0.1944E-01  0.6429E-02
     -4.058  0.2087E-01  0.7320E-02
     -4.016  0.2278E-01  0.8293E-02
     -3.973  0.2503E-01  0.9362E-02
     -3.930  0.2733E-01  0.1053E-01
     -3.887  0.2931E-01  0.1178E-01
     -3.845  0.3067E-01  0.1309E-01
     -3.802  0.3129E-01  0.1443E-01
     -3.759  0.3124E-01  0.1576E-01
     -3.717  0.3086E-01  0.1708E-01
     -3.674  0.3056E-01  0.1839E-01
     -3.631  0.3074E-01  0.1970E-01
     -3.588  0.3163E-01  0.2105E-01
     -3.546  0.3321E-01  0.2247E-01
     -3.503  0.3527E-01  0.2397E-01
     -3.460  0.3746E-01  0.2557E-01
     -3.418  0.3943E-01  0.2726E-01
     -3.375  0.4089E-01  0.2901E-01
     -3.332  0.4171E-01  0.3079E-01
     -3.290  0.4193E-01  0.3258E-01
     -3.247  0.4180E-01  0.3436E-01
     -3.204  0.4171E-01  0.3614E-01
     -3.161  0.4207E-01  0.3794E-01
     -3.119  0.4319E-01  0.3979E-01
     -3.076  0.4510E-01  0.4171E-01
     -3.033  0.4758E-01  0.4375E-01
     -2.991  0.5020E-01  0.4589E-01
     -2.948  0.5241E-01  0.4813E-01
     -2.905  0.5374E-01  0.5042E-01
     -2.862  0.5407E-01  0.5273E-01
     -2.820  0.5371E-01  0.5503E-01
     -2.777  0.5327E-01  0.5730E-01
     -2.734  0.5338E-01  0.5958E-01
     -2.692  0.5420E-01  0.6190E-01
     -2.649  0.5537E-01  0.6426E-01
     -2.606  0.5627E-01  0.6667E-01
     -2.563  0.5648E-01  0.6908E-01
     -2.521  0.5619E-01  0.7148E-01
     -2.478  0.5619E-01  0.7388E-01
     -2.435  0.5743E-01  0.7633E-01
     -2.393  0.6054E-01  0.7892E-01
     -2.350  0.6526E-01  0.8170E-01
     -2.307  0.7037E-01  0.8471E-01
     -2.264  0.7411E-01  0.8788E-01
     -2.222  0.7516E-01  0.9109E-01
     -2.179  0.7348E-01  0.9422E-01
     -2.136  0.7051E-01  0.9724E-01
     -2.094  0.6835E-01  0.1002E+00
     -2.051  0.6869E-01  0.1031E+00
     -2.008  0.7198E-01  0.1062E+00
     -1.965  0.7733E-01  0.1095E+00
     -1.923  0.8296E-01  0.1130E+00
     -1.880  0.8705E-01  0.1167E+00
     -1.837  0.8868E-01  0.1205E+00
     -1.795  0.8825E-01  0.1243E+00
     -1.752  0.8709E-01  0.1280E+00
     -1.709  0.8659E-01  0.1317E+00
     -1.666  0.8739E-01  0.1354E+00
     -1.624  0.8931E-01  0.1393E+00
     -1.581  0.9179E-01  0.1432E+00
     -1.538  0.9445E-01  0.1472E+00
     -1.496  0.9722E-01  0.1514E+00
     -1.453  0.1001E+00  0.1556E+00
     -1.410  0.1030E+00  0.1600E+00
     -1.367  0.1054E+00  0.1645E+00
     -1.325  0.1074E+00  0.1691E+00
     -1.282  0.1096E+00  0.1738E+00
     -1.239  0.1137E+00  0.1787E+00
     -1.197  0.1208E+00  0.1838E+00
     -1.154  0.1309E+00  0.1894E+00
     -1.111  0.1417E+00  0.1955E+00
     -1.068  0.1503E+00  0.2019E+00
     -1.026  0.1547E+00  0.2085E+00
     -0.983  0.1558E+00  0.2151E+00
     -0.940  0.1568E+00  0.2218E+00
     -0.898  0.1620E+00  0.2288E+00
     -0.855  0.1739E+00  0.2362E+00
     -0.812  0.1926E+00  0.2444E+00
     -0.769  0.2168E+00  0.2537E+00
     -0.727  0.2456E+00  0.2642E+00
     -0.684  0.2791E+00  0.2761E+00
     -0.641  0.3180E+00  0.2897E+00
     -0.599  0.3612E+00  0.3051E+00
     -0.556  0.4053E+00  0.3224E+00
     -0.513  0.4456E+00  0.3414E+00
     -0.470  0.4785E+00  0.3619E+00
     -0.428  0.5030E+00  0.3834E+00
     -0.385  0.5211E+00  0.4056E+00
     -0.342  0.5359E+00  0.4285E+00
     -0.300  0.5491E+00  0.4520E+00
     -0.257  0.5609E+00  0.4759E+00
     -0.214  0.5696E+00  0.5003E+00
     -0.171  0.5742E+00  0.5248E+00
     -0.129  0.5754E+00  0.5494E+00
     -0.086  0.5756E+00  0.5739E+00
     -0.043  0.5778E+00  0.5986E+00
     -0.001  0.5845E+00  0.6236E+00
      0.042  0.5972E+00  0.6491E+00
      0.085  0.6169E+00  0.6754E+00
      0.128  0.6436E+00  0.7029E+00
      0.170  0.6759E+00  0.7318E+00
      0.213  0.7108E+00  0.7622E+00
      0.256  0.7445E+00  0.7940E+00
      0.298  0.7745E+00  0.8271E+00
      0.341  0.7996E+00  0.8612E+00
      0.384  0.8199E+00  0.8962E+00
      0.427  0.8363E+00  0.9319E+00
      0.469  0.8489E+00  0.9682E+00
      0.512  0.8573E+00  0.1005E+01
      0.555  0.8609E+00  0.1042E+01
      0.597  0.8596E+00  0.1078E+01
      0.640  0.8543E+00  0.1115E+01
      0.683  0.8454E+00  0.1151E+01
      0.726  0.8325E+00  0.1186E+01
      0.768  0.8158E+00  0.1221E+01
      0.811  0.7972E+00  0.1255E+01
      0.854  0.7802E+00  0.1289E+01
      0.896  0.7679E+00  0.1321E+01
      0.939  0.7615E+00  0.1354E+01
      0.982  0.7591E+00  0.1386E+01
      1.025  0.7570E+00  0.1419E+01
      1.067  0.7517E+00  0.1451E+01
      1.110  0.7420E+00  0.1483E+01
      1.153  0.7304E+00  0.1514E+01
      1.195  0.7217E+00  0.1545E+01
      1.238  0.7199E+00  0.1575E+01
      1.281  0.7250E+00  0.1606E+01
      1.324  0.7318E+00  0.1638E+01
      1.366  0.7331E+00  0.1669E+01
      1.409  0.7246E+00  0.1700E+01
      1.452  0.7079E+00  0.1730E+01
      1.494  0.6894E+00  0.1760E+01
      1.537  0.6763E+00  0.1788E+01
      1.580  0.6735E+00  0.1817E+01
      1.623  0.6817E+00  0.1846E+01
      1.665  0.6990E+00  0.1876E+01
      1.708  0.7219E+00  0.1907E+01
      1.751  0.7469E+00  0.1939E+01
      1.793  0.7715E+00  0.1972E+01
      1.836  0.7937E+00  0.2006E+01
      1.879  0.8126E+00  0.2040E+01
      1.922  0.8285E+00  0.2076E+01
      1.964  0.8426E+00  0.2112E+01
      2.007  0.8569E+00  0.2148E+01
      2.050  0.8723E+00  0.2186E+01
      2.092  0.8887E+00  0.2224E+01
      2.135  0.9055E+00  0.2262E+01
      2.178  0.9219E+00  0.2302E+01
      2.221  0.9382E+00  0.2342E+01
      2.263  0.9560E+00  0.2383E+01
      2.306  0.9783E+00  0.2424E+01
      2.349  0.1008E+01  0.2467E+01
      2.391  0.1044E+01  0.2512E+01
      2.434  0.1087E+01  0.2558E+01
      2.477  0.1133E+01  0.2607E+01
      2.520  0.1177E+01  0.2657E+01
      2.562  0.1216E+01  0.2709E+01
      2.605  0.1248E+01  0.2762E+01
      2.648  0.1270E+01  0.2817E+01
      2.690  0.1283E+01  0.2871E+01
      2.733  0.1291E+01  0.2927E+01
      2.776  0.1298E+01  0.2982E+01
      2.819  0.1312E+01  0.3038E+01
      2.861  0.1336E+01  0.3095E+01
      2.904  0.1369E+01  0.3154E+01
      2.947  0.1401E+01  0.3213E+01
      2.989  0.1417E+01  0.3274E+01
      3.032  0.1401E+01  0.3334E+01
      3.075  0.1348E+01  0.3391E+01
      3.118  0.1264E+01  0.3445E+01
      3.160  0.1168E+01  0.3495E+01
      3.203  0.1076E+01  0.3541E+01
      3.246  0.1001E+01  0.3584E+01
      3.288  0.9483E+00  0.3624E+01
      3.331  0.9161E+00  0.3664E+01
      3.374  0.9001E+00  0.3702E+01
      3.417  0.8946E+00  0.3740E+01
      3.459  0.8928E+00  0.3778E+01
      3.502  0.8878E+00  0.3816E+01
      3.545  0.8754E+00  0.3854E+01
      3.587  0.8567E+00  0.3890E+01
      3.630  0.8385E+00  0.3926E+01
      3.673  0.8298E+00  0.3962E+01
      3.716  0.8362E+00  0.3997E+01
      3.758  0.8570E+00  0.4034E+01
      3.801  0.8860E+00  0.4072E+01
      3.844  0.9162E+00  0.4111E+01
      3.886  0.9433E+00  0.4151E+01
      3.929  0.9661E+00  0.4192E+01
      3.972  0.9855E+00  0.4234E+01
      4.015  0.1002E+01  0.4277E+01
      4.057  0.1016E+01  0.4321E+01
      4.100  0.1025E+01  0.4364E+01
      4.143  0.1028E+01  0.4408E+01
      4.185  0.1022E+01  0.4452E+01
      4.228  0.1010E+01  0.4495E+01
      4.271  0.9963E+00  0.4538E+01
      4.314  0.9838E+00  0.4580E+01
      4.356  0.9764E+00  0.4621E+01
      4.399  0.9752E+00  0.4663E+01
      4.442  0.9792E+00  0.4705E+01
      4.484  0.9852E+00  0.4747E+01
      4.527  0.9893E+00  0.4789E+01
      4.570  0.9888E+00  0.4832E+01
      4.613  0.9836E+00  0.4874E+01
      4.655  0.9768E+00  0.4915E+01
      4.698  0.9734E+00  0.4957E+01
      4.741  0.9781E+00  0.4999E+01
      4.783  0.9927E+00  0.5041E+01
      4.826  0.1016E+01  0.5084E+01
      4.869  0.1044E+01  0.5129E+01
      4.911  0.1074E+01  0.5175E+01
      4.954  0.1100E+01  0.5222E+01
      4.997  0.1117E+01  0.5270E+01
      5.040  0.1114E+01  0.5317E+01
      5.082  0.1077E+01  0.5363E+01
      5.125  0.9918E+00  0.5406E+01
      5.168  0.8547E+00  0.5442E+01
      5.210  0.6783E+00  0.5471E+01
      5.253  0.4888E+00  0.5492E+01
      5.296  0.3164E+00  0.5505E+01
      5.339  0.1823E+00  0.5513E+01
      5.381  0.9284E-01  0.5517E+01
      5.424  0.4159E-01  0.5519E+01
      5.467  0.1632E-01  0.5520E+01
      5.509  0.5591E-02  0.5520E+01
      5.552  0.1667E-02  0.5520E+01
      5.595  0.4319E-03  0.5520E+01
      5.638  0.9700E-04  0.5520E+01
      5.680  0.1885E-04  0.5520E+01
      5.723  0.3166E-05  0.5520E+01
      5.766  0.4588E-06  0.5520E+01
      5.808  0.5729E-07  0.5520E+01
      5.851  0.6157E-08  0.5520E+01
      5.894  0.5689E-09  0.5520E+01
      5.937  0.4515E-10  0.5520E+01
      5.979  0.3075E-11  0.5520E+01
      6.022  0.1795E-12  0.5520E+01
      6.065  0.8974E-14  0.5520E+01
      6.107  0.3678E-15  0.5520E+01
      6.150  0.8447E-17  0.5520E+01
      6.193  0.0000E+00  0.5520E+01
      6.236  0.0000E+00  0.5520E+01
      6.278  0.0000E+00  0.5520E+01
      6.321  0.0000E+00  0.5520E+01
      6.364  0.0000E+00  0.5520E+01
      6.406  0.0000E+00  0.5520E+01
      6.449  0.0000E+00  0.5520E+01
      6.492  0.0000E+00  0.5520E+01
      6.535  0.0000E+00  0.5520E+01
      6.577  0.0000E+00  0.5520E+01
      6.620  0.0000E+00  0.5520E+01
      6.663  0.0000E+00  0.5520E+01
      6.705  0.0000E+00  0.5520E+01
      6.748  0.0000E+00  0.5520E+01
