<?xml version="1.0" encoding="ISO-8859-1"?>
<modeling>
 <generator>
  <i name="program" type="string">vasp </i>
  <i name="version" type="string">5.4.4.18Apr17-6-g9f103f2a35  </i>
  <i name="subversion" type="string">(build May 29 2019 08:40:53) complex            parallel </i>
  <i name="platform" type="string">LinuxPGI </i>
  <i name="date" type="string">2021 11 22 </i>
  <i name="time" type="string">02:26:43 </i>
 </generator>
 <incar>
  <i type="int" name="ISTART">     2</i>
  <i type="string" name="PREC">accurate</i>
  <i type="string" name="ALGO"> Fast</i>
  <i type="int" name="ICHARG">     2</i>
  <i type="int" name="INIWAV">     1</i>
  <i type="int" name="NELM">   100</i>
  <i type="int" name="NELMIN">     4</i>
  <i type="int" name="IBRION">     2</i>
  <i name="EDIFF">      0.00001000</i>
  <i type="int" name="NSW">   500</i>
  <i type="int" name="ISIF">     2</i>
  <i type="int" name="ISYM">     2</i>
  <i name="ENCUT">    500.00000000</i>
  <i name="POTIM">      0.25000000</i>
  <i type="string" name="LREAL"> Auto</i>
  <i type="int" name="ISMEAR">     0</i>
  <i name="SIGMA">      0.15000000</i>
  <i type="logical" name="LWAVE"> F  </i>
  <i type="logical" name="LCHARG"> F  </i>
  <v type="int" name="KPOINT_BSE">    -1     0     0     0</v>
  <i type="int" name="NELM">   100</i>
 </incar>
 <structure name="primitive_cell" >
  <crystal>
   <varray name="basis" >
    <v>       9.72667800       0.00000000       0.00000000 </v>
    <v>       0.00000000       8.42355000       0.00000000 </v>
    <v>       0.00000000       0.00000000      45.00000000 </v>
   </varray>
   <i name="volume">   3686.99213101 </i>
   <varray name="rec_basis" >
    <v>       0.10281002       0.00000000       0.00000000 </v>
    <v>       0.00000000       0.11871479       0.00000000 </v>
    <v>       0.00000000       0.00000000       0.02222222 </v>
   </varray>
  </crystal>
  <varray name="positions" >
   <v>      -0.43728731       0.20857181      -0.16883868 </v>
   <v>      -0.31202072       0.29153575      -0.12683824 </v>
   <v>      -0.43703643       0.04185812      -0.12677081 </v>
   <v>       0.43716897       0.29217185      -0.12663726 </v>
   <v>       0.43731073       0.45803063      -0.16897917 </v>
   <v>       0.43731386      -0.04100311      -0.16887612 </v>
   <v>      -0.18738340       0.20898974      -0.16893041 </v>
   <v>      -0.31262872      -0.04158639      -0.16895818 </v>
   <v>      -0.31255127       0.45887826      -0.16897137 </v>
   <v>       0.31252822       0.20937432      -0.16832208 </v>
   <v>      -0.31273235       0.12527338      -0.21368250 </v>
   <v>      -0.43733975       0.37478705      -0.21377430 </v>
   <v>       0.43778940       0.12485911      -0.21370283 </v>
   <v>      -0.18803409       0.04160590      -0.12682203 </v>
   <v>      -0.43748198      -0.45761267      -0.12684416 </v>
   <v>       0.31217915       0.04216785      -0.12646752 </v>
   <v>      -0.43784125      -0.12446351      -0.21368197 </v>
   <v>      -0.18751521       0.37500643      -0.21373154 </v>
   <v>       0.31235743       0.37504101      -0.21378155 </v>
   <v>      -0.06296629       0.29146632      -0.12684658 </v>
   <v>       0.31300890      -0.45866922      -0.12685630 </v>
   <v>      -0.31277011      -0.20794528      -0.12674773 </v>
   <v>       0.18796057       0.29144632      -0.12662554 </v>
   <v>      -0.18748622      -0.45794890      -0.12670660 </v>
   <v>       0.43772234      -0.20825623      -0.12675543 </v>
   <v>      -0.06296066       0.45906830      -0.16885535 </v>
   <v>       0.18782179       0.45848392      -0.16892495 </v>
   <v>      -0.43699460      -0.29149562      -0.16895592 </v>
   <v>      -0.06249458      -0.04189790      -0.16896534 </v>
   <v>       0.18699619      -0.04185272      -0.16825970 </v>
   <v>      -0.31280852      -0.37475384      -0.21364645 </v>
   <v>       0.43752027      -0.37492684      -0.21364681 </v>
   <v>      -0.06229189       0.12498811      -0.21360949 </v>
   <v>      -0.18741931      -0.12488013      -0.21366547 </v>
   <v>       0.31289782      -0.12469494      -0.21373052 </v>
   <v>       0.18728744       0.12556002      -0.21379729 </v>
   <v>      -0.31252779       0.29185528      -0.25780761 </v>
   <v>      -0.43709344       0.04156393      -0.25783514 </v>
   <v>       0.43742683       0.29153331      -0.25789197 </v>
   <v>      -0.18735477      -0.29213894      -0.16894791 </v>
   <v>       0.31271717      -0.29079399      -0.16884761 </v>
   <v>       0.06271078       0.20822440      -0.16882899 </v>
   <v>      -0.43719176      -0.45871633      -0.25781165 </v>
   <v>      -0.18762425       0.04166760      -0.25783456 </v>
   <v>       0.31226802       0.04162206      -0.25779968 </v>
   <v>      -0.06257270      -0.20833859      -0.12666415 </v>
   <v>       0.18754426      -0.20766064      -0.12657751 </v>
   <v>       0.06282058       0.04140149      -0.12657356 </v>
   <v>       0.06259750       0.37492945      -0.21365581 </v>
   <v>       0.18770561      -0.37486895      -0.21364666 </v>
   <v>      -0.06242948      -0.37465046      -0.21392339 </v>
   <v>      -0.18747217      -0.45844875      -0.25784344 </v>
   <v>      -0.06243982       0.29203267      -0.25781921 </v>
   <v>       0.31252678      -0.45832893      -0.25783960 </v>
   <v>       0.18762902       0.29147872      -0.25786395 </v>
   <v>       0.43753807      -0.20849396      -0.25781661 </v>
   <v>      -0.31248112      -0.20882194      -0.25785197 </v>
   <v>       0.06185617      -0.45786552      -0.12680078 </v>
   <v>       0.06251401      -0.12471808      -0.21377991 </v>
   <v>      -0.43764539       0.20754340      -0.30196392 </v>
   <v>       0.06188111      -0.29070078      -0.16880874 </v>
   <v>       0.06253635       0.04159357      -0.25785671 </v>
   <v>       0.18737214      -0.20832220      -0.25778851 </v>
   <v>      -0.06244892      -0.20888008      -0.25785886 </v>
   <v>      -0.31237736      -0.04220961      -0.30174760 </v>
   <v>       0.43752161       0.45777207      -0.30187978 </v>
   <v>      -0.18739941       0.20776942      -0.30191929 </v>
   <v>      -0.31266749       0.45769565      -0.30200961 </v>
   <v>       0.31256360       0.20777339      -0.30194156 </v>
   <v>       0.43764899      -0.04232891      -0.30193091 </v>
   <v>       0.06221097      -0.45840176      -0.25776002 </v>
   <v>      -0.06257676       0.45755017      -0.30192266 </v>
   <v>      -0.43733433      -0.29212883      -0.30194388 </v>
   <v>       0.18742847      -0.04190480      -0.30178283 </v>
   <v>      -0.06257912      -0.04189311      -0.30199484 </v>
   <v>       0.18782200       0.45788883      -0.30208657 </v>
   <v>       0.31250572      -0.29210660      -0.30188507 </v>
   <v>      -0.18748564      -0.29218746      -0.30193286 </v>
   <v>       0.06269098       0.20782040      -0.30194386 </v>
   <v>      -0.43742471       0.37374415      -0.34627410 </v>
   <v>      -0.31249350       0.12395391      -0.34631047 </v>
   <v>       0.43761097       0.12370772      -0.34633945 </v>
   <v>      -0.18728697       0.37374330      -0.34625949 </v>
   <v>       0.31231799       0.37405967      -0.34630160 </v>
   <v>      -0.43734787      -0.12643538      -0.34629249 </v>
   <v>       0.06241070      -0.29214849      -0.30196608 </v>
   <v>       0.43750655      -0.37622307      -0.34633718 </v>
   <v>      -0.06260105       0.12362324      -0.34629450 </v>
   <v>      -0.31246485      -0.37617793      -0.34645642 </v>
   <v>       0.18761062       0.12369555      -0.34635582 </v>
   <v>      -0.18757020      -0.12607129      -0.34634400 </v>
   <v>       0.31260449      -0.12604011      -0.34639172 </v>
   <v>      -0.06239566      -0.37638601      -0.34632529 </v>
   <v>       0.06247655       0.37358721      -0.34635151 </v>
   <v>       0.18745721      -0.37609092      -0.34636874 </v>
   <v>       0.06235067      -0.12623386      -0.34644581 </v>
   <v>      -0.31235253       0.28977549      -0.39015782 </v>
   <v>       0.43757586       0.28984216      -0.39027741 </v>
   <v>      -0.43746303       0.04014984      -0.39022187 </v>
   <v>      -0.43716942      -0.46030841      -0.39031007 </v>
   <v>      -0.18750596       0.04020126      -0.39022775 </v>
   <v>       0.31268448       0.04025481      -0.39021779 </v>
   <v>      -0.18769871      -0.46009704      -0.39027759 </v>
   <v>       0.31236205      -0.46016539      -0.39024822 </v>
   <v>      -0.06259667       0.29002572      -0.39024511 </v>
   <v>       0.18754080       0.29005370      -0.39030654 </v>
   <v>       0.43722908      -0.20975605      -0.39017355 </v>
   <v>      -0.31257085      -0.21040973      -0.39028682 </v>
   <v>      -0.06200244      -0.20958711      -0.39011614 </v>
   <v>       0.06258153       0.04035922      -0.39025217 </v>
   <v>       0.18745828      -0.21002203      -0.39028094 </v>
   <v>       0.06263983      -0.45994708      -0.39030426 </v>
   <v>      -0.43769892       0.20628506      -0.43492535 </v>
   <v>       0.43803513       0.45639979      -0.43485054 </v>
   <v>      -0.31237435       0.45601660      -0.43488996 </v>
   <v>       0.31236205       0.20653737      -0.43481090 </v>
   <v>      -0.18703901       0.20621167      -0.43493474 </v>
   <v>       0.43777233      -0.04394479      -0.43486803 </v>
   <v>      -0.31232196      -0.04421138      -0.43487618 </v>
   <v>      -0.06315387       0.45654350      -0.43484923 </v>
   <v>      -0.43787769      -0.29411021      -0.43495452 </v>
   <v>       0.18765193       0.45642564      -0.43494981 </v>
   <v>      -0.06308148      -0.04390600      -0.43485496 </v>
   <v>       0.18765966      -0.04434271      -0.43518937 </v>
   <v>       0.31232246      -0.29389582      -0.43488585 </v>
   <v>       0.06233079       0.20636001      -0.43479756 </v>
   <v>      -0.18690133      -0.29424424      -0.43498651 </v>
   <v>      -0.31302132       0.28792929       0.12678840 </v>
   <v>       0.43801047       0.28739071       0.12684288 </v>
   <v>      -0.43725971       0.03610253       0.12690335 </v>
   <v>       0.06241516      -0.29401336      -0.43486320 </v>
   <v>      -0.43732889      -0.46364945       0.12675297 </v>
   <v>      -0.18698489       0.03501613       0.12673556 </v>
   <v>       0.31161841       0.03512830       0.12684839 </v>
   <v>      -0.18740192      -0.46382058       0.12674534 </v>
   <v>       0.31223138      -0.46396349       0.12674539 </v>
   <v>      -0.06224561       0.28678368       0.12668895 </v>
   <v>       0.18721327       0.28665438       0.12671137 </v>
   <v>      -0.31169528      -0.21343071       0.12666437 </v>
   <v>       0.43629688      -0.21401105       0.12672054 </v>
   <v>      -0.43778793       0.37241081      -0.47866466 </v>
   <v>      -0.31233857       0.12227342      -0.47868476 </v>
   <v>       0.43681144       0.12219076      -0.47868839 </v>
   <v>      -0.18736133       0.37218648      -0.47861350 </v>
   <v>       0.31281243       0.37229064      -0.47866175 </v>
   <v>      -0.43749793      -0.12715208      -0.47863972 </v>
   <v>       0.06266228       0.03645961       0.12679797 </v>
   <v>       0.18795799      -0.21390238       0.12671726 </v>
   <v>      -0.06264665      -0.21392620       0.12675009 </v>
   <v>       0.06246149      -0.46450576       0.12662599 </v>
   <v>       0.43708767      -0.37789354      -0.47871802 </v>
   <v>      -0.31243879      -0.37752757      -0.47885794 </v>
   <v>      -0.06199804       0.12225069      -0.47871247 </v>
   <v>       0.18751165       0.12320064      -0.47873352 </v>
   <v>      -0.18751326      -0.12727242      -0.47870700 </v>
   <v>       0.31311542      -0.12780032      -0.47879590 </v>
   <v>      -0.06208531      -0.37787744      -0.47870350 </v>
   <v>       0.06226687       0.37233321      -0.47868313 </v>
   <v>       0.18746094      -0.37723903      -0.47876039 </v>
   <v>       0.06187534      -0.12771908      -0.47877712 </v>
   <v>      -0.43751247       0.36878393       0.16880118 </v>
   <v>      -0.31299053       0.11862832       0.16878172 </v>
   <v>       0.43815037       0.11871374       0.16881738 </v>
   <v>      -0.18726872       0.36986304       0.16893771 </v>
   <v>      -0.43735249      -0.12967907       0.16873610 </v>
   <v>       0.31225720       0.36983500       0.16900824 </v>
   <v>       0.43760705      -0.38052877       0.16898282 </v>
   <v>      -0.31267166      -0.38073269       0.16909226 </v>
   <v>      -0.18871559      -0.13010514       0.16873202 </v>
   <v>       0.31338307      -0.13035117       0.16883880 </v>
   <v>      -0.06182965       0.11982255       0.16898445 </v>
   <v>       0.18685796       0.11967260       0.16907214 </v>
   <v>      -0.43764049       0.20536139       0.47870339 </v>
   <v>       0.06252377       0.36954248       0.16833213 </v>
   <v>      -0.06258365      -0.38090416       0.16896512 </v>
   <v>       0.18755808      -0.38099212       0.16895282 </v>
   <v>      -0.31236644       0.45478421       0.47867010 </v>
   <v>       0.43779302       0.45545726       0.47858078 </v>
   <v>      -0.18731888       0.20555651       0.47859834 </v>
   <v>       0.31283762       0.20558080       0.47850352 </v>
   <v>      -0.31259517      -0.04513639       0.47857336 </v>
   <v>       0.43799599      -0.04452280       0.47849770 </v>
   <v>       0.06243284      -0.13070586       0.16897478 </v>
   <v>      -0.43798180      -0.29461154       0.47864752 </v>
   <v>       0.18748028       0.45530733       0.47868481 </v>
   <v>      -0.06297763       0.45545705       0.47862034 </v>
   <v>       0.18754188      -0.04466886       0.47874611 </v>
   <v>      -0.06300150      -0.04435645       0.47848983 </v>
   <v>      -0.18698861      -0.29458565       0.47862563 </v>
   <v>       0.31244465      -0.29520001       0.47851009 </v>
   <v>       0.06212223       0.20547091       0.47854811 </v>
   <v>       0.06251670      -0.29518981       0.47853773 </v>
   <v>      -0.43740539       0.20287446       0.21367338 </v>
   <v>      -0.31235446       0.45317016       0.21368849 </v>
   <v>       0.43710206       0.45270021       0.21370492 </v>
   <v>       0.43711248      -0.04741315       0.21364250 </v>
   <v>      -0.18695312       0.20323509       0.21385171 </v>
   <v>       0.31202444       0.20323694       0.21392587 </v>
   <v>      -0.31256262      -0.04691631       0.21391089 </v>
   <v>      -0.43764334      -0.29778189       0.21378890 </v>
   <v>       0.18776755       0.45288347       0.21376815 </v>
   <v>      -0.06248566       0.45322532       0.21379299 </v>
   <v>      -0.06213219      -0.04735634       0.21365043 </v>
   <v>       0.18750394      -0.04719654       0.21369153 </v>
   <v>       0.31256359      -0.29771532       0.21371987 </v>
   <v>      -0.18735368      -0.29705504       0.21373433 </v>
   <v>      -0.31243215       0.12169385       0.43488996 </v>
   <v>      -0.43768364       0.37143362       0.43478577 </v>
   <v>       0.43721814       0.12124419       0.43485715 </v>
   <v>       0.06237270       0.20255808       0.21379598 </v>
   <v>       0.31256429       0.37127613       0.43492568 </v>
   <v>      -0.18735827       0.37145886       0.43475996 </v>
   <v>      -0.43732035      -0.12824286       0.43483966 </v>
   <v>      -0.31253702      -0.37826096       0.43503367 </v>
   <v>       0.43742127      -0.37860415       0.43475783 </v>
   <v>      -0.06227056       0.12151732       0.43484010 </v>
   <v>       0.18745445       0.12164748       0.43484917 </v>
   <v>       0.31266205      -0.12856126       0.43485368 </v>
   <v>      -0.18750379      -0.12832004       0.43477036 </v>
   <v>       0.06240701      -0.29750649       0.21362787 </v>
   <v>       0.18747979      -0.37819825       0.43484239 </v>
   <v>       0.06244323       0.37164487       0.43485876 </v>
   <v>      -0.06239162      -0.37852979       0.43474783 </v>
   <v>       0.06212606      -0.12832118       0.43491553 </v>
   <v>      -0.31260269       0.28603636       0.25782900 </v>
   <v>       0.43771299       0.28642604       0.25790175 </v>
   <v>      -0.43771063       0.03630578       0.25779739 </v>
   <v>      -0.43732708      -0.46357382       0.25777454 </v>
   <v>       0.31241367       0.03642626       0.25779766 </v>
   <v>      -0.18738118       0.03613001       0.25781831 </v>
   <v>       0.31249135      -0.46353089       0.25780237 </v>
   <v>      -0.18757458      -0.46357717       0.25782329 </v>
   <v>      -0.06258140       0.28620333       0.25786515 </v>
   <v>       0.18749230       0.28639197       0.25788026 </v>
   <v>       0.43742170      -0.21345428       0.25783082 </v>
   <v>      -0.31247581      -0.21327056       0.25789167 </v>
   <v>       0.06262015       0.03603964       0.25783113 </v>
   <v>       0.18752225      -0.21381458       0.25781614 </v>
   <v>      -0.06250143      -0.21370458       0.25783877 </v>
   <v>      -0.31248021       0.28758559       0.39032903 </v>
   <v>       0.43731894       0.28765221       0.39028762 </v>
   <v>      -0.43739144       0.03763350       0.39029638 </v>
   <v>       0.06238012      -0.46408714       0.25783558 </v>
   <v>      -0.43755342      -0.46241186       0.39022828 </v>
   <v>      -0.18758791       0.03769320       0.39028118 </v>
   <v>       0.31231456       0.03759037       0.39022988 </v>
   <v>      -0.06241327       0.28792698       0.39028805 </v>
   <v>      -0.18764721      -0.46234852       0.39019275 </v>
   <v>       0.31249676      -0.46205964       0.39020746 </v>
   <v>       0.18750144       0.28789375       0.39022319 </v>
   <v>      -0.31242108      -0.21269789       0.39027472 </v>
   <v>       0.43768557      -0.21248931       0.39019432 </v>
   <v>       0.06256982       0.03777303       0.39028401 </v>
   <v>       0.18750491      -0.21209241       0.39026317 </v>
   <v>      -0.06283204      -0.21230395       0.39018529 </v>
   <v>       0.06260030      -0.46198019       0.39019772 </v>
   <v>      -0.43752131       0.36975543       0.30197932 </v>
   <v>      -0.31253041       0.11983622       0.30193931 </v>
   <v>       0.43708255       0.12030522       0.30204813 </v>
   <v>      -0.18750703       0.36992773       0.30195525 </v>
   <v>       0.31260237       0.37059314       0.30199801 </v>
   <v>      -0.43764525      -0.13000551       0.30198521 </v>
   <v>      -0.31246591      -0.38053115       0.30194082 </v>
   <v>       0.43719881      -0.38010218       0.30192826 </v>
   <v>       0.18740209       0.12018215       0.30194963 </v>
   <v>       0.31254696      -0.13001846       0.30192324 </v>
   <v>      -0.06203065       0.12021126       0.30202826 </v>
   <v>      -0.18753943      -0.13004918       0.30199391 </v>
   <v>       0.18747858      -0.37969718       0.30189584 </v>
   <v>      -0.06232736      -0.38005376       0.30195383 </v>
   <v>       0.06237227       0.37050488       0.30203006 </v>
   <v>      -0.43723730       0.20403634       0.34637172 </v>
   <v>       0.06255215      -0.13005162       0.30191307 </v>
   <v>       0.43755947       0.45404570       0.34638695 </v>
   <v>      -0.18748210       0.20392171       0.34638268 </v>
   <v>      -0.31256757       0.45370010       0.34627340 </v>
   <v>       0.31254333       0.20403564       0.34631792 </v>
   <v>      -0.31253020      -0.04586360       0.34638511 </v>
   <v>       0.43756833      -0.04594581       0.34633847 </v>
   <v>      -0.43736992      -0.29611410       0.34641300 </v>
   <v>      -0.06241539       0.45367383       0.34637796 </v>
   <v>       0.18733440       0.45383338       0.34638702 </v>
   <v>      -0.06258813      -0.04575351       0.34635399 </v>
   <v>       0.18750138      -0.04600248       0.34635839 </v>
   <v>       0.31240673      -0.29609397       0.34640865 </v>
   <v>      -0.18741688      -0.29601381       0.34639983 </v>
   <v>       0.06212872       0.20399203       0.34631104 </v>
   <v>       0.06226758      -0.29617673       0.34633375 </v>
  </varray>
 </structure>
 <varray name="primitive_index" >
  <v type="int" >        1 </v>
  <v type="int" >      237 </v>
  <v type="int" >      147 </v>
  <v type="int" >       84 </v>
  <v type="int" >      186 </v>
  <v type="int" >       42 </v>
  <v type="int" >       57 </v>
  <v type="int" >       18 </v>
  <v type="int" >       81 </v>
  <v type="int" >      280 </v>
  <v type="int" >      122 </v>
  <v type="int" >       16 </v>
  <v type="int" >      188 </v>
  <v type="int" >       59 </v>
  <v type="int" >       63 </v>
  <v type="int" >       20 </v>
  <v type="int" >      167 </v>
  <v type="int" >      216 </v>
  <v type="int" >      158 </v>
  <v type="int" >       49 </v>
  <v type="int" >      241 </v>
  <v type="int" >      155 </v>
  <v type="int" >      128 </v>
  <v type="int" >      251 </v>
  <v type="int" >       11 </v>
  <v type="int" >      168 </v>
  <v type="int" >       15 </v>
  <v type="int" >      145 </v>
  <v type="int" >      189 </v>
  <v type="int" >      279 </v>
  <v type="int" >      219 </v>
  <v type="int" >      162 </v>
  <v type="int" >      123 </v>
  <v type="int" >       34 </v>
  <v type="int" >       91 </v>
  <v type="int" >       17 </v>
  <v type="int" >      135 </v>
  <v type="int" >      264 </v>
  <v type="int" >       92 </v>
  <v type="int" >       46 </v>
  <v type="int" >      143 </v>
  <v type="int" >       12 </v>
  <v type="int" >      227 </v>
  <v type="int" >      197 </v>
  <v type="int" >      288 </v>
  <v type="int" >      246 </v>
  <v type="int" >      238 </v>
  <v type="int" >       64 </v>
  <v type="int" >      187 </v>
  <v type="int" >        6 </v>
  <v type="int" >      287 </v>
  <v type="int" >      134 </v>
  <v type="int" >      131 </v>
  <v type="int" >       47 </v>
  <v type="int" >       61 </v>
  <v type="int" >      262 </v>
  <v type="int" >      236 </v>
  <v type="int" >      174 </v>
  <v type="int" >      165 </v>
  <v type="int" >        5 </v>
  <v type="int" >      137 </v>
  <v type="int" >      183 </v>
  <v type="int" >       62 </v>
  <v type="int" >      181 </v>
  <v type="int" >       68 </v>
  <v type="int" >      136 </v>
  <v type="int" >      169 </v>
  <v type="int" >       72 </v>
  <v type="int" >      184 </v>
  <v type="int" >       75 </v>
  <v type="int" >       79 </v>
  <v type="int" >      150 </v>
  <v type="int" >      245 </v>
  <v type="int" >      127 </v>
  <v type="int" >       50 </v>
  <v type="int" >      154 </v>
  <v type="int" >       36 </v>
  <v type="int" >       45 </v>
  <v type="int" >      126 </v>
  <v type="int" >      248 </v>
  <v type="int" >      118 </v>
  <v type="int" >      202 </v>
  <v type="int" >      203 </v>
  <v type="int" >      115 </v>
  <v type="int" >      266 </v>
  <v type="int" >       93 </v>
  <v type="int" >       70 </v>
  <v type="int" >      230 </v>
  <v type="int" >      182 </v>
  <v type="int" >       33 </v>
  <v type="int" >      112 </v>
  <v type="int" >      221 </v>
  <v type="int" >      176 </v>
  <v type="int" >       43 </v>
  <v type="int" >      260 </v>
  <v type="int" >      106 </v>
  <v type="int" >       21 </v>
  <v type="int" >      228 </v>
  <v type="int" >      104 </v>
  <v type="int" >       71 </v>
  <v type="int" >      222 </v>
  <v type="int" >       95 </v>
  <v type="int" >      242 </v>
  <v type="int" >       65 </v>
  <v type="int" >      243 </v>
  <v type="int" >       44 </v>
  <v type="int" >      284 </v>
  <v type="int" >      247 </v>
  <v type="int" >      285 </v>
  <v type="int" >      132 </v>
  <v type="int" >      226 </v>
  <v type="int" >       26 </v>
  <v type="int" >      282 </v>
  <v type="int" >       76 </v>
  <v type="int" >      107 </v>
  <v type="int" >      224 </v>
  <v type="int" >       25 </v>
  <v type="int" >      193 </v>
  <v type="int" >       52 </v>
  <v type="int" >      258 </v>
  <v type="int" >      180 </v>
  <v type="int" >      267 </v>
  <v type="int" >      254 </v>
  <v type="int" >      281 </v>
  <v type="int" >      156 </v>
  <v type="int" >      204 </v>
  <v type="int" >        8 </v>
  <v type="int" >      235 </v>
  <v type="int" >      213 </v>
  <v type="int" >      286 </v>
  <v type="int" >       40 </v>
  <v type="int" >      252 </v>
  <v type="int" >      261 </v>
  <v type="int" >       14 </v>
  <v type="int" >       54 </v>
  <v type="int" >        7 </v>
  <v type="int" >      217 </v>
  <v type="int" >       58 </v>
  <v type="int" >       56 </v>
  <v type="int" >      231 </v>
  <v type="int" >       22 </v>
  <v type="int" >      195 </v>
  <v type="int" >      160 </v>
  <v type="int" >        2 </v>
  <v type="int" >      220 </v>
  <v type="int" >      178 </v>
  <v type="int" >      101 </v>
  <v type="int" >       67 </v>
  <v type="int" >      159 </v>
  <v type="int" >      250 </v>
  <v type="int" >      205 </v>
  <v type="int" >      283 </v>
  <v type="int" >      113 </v>
  <v type="int" >      214 </v>
  <v type="int" >       51 </v>
  <v type="int" >      192 </v>
  <v type="int" >      133 </v>
  <v type="int" >      223 </v>
  <v type="int" >      232 </v>
  <v type="int" >      257 </v>
  <v type="int" >      210 </v>
  <v type="int" >      164 </v>
  <v type="int" >      200 </v>
  <v type="int" >       85 </v>
  <v type="int" >      111 </v>
  <v type="int" >       53 </v>
  <v type="int" >       97 </v>
  <v type="int" >      253 </v>
  <v type="int" >        4 </v>
  <v type="int" >       74 </v>
  <v type="int" >      179 </v>
  <v type="int" >      209 </v>
  <v type="int" >      120 </v>
  <v type="int" >      277 </v>
  <v type="int" >      177 </v>
  <v type="int" >      116 </v>
  <v type="int" >      119 </v>
  <v type="int" >      269 </v>
  <v type="int" >       87 </v>
  <v type="int" >      105 </v>
  <v type="int" >      191 </v>
  <v type="int" >      256 </v>
  <v type="int" >      196 </v>
  <v type="int" >      125 </v>
  <v type="int" >       48 </v>
  <v type="int" >      157 </v>
  <v type="int" >      276 </v>
  <v type="int" >      208 </v>
  <v type="int" >       24 </v>
  <v type="int" >       28 </v>
  <v type="int" >       86 </v>
  <v type="int" >      142 </v>
  <v type="int" >      225 </v>
  <v type="int" >      170 </v>
  <v type="int" >       80 </v>
  <v type="int" >      110 </v>
  <v type="int" >      255 </v>
  <v type="int" >       98 </v>
  <v type="int" >      274 </v>
  <v type="int" >      211 </v>
  <v type="int" >        9 </v>
  <v type="int" >      151 </v>
  <v type="int" >      199 </v>
  <v type="int" >      244 </v>
  <v type="int" >       19 </v>
  <v type="int" >      130 </v>
  <v type="int" >      212 </v>
  <v type="int" >      108 </v>
  <v type="int" >      271 </v>
  <v type="int" >      124 </v>
  <v type="int" >      239 </v>
  <v type="int" >       94 </v>
  <v type="int" >       96 </v>
  <v type="int" >      139 </v>
  <v type="int" >      163 </v>
  <v type="int" >      273 </v>
  <v type="int" >       39 </v>
  <v type="int" >       35 </v>
  <v type="int" >      114 </v>
  <v type="int" >       27 </v>
  <v type="int" >      233 </v>
  <v type="int" >      234 </v>
  <v type="int" >       55 </v>
  <v type="int" >      215 </v>
  <v type="int" >      218 </v>
  <v type="int" >      166 </v>
  <v type="int" >       77 </v>
  <v type="int" >        3 </v>
  <v type="int" >       37 </v>
  <v type="int" >      129 </v>
  <v type="int" >       66 </v>
  <v type="int" >      102 </v>
  <v type="int" >      153 </v>
  <v type="int" >       90 </v>
  <v type="int" >       30 </v>
  <v type="int" >       38 </v>
  <v type="int" >       99 </v>
  <v type="int" >      198 </v>
  <v type="int" >       82 </v>
  <v type="int" >      175 </v>
  <v type="int" >      194 </v>
  <v type="int" >      103 </v>
  <v type="int" >      207 </v>
  <v type="int" >      229 </v>
  <v type="int" >      117 </v>
  <v type="int" >      263 </v>
  <v type="int" >       60 </v>
  <v type="int" >      109 </v>
  <v type="int" >       23 </v>
  <v type="int" >       13 </v>
  <v type="int" >      149 </v>
  <v type="int" >       29 </v>
  <v type="int" >      268 </v>
  <v type="int" >       83 </v>
  <v type="int" >      100 </v>
  <v type="int" >      171 </v>
  <v type="int" >       32 </v>
  <v type="int" >      275 </v>
  <v type="int" >      161 </v>
  <v type="int" >       41 </v>
  <v type="int" >       73 </v>
  <v type="int" >      240 </v>
  <v type="int" >       10 </v>
  <v type="int" >      190 </v>
  <v type="int" >      173 </v>
  <v type="int" >      272 </v>
  <v type="int" >      152 </v>
  <v type="int" >       88 </v>
  <v type="int" >       69 </v>
  <v type="int" >      259 </v>
  <v type="int" >      172 </v>
  <v type="int" >       78 </v>
  <v type="int" >      140 </v>
  <v type="int" >      206 </v>
  <v type="int" >       89 </v>
  <v type="int" >      144 </v>
  <v type="int" >      148 </v>
  <v type="int" >      201 </v>
  <v type="int" >      185 </v>
  <v type="int" >      141 </v>
  <v type="int" >      138 </v>
  <v type="int" >      146 </v>
  <v type="int" >      270 </v>
  <v type="int" >      249 </v>
  <v type="int" >      278 </v>
  <v type="int" >      121 </v>
  <v type="int" >       31 </v>
  <v type="int" >      265 </v>
 </varray>
 <kpoints>
  <generation param="Gamma">
   <v type="int" name="divisions">       4        4        1 </v>
   <v name="usershift">      0.00000000       0.00000000       0.00000000 </v>
   <v name="genvec1">      0.25000000       0.00000000       0.00000000 </v>
   <v name="genvec2">      0.00000000       0.25000000       0.00000000 </v>
   <v name="genvec3">      0.00000000       0.00000000       1.00000000 </v>
   <v name="shift">      0.00000000       0.00000000       0.00000000 </v>
  </generation>
  <varray name="kpointlist" >
   <v>       0.00000000       0.00000000       0.00000000 </v>
   <v>       0.25000000       0.00000000       0.00000000 </v>
   <v>       0.50000000       0.00000000       0.00000000 </v>
   <v>       0.00000000       0.25000000       0.00000000 </v>
   <v>       0.25000000       0.25000000       0.00000000 </v>
   <v>       0.50000000       0.25000000       0.00000000 </v>
   <v>      -0.25000000       0.25000000       0.00000000 </v>
   <v>       0.00000000       0.50000000       0.00000000 </v>
   <v>       0.25000000       0.50000000       0.00000000 </v>
   <v>       0.50000000       0.50000000       0.00000000 </v>
  </varray>
  <varray name="weights" >
   <v>       0.06250000 </v>
   <v>       0.12500000 </v>
   <v>       0.06250000 </v>
   <v>       0.12500000 </v>
   <v>       0.12500000 </v>
   <v>       0.12500000 </v>
   <v>       0.12500000 </v>
   <v>       0.06250000 </v>
   <v>       0.12500000 </v>
   <v>       0.06250000 </v>
  </varray>
 </kpoints>
 <parameters>
  <separator name="general" >
   <i type="string" name="SYSTEM">unknown system</i>
   <i type="logical" name="LCOMPAT"> F  </i>
  </separator>
  <separator name="electronic" >
   <i type="string" name="PREC">accura</i>
   <i name="ENMAX">    500.00000000</i>
   <i name="ENAUG">    838.43500000</i>
   <i name="EDIFF">      0.00001000</i>
   <i type="int" name="IALGO">    68</i>
   <i type="int" name="IWAVPR">    11</i>
   <i type="int" name="NBANDS">  1380</i>
   <i name="NELECT">   2289.00000000</i>
   <i type="int" name="TURBO">     0</i>
   <i type="int" name="IRESTART">     0</i>
   <i type="int" name="NREBOOT">     0</i>
   <i type="int" name="NMIN">     0</i>
   <i name="EREF">      0.00000000</i>
   <separator name="electronic smearing" >
    <i type="int" name="ISMEAR">     0</i>
    <i name="SIGMA">      0.15000000</i>
    <i name="KSPACING">      0.50000000</i>
    <i type="logical" name="KGAMMA"> T  </i>
   </separator>
   <separator name="electronic projectors" >
    <i type="logical" name="LREAL"> T  </i>
    <v name="ROPT">     -0.00025000     -0.00025000</v>
    <i type="int" name="LMAXPAW">  -100</i>
    <i type="int" name="LMAXMIX">     2</i>
    <i type="logical" name="NLSPLINE"> F  </i>
   </separator>
   <separator name="electronic startup" >
    <i type="int" name="ISTART">     0</i>
    <i type="int" name="ICHARG">     2</i>
    <i type="int" name="INIWAV">     1</i>
   </separator>
   <separator name="electronic spin" >
    <i type="int" name="ISPIN">     1</i>
    <i type="logical" name="LNONCOLLINEAR"> F  </i>
    <v name="MAGMOM">      1.00000000      1.00000000      1.00000000      1.00000000      1.00000000      1.00000000      1.00000000      1.00000000      1.00000000      1.00000000      1.00000000      1.00000000      1.00000000      1.00000000      1.00000000      1.00000000      1.00000000      1.00000000      1.00000000      1.00000000
      1.00000000      1.00000000      1.00000000      1.00000000      1.00000000      1.00000000      1.00000000      1.00000000      1.00000000      1.00000000      1.00000000      1.00000000      1.00000000      1.00000000      1.00000000      1.00000000      1.00000000      1.00000000      1.00000000      1.00000000
      1.00000000      1.00000000      1.00000000      1.00000000      1.00000000      1.00000000      1.00000000      1.00000000      1.00000000      1.00000000      1.00000000      1.00000000      1.00000000      1.00000000      1.00000000      1.00000000      1.00000000      1.00000000      1.00000000      1.00000000
      1.00000000      1.00000000      1.00000000      1.00000000      1.00000000      1.00000000      1.00000000      1.00000000      1.00000000      1.00000000      1.00000000      1.00000000      1.00000000      1.00000000      1.00000000      1.00000000      1.00000000      1.00000000      1.00000000      1.00000000
      1.00000000      1.00000000      1.00000000      1.00000000      1.00000000      1.00000000      1.00000000      1.00000000      1.00000000      1.00000000      1.00000000      1.00000000      1.00000000      1.00000000      1.00000000      1.00000000      1.00000000      1.00000000      1.00000000      1.00000000
      1.00000000      1.00000000      1.00000000      1.00000000      1.00000000      1.00000000      1.00000000      1.00000000      1.00000000      1.00000000      1.00000000      1.00000000      1.00000000      1.00000000      1.00000000      1.00000000      1.00000000      1.00000000      1.00000000      1.00000000
      1.00000000      1.00000000      1.00000000      1.00000000      1.00000000      1.00000000      1.00000000      1.00000000      1.00000000      1.00000000      1.00000000      1.00000000      1.00000000      1.00000000      1.00000000      1.00000000      1.00000000      1.00000000      1.00000000      1.00000000
      1.00000000      1.00000000      1.00000000      1.00000000      1.00000000      1.00000000      1.00000000      1.00000000      1.00000000      1.00000000      1.00000000      1.00000000      1.00000000      1.00000000      1.00000000      1.00000000      1.00000000      1.00000000      1.00000000      1.00000000
      1.00000000      1.00000000      1.00000000      1.00000000      1.00000000      1.00000000      1.00000000      1.00000000      1.00000000      1.00000000      1.00000000      1.00000000      1.00000000      1.00000000      1.00000000      1.00000000      1.00000000      1.00000000      1.00000000      1.00000000
      1.00000000      1.00000000      1.00000000      1.00000000      1.00000000      1.00000000      1.00000000      1.00000000      1.00000000      1.00000000      1.00000000      1.00000000      1.00000000      1.00000000      1.00000000      1.00000000      1.00000000      1.00000000      1.00000000      1.00000000
      1.00000000      1.00000000      1.00000000      1.00000000      1.00000000      1.00000000      1.00000000      1.00000000      1.00000000      1.00000000      1.00000000      1.00000000      1.00000000      1.00000000      1.00000000      1.00000000      1.00000000      1.00000000      1.00000000      1.00000000
      1.00000000      1.00000000      1.00000000      1.00000000      1.00000000      1.00000000      1.00000000      1.00000000      1.00000000      1.00000000      1.00000000      1.00000000      1.00000000      1.00000000      1.00000000      1.00000000      1.00000000      1.00000000      1.00000000      1.00000000
      1.00000000      1.00000000      1.00000000      1.00000000      1.00000000      1.00000000      1.00000000      1.00000000      1.00000000      1.00000000      1.00000000      1.00000000      1.00000000      1.00000000      1.00000000      1.00000000      1.00000000      1.00000000      1.00000000      1.00000000
      1.00000000      1.00000000      1.00000000      1.00000000      1.00000000      1.00000000      1.00000000      1.00000000      1.00000000      1.00000000      1.00000000      1.00000000      1.00000000      1.00000000      1.00000000      1.00000000      1.00000000      1.00000000      1.00000000      1.00000000
      1.00000000      1.00000000      1.00000000      1.00000000      1.00000000      1.00000000      1.00000000      1.00000000</v>
    <i name="NUPDOWN">     -1.00000000</i>
    <i type="logical" name="LSORBIT"> F  </i>
    <v name="SAXIS">      0.00000000      0.00000000      1.00000000</v>
    <i type="logical" name="LSPIRAL"> F  </i>
    <v name="QSPIRAL">      0.00000000      0.00000000      0.00000000</v>
    <i type="logical" name="LZEROZ"> F  </i>
   </separator>
   <separator name="electronic exchange-correlation" >
    <i type="logical" name="LASPH"> F  </i>
    <i type="logical" name="LMETAGGA"> F  </i>
   </separator>
   <separator name="electronic convergence" >
    <i type="int" name="NELM">   100</i>
    <i type="int" name="NELMDL">     0</i>
    <i type="int" name="NELMIN">     4</i>
    <i name="ENINI">    500.00000000</i>
    <separator name="electronic convergence detail" >
     <i type="logical" name="LDIAG"> T  </i>
     <i type="logical" name="LSUBROT"> F  </i>
     <i name="WEIMIN">      0.00100000</i>
     <i name="EBREAK">      0.00000000</i>
     <i name="DEPER">      0.30000000</i>
     <i type="int" name="NRMM">     4</i>
     <i name="TIME">      0.40000000</i>
    </separator>
   </separator>
   <separator name="electronic mixer" >
    <i name="AMIX">      0.40000000</i>
    <i name="BMIX">      1.00000000</i>
    <i name="AMIN">      0.10000000</i>
    <i name="AMIX_MAG">      1.60000000</i>
    <i name="BMIX_MAG">      1.00000000</i>
    <separator name="electronic mixer details" >
     <i type="int" name="IMIX">     4</i>
     <i type="logical" name="MIXFIRST"> F  </i>
     <i type="int" name="MAXMIX">   -45</i>
     <i name="WC">    100.00000000</i>
     <i type="int" name="INIMIX">     1</i>
     <i type="int" name="MIXPRE">     1</i>
     <i type="int" name="MREMOVE">     5</i>
    </separator>
   </separator>
   <separator name="electronic dipolcorrection" >
    <i type="logical" name="LDIPOL"> F  </i>
    <i type="logical" name="LMONO"> F  </i>
    <i type="int" name="IDIPOL">     0</i>
    <i name="EPSILON">      1.00000000</i>
    <v name="DIPOL">   -100.00000000   -100.00000000   -100.00000000</v>
    <i name="EFIELD">      0.00000000</i>
   </separator>
  </separator>
  <separator name="grids" >
   <i type="int" name="NGX">    72</i>
   <i type="int" name="NGY">    64</i>
   <i type="int" name="NGZ">   336</i>
   <i type="int" name="NGXF">   144</i>
   <i type="int" name="NGYF">   128</i>
   <i type="int" name="NGZF">   672</i>
   <i type="logical" name="ADDGRID"> F  </i>
  </separator>
  <separator name="ionic" >
   <i type="int" name="NSW">   500</i>
   <i type="int" name="IBRION">     2</i>
   <i type="int" name="MDALGO">     0</i>
   <i type="int" name="ISIF">     2</i>
   <i name="PSTRESS">      0.00000000</i>
   <i name="EDIFFG">      0.00010000</i>
   <i type="int" name="NFREE">     1</i>
   <i name="POTIM">      0.25000000</i>
   <i name="SMASS">     -3.00000000</i>
   <i name="SCALEE">      1.00000000</i>
  </separator>
  <separator name="ionic md" >
   <i name="TEBEG">      0.00010000</i>
   <i name="TEEND">      0.00010000</i>
   <i type="int" name="NBLOCK">     1</i>
   <i type="int" name="KBLOCK">   500</i>
   <i type="int" name="NPACO">   256</i>
   <i name="APACO">     16.00000000</i>
  </separator>
  <separator name="symmetry" >
   <i type="int" name="ISYM">     2</i>
   <i name="SYMPREC">      0.00001000</i>
  </separator>
  <separator name="dos" >
   <i type="int" name="LORBIT">     0</i>
   <v name="RWIGS">     -1.00000000     -1.00000000</v>
   <i type="int" name="NEDOS">   301</i>
   <i name="EMIN">     10.00000000</i>
   <i name="EMAX">    -10.00000000</i>
   <i name="EFERMI">      0.00000000</i>
  </separator>
  <separator name="writing" >
   <i type="int" name="NWRITE">     2</i>
   <i type="logical" name="LWAVE"> F  </i>
   <i type="logical" name="LDOWNSAMPLE"> F  </i>
   <i type="logical" name="LCHARG"> F  </i>
   <i type="logical" name="LPARD"> F  </i>
   <i type="logical" name="LVTOT"> F  </i>
   <i type="logical" name="LVHAR"> F  </i>
   <i type="logical" name="LELF"> F  </i>
   <i type="logical" name="LOPTICS"> F  </i>
   <v name="STM">      0.00000000      0.00000000      0.00000000      0.00000000      0.00000000      0.00000000      0.00000000</v>
  </separator>
  <separator name="performance" >
   <i type="int" name="NPAR">    10</i>
   <i type="int" name="NSIM">     4</i>
   <i type="int" name="NBLK">    -1</i>
   <i type="logical" name="LPLANE"> T  </i>
   <i type="logical" name="LSCALAPACK"> F  </i>
   <i type="logical" name="LSCAAWARE"> F  </i>
   <i type="logical" name="LSCALU"> F  </i>
   <i type="logical" name="LASYNC"> F  </i>
   <i type="logical" name="LORBITALREAL"> F  </i>
  </separator>
  <separator name="miscellaneous" >
   <i type="int" name="IDIOT">     3</i>
   <i type="int" name="ISPECIAL">     0</i>
   <i type="logical" name="LMUSIC"> F  </i>
   <v name="POMASS">     55.84700000     54.93800000</v>
   <v name="DARWINR">      0.00000000      0.00000000</v>
   <v name="DARWINV">      1.00000000      1.00000000</v>
   <i type="logical" name="LCORR"> T  </i>
  </separator>
  <i type="logical" name="GGA_COMPAT"> T  </i>
  <i type="logical" name="LBERRY"> F  </i>
  <i type="int" name="ICORELEVEL">     0</i>
  <i type="logical" name="LDAU"> F  </i>
  <i type="int" name="I_CONSTRAINED_M">     0</i>
  <separator name="electronic exchange-correlation" >
   <i type="string" name="GGA">--</i>
   <i type="int" name="VOSKOWN">     0</i>
   <i type="logical" name="LHFCALC"> F  </i>
   <i type="string" name="PRECFOCK"></i>
   <i type="logical" name="LSYMGRAD"> F  </i>
   <i type="logical" name="LHFONE"> F  </i>
   <i type="logical" name="LRHFCALC"> F  </i>
   <i type="logical" name="LTHOMAS"> F  </i>
   <i type="logical" name="LMODELHF"> F  </i>
   <i name="ENCUT4O">     -1.00000000</i>
   <i type="int" name="EXXOEP">     0</i>
   <i type="int" name="FOURORBIT">     0</i>
   <i name="AEXX">      0.00000000</i>
   <i name="HFALPHA">      0.00000000</i>
   <i name="MCALPHA">      0.00000000</i>
   <i name="ALDAX">      1.00000000</i>
   <i name="AGGAX">      1.00000000</i>
   <i name="ALDAC">      1.00000000</i>
   <i name="AGGAC">      1.00000000</i>
   <i type="int" name="NKREDX">     1</i>
   <i type="int" name="NKREDY">     1</i>
   <i type="int" name="NKREDZ">     1</i>
   <i type="logical" name="SHIFTRED"> F  </i>
   <i type="logical" name="ODDONLY"> F  </i>
   <i type="logical" name="EVENONLY"> F  </i>
   <i type="int" name="LMAXFOCK">     0</i>
   <i type="int" name="NMAXFOCKAE">     0</i>
   <i type="logical" name="LFOCKAEDFT"> F  </i>
   <i name="HFSCREEN">      0.00000000</i>
   <i name="HFSCREENC">      0.00000000</i>
   <i type="int" name="NBANDSGWLOW">     0</i>
  </separator>
  <separator name="vdW DFT" >
   <i type="logical" name="LUSE_VDW"> F  </i>
   <i name="Zab_VDW">     -0.84910000</i>
   <i name="PARAM1">      0.12340000</i>
   <i name="PARAM2">      1.00000000</i>
   <i name="PARAM3">      0.00000000</i>
  </separator>
  <separator name="model GW" >
   <i type="int" name="MODEL_GW">     0</i>
   <i name="MODEL_EPS0">      7.68123361</i>
   <i name="MODEL_ALPHA">      1.00000000</i>
  </separator>
  <separator name="linear response parameters" >
   <i type="logical" name="LEPSILON"> F  </i>
   <i type="logical" name="LRPA"> F  </i>
   <i type="logical" name="LNABLA"> F  </i>
   <i type="logical" name="LVEL"> F  </i>
   <i type="int" name="KINTER">     0</i>
   <i name="CSHIFT">      0.10000000</i>
   <i name="OMEGAMAX">     -1.00000000</i>
   <i name="DEG_THRESHOLD">      0.00200000</i>
   <i name="RTIME">     -0.10000000</i>
   <i name="WPLASMAI">      0.00000000</i>
   <v name="DFIELD">      0.00000000      0.00000000      0.00000000</v>
   <v name="WPLASMA">      0.00000000      0.00000000      0.00000000      0.00000000      0.00000000      0.00000000      0.00000000      0.00000000      0.00000000</v>
  </separator>
  <separator name="orbital magnetization" >
   <i type="logical" name="NUCIND"> F  </i>
   <v name="MAGPOS">      0.00000000      0.00000000      0.00000000</v>
   <i type="logical" name="LNICSALL"> T  </i>
   <i type="logical" name="ORBITALMAG"> F  </i>
   <i type="logical" name="LMAGBLOCH"> F  </i>
   <i type="logical" name="LCHIMAG"> F  </i>
   <i type="logical" name="LGAUGE"> T  </i>
   <i type="int" name="MAGATOM">     0</i>
   <v name="MAGDIPOL">      0.00000000      0.00000000      0.00000000</v>
   <v name="AVECCONST">      0.00000000      0.00000000      0.00000000</v>
  </separator>
  <separator name="response functions" >
   <i type="logical" name="LADDER"> F  </i>
   <i type="logical" name="LRPAFORCE"> F  </i>
   <i type="logical" name="LFXC"> F  </i>
   <i type="logical" name="LHARTREE"> T  </i>
   <i type="int" name="IBSE">     0</i>
   <v type="int" name="KPOINT">    -1     0     0     0</v>
   <i type="logical" name="LTCTE"> F  </i>
   <i type="logical" name="LTETE"> F  </i>
   <i type="logical" name="LTRIPLET"> F  </i>
   <i type="logical" name="LFXCEPS"> F  </i>
   <i type="logical" name="LFXHEG"> F  </i>
   <i type="int" name="NATURALO">     2</i>
   <i type="logical" name="L2ORDER"> F  </i>
   <i type="logical" name="LMP2LT"> F  </i>
   <i type="logical" name="LUSEW"> F  </i>
   <i name="ENCUTGW">     -2.00000000</i>
   <i name="ENCUTGWSOFT">     -2.00000000</i>
   <i name="ENCUTLF">     -1.00000000</i>
   <i type="int" name="LMAXMP2">    -1</i>
   <i name="SCISSOR">      0.00000000</i>
   <i type="int" name="NOMEGA">     0</i>
   <i type="int" name="NOMEGAR">     0</i>
   <i type="int" name="NBANDSGW">    -1</i>
   <i type="int" name="NBANDSO">    -1</i>
   <i type="int" name="NBANDSV">    -1</i>
   <i type="int" name="NELM">   100</i>
   <i type="int" name="NELMHF">     1</i>
   <i type="int" name="DIM">     3</i>
   <i type="int" name="ANTIRES">     0</i>
   <i name="OMEGAMAX">    -30.00000000</i>
   <i name="OMEGAMIN">    -30.00000000</i>
   <i name="OMEGATL">   -200.00000000</i>
   <i type="int" name="OMEGAGRID">   140</i>
   <i name="CSHIFT">     -0.10000000</i>
   <i type="logical" name="SELFENERGY"> F  </i>
   <i type="logical" name="LSPECTRAL"> F  </i>
   <i type="logical" name="LSPECTRALGW"> F  </i>
   <i type="logical" name="LSINGLES"> F  </i>
   <i type="logical" name="LFERMIGW"> F  </i>
   <i type="logical" name="ODDONLYGW"> F  </i>
   <i type="logical" name="EVENONLYGW"> F  </i>
   <i type="int" name="NKREDLFX">     1</i>
   <i type="int" name="NKREDLFY">     1</i>
   <i type="int" name="NKREDLFZ">     1</i>
   <i type="int" name="MAXMEM">  2800</i>
   <i type="int" name="TELESCOPE">     0</i>
   <i type="int" name="TAUPAR">     1</i>
   <i type="int" name="OMEGAPAR">    -1</i>
   <i name="LAMBDA">      1.00000000</i>
  </separator>
  <separator name="External order field" >
   <i name="OFIELD_KAPPA">      0.00000000</i>
   <v name="OFIELD_K">      0.00000000      0.00000000      0.00000000</v>
   <i name="OFIELD_Q6_NEAR">      0.00000000</i>
   <i name="OFIELD_Q6_FAR">      0.00000000</i>
   <i name="OFIELD_A">      0.00000000</i>
  </separator>
 </parameters>
 <atominfo>
  <atoms>     288 </atoms>
  <types>       2 </types>
  <array name="atoms" >
   <dimension dim="1">ion</dimension>
   <field type="string">element</field>
   <field type="int">atomtype</field>
   <set>
    <rc><c>Fe</c><c>   1</c></rc>
    <rc><c>Fe</c><c>   1</c></rc>
    <rc><c>Fe</c><c>   1</c></rc>
    <rc><c>Fe</c><c>   1</c></rc>
    <rc><c>Fe</c><c>   1</c></rc>
    <rc><c>Fe</c><c>   1</c></rc>
    <rc><c>Fe</c><c>   1</c></rc>
    <rc><c>Fe</c><c>   1</c></rc>
    <rc><c>Fe</c><c>   1</c></rc>
    <rc><c>Fe</c><c>   1</c></rc>
    <rc><c>Fe</c><c>   1</c></rc>
    <rc><c>Fe</c><c>   1</c></rc>
    <rc><c>Fe</c><c>   1</c></rc>
    <rc><c>Fe</c><c>   1</c></rc>
    <rc><c>Fe</c><c>   1</c></rc>
    <rc><c>Fe</c><c>   1</c></rc>
    <rc><c>Fe</c><c>   1</c></rc>
    <rc><c>Fe</c><c>   1</c></rc>
    <rc><c>Fe</c><c>   1</c></rc>
    <rc><c>Fe</c><c>   1</c></rc>
    <rc><c>Fe</c><c>   1</c></rc>
    <rc><c>Fe</c><c>   1</c></rc>
    <rc><c>Fe</c><c>   1</c></rc>
    <rc><c>Fe</c><c>   1</c></rc>
    <rc><c>Fe</c><c>   1</c></rc>
    <rc><c>Fe</c><c>   1</c></rc>
    <rc><c>Fe</c><c>   1</c></rc>
    <rc><c>Fe</c><c>   1</c></rc>
    <rc><c>Fe</c><c>   1</c></rc>
    <rc><c>Fe</c><c>   1</c></rc>
    <rc><c>Fe</c><c>   1</c></rc>
    <rc><c>Fe</c><c>   1</c></rc>
    <rc><c>Fe</c><c>   1</c></rc>
    <rc><c>Fe</c><c>   1</c></rc>
    <rc><c>Fe</c><c>   1</c></rc>
    <rc><c>Fe</c><c>   1</c></rc>
    <rc><c>Fe</c><c>   1</c></rc>
    <rc><c>Fe</c><c>   1</c></rc>
    <rc><c>Fe</c><c>   1</c></rc>
    <rc><c>Fe</c><c>   1</c></rc>
    <rc><c>Fe</c><c>   1</c></rc>
    <rc><c>Fe</c><c>   1</c></rc>
    <rc><c>Fe</c><c>   1</c></rc>
    <rc><c>Fe</c><c>   1</c></rc>
    <rc><c>Fe</c><c>   1</c></rc>
    <rc><c>Fe</c><c>   1</c></rc>
    <rc><c>Fe</c><c>   1</c></rc>
    <rc><c>Fe</c><c>   1</c></rc>
    <rc><c>Fe</c><c>   1</c></rc>
    <rc><c>Fe</c><c>   1</c></rc>
    <rc><c>Fe</c><c>   1</c></rc>
    <rc><c>Fe</c><c>   1</c></rc>
    <rc><c>Fe</c><c>   1</c></rc>
    <rc><c>Fe</c><c>   1</c></rc>
    <rc><c>Fe</c><c>   1</c></rc>
    <rc><c>Fe</c><c>   1</c></rc>
    <rc><c>Fe</c><c>   1</c></rc>
    <rc><c>Fe</c><c>   1</c></rc>
    <rc><c>Fe</c><c>   1</c></rc>
    <rc><c>Fe</c><c>   1</c></rc>
    <rc><c>Fe</c><c>   1</c></rc>
    <rc><c>Fe</c><c>   1</c></rc>
    <rc><c>Fe</c><c>   1</c></rc>
    <rc><c>Fe</c><c>   1</c></rc>
    <rc><c>Fe</c><c>   1</c></rc>
    <rc><c>Fe</c><c>   1</c></rc>
    <rc><c>Fe</c><c>   1</c></rc>
    <rc><c>Fe</c><c>   1</c></rc>
    <rc><c>Fe</c><c>   1</c></rc>
    <rc><c>Fe</c><c>   1</c></rc>
    <rc><c>Fe</c><c>   1</c></rc>
    <rc><c>Fe</c><c>   1</c></rc>
    <rc><c>Fe</c><c>   1</c></rc>
    <rc><c>Fe</c><c>   1</c></rc>
    <rc><c>Fe</c><c>   1</c></rc>
    <rc><c>Fe</c><c>   1</c></rc>
    <rc><c>Fe</c><c>   1</c></rc>
    <rc><c>Fe</c><c>   1</c></rc>
    <rc><c>Fe</c><c>   1</c></rc>
    <rc><c>Fe</c><c>   1</c></rc>
    <rc><c>Fe</c><c>   1</c></rc>
    <rc><c>Fe</c><c>   1</c></rc>
    <rc><c>Fe</c><c>   1</c></rc>
    <rc><c>Fe</c><c>   1</c></rc>
    <rc><c>Fe</c><c>   1</c></rc>
    <rc><c>Fe</c><c>   1</c></rc>
    <rc><c>Fe</c><c>   1</c></rc>
    <rc><c>Fe</c><c>   1</c></rc>
    <rc><c>Fe</c><c>   1</c></rc>
    <rc><c>Fe</c><c>   1</c></rc>
    <rc><c>Fe</c><c>   1</c></rc>
    <rc><c>Fe</c><c>   1</c></rc>
    <rc><c>Fe</c><c>   1</c></rc>
    <rc><c>Fe</c><c>   1</c></rc>
    <rc><c>Fe</c><c>   1</c></rc>
    <rc><c>Fe</c><c>   1</c></rc>
    <rc><c>Fe</c><c>   1</c></rc>
    <rc><c>Fe</c><c>   1</c></rc>
    <rc><c>Fe</c><c>   1</c></rc>
    <rc><c>Fe</c><c>   1</c></rc>
    <rc><c>Fe</c><c>   1</c></rc>
    <rc><c>Fe</c><c>   1</c></rc>
    <rc><c>Fe</c><c>   1</c></rc>
    <rc><c>Fe</c><c>   1</c></rc>
    <rc><c>Fe</c><c>   1</c></rc>
    <rc><c>Fe</c><c>   1</c></rc>
    <rc><c>Fe</c><c>   1</c></rc>
    <rc><c>Fe</c><c>   1</c></rc>
    <rc><c>Fe</c><c>   1</c></rc>
    <rc><c>Fe</c><c>   1</c></rc>
    <rc><c>Fe</c><c>   1</c></rc>
    <rc><c>Fe</c><c>   1</c></rc>
    <rc><c>Fe</c><c>   1</c></rc>
    <rc><c>Fe</c><c>   1</c></rc>
    <rc><c>Fe</c><c>   1</c></rc>
    <rc><c>Fe</c><c>   1</c></rc>
    <rc><c>Fe</c><c>   1</c></rc>
    <rc><c>Fe</c><c>   1</c></rc>
    <rc><c>Fe</c><c>   1</c></rc>
    <rc><c>Fe</c><c>   1</c></rc>
    <rc><c>Fe</c><c>   1</c></rc>
    <rc><c>Fe</c><c>   1</c></rc>
    <rc><c>Fe</c><c>   1</c></rc>
    <rc><c>Fe</c><c>   1</c></rc>
    <rc><c>Fe</c><c>   1</c></rc>
    <rc><c>Fe</c><c>   1</c></rc>
    <rc><c>Fe</c><c>   1</c></rc>
    <rc><c>Fe</c><c>   1</c></rc>
    <rc><c>Fe</c><c>   1</c></rc>
    <rc><c>Fe</c><c>   1</c></rc>
    <rc><c>Fe</c><c>   1</c></rc>
    <rc><c>Fe</c><c>   1</c></rc>
    <rc><c>Fe</c><c>   1</c></rc>
    <rc><c>Fe</c><c>   1</c></rc>
    <rc><c>Fe</c><c>   1</c></rc>
    <rc><c>Fe</c><c>   1</c></rc>
    <rc><c>Fe</c><c>   1</c></rc>
    <rc><c>Fe</c><c>   1</c></rc>
    <rc><c>Fe</c><c>   1</c></rc>
    <rc><c>Fe</c><c>   1</c></rc>
    <rc><c>Fe</c><c>   1</c></rc>
    <rc><c>Fe</c><c>   1</c></rc>
    <rc><c>Fe</c><c>   1</c></rc>
    <rc><c>Fe</c><c>   1</c></rc>
    <rc><c>Fe</c><c>   1</c></rc>
    <rc><c>Fe</c><c>   1</c></rc>
    <rc><c>Fe</c><c>   1</c></rc>
    <rc><c>Fe</c><c>   1</c></rc>
    <rc><c>Fe</c><c>   1</c></rc>
    <rc><c>Fe</c><c>   1</c></rc>
    <rc><c>Fe</c><c>   1</c></rc>
    <rc><c>Fe</c><c>   1</c></rc>
    <rc><c>Fe</c><c>   1</c></rc>
    <rc><c>Fe</c><c>   1</c></rc>
    <rc><c>Fe</c><c>   1</c></rc>
    <rc><c>Fe</c><c>   1</c></rc>
    <rc><c>Fe</c><c>   1</c></rc>
    <rc><c>Fe</c><c>   1</c></rc>
    <rc><c>Fe</c><c>   1</c></rc>
    <rc><c>Fe</c><c>   1</c></rc>
    <rc><c>Fe</c><c>   1</c></rc>
    <rc><c>Fe</c><c>   1</c></rc>
    <rc><c>Fe</c><c>   1</c></rc>
    <rc><c>Fe</c><c>   1</c></rc>
    <rc><c>Fe</c><c>   1</c></rc>
    <rc><c>Fe</c><c>   1</c></rc>
    <rc><c>Fe</c><c>   1</c></rc>
    <rc><c>Fe</c><c>   1</c></rc>
    <rc><c>Fe</c><c>   1</c></rc>
    <rc><c>Fe</c><c>   1</c></rc>
    <rc><c>Fe</c><c>   1</c></rc>
    <rc><c>Fe</c><c>   1</c></rc>
    <rc><c>Fe</c><c>   1</c></rc>
    <rc><c>Fe</c><c>   1</c></rc>
    <rc><c>Fe</c><c>   1</c></rc>
    <rc><c>Fe</c><c>   1</c></rc>
    <rc><c>Fe</c><c>   1</c></rc>
    <rc><c>Fe</c><c>   1</c></rc>
    <rc><c>Fe</c><c>   1</c></rc>
    <rc><c>Fe</c><c>   1</c></rc>
    <rc><c>Fe</c><c>   1</c></rc>
    <rc><c>Fe</c><c>   1</c></rc>
    <rc><c>Fe</c><c>   1</c></rc>
    <rc><c>Fe</c><c>   1</c></rc>
    <rc><c>Fe</c><c>   1</c></rc>
    <rc><c>Fe</c><c>   1</c></rc>
    <rc><c>Fe</c><c>   1</c></rc>
    <rc><c>Fe</c><c>   1</c></rc>
    <rc><c>Fe</c><c>   1</c></rc>
    <rc><c>Fe</c><c>   1</c></rc>
    <rc><c>Fe</c><c>   1</c></rc>
    <rc><c>Fe</c><c>   1</c></rc>
    <rc><c>Fe</c><c>   1</c></rc>
    <rc><c>Fe</c><c>   1</c></rc>
    <rc><c>Fe</c><c>   1</c></rc>
    <rc><c>Fe</c><c>   1</c></rc>
    <rc><c>Fe</c><c>   1</c></rc>
    <rc><c>Fe</c><c>   1</c></rc>
    <rc><c>Fe</c><c>   1</c></rc>
    <rc><c>Fe</c><c>   1</c></rc>
    <rc><c>Fe</c><c>   1</c></rc>
    <rc><c>Fe</c><c>   1</c></rc>
    <rc><c>Fe</c><c>   1</c></rc>
    <rc><c>Fe</c><c>   1</c></rc>
    <rc><c>Fe</c><c>   1</c></rc>
    <rc><c>Fe</c><c>   1</c></rc>
    <rc><c>Fe</c><c>   1</c></rc>
    <rc><c>Fe</c><c>   1</c></rc>
    <rc><c>Fe</c><c>   1</c></rc>
    <rc><c>Fe</c><c>   1</c></rc>
    <rc><c>Fe</c><c>   1</c></rc>
    <rc><c>Fe</c><c>   1</c></rc>
    <rc><c>Fe</c><c>   1</c></rc>
    <rc><c>Fe</c><c>   1</c></rc>
    <rc><c>Fe</c><c>   1</c></rc>
    <rc><c>Fe</c><c>   1</c></rc>
    <rc><c>Fe</c><c>   1</c></rc>
    <rc><c>Fe</c><c>   1</c></rc>
    <rc><c>Fe</c><c>   1</c></rc>
    <rc><c>Fe</c><c>   1</c></rc>
    <rc><c>Fe</c><c>   1</c></rc>
    <rc><c>Fe</c><c>   1</c></rc>
    <rc><c>Fe</c><c>   1</c></rc>
    <rc><c>Fe</c><c>   1</c></rc>
    <rc><c>Fe</c><c>   1</c></rc>
    <rc><c>Fe</c><c>   1</c></rc>
    <rc><c>Fe</c><c>   1</c></rc>
    <rc><c>Fe</c><c>   1</c></rc>
    <rc><c>Fe</c><c>   1</c></rc>
    <rc><c>Fe</c><c>   1</c></rc>
    <rc><c>Fe</c><c>   1</c></rc>
    <rc><c>Fe</c><c>   1</c></rc>
    <rc><c>Fe</c><c>   1</c></rc>
    <rc><c>Fe</c><c>   1</c></rc>
    <rc><c>Fe</c><c>   1</c></rc>
    <rc><c>Fe</c><c>   1</c></rc>
    <rc><c>Fe</c><c>   1</c></rc>
    <rc><c>Fe</c><c>   1</c></rc>
    <rc><c>Fe</c><c>   1</c></rc>
    <rc><c>Fe</c><c>   1</c></rc>
    <rc><c>Fe</c><c>   1</c></rc>
    <rc><c>Fe</c><c>   1</c></rc>
    <rc><c>Fe</c><c>   1</c></rc>
    <rc><c>Fe</c><c>   1</c></rc>
    <rc><c>Fe</c><c>   1</c></rc>
    <rc><c>Fe</c><c>   1</c></rc>
    <rc><c>Fe</c><c>   1</c></rc>
    <rc><c>Fe</c><c>   1</c></rc>
    <rc><c>Fe</c><c>   1</c></rc>
    <rc><c>Fe</c><c>   1</c></rc>
    <rc><c>Fe</c><c>   1</c></rc>
    <rc><c>Fe</c><c>   1</c></rc>
    <rc><c>Fe</c><c>   1</c></rc>
    <rc><c>Fe</c><c>   1</c></rc>
    <rc><c>Fe</c><c>   1</c></rc>
    <rc><c>Fe</c><c>   1</c></rc>
    <rc><c>Fe</c><c>   1</c></rc>
    <rc><c>Fe</c><c>   1</c></rc>
    <rc><c>Fe</c><c>   1</c></rc>
    <rc><c>Fe</c><c>   1</c></rc>
    <rc><c>Fe</c><c>   1</c></rc>
    <rc><c>Fe</c><c>   1</c></rc>
    <rc><c>Fe</c><c>   1</c></rc>
    <rc><c>Fe</c><c>   1</c></rc>
    <rc><c>Fe</c><c>   1</c></rc>
    <rc><c>Fe</c><c>   1</c></rc>
    <rc><c>Fe</c><c>   1</c></rc>
    <rc><c>Fe</c><c>   1</c></rc>
    <rc><c>Fe</c><c>   1</c></rc>
    <rc><c>Fe</c><c>   1</c></rc>
    <rc><c>Fe</c><c>   1</c></rc>
    <rc><c>Fe</c><c>   1</c></rc>
    <rc><c>Fe</c><c>   1</c></rc>
    <rc><c>Mn</c><c>   2</c></rc>
    <rc><c>Mn</c><c>   2</c></rc>
    <rc><c>Mn</c><c>   2</c></rc>
    <rc><c>Mn</c><c>   2</c></rc>
    <rc><c>Mn</c><c>   2</c></rc>
    <rc><c>Mn</c><c>   2</c></rc>
    <rc><c>Mn</c><c>   2</c></rc>
    <rc><c>Mn</c><c>   2</c></rc>
    <rc><c>Mn</c><c>   2</c></rc>
    <rc><c>Mn</c><c>   2</c></rc>
    <rc><c>Mn</c><c>   2</c></rc>
    <rc><c>Mn</c><c>   2</c></rc>
    <rc><c>Mn</c><c>   2</c></rc>
    <rc><c>Mn</c><c>   2</c></rc>
    <rc><c>Mn</c><c>   2</c></rc>
   </set>
  </array>
  <array name="atomtypes" >
   <dimension dim="1">type</dimension>
   <field type="int">atomspertype</field>
   <field type="string">element</field>
   <field>mass</field>
   <field>valence</field>
   <field type="string">pseudopotential</field>
   <set>
    <rc><c> 273</c><c>Fe</c><c>     55.84700000</c><c>      8.00000000</c><c>  PAW_PBE Fe_GW 31Mar2010               </c></rc>
    <rc><c>  15</c><c>Mn</c><c>     54.93800000</c><c>      7.00000000</c><c>  PAW_PBE Mn_GW 31Mar2010               </c></rc>
   </set>
  </array>
 </atominfo>
 <structure name="initialpos" >
  <crystal>
   <varray name="basis" >
    <v>       9.72667800       0.00000000       0.00000000 </v>
    <v>       0.00000000       8.42355000       0.00000000 </v>
    <v>       0.00000000       0.00000000      45.00000000 </v>
   </varray>
   <i name="volume">   3686.99213101 </i>
   <varray name="rec_basis" >
    <v>       0.10281002       0.00000000       0.00000000 </v>
    <v>       0.00000000       0.11871479       0.00000000 </v>
    <v>       0.00000000       0.00000000       0.02222222 </v>
   </varray>
  </crystal>
  <varray name="positions" >
   <v>       0.56271269       0.20857181       0.83116132 </v>
   <v>       0.81263867       0.37218648       0.52138650 </v>
   <v>       0.56267292       0.53642618       0.25777454 </v>
   <v>       0.81128441       0.86989486       0.16873202 </v>
   <v>       0.56235461       0.20754340       0.69803608 </v>
   <v>       0.18770561       0.62513105       0.78635334 </v>
   <v>       0.31223138       0.53603651       0.12674539 </v>
   <v>       0.81309867       0.70575576       0.56501349 </v>
   <v>       0.18776755       0.45288347       0.21376815 </v>
   <v>       0.68753409       0.61946885       0.30194082 </v>
   <v>       0.43772234       0.79174377       0.87324457 </v>
   <v>       0.06271078       0.20822440       0.83117101 </v>
   <v>       0.18750144       0.28789375       0.39022319 </v>
   <v>       0.31161841       0.03512830       0.12684839 </v>
   <v>       0.18782179       0.45848392       0.83107505 </v>
   <v>       0.56266025       0.37478705       0.78622570 </v>
   <v>       0.18728744       0.12556002       0.78620271 </v>
   <v>       0.68737128       0.95841361       0.83104182 </v>
   <v>       0.31256359       0.70228468       0.21371987 </v>
   <v>       0.31217915       0.04216785       0.87353248 </v>
   <v>       0.68764747       0.28977549       0.60984218 </v>
   <v>       0.56221207       0.37241081       0.52133534 </v>
   <v>       0.31249676       0.53794036       0.39020746 </v>
   <v>       0.81301139       0.70541435       0.47862563 </v>
   <v>       0.81296099       0.20621167       0.56506526 </v>
   <v>       0.06263983       0.54005292       0.60969574 </v>
   <v>       0.06240701       0.70249351       0.21362787 </v>
   <v>       0.31244465       0.70479999       0.47851009 </v>
   <v>       0.43768557       0.78751069       0.39019432 </v>
   <v>       0.43742170       0.78654572       0.25783082 </v>
   <v>       0.06212872       0.20399203       0.34631104 </v>
   <v>       0.56247869       0.36975543       0.30197932 </v>
   <v>       0.18761062       0.12369555       0.65364418 </v>
   <v>       0.81258069       0.87511987       0.78633453 </v>
   <v>       0.31266205       0.87143874       0.43485368 </v>
   <v>       0.31250572       0.70789340       0.69811493 </v>
   <v>       0.31241367       0.03642626       0.25779766 </v>
   <v>       0.68752419       0.78672944       0.25789167 </v>
   <v>       0.18745445       0.12164748       0.43484917 </v>
   <v>       0.06241516       0.70598664       0.56513680 </v>
   <v>       0.81249297       0.36992773       0.30195525 </v>
   <v>       0.43731386       0.95899689       0.83112388 </v>
   <v>       0.06247655       0.37358721       0.65364849 </v>
   <v>       0.18754080       0.29005370       0.60969346 </v>
   <v>       0.81251436       0.70781254       0.69806714 </v>
   <v>       0.81264523       0.70786106       0.83105209 </v>
   <v>       0.31252678       0.54167107       0.74216040 </v>
   <v>       0.18748028       0.45530733       0.47868481 </v>
   <v>       0.93703371       0.29146632       0.87315342 </v>
   <v>       0.93742088       0.95810689       0.69800516 </v>
   <v>       0.81248674       0.87272758       0.52129300 </v>
   <v>       0.68767804       0.95578862       0.56512382 </v>
   <v>       0.31225720       0.36983500       0.16900824 </v>
   <v>       0.81259808       0.53617942       0.12674534 </v>
   <v>       0.93760838       0.62147021       0.43474783 </v>
   <v>       0.68830472       0.78656929       0.12666437 </v>
   <v>       0.81261660       0.20898974       0.83106959 </v>
   <v>       0.18721327       0.28665438       0.12671137 </v>
   <v>       0.81196591       0.04160590       0.87317797 </v>
   <v>       0.93758673       0.28792698       0.39028805 </v>
   <v>       0.18762902       0.29147872       0.74213605 </v>
   <v>       0.18737214       0.79167780       0.74221149 </v>
   <v>       0.56251802       0.54238733       0.87315584 </v>
   <v>       0.06282058       0.04140149       0.87342644 </v>
   <v>       0.31236205       0.53983461       0.60975178 </v>
   <v>       0.31249135       0.53646911       0.25780237 </v>
   <v>       0.18795799       0.78609762       0.12671726 </v>
   <v>       0.68762264       0.95779039       0.69825240 </v>
   <v>       0.18747858       0.62030282       0.30189584 </v>
   <v>       0.43750655       0.62377693       0.65366282 </v>
   <v>       0.56283058       0.53969159       0.60968993 </v>
   <v>       0.68733251       0.45769565       0.69799039 </v>
   <v>       0.31260237       0.37059314       0.30199801 </v>
   <v>       0.31338307       0.86964883       0.16883880 </v>
   <v>       0.43764899       0.95767109       0.69806909 </v>
   <v>       0.43803513       0.45639979       0.56514946 </v>
   <v>       0.56228937       0.03630578       0.25779739 </v>
   <v>       0.56276270       0.20403634       0.34637172 </v>
   <v>       0.06221097       0.54159824       0.74223998 </v>
   <v>       0.43710206       0.45270021       0.21370492 </v>
   <v>       0.68744873       0.45887826       0.83102863 </v>
   <v>       0.93749857       0.78629542       0.25783877 </v>
   <v>       0.18750491       0.78790759       0.39026317 </v>
   <v>       0.43716897       0.29217185       0.87336274 </v>
   <v>       0.81273128       0.36986304       0.16893771 </v>
   <v>       0.06212223       0.20547091       0.47854811 </v>
   <v>       0.81268112       0.20555651       0.47859834 </v>
   <v>       0.81246057       0.86995082       0.30199391 </v>
   <v>       0.81251790       0.20392171       0.34638268 </v>
   <v>       0.18749230       0.28639197       0.25788026 </v>
   <v>       0.31289782       0.87530506       0.78626948 </v>
   <v>       0.43742683       0.29153331       0.74210803 </v>
   <v>       0.06241070       0.70785151       0.69803392 </v>
   <v>       0.81264173       0.37145886       0.43475996 </v>
   <v>       0.31268448       0.04025481       0.60978221 </v>
   <v>       0.56267965       0.87175714       0.43483966 </v>
   <v>       0.43760705       0.61947123       0.16898282 </v>
   <v>       0.31202444       0.20323694       0.21392587 </v>
   <v>       0.06262015       0.03603964       0.25783113 </v>
   <v>       0.93716796       0.78769605       0.39018529 </v>
   <v>       0.06266228       0.03645961       0.12679797 </v>
   <v>       0.81242542       0.53642283       0.25782329 </v>
   <v>       0.56260856       0.03763350       0.39029638 </v>
   <v>       0.56253697       0.04014984       0.60977813 </v>
   <v>       0.31283762       0.20558080       0.47850352 </v>
   <v>       0.06235067       0.87376614       0.65355419 </v>
   <v>       0.68762565       0.45601660       0.56511004 </v>
   <v>       0.56231636       0.37143362       0.43478577 </v>
   <v>       0.81235279       0.53765148       0.39019275 </v>
   <v>       0.43711248       0.95258685       0.21364250 </v>
   <v>       0.56264751       0.87032093       0.16873610 </v>
   <v>       0.81242980       0.87392871       0.65365600 </v>
   <v>       0.93800196       0.12225069       0.52128753 </v>
   <v>       0.81249621       0.87167996       0.43477036 </v>
   <v>       0.31231799       0.37405967       0.65369840 </v>
   <v>       0.18755808       0.61900788       0.16895282 </v>
   <v>       0.81241209       0.03769320       0.39028118 </v>
   <v>       0.68750650       0.12395391       0.65368953 </v>
   <v>       0.68763356       0.45478421       0.47867010 </v>
   <v>       0.56235951       0.20536139       0.47870339 </v>
   <v>       0.81258312       0.70398619       0.34639983 </v>
   <v>       0.68726765       0.12527338       0.78631750 </v>
   <v>       0.93770811       0.12498811       0.78639051 </v>
   <v>       0.06237270       0.20255808       0.21379598 </v>
   <v>       0.56201820       0.70538846       0.47864752 </v>
   <v>       0.06269098       0.20782040       0.69805614 </v>
   <v>       0.18742847       0.95809520       0.69821717 </v>
   <v>       0.18796057       0.29144632       0.87337446 </v>
   <v>       0.81261882       0.03613001       0.25781831 </v>
   <v>       0.81264632       0.70294496       0.21373433 </v>
   <v>       0.93756018       0.29203267       0.74218079 </v>
   <v>       0.06258153       0.04035922       0.60974783 </v>
   <v>       0.93791469       0.62212256       0.52129650 </v>
   <v>       0.81252783       0.54155125       0.74215656 </v>
   <v>       0.68747221       0.29185528       0.74219239 </v>
   <v>       0.43752161       0.45777207       0.69812022 </v>
   <v>       0.06188111       0.70929922       0.83119126 </v>
   <v>       0.93758461       0.45367383       0.34637796 </v>
   <v>       0.68746298       0.62173904       0.43503367 </v>
   <v>       0.06255215       0.86994838       0.30191307 </v>
   <v>       0.56263008       0.70388590       0.34641300 </v>
   <v>       0.06251670       0.70481019       0.47853773 </v>
   <v>       0.31271717       0.70920601       0.83115239 </v>
   <v>       0.68743243       0.45370010       0.34627340 </v>
   <v>       0.56300540       0.70850438       0.83104408 </v>
   <v>       0.18733440       0.45383338       0.34638702 </v>
   <v>       0.56296357       0.04185812       0.87322919 </v>
   <v>       0.31254333       0.20403564       0.34631792 </v>
   <v>       0.68757892       0.78730211       0.39027472 </v>
   <v>       0.93742324       0.45755017       0.69807734 </v>
   <v>       0.93751434       0.45322532       0.21379299 </v>
   <v>       0.93796935       0.12021126       0.30202826 </v>
   <v>       0.93741860       0.28620333       0.25786515 </v>
   <v>       0.18782200       0.45788883       0.69791343 </v>
   <v>       0.68722989       0.79205472       0.87325227 </v>
   <v>       0.31232246       0.70610418       0.56511415 </v>
   <v>       0.93702237       0.45545705       0.47862034 </v>
   <v>       0.31235743       0.37504101       0.78621845 </v>
   <v>       0.93735335       0.78607380       0.12675009 </v>
   <v>       0.43681144       0.12219076       0.52131161 </v>
   <v>       0.43708255       0.12030522       0.30204813 </v>
   <v>       0.43752027       0.62507316       0.78635319 </v>
   <v>       0.43742127       0.62139585       0.43475783 </v>
   <v>       0.68700947       0.11862832       0.16878172 </v>
   <v>       0.06251401       0.87528192       0.78622009 </v>
   <v>       0.43771299       0.28642604       0.25790175 </v>
   <v>       0.56215875       0.87553649       0.78631803 </v>
   <v>       0.93703934       0.45906830       0.83114465 </v>
   <v>       0.81260059       0.20776942       0.69808071 </v>
   <v>       0.68764554       0.45317016       0.21368849 </v>
   <v>       0.06260030       0.53801981       0.39019772 </v>
   <v>       0.06237227       0.37050488       0.30203006 </v>
   <v>       0.18740209       0.12018215       0.30194963 </v>
   <v>       0.06185617       0.54213448       0.87319922 </v>
   <v>       0.68751979       0.28758559       0.39032903 </v>
   <v>       0.93760434       0.62361399       0.65367471 </v>
   <v>       0.93741635       0.61909584       0.16896512 </v>
   <v>       0.56250207       0.87284792       0.52136028 </v>
   <v>       0.93817035       0.11982255       0.16898445 </v>
   <v>       0.56212231       0.70588979       0.56504548 </v>
   <v>       0.93755108       0.79111992       0.74214114 </v>
   <v>       0.68753515       0.62382207       0.65354358 </v>
   <v>       0.06253635       0.04159357       0.74214329 </v>
   <v>       0.31256360       0.20777339       0.69805844 </v>
   <v>       0.43756833       0.95405419       0.34633847 </v>
   <v>       0.43731073       0.45803063       0.83102083 </v>
   <v>       0.06259750       0.37492945       0.78634419 </v>
   <v>       0.43778940       0.12485911       0.78629717 </v>
   <v>       0.93750542       0.95810210       0.83103466 </v>
   <v>       0.43719881       0.61989782       0.30192826 </v>
   <v>       0.68740483       0.95486361       0.47857336 </v>
   <v>       0.31311542       0.87219968       0.52120410 </v>
   <v>       0.43777233       0.95605521       0.56513197 </v>
   <v>       0.43731894       0.28765221       0.39028762 </v>
   <v>       0.68766143       0.12227342       0.52131524 </v>
   <v>       0.06243284       0.86929414       0.16897478 </v>
   <v>       0.81237575       0.04166760       0.74216544 </v>
   <v>       0.18752225       0.78618542       0.25781614 </v>
   <v>       0.93786781       0.95264366       0.21365043 </v>
   <v>       0.43815037       0.11871374       0.16881738 </v>
   <v>       0.68746980       0.95413640       0.34638511 </v>
   <v>       0.43761097       0.12370772       0.65366055 </v>
   <v>       0.81271303       0.37374330       0.65374051 </v>
   <v>       0.06233079       0.20636001       0.56520244 </v>
   <v>       0.43708767       0.62210646       0.52128198 </v>
   <v>       0.43755947       0.45404570       0.34638695 </v>
   <v>       0.06238012       0.53591286       0.25783558 </v>
   <v>       0.93699850       0.95564355       0.47848983 </v>
   <v>       0.18685796       0.11967260       0.16907214 </v>
   <v>       0.56248753       0.36878393       0.16880118 </v>
   <v>       0.56235666       0.70221811       0.21378890 </v>
   <v>       0.68756785       0.12169385       0.43488996 </v>
   <v>       0.43801047       0.28739071       0.12684288 </v>
   <v>       0.18751165       0.12320064       0.52126648 </v>
   <v>       0.06212606       0.87167882       0.43491553 </v>
   <v>       0.81248479       0.37500643       0.78626846 </v>
   <v>       0.93775439       0.28678368       0.12668895 </v>
   <v>       0.68739731       0.28603636       0.25782900 </v>
   <v>       0.68719148       0.62524616       0.78635355 </v>
   <v>       0.31281243       0.37229064       0.52133825 </v>
   <v>       0.31260449       0.87395989       0.65360828 </v>
   <v>       0.81249404       0.04020126       0.60977225 </v>
   <v>       0.06226687       0.37233321       0.52131687 </v>
   <v>       0.31236205       0.20653737       0.56518910 </v>
   <v>       0.56259461       0.20287446       0.21367338 </v>
   <v>       0.18745828       0.78997797       0.60971906 </v>
   <v>       0.56280824       0.54128367       0.74218835 </v>
   <v>       0.43757586       0.28984216       0.60972259 </v>
   <v>       0.56244658       0.53758814       0.39022828 </v>
   <v>       0.93739895       0.12362324       0.65370550 </v>
   <v>       0.43629688       0.78598895       0.12672054 </v>
   <v>       0.18746094       0.62276097       0.52123961 </v>
   <v>       0.18747979       0.62180175       0.43484239 </v>
   <v>       0.06244323       0.37164487       0.43485876 </v>
   <v>       0.68697868       0.28792929       0.12678840 </v>
   <v>       0.68751888       0.79117806       0.74214803 </v>
   <v>       0.68797928       0.29153575       0.87316176 </v>
   <v>       0.18754426       0.79233936       0.87342249 </v>
   <v>       0.31256429       0.37127613       0.43492568 </v>
   <v>       0.56235475       0.86999449       0.30198521 </v>
   <v>       0.31300890       0.54133078       0.87314370 </v>
   <v>       0.81230129       0.53990296       0.60972241 </v>
   <v>       0.93740333       0.29002572       0.60975489 </v>
   <v>       0.18750394       0.95280346       0.21369153 </v>
   <v>       0.56266567       0.70787117       0.69805612 </v>
   <v>       0.93742730       0.79166141       0.87333585 </v>
   <v>       0.68742915       0.78959027       0.60971318 </v>
   <v>       0.56257529       0.37374415       0.65372590 </v>
   <v>       0.18750138       0.95399752       0.34635839 </v>
   <v>       0.06246149       0.53549424       0.12662599 </v>
   <v>       0.81251378       0.54205110       0.87329340 </v>
   <v>       0.56267111       0.53635055       0.12675297 </v>
   <v>       0.68732834       0.61926731       0.16909226 </v>
   <v>       0.93691852       0.95609400       0.56514504 </v>
   <v>       0.81304688       0.20323509       0.21385171 </v>
   <v>       0.43799599       0.95547720       0.47849770 </v>
   <v>       0.06187534       0.87228092       0.52122288 </v>
   <v>       0.93684613       0.45654350       0.56515077 </v>
   <v>       0.93767264       0.61994624       0.30195383 </v>
   <v>       0.18745721       0.62390908       0.65363126 </v>
   <v>       0.81301511       0.03501613       0.12673556 </v>
   <v>       0.43753807       0.79150604       0.74218339 </v>
   <v>       0.31231456       0.03759037       0.39022988 </v>
   <v>       0.56290656       0.04156393       0.74216486 </v>
   <v>       0.06226758       0.70382327       0.34633375 </v>
   <v>       0.56265213       0.87356462       0.65370751 </v>
   <v>       0.18765193       0.45642564       0.56505019 </v>
   <v>       0.06256982       0.03777303       0.39028401 </v>
   <v>       0.43779302       0.45545726       0.47858078 </v>
   <v>       0.93741187       0.95424649       0.34635399 </v>
   <v>       0.43721814       0.12124419       0.43485715 </v>
   <v>       0.31254696       0.86998154       0.30192324 </v>
   <v>       0.93772944       0.12151732       0.43484010 </v>
   <v>       0.68743738       0.95308369       0.21391089 </v>
   <v>       0.68746959       0.11983622       0.30193931 </v>
   <v>       0.18754188       0.95533114       0.47874611 </v>
   <v>       0.06252377       0.36954248       0.16833213 </v>
   <v>       0.31240673       0.70390603       0.34640865 </v>
   <v>       0.18699619       0.95814728       0.83174030 </v>
   <v>       0.31252822       0.20937432       0.83167792 </v>
   <v>       0.18765966       0.95565729       0.56481063 </v>
   <v>       0.56230108       0.20628506       0.56507465 </v>
   <v>       0.68756121       0.62247243       0.52114206 </v>
   <v>       0.43722908       0.79024395       0.60982645 </v>
   <v>       0.93799756       0.79041289       0.60988386 </v>
   <v>       0.56274029       0.03610253       0.12690335 </v>
   <v>       0.93757052       0.62534954       0.78607661 </v>
   <v>       0.31226802       0.04162206       0.74220032 </v>
  </varray>
 </structure>
 <calculation>
  <scstep>
   <time name="dav">  145.20  145.20</time>
   <time name="total">  145.63  145.63</time>
   <energy>
    <i name="alphaZ">  16277.55763135 </i>
    <i name="ewald"> 774025.27578900 </i>
    <i name="hartreedc">-964262.45183548 </i>
    <i name="XCdc">  -6524.52597219 </i>
    <i name="pawpsdc"> 162148.49262465 </i>
    <i name="pawaedc">-159453.03229289 </i>
    <i name="eentropy">     -0.96264511 </i>
    <i name="bandstr">  39732.93439284 </i>
    <i name="atom"> 168497.18126305 </i>
    <i name="e_fr_energy">  30440.46895523 </i>
    <i name="e_wo_entrp">  30441.43160034 </i>
    <i name="e_0_energy">  30440.95027778 </i>
   </energy>
  </scstep>
  <scstep>
   <time name="dav">  142.27  142.27</time>
   <time name="total">  142.28  142.28</time>
   <energy>
    <i name="e_fr_energy">   1534.29280132 </i>
    <i name="e_wo_entrp">   1535.67442182 </i>
    <i name="e_0_energy">   1534.98361157 </i>
   </energy>
  </scstep>
  <scstep>
   <time name="dav">  178.65  178.64</time>
   <time name="total">  178.66  178.65</time>
   <energy>
    <i name="e_fr_energy">  -1896.36057904 </i>
    <i name="e_wo_entrp">  -1892.84151999 </i>
    <i name="e_0_energy">  -1894.60104951 </i>
   </energy>
  </scstep>
  <scstep>
   <time name="dav">  216.03  216.03</time>
   <time name="total">  216.04  216.03</time>
   <energy>
    <i name="e_fr_energy">  -2609.81519910 </i>
    <i name="e_wo_entrp">  -2606.35727132 </i>
    <i name="e_0_energy">  -2608.08623521 </i>
   </energy>
  </scstep>
  <scstep>
   <time name="dav">  207.04  207.03</time>
   <time name="total">  211.73  211.72</time>
   <energy>
    <i name="e_fr_energy">  -2739.47809367 </i>
    <i name="e_wo_entrp">  -2735.95183770 </i>
    <i name="e_0_energy">  -2737.71496569 </i>
   </energy>
  </scstep>
  <scstep>
   <time name="diag">   30.98   30.97</time>
   <time name="diis">   75.14   75.13</time>
   <time name="orth">    8.60    8.60</time>
   <time name="total">  120.02  120.02</time>
   <energy>
    <i name="e_fr_energy">  -6633.80223247 </i>
    <i name="e_wo_entrp">  -6630.39265600 </i>
    <i name="e_0_energy">  -6632.09744423 </i>
   </energy>
  </scstep>
  <scstep>
   <time name="diag">   29.11   29.11</time>
   <time name="diis">   76.92   76.92</time>
   <time name="orth">    8.77    8.77</time>
   <time name="total">  119.80  119.80</time>
   <energy>
    <i name="e_fr_energy">  -5471.79390847 </i>
    <i name="e_wo_entrp">  -5467.10605933 </i>
    <i name="e_0_energy">  -5469.44998390 </i>
   </energy>
  </scstep>
  <scstep>
[...]
       <r>     5.8085     0.0000  2760.0000 </r>
       <r>     5.8512     0.0000  2760.0000 </r>
       <r>     5.8939     0.0000  2760.0000 </r>
       <r>     5.9366     0.0000  2760.0000 </r>
       <r>     5.9793     0.0000  2760.0000 </r>
       <r>     6.0220     0.0000  2760.0000 </r>
       <r>     6.0648     0.0000  2760.0000 </r>
       <r>     6.1075     0.0000  2760.0000 </r>
       <r>     6.1502     0.0000  2760.0000 </r>
       <r>     6.1929     0.0000  2760.0000 </r>
       <r>     6.2356     0.0000  2760.0000 </r>
       <r>     6.2783     0.0000  2760.0000 </r>
       <r>     6.3210     0.0000  2760.0000 </r>
       <r>     6.3638     0.0000  2760.0000 </r>
       <r>     6.4065     0.0000  2760.0000 </r>
       <r>     6.4492     0.0000  2760.0000 </r>
       <r>     6.4919     0.0000  2760.0000 </r>
       <r>     6.5346     0.0000  2760.0000 </r>
       <r>     6.5773     0.0000  2760.0000 </r>
       <r>     6.6200     0.0000  2760.0000 </r>
       <r>     6.6628     0.0000  2760.0000 </r>
       <r>     6.7055     0.0000  2760.0000 </r>
       <r>     6.7482     0.0000  2760.0000 </r>
      </set>
     </set>
    </array>
   </total>
  </dos>
 </calculation>
 <structure name="finalpos" >
  <crystal>
   <varray name="basis" >
    <v>       9.72667800       0.00000000       0.00000000 </v>
    <v>       0.00000000       8.42355000       0.00000000 </v>
    <v>       0.00000000       0.00000000      45.00000000 </v>
   </varray>
   <i name="volume">   3686.99213101 </i>
   <varray name="rec_basis" >
    <v>       0.10281002       0.00000000       0.00000000 </v>
    <v>       0.00000000       0.11871479       0.00000000 </v>
    <v>       0.00000000       0.00000000       0.02222222 </v>
   </varray>
  </crystal>
  <varray name="positions" >
   <v>       0.56271685       0.20824453       0.83125446 </v>
   <v>       0.81263226       0.37216662       0.52139217 </v>
   <v>       0.56268922       0.53685141       0.25770854 </v>
   <v>       0.81128834       0.87012806       0.16863397 </v>
   <v>       0.56235476       0.20724017       0.69809265 </v>
   <v>       0.18769214       0.62473384       0.78642688 </v>
   <v>       0.31223981       0.53623715       0.12664550 </v>
   <v>       0.81308841       0.70567354       0.56504119 </v>
   <v>       0.18778334       0.45332781       0.21368489 </v>
   <v>       0.68756076       0.61979482       0.30189148 </v>
   <v>       0.43775645       0.79144363       0.87333437 </v>
   <v>       0.06273546       0.20788816       0.83126026 </v>
   <v>       0.18749737       0.28805229       0.39018665 </v>
   <v>       0.31165732       0.03529580       0.12675420 </v>
   <v>       0.18786197       0.45815391       0.83115766 </v>
   <v>       0.56266909       0.37436362       0.78630439 </v>
   <v>       0.18728517       0.12509266       0.78627394 </v>
   <v>       0.68737627       0.95808112       0.83113319 </v>
   <v>       0.31259126       0.70272486       0.21364546 </v>
   <v>       0.31218281       0.04184481       0.87361524 </v>
   <v>       0.68762773       0.28967795       0.60988059 </v>
   <v>       0.56222257       0.37239458       0.52134119 </v>
   <v>       0.31249061       0.53808787       0.39017226 </v>
   <v>       0.81299034       0.70543820       0.47861864 </v>
   <v>       0.81293830       0.20612364       0.56509286 </v>
   <v>       0.06264212       0.53994811       0.60973605 </v>
   <v>       0.06242459       0.70291284       0.21354851 </v>
   <v>       0.31242447       0.70486349       0.47850291 </v>
   <v>       0.43768603       0.78765912       0.39015997 </v>
   <v>       0.43742969       0.78696566       0.25776506 </v>
   <v>       0.06214303       0.20422785       0.34626699 </v>
   <v>       0.56247632       0.37009752       0.30192649 </v>
   <v>       0.18760025       0.12352481       0.65369164 </v>
   <v>       0.81256521       0.87465816       0.78640999 </v>
   <v>       0.31264838       0.87153082       0.43483118 </v>
   <v>       0.31250367       0.70759255       0.69816641 </v>
   <v>       0.31240176       0.03684932       0.25773188 </v>
   <v>       0.68752900       0.78715438       0.25782617 </v>
   <v>       0.18744960       0.12171843       0.43482192 </v>
   <v>       0.06241752       0.70590973       0.56516220 </v>
   <v>       0.81250058       0.37023645       0.30189929 </v>
   <v>       0.43731681       0.95867299       0.83121162 </v>
   <v>       0.06248319       0.37342823       0.65370001 </v>
   <v>       0.18753907       0.28994267       0.60972964 </v>
   <v>       0.81251233       0.70749313       0.69812337 </v>
   <v>       0.81263783       0.70752503       0.83114766 </v>
   <v>       0.31252932       0.54125471       0.74222505 </v>
   <v>       0.18748426       0.45536499       0.47867683 </v>
   <v>       0.93700831       0.29120283       0.87324917 </v>
   <v>       0.93742401       0.95780109       0.69806182 </v>
   <v>       0.81247699       0.87270291       0.52130496 </v>
   <v>       0.68767346       0.95570391       0.56515830 </v>
   <v>       0.31227349       0.37010444       0.16890972 </v>
   <v>       0.81257226       0.53637366       0.12664942 </v>
   <v>       0.93759960       0.62156227       0.43471954 </v>
   <v>       0.68825219       0.78675788       0.12656976 </v>
   <v>       0.81261335       0.20866435       0.83116348 </v>
   <v>       0.18717700       0.28684148       0.12661699 </v>
   <v>       0.81194362       0.04135439       0.87327027 </v>
   <v>       0.93759064       0.28810425       0.39024865 </v>
   <v>       0.18763234       0.29109731       0.74220701 </v>
   <v>       0.18737560       0.79130512       0.74228568 </v>
   <v>       0.56252473       0.54210066       0.87325252 </v>
   <v>       0.06281594       0.04115247       0.87351116 </v>
   <v>       0.31235456       0.53971529       0.60979359 </v>
   <v>       0.31249932       0.53688432       0.25773563 </v>
   <v>       0.18798196       0.78630586       0.12661574 </v>
   <v>       0.68761546       0.95748289       0.69830661 </v>
   <v>       0.18749328       0.62063055       0.30184371 </v>
   <v>       0.43749974       0.62361069       0.65371706 </v>
   <v>       0.56281880       0.53957432       0.60973070 </v>
   <v>       0.68733031       0.45739901       0.69805322 </v>
   <v>       0.31260229       0.37092928       0.30193974 </v>
   <v>       0.31338862       0.86987496       0.16874155 </v>
   <v>       0.43765103       0.95738675       0.69812143 </v>
   <v>       0.43801406       0.45630647       0.56517337 </v>
   <v>       0.56228410       0.03672251       0.25773148 </v>
   <v>       0.56275620       0.20425679       0.34632543 </v>
   <v>       0.06221600       0.54122557       0.74230621 </v>
   <v>       0.43710567       0.45312790       0.21362888 </v>
   <v>       0.68745435       0.45852399       0.83112579 </v>
   <v>       0.93751233       0.78670371       0.25777125 </v>
   <v>       0.18750451       0.78807643       0.39022221 </v>
   <v>       0.43713948       0.29189769       0.87345093 </v>
   <v>       0.81273074       0.37014110       0.16885155 </v>
   <v>       0.06211431       0.20547599       0.47854253 </v>
   <v>       0.81268709       0.20558744       0.47859312 </v>
   <v>       0.81246484       0.87027516       0.30194323 </v>
   <v>       0.81252660       0.20414339       0.34633523 </v>
   <v>       0.18751251       0.28679111       0.25780491 </v>
   <v>       0.31291657       0.87489011       0.78634819 </v>
   <v>       0.43742107       0.29113258       0.74217452 </v>
   <v>       0.06242070       0.70757440       0.69809386 </v>
   <v>       0.81264673       0.37153805       0.43473588 </v>
   <v>       0.31267665       0.04013077       0.60982025 </v>
   <v>       0.56268576       0.87180922       0.43481496 </v>
   <v>       0.43760481       0.61972584       0.16889131 </v>
   <v>       0.31203798       0.20366677       0.21384262 </v>
   <v>       0.06262463       0.03645254       0.25776398 </v>
   <v>       0.93715676       0.78786427       0.39014979 </v>
   <v>       0.06267646       0.03667115       0.12669904 </v>
   <v>       0.81241793       0.53682970       0.25775457 </v>
   <v>       0.56262397       0.03776192       0.39025842 </v>
   <v>       0.56253255       0.04002488       0.60981892 </v>
   <v>       0.31283548       0.20559557       0.47849388 </v>
   <v>       0.06234069       0.87360798       0.65360764 </v>
   <v>       0.68761862       0.45593279       0.56513854 </v>
   <v>       0.56229452       0.37151027       0.43476000 </v>
   <v>       0.81235569       0.53779228       0.39015694 </v>
   <v>       0.43711697       0.95300253       0.21356842 </v>
   <v>       0.56262571       0.87056326       0.16864566 </v>
   <v>       0.81242926       0.87373504       0.65370495 </v>
   <v>       0.93801129       0.12220834       0.52129419 </v>
   <v>       0.81247797       0.87174922       0.43474612 </v>
   <v>       0.31229700       0.37389840       0.65374665 </v>
   <v>       0.18759262       0.61925021       0.16885721 </v>
   <v>       0.81240277       0.03784692       0.39024387 </v>
   <v>       0.68749674       0.12377397       0.65374049 </v>
   <v>       0.68762917       0.45480050       0.47866750 </v>
   <v>       0.56235499       0.20540133       0.47869791 </v>
   <v>       0.81258899       0.70418655       0.34635431 </v>
   <v>       0.68727340       0.12483701       0.78639568 </v>
   <v>       0.93768563       0.12458821       0.78646357 </v>
   <v>       0.06238497       0.20299623       0.21371287 </v>
   <v>       0.56202669       0.70541728       0.47864343 </v>
   <v>       0.06267459       0.20751278       0.69811191 </v>
   <v>       0.18742641       0.95779278       0.69827036 </v>
   <v>       0.18799639       0.29119693       0.87346636 </v>
   <v>       0.81260839       0.03652128       0.25775617 </v>
   <v>       0.81264065       0.70338303       0.21366388 </v>
   <v>       0.93756380       0.29168419       0.74224570 </v>
   <v>       0.06257972       0.04024362       0.60978840 </v>
   <v>       0.93790603       0.62208597       0.52130329 </v>
   <v>       0.81254393       0.54117944       0.74222789 </v>
   <v>       0.68746411       0.29146697       0.74226267 </v>
   <v>       0.43752098       0.45746278       0.69817345 </v>
   <v>       0.06186748       0.70899241       0.83128646 </v>
   <v>       0.93757761       0.45390588       0.34632647 </v>
   <v>       0.68745339       0.62180053       0.43501221 </v>
   <v>       0.06255885       0.87026910       0.30185841 </v>
   <v>       0.56263743       0.70411276       0.34636278 </v>
   <v>       0.06253856       0.70486229       0.47852877 </v>
   <v>       0.31274299       0.70889347       0.83123490 </v>
   <v>       0.68745499       0.45392488       0.34622467 </v>
   <v>       0.56298444       0.70817136       0.83113605 </v>
   <v>       0.18734906       0.45406224       0.34633583 </v>
   <v>       0.56299084       0.04158788       0.87331601 </v>
   <v>       0.31253751       0.20427300       0.34626755 </v>
   <v>       0.68758526       0.78745036       0.39023932 </v>
   <v>       0.93741454       0.45724557       0.69813270 </v>
   <v>       0.93750546       0.45364542       0.21371768 </v>
   <v>       0.93797241       0.12052205       0.30197556 </v>
   <v>       0.93743095       0.28658906       0.25779528 </v>
   <v>       0.18782046       0.45759126       0.69797284 </v>
   <v>       0.68722357       0.79178279       0.87334432 </v>
   <v>       0.31233085       0.70602746       0.56514182 </v>
   <v>       0.93700805       0.45549878       0.47861642 </v>
   <v>       0.31235951       0.37458327       0.78629337 </v>
   <v>       0.93735527       0.78627621       0.12665437 </v>
   <v>       0.43679757       0.12216880       0.52131804 </v>
   <v>       0.43709310       0.12060813       0.30199551 </v>
   <v>       0.43753032       0.62463288       0.78642398 </v>
   <v>       0.43741945       0.62147339       0.43472875 </v>
   <v>       0.68697103       0.11889028       0.16868700 </v>
   <v>       0.06249965       0.87483277       0.78629272 </v>
   <v>       0.43770953       0.28684698       0.25783434 </v>
   <v>       0.56215451       0.87509717       0.78639310 </v>
   <v>       0.93700693       0.45874883       0.83124326 </v>
   <v>       0.81259170       0.20747773       0.69813269 </v>
   <v>       0.68762829       0.45356668       0.21361683 </v>
   <v>       0.06259873       0.53817241       0.39016012 </v>
   <v>       0.06238062       0.37082111       0.30196640 </v>
   <v>       0.18740893       0.12052659       0.30189485 </v>
   <v>       0.06185932       0.54185696       0.87328446 </v>
   <v>       0.68751331       0.28774646       0.39029246 </v>
   <v>       0.93760103       0.62345030       0.65372817 </v>
   <v>       0.93740583       0.61934494       0.16887308 </v>
   <v>       0.56250270       0.87281510       0.52137071 </v>
   <v>       0.93818813       0.12006242       0.16888392 </v>
   <v>       0.56212066       0.70579509       0.56506903 </v>
   <v>       0.93755017       0.79074271       0.74221167 </v>
   <v>       0.68752363       0.62365812       0.65359856 </v>
   <v>       0.06254963       0.04119893       0.74221613 </v>
   <v>       0.31255150       0.20747661       0.69811197 </v>
   <v>       0.43758099       0.95427532       0.34628665 </v>
   <v>       0.43729494       0.45773965       0.83111313 </v>
   <v>       0.06258081       0.37451971       0.78641471 </v>
   <v>       0.43778975       0.12442524       0.78636904 </v>
   <v>       0.93749873       0.95777583       0.83112953 </v>
   <v>       0.43721581       0.62023723       0.30187330 </v>
   <v>       0.68739971       0.95490165       0.47857035 </v>
   <v>       0.31310065       0.87220187       0.52121242 </v>
   <v>       0.43777823       0.95597093       0.56516098 </v>
   <v>       0.43731846       0.28780104       0.39024643 </v>
   <v>       0.68766799       0.12225472       0.52132493 </v>
   <v>       0.06243845       0.86955796       0.16888161 </v>
   <v>       0.81237471       0.04128931       0.74223018 </v>
   <v>       0.18753191       0.78658367       0.25774844 </v>
   <v>       0.93785883       0.95304286       0.21357545 </v>
   <v>       0.43816131       0.11896400       0.16872027 </v>
   <v>       0.68747024       0.95437063       0.34633965 </v>
   <v>       0.43760649       0.12355332       0.65371365 </v>
   <v>       0.81269298       0.37356840       0.65378938 </v>
   <v>       0.06234281       0.20626901       0.56523302 </v>
   <v>       0.43708799       0.62207589       0.52128842 </v>
   <v>       0.43754760       0.45427304       0.34633736 </v>
   <v>       0.06238946       0.53632630       0.25776778 </v>
   <v>       0.93702189       0.95570866       0.47848430 </v>
   <v>       0.18685781       0.11991734       0.16897452 </v>
   <v>       0.56248973       0.36900826       0.16870499 </v>
   <v>       0.56233865       0.70267831       0.21371436 </v>
   <v>       0.68755919       0.12178163       0.43486827 </v>
   <v>       0.43805368       0.28754085       0.12674300 </v>
   <v>       0.18750655       0.12315509       0.52126991 </v>
   <v>       0.06213997       0.87176198       0.43489769 </v>
   <v>       0.81247981       0.37457578       0.78634758 </v>
   <v>       0.93781008       0.28698931       0.12659824 </v>
   <v>       0.68740963       0.28644253       0.25776201 </v>
   <v>       0.68718275       0.62482235       0.78643360 </v>
   <v>       0.31281063       0.37226034       0.52134680 </v>
   <v>       0.31260500       0.87378105       0.65366021 </v>
   <v>       0.81248365       0.04007496       0.60981151 </v>
   <v>       0.06226017       0.37231511       0.52132657 </v>
   <v>       0.31235585       0.20644912       0.56521772 </v>
   <v>       0.56257794       0.20330082       0.21360435 </v>
   <v>       0.18746328       0.78986687       0.60975909 </v>
   <v>       0.56280832       0.54087745       0.74225213 </v>
   <v>       0.43757155       0.28972935       0.60976446 </v>
   <v>       0.56245162       0.53772280       0.39018992 </v>
   <v>       0.93740861       0.12347119       0.65375926 </v>
   <v>       0.43633397       0.78620126       0.12661817 </v>
   <v>       0.18746151       0.62277503       0.52124428 </v>
   <v>       0.18748618       0.62188268       0.43481530 </v>
   <v>       0.06244356       0.37174297       0.43483640 </v>
   <v>       0.68689247       0.28812299       0.12669188 </v>
   <v>       0.68752278       0.79079601       0.74221649 </v>
   <v>       0.68800795       0.29125560       0.87325862 </v>
   <v>       0.18753921       0.79204934       0.87349980 </v>
   <v>       0.31255682       0.37134485       0.43490376 </v>
   <v>       0.56236261       0.87031399       0.30193698 </v>
   <v>       0.31303540       0.54106063       0.87323284 </v>
   <v>       0.81230767       0.53978899       0.60976541 </v>
   <v>       0.93740894       0.28993291       0.60979500 </v>
   <v>       0.18752049       0.95322564       0.21361333 </v>
   <v>       0.56265531       0.70756948       0.69811378 </v>
   <v>       0.93741057       0.79137379       0.87342384 </v>
   <v>       0.68742072       0.78947689       0.60975072 </v>
   <v>       0.56257950       0.37355622       0.65377493 </v>
   <v>       0.18750169       0.95422060       0.34630150 </v>
   <v>       0.06250012       0.53575912       0.12653687 </v>
   <v>       0.81250832       0.54172205       0.87339718 </v>
   <v>       0.56265239       0.53658370       0.12665688 </v>
   <v>       0.68732666       0.61950303       0.16899250 </v>
   <v>       0.93694380       0.95600457       0.56517462 </v>
   <v>       0.81303233       0.20365048       0.21377247 </v>
   <v>       0.43798095       0.95554893       0.47849374 </v>
   <v>       0.06189808       0.87227538       0.52122539 </v>
   <v>       0.93684451       0.45647019       0.56517580 </v>
   <v>       0.93768000       0.62026791       0.30189770 </v>
   <v>       0.18745480       0.62373081       0.65368098 </v>
   <v>       0.81298443       0.03524102       0.12664881 </v>
   <v>       0.43753056       0.79111984       0.74224772 </v>
   <v>       0.31231052       0.03773895       0.39018710 </v>
   <v>       0.56291220       0.04116316       0.74223358 </v>
   <v>       0.06226271       0.70407075       0.34628418 </v>
   <v>       0.56264597       0.87339428       0.65375639 </v>
   <v>       0.18764927       0.45636764       0.56507668 </v>
   <v>       0.06257178       0.03792163       0.39023508 </v>
   <v>       0.43778925       0.45549565       0.47857592 </v>
   <v>       0.93741713       0.95448282       0.34630824 </v>
   <v>       0.43722999       0.12130401       0.43482813 </v>
   <v>       0.31255335       0.87030485       0.30186940 </v>
   <v>       0.93772440       0.12157861       0.43481482 </v>
   <v>       0.68743011       0.95349306       0.21383484 </v>
   <v>       0.68747331       0.12018789       0.30188999 </v>
   <v>       0.18753393       0.95538469       0.47874510 </v>
   <v>       0.06254501       0.36975925       0.16823941 </v>
   <v>       0.31241026       0.70412798       0.34636525 </v>
   <v>       0.18701423       0.95785628       0.83182603 </v>
   <v>       0.31252673       0.20913469       0.83177062 </v>
   <v>       0.18765023       0.95556293       0.56483180 </v>
   <v>       0.56230554       0.20619524       0.56509921 </v>
   <v>       0.68756146       0.62244804       0.52114847 </v>
   <v>       0.43722114       0.79012223       0.60986186 </v>
   <v>       0.93799522       0.79029590       0.60992516 </v>
   <v>       0.56271631       0.03633434       0.12680286 </v>
   <v>       0.93756745       0.62488427       0.78615518 </v>
   <v>       0.31227009       0.04123176       0.74226609 </v>
  </varray>
 </structure>
</modeling>
