unknown system                          
            1
     9.726678    0.000000    0.000000
     0.000000    8.423550    0.000000
     0.000000    0.000000   45.000000
   Fe   Mn
 273  15
Direct configuration=     1
   0.56271269  0.20857181  0.83116132
   0.81263867  0.37218648  0.52138650
   0.56267292  0.53642618  0.25777454
   0.81128441  0.86989486  0.16873202
   0.56235461  0.20754340  0.69803608
   0.18770561  0.62513105  0.78635334
   0.31223138  0.53603651  0.12674539
   0.81309867  0.70575576  0.56501349
   0.18776755  0.45288347  0.21376815
   0.68753409  0.61946885  0.30194082
   0.43772234  0.79174377  0.87324457
   0.06271078  0.20822440  0.83117101
   0.18750144  0.28789375  0.39022319
   0.31161841  0.03512830  0.12684839
   0.18782179  0.45848392  0.83107505
   0.56266025  0.37478705  0.78622570
   0.18728744  0.12556002  0.78620271
   0.68737128  0.95841361  0.83104182
   0.31256359  0.70228468  0.21371987
   0.31217915  0.04216785  0.87353248
   0.68764747  0.28977549  0.60984218
   0.56221207  0.37241081  0.52133534
   0.31249676  0.53794036  0.39020746
   0.81301139  0.70541435  0.47862563
   0.81296099  0.20621167  0.56506526
   0.06263983  0.54005292  0.60969574
   0.06240701  0.70249351  0.21362787
   0.31244465  0.70479999  0.47851009
   0.43768557  0.78751069  0.39019432
   0.43742170  0.78654572  0.25783082
   0.06212872  0.20399203  0.34631104
   0.56247869  0.36975543  0.30197932
   0.18761062  0.12369555  0.65364418
   0.81258069  0.87511987  0.78633453
   0.31266205  0.87143874  0.43485368
   0.31250572  0.70789340  0.69811493
   0.31241367  0.03642626  0.25779766
   0.68752419  0.78672944  0.25789167
   0.18745445  0.12164748  0.43484917
   0.06241516  0.70598664  0.56513680
   0.81249297  0.36992773  0.30195525
   0.43731386  0.95899689  0.83112388
   0.06247655  0.37358721  0.65364849
   0.18754080  0.29005370  0.60969346
   0.81251436  0.70781254  0.69806714
   0.81264523  0.70786106  0.83105209
   0.31252678  0.54167107  0.74216040
   0.18748028  0.45530733  0.47868481
   0.93703371  0.29146632  0.87315342
   0.93742088  0.95810689  0.69800516
   0.81248674  0.87272758  0.52129300
   0.68767804  0.95578862  0.56512382
   0.31225720  0.36983500  0.16900824
   0.81259808  0.53617942  0.12674534
   0.93760838  0.62147021  0.43474783
   0.68830472  0.78656929  0.12666437
   0.81261660  0.20898974  0.83106959
   0.18721327  0.28665438  0.12671137
   0.81196591  0.04160590  0.87317797
   0.93758673  0.28792698  0.39028805
   0.18762902  0.29147872  0.74213605
   0.18737214  0.79167780  0.74221149
   0.56251802  0.54238733  0.87315584
   0.06282058  0.04140149  0.87342644
   0.31236205  0.53983461  0.60975178
   0.31249135  0.53646911  0.25780237
   0.18795799  0.78609762  0.12671726
   0.68762264  0.95779039  0.69825240
   0.18747858  0.62030282  0.30189584
   0.43750655  0.62377693  0.65366282
   0.56283058  0.53969159  0.60968993
   0.68733251  0.45769565  0.69799039
   0.31260237  0.37059314  0.30199801
   0.31338307  0.86964883  0.16883880
   0.43764899  0.95767109  0.69806909
   0.43803513  0.45639979  0.56514946
   0.56228937  0.03630578  0.25779739
   0.56276270  0.20403634  0.34637172
   0.06221097  0.54159824  0.74223998
   0.43710206  0.45270021  0.21370492
   0.68744873  0.45887826  0.83102863
   0.93749857  0.78629542  0.25783877
   0.18750491  0.78790759  0.39026317
   0.43716897  0.29217185  0.87336274
   0.81273128  0.36986304  0.16893771
   0.06212223  0.20547091  0.47854811
   0.81268112  0.20555651  0.47859834
   0.81246057  0.86995082  0.30199391
   0.81251790  0.20392171  0.34638268
   0.18749230  0.28639197  0.25788026
   0.31289782  0.87530506  0.78626948
   0.43742683  0.29153331  0.74210803
   0.06241070  0.70785151  0.69803392
   0.81264173  0.37145886  0.43475996
   0.31268448  0.04025481  0.60978221
   0.56267965  0.87175714  0.43483966
   0.43760705  0.61947123  0.16898282
   0.31202444  0.20323694  0.21392587
   0.06262015  0.03603964  0.25783113
   0.93716796  0.78769605  0.39018529
   0.06266228  0.03645961  0.12679797
   0.81242542  0.53642283  0.25782329
   0.56260856  0.03763350  0.39029638
   0.56253697  0.04014984  0.60977813
   0.31283762  0.20558080  0.47850352
   0.06235067  0.87376614  0.65355419
   0.68762565  0.45601660  0.56511004
   0.56231636  0.37143362  0.43478577
   0.81235279  0.53765148  0.39019275
   0.43711248  0.95258685  0.21364250
   0.56264751  0.87032093  0.16873610
   0.81242980  0.87392871  0.65365600
   0.93800196  0.12225069  0.52128753
   0.81249621  0.87167996  0.43477036
   0.31231799  0.37405967  0.65369840
   0.18755808  0.61900788  0.16895282
   0.81241209  0.03769320  0.39028118
   0.68750650  0.12395391  0.65368953
   0.68763356  0.45478421  0.47867010
   0.56235951  0.20536139  0.47870339
   0.81258312  0.70398619  0.34639983
   0.68726765  0.12527338  0.78631750
   0.93770811  0.12498811  0.78639051
   0.06237270  0.20255808  0.21379598
   0.56201820  0.70538846  0.47864752
   0.06269098  0.20782040  0.69805614
   0.18742847  0.95809520  0.69821717
   0.18796057  0.29144632  0.87337446
   0.81261882  0.03613001  0.25781831
   0.81264632  0.70294496  0.21373433
   0.93756018  0.29203267  0.74218079
   0.06258153  0.04035922  0.60974783
   0.93791469  0.62212256  0.52129650
   0.81252783  0.54155125  0.74215656
   0.68747221  0.29185528  0.74219239
   0.43752161  0.45777207  0.69812022
   0.06188111  0.70929922  0.83119126
   0.93758461  0.45367383  0.34637796
   0.68746298  0.62173904  0.43503367
   0.06255215  0.86994838  0.30191307
   0.56263008  0.70388590  0.34641300
   0.06251670  0.70481019  0.47853773
   0.31271717  0.70920601  0.83115239
   0.68743243  0.45370010  0.34627340
   0.56300540  0.70850438  0.83104408
   0.18733440  0.45383338  0.34638702
   0.56296357  0.04185812  0.87322919
   0.31254333  0.20403564  0.34631792
   0.68757892  0.78730211  0.39027472
   0.93742324  0.45755017  0.69807734
   0.93751434  0.45322532  0.21379299
   0.93796935  0.12021126  0.30202826
   0.93741860  0.28620333  0.25786515
   0.18782200  0.45788883  0.69791343
   0.68722989  0.79205472  0.87325227
   0.31232246  0.70610418  0.56511415
   0.93702237  0.45545705  0.47862034
   0.31235743  0.37504101  0.78621845
   0.93735335  0.78607380  0.12675009
   0.43681144  0.12219076  0.52131161
   0.43708255  0.12030522  0.30204813
   0.43752027  0.62507316  0.78635319
   0.43742127  0.62139585  0.43475783
   0.68700947  0.11862832  0.16878172
   0.06251401  0.87528192  0.78622009
   0.43771299  0.28642604  0.25790175
   0.56215875  0.87553649  0.78631803
   0.93703934  0.45906830  0.83114465
   0.81260059  0.20776942  0.69808071
   0.68764554  0.45317016  0.21368849
   0.06260030  0.53801981  0.39019772
   0.06237227  0.37050488  0.30203006
   0.18740209  0.12018215  0.30194963
   0.06185617  0.54213448  0.87319922
   0.68751979  0.28758559  0.39032903
   0.93760434  0.62361399  0.65367471
   0.93741635  0.61909584  0.16896512
   0.56250207  0.87284792  0.52136028
   0.93817035  0.11982255  0.16898445
   0.56212231  0.70588979  0.56504548
   0.93755108  0.79111992  0.74214114
   0.68753515  0.62382207  0.65354358
   0.06253635  0.04159357  0.74214329
   0.31256360  0.20777339  0.69805844
   0.43756833  0.95405419  0.34633847
   0.43731073  0.45803063  0.83102083
   0.06259750  0.37492945  0.78634419
   0.43778940  0.12485911  0.78629717
   0.93750542  0.95810210  0.83103466
   0.43719881  0.61989782  0.30192826
   0.68740483  0.95486361  0.47857336
   0.31311542  0.87219968  0.52120410
   0.43777233  0.95605521  0.56513197
   0.43731894  0.28765221  0.39028762
   0.68766143  0.12227342  0.52131524
   0.06243284  0.86929414  0.16897478
   0.81237575  0.04166760  0.74216544
   0.18752225  0.78618542  0.25781614
   0.93786781  0.95264366  0.21365043
   0.43815037  0.11871374  0.16881738
   0.68746980  0.95413640  0.34638511
   0.43761097  0.12370772  0.65366055
   0.81271303  0.37374330  0.65374051
   0.06233079  0.20636001  0.56520244
   0.43708767  0.62210646  0.52128198
   0.43755947  0.45404570  0.34638695
   0.06238012  0.53591286  0.25783558
   0.93699850  0.95564355  0.47848983
   0.18685796  0.11967260  0.16907214
   0.56248753  0.36878393  0.16880118
   0.56235666  0.70221811  0.21378890
   0.68756785  0.12169385  0.43488996
   0.43801047  0.28739071  0.12684288
   0.18751165  0.12320064  0.52126648
   0.06212606  0.87167882  0.43491553
   0.81248479  0.37500643  0.78626846
   0.93775439  0.28678368  0.12668895
   0.68739731  0.28603636  0.25782900
   0.68719148  0.62524616  0.78635355
   0.31281243  0.37229064  0.52133825
   0.31260449  0.87395989  0.65360828
   0.81249404  0.04020126  0.60977225
   0.06226687  0.37233321  0.52131687
   0.31236205  0.20653737  0.56518910
   0.56259461  0.20287446  0.21367338
   0.18745828  0.78997797  0.60971906
   0.56280824  0.54128367  0.74218835
   0.43757586  0.28984216  0.60972259
   0.56244658  0.53758814  0.39022828
   0.93739895  0.12362324  0.65370550
   0.43629688  0.78598895  0.12672054
   0.18746094  0.62276097  0.52123961
   0.18747979  0.62180175  0.43484239
   0.06244323  0.37164487  0.43485876
   0.68697868  0.28792929  0.12678840
   0.68751888  0.79117806  0.74214803
   0.68797928  0.29153575  0.87316176
   0.18754426  0.79233936  0.87342249
   0.31256429  0.37127613  0.43492568
   0.56235475  0.86999449  0.30198521
   0.31300890  0.54133078  0.87314370
   0.81230129  0.53990296  0.60972241
   0.93740333  0.29002572  0.60975489
   0.18750394  0.95280346  0.21369153
   0.56266567  0.70787117  0.69805612
   0.93742730  0.79166141  0.87333585
   0.68742915  0.78959027  0.60971318
   0.56257529  0.37374415  0.65372590
   0.18750138  0.95399752  0.34635839
   0.06246149  0.53549424  0.12662599
   0.81251378  0.54205110  0.87329340
   0.56267111  0.53635055  0.12675297
   0.68732834  0.61926731  0.16909226
   0.93691852  0.95609400  0.56514504
   0.81304688  0.20323509  0.21385171
   0.43799599  0.95547720  0.47849770
   0.06187534  0.87228092  0.52122288
   0.93684613  0.45654350  0.56515077
   0.93767264  0.61994624  0.30195383
   0.18745721  0.62390908  0.65363126
   0.81301511  0.03501613  0.12673556
   0.43753807  0.79150604  0.74218339
   0.31231456  0.03759037  0.39022988
   0.56290656  0.04156393  0.74216486
   0.06226758  0.70382327  0.34633375
   0.56265213  0.87356462  0.65370751
   0.18765193  0.45642564  0.56505019
   0.06256982  0.03777303  0.39028401
   0.43779302  0.45545726  0.47858078
   0.93741187  0.95424649  0.34635399
   0.43721814  0.12124419  0.43485715
   0.31254696  0.86998154  0.30192324
   0.93772944  0.12151732  0.43484010
   0.68743738  0.95308369  0.21391089
   0.68746959  0.11983622  0.30193931
   0.18754188  0.95533114  0.47874611
   0.06252377  0.36954248  0.16833213
   0.31240673  0.70390603  0.34640865
   0.18699619  0.95814728  0.83174030
   0.31252822  0.20937432  0.83167792
   0.18765966  0.95565729  0.56481063
   0.56230108  0.20628506  0.56507465
   0.68756121  0.62247243  0.52114206
   0.43722908  0.79024395  0.60982645
   0.93799756  0.79041289  0.60988386
   0.56274029  0.03610253  0.12690335
   0.93757052  0.62534954  0.78607661
   0.31226802  0.04162206  0.74220032
Direct configuration=     2
   0.56271341  0.20856776  0.83116342
   0.81264375  0.37218745  0.52138573
   0.56267363  0.53643911  0.25777371
   0.81128596  0.86988706  0.16872932
   0.56235629  0.20754060  0.69803577
   0.18770637  0.62512472  0.78635275
   0.31223202  0.53603865  0.12674248
   0.81309947  0.70575680  0.56501496
   0.18776648  0.45289836  0.21376649
   0.68754121  0.61947293  0.30194241
   0.43772916  0.79173690  0.87324651
   0.06271166  0.20822090  0.83117284
   0.18749514  0.28789325  0.39022171
   0.31162425  0.03512257  0.12684708
   0.18783243  0.45847999  0.83107639
   0.56266116  0.37477986  0.78622539
   0.18729120  0.12554680  0.78620115
   0.68736830  0.95841093  0.83104445
   0.31256257  0.70229152  0.21372047
   0.31218527  0.04216049  0.87353524
   0.68764914  0.28977651  0.60984270
   0.56220946  0.37241154  0.52133506
   0.31249427  0.53793659  0.39020654
   0.81300633  0.70541335  0.47862539
   0.81295979  0.20620497  0.56506729
   0.06264230  0.54005287  0.60969621
   0.06240981  0.70249875  0.21362731
   0.31244002  0.70480693  0.47851132
   0.43768467  0.78750886  0.39019389
   0.43741910  0.78655646  0.25783062
   0.06212873  0.20399814  0.34631099
   0.56247739  0.36976428  0.30198058
   0.18760790  0.12369665  0.65364419
   0.81257377  0.87510065  0.78633344
   0.31265715  0.87144295  0.43485346
   0.31250801  0.70788773  0.69811378
   0.31241158  0.03643411  0.25779778
   0.68752548  0.78674072  0.25789151
   0.18745035  0.12164456  0.43484714
   0.06241635  0.70598933  0.56513801
   0.81249749  0.36993090  0.30195725
   0.43731846  0.95899082  0.83112599
   0.06247905  0.37358699  0.65364931
   0.18753711  0.29005261  0.60969366
   0.81251169  0.70780051  0.69806664
   0.81264026  0.70785644  0.83105440
   0.31253096  0.54165789  0.74216023
   0.18748258  0.45531370  0.47868581
   0.93702784  0.29146984  0.87315731
   0.93742063  0.95810214  0.69800470
   0.81248994  0.87272877  0.52129388
   0.68768010  0.95578368  0.56512615
   0.31225542  0.36984630  0.16900688
   0.81259483  0.53618060  0.12674240
   0.93760543  0.62147129  0.43474502
   0.68829130  0.78656360  0.12666240
   0.81261302  0.20898586  0.83107308
   0.18721223  0.28666537  0.12670988
   0.81196004  0.04161659  0.87318062
   0.93758487  0.28793022  0.39028644
   0.18763247  0.29147178  0.74213592
   0.18737669  0.79166610  0.74221274
   0.56252017  0.54238143  0.87315910
   0.06281538  0.04140675  0.87342853
   0.31235535  0.53983398  0.60975281
   0.31249115  0.53648052  0.25780205
   0.18796438  0.78608632  0.12671417
   0.68762058  0.95778666  0.69825246
   0.18747719  0.62030730  0.30189666
   0.43750388  0.62377911  0.65366551
   0.56283134  0.53969205  0.60969046
   0.68733100  0.45769092  0.69799120
   0.31259622  0.37060066  0.30199954
   0.31338421  0.86964300  0.16883612
   0.43765118  0.95766636  0.69806819
   0.43803080  0.45639802  0.56514970
   0.56228819  0.03631699  0.25779752
   0.56276270  0.20404206  0.34637122
   0.06221111  0.54159169  0.74223982
   0.43710024  0.45271048  0.21370522
   0.68744443  0.45886792  0.83103170
   0.93750378  0.78630666  0.25783865
   0.18749912  0.78790847  0.39026197
   0.43717082  0.29217251  0.87336507
   0.81273234  0.36987490  0.16893632
   0.06212122  0.20546544  0.47854886
   0.81268743  0.20555657  0.47859850
   0.81246569  0.86995724  0.30199531
   0.81252402  0.20392631  0.34638202
   0.18749456  0.28640211  0.25788003
   0.31290425  0.87529503  0.78626951
   0.43742883  0.29152806  0.74210796
   0.06241348  0.70784805  0.69803341
   0.81264437  0.37146073  0.43475695
   0.31267907  0.04025292  0.60978211
   0.56268138  0.87175440  0.43483955
   0.43760437  0.61947060  0.16898098
   0.31202536  0.20324954  0.21392567
   0.06262084  0.03604847  0.25783137
   0.93716754  0.78769881  0.39018344
   0.06266841  0.03646019  0.12679624
   0.81242499  0.53643110  0.25782250
   0.56261437  0.03763746  0.39029473
   0.56253738  0.04014858  0.60977840
   0.31283468  0.20557910  0.47850386
   0.06235075  0.87377124  0.65355520
   0.68762820  0.45601590  0.56511155
   0.56231558  0.37143448  0.43478362
   0.81235473  0.53764429  0.39019158
   0.43711018  0.95259394  0.21364331
   0.56264067  0.87031847  0.16873354
   0.81243107  0.87392874  0.65365682
   0.93800544  0.12224319  0.52128711
   0.81249646  0.87167926  0.43476898
   0.31231219  0.37406020  0.65369976
   0.18756411  0.61900139  0.16895036
   0.81241438  0.03770159  0.39028008
   0.68750665  0.12395521  0.65369109
   0.68763423  0.45478703  0.47867015
   0.56235594  0.20535847  0.47870321
   0.81258786  0.70397887  0.34639900
   0.68726345  0.12526762  0.78631735
   0.93770240  0.12498337  0.78638964
   0.06237668  0.20257580  0.21379615
   0.56201904  0.70539165  0.47864808
   0.06268723  0.20781446  0.69805418
   0.18742876  0.95809049  0.69821559
   0.18796414  0.29144779  0.87337775
   0.81261970  0.03613800  0.25781964
   0.81264908  0.70295269  0.21373520
   0.93755858  0.29203156  0.74217973
   0.06258065  0.04036150  0.60974757
   0.93791819  0.62212277  0.52129689
   0.81252731  0.54154606  0.74215707
   0.68746811  0.29184829  0.74219206
   0.43752412  0.45776724  0.69811991
   0.06188308  0.70929258  0.83119395
   0.93758222  0.45367513  0.34637721
   0.68746327  0.62173472  0.43503291
   0.06255185  0.86995212  0.30191396
   0.56263367  0.70388324  0.34641101
   0.06252576  0.70481718  0.47853862
   0.31272329  0.70919918  0.83115308
   0.68743907  0.45370398  0.34627317
   0.56300035  0.70849830  0.83104569
   0.18733130  0.45383231  0.34638505
   0.56296870  0.04186318  0.87323054
   0.31253759  0.20404209  0.34631631
   0.68758489  0.78729803  0.39027328
   0.93742050  0.45754307  0.69807629
   0.93751629  0.45323468  0.21379278
   0.93797090  0.12021632  0.30202950
   0.93741941  0.28621353  0.25786488
   0.18782428  0.45788206  0.69791388
   0.68722873  0.79205373  0.87325490
   0.31232060  0.70610474  0.56511507
   0.93701839  0.45545682  0.47862139
   0.31236508  0.37502961  0.78621767
   0.93735643  0.78606264  0.12674783
   0.43680779  0.12218820  0.52131088
   0.43708165  0.12030760  0.30204884
   0.43752435  0.62506022  0.78635206
   0.43742330  0.62139359  0.43475617
   0.68700186  0.11863651  0.16877942
   0.06251495  0.87526766  0.78621810
   0.43770976  0.28643928  0.25790189
   0.56215636  0.87552448  0.78631718
   0.93703547  0.45906294  0.83114728
   0.81259883  0.20776659  0.69807907
   0.68764404  0.45317777  0.21368969
   0.06259454  0.53801606  0.39019613
   0.06237292  0.37050887  0.30203113
   0.18739763  0.12018965  0.30195229
   0.06185351  0.54212923  0.87320094
   0.68752526  0.28759477  0.39032737
   0.93760635  0.62361148  0.65367605
   0.93741529  0.61909156  0.16896374
   0.56250158  0.87284873  0.52136014
   0.93817436  0.11982616  0.16898276
   0.56212315  0.70589038  0.56504598
   0.93754900  0.79110707  0.74214077
   0.68753554  0.62381931  0.65354602
   0.06253803  0.04158275  0.74214372
   0.31256371  0.20776858  0.69805701
   0.43756614  0.95405983  0.34633651
   0.43730737  0.45803065  0.83102201
   0.06259706  0.37492539  0.78634305
   0.43779110  0.12484715  0.78629631
   0.93750038  0.95809880  0.83103830
   0.43719621  0.61990041  0.30192861
   0.68740093  0.95486632  0.47857482
   0.31311030  0.87219874  0.52120429
   0.43777230  0.95604879  0.56513371
   0.43732111  0.28765649  0.39028575
   0.68766416  0.12226558  0.52131553
   0.06243442  0.86929198  0.16897378
   0.81237232  0.04166045  0.74216444
   0.18752140  0.78619400  0.25781611
   0.93786964  0.95264694  0.21365173
   0.43814994  0.11871925  0.16881539
   0.68747352  0.95414174  0.34638405
   0.43761018  0.12371152  0.65366284
   0.81271519  0.37373979  0.65374167
   0.06233324  0.20635191  0.56520494
   0.43708359  0.62210609  0.52128155
   0.43755801  0.45404509  0.34638605
   0.06238017  0.53592636  0.25783502
   0.93700392  0.95565235  0.47849071
   0.18686082  0.11967875  0.16907083
   0.56248545  0.36878820  0.16879891
   0.56235130  0.70222802  0.21378950
   0.68757132  0.12169920  0.43488899
   0.43801381  0.28739259  0.12684065
   0.18750994  0.12319842  0.52126602
   0.06212932  0.87168421  0.43491517
   0.81247952  0.37500018  0.78626754
   0.93776322  0.28679736  0.12668692
   0.68739926  0.28604990  0.25782883
   0.68718760  0.62523473  0.78635333
   0.31280706  0.37228785  0.52133798
   0.31260466  0.87396022  0.65360964
   0.81249728  0.04020149  0.60977228
   0.06227105  0.37233220  0.52131737
   0.31235760  0.20653191  0.56519056
   0.56259060  0.20289259  0.21367487
   0.18745819  0.78998072  0.60971831
   0.56280528  0.54127351  0.74218764
   0.43757296  0.28983804  0.60972355
   0.56245298  0.53758055  0.39022710
   0.93740457  0.12362774  0.65370653
   0.43630076  0.78598289  0.12671747
   0.18745981  0.62276710  0.52123890
   0.18748002  0.62180351  0.43484121
   0.06244143  0.37164349  0.43485696
   0.68696297  0.28793437  0.12678631
   0.68751611  0.79116783  0.74214763
   0.68798168  0.29153857  0.87316544
   0.18754477  0.79232706  0.87342428
   0.31256152  0.37127494  0.43492459
   0.56235364  0.86999980  0.30198647
   0.31301468  0.54132413  0.87314593
   0.81230644  0.53990246  0.60972268
   0.93740858  0.29002599  0.60975578
   0.18750501  0.95281215  0.21369208
   0.56266435  0.70786347  0.69805651
   0.93742236  0.79165422  0.87333780
   0.68743083  0.78959241  0.60971231
   0.56257609  0.37373902  0.65372778
   0.18749551  0.95400049  0.34635619
   0.06247007  0.53550476  0.12662468
   0.81250847  0.54203551  0.87329804
   0.56266401  0.53635806  0.12675032
   0.68732754  0.61926499  0.16908915
   0.93692513  0.95608479  0.56514711
   0.81304701  0.20325152  0.21385303
   0.43799557  0.95548523  0.47849909
   0.06187792  0.87228053  0.52122279
   0.93684832  0.45654448  0.56515193
   0.93767616  0.61994801  0.30195550
   0.18745757  0.62390552  0.65363231
   0.81300832  0.03501759  0.12673538
   0.43754054  0.79149407  0.74218319
   0.31230999  0.03759343  0.39022846
   0.56290750  0.04155284  0.74216494
   0.06226447  0.70382635  0.34633256
   0.56265075  0.87356326  0.65370902
   0.18764912  0.45643089  0.56505079
   0.06256768  0.03777701  0.39028119
   0.43779301  0.45546065  0.47858182
   0.93741634  0.95425056  0.34635312
   0.43721952  0.12124380  0.43485592
   0.31254302  0.86998435  0.30192396
   0.93773036  0.12151868  0.43483815
   0.68743836  0.95308852  0.21391073
   0.68747403  0.11984493  0.30194008
   0.18754089  0.95533411  0.47874753
   0.06252965  0.36955165  0.16833004
   0.31240183  0.70390605  0.34640760
   0.18700039  0.95814372  0.83174162
   0.31253181  0.20938617  0.83167947
   0.18765392  0.95565114  0.56481148
   0.56230282  0.20627650  0.56507584
   0.68756275  0.62247442  0.52114247
   0.43722412  0.79024638  0.60982557
   0.93800065  0.79041479  0.60988288
   0.56273360  0.03610438  0.12690011
   0.93756785  0.62533328  0.78607586
   0.31226865  0.04161089  0.74219991
Direct configuration=     3
   0.56271447  0.20856179  0.83116652
   0.81265124  0.37218888  0.52138459
   0.56267468  0.53645817  0.25777247
   0.81128824  0.86987558  0.16872533
   0.56235876  0.20753647  0.69803531
   0.18770750  0.62511538  0.78635187
   0.31223297  0.53604181  0.12673818
   0.81310064  0.70575833  0.56501713
   0.18776489  0.45292031  0.21376405
   0.68755170  0.61947894  0.30194476
   0.43773921  0.79172677  0.87324936
   0.06271296  0.20821574  0.83117552
   0.18748584  0.28789251  0.39021954
   0.31163285  0.03511412  0.12684513
   0.18784811  0.45847419  0.83107835
   0.56266250  0.37476926  0.78622493
   0.18729675  0.12552732  0.78619885
   0.68736392  0.95840700  0.83104832
   0.31256107  0.70230160  0.21372137
   0.31219430  0.04214964  0.87353930
   0.68765160  0.28977801  0.60984348
   0.56220561  0.37241261  0.52133464
   0.31249060  0.53793104  0.39020520
   0.81299888  0.70541186  0.47862504
   0.81295801  0.20619511  0.56507029
   0.06264596  0.54005280  0.60969690
   0.06241394  0.70250646  0.21362648
   0.31243320  0.70481716  0.47851312
   0.43768335  0.78750616  0.39019325
   0.43741527  0.78657229  0.25783033
   0.06212874  0.20400714  0.34631093
   0.56247547  0.36977732  0.30198243
   0.18760389  0.12369828  0.65364420
   0.81256356  0.87507232  0.78633183
   0.31264992  0.87144916  0.43485314
   0.31251137  0.70787937  0.69811209
   0.31240850  0.03644567  0.25779796
   0.68752737  0.78675736  0.25789127
   0.18744430  0.12164026  0.43484417
   0.06241809  0.70599331  0.56513981
   0.81250414  0.36993559  0.30196019
   0.43732524  0.95898187  0.83112910
   0.06248274  0.37358667  0.65365053
   0.18753167  0.29005100  0.60969396
   0.81250776  0.70778279  0.69806590
   0.81263292  0.70784965  0.83105782
   0.31253713  0.54163845  0.74215998
   0.18748597  0.45532310  0.47868729
   0.93701918  0.29147502  0.87316304
   0.93742026  0.95809513  0.69800402
   0.81249465  0.87273052  0.52129517
   0.68768315  0.95577639  0.56512958
   0.31225280  0.36986295  0.16900488
   0.81259004  0.53618233  0.12673807
   0.93760108  0.62147288  0.43474087
   0.68827152  0.78655520  0.12665949
   0.81260773  0.20898013  0.83107822
   0.18721068  0.28668156  0.12670769
   0.81195140  0.04163234  0.87318452
   0.93758213  0.28793499  0.39028406
   0.18763756  0.29146156  0.74213572
   0.18738339  0.79164886  0.74221459
   0.56252335  0.54237275  0.87316392
   0.06280771  0.04141449  0.87343161
   0.31234548  0.53983304  0.60975432
   0.31249087  0.53649734  0.25780159
   0.18797380  0.78606966  0.12670962
   0.68761755  0.95778117  0.69825255
   0.18747515  0.62031389  0.30189787
   0.43749996  0.62378233  0.65366948
   0.56283248  0.53969273  0.60969126
   0.68732877  0.45768395  0.69799239
   0.31258715  0.37061175  0.30200178
   0.31338589  0.86963441  0.16883218
   0.43765441  0.95765939  0.69806687
   0.43802441  0.45639541  0.56515005
   0.56228645  0.03633351  0.25779770
   0.56276271  0.20405051  0.34637049
   0.06221130  0.54158204  0.74223959
   0.43709756  0.45272562  0.21370566
   0.68743808  0.45885269  0.83103622
   0.93751147  0.78632324  0.25783847
   0.18749058  0.78790976  0.39026019
   0.43717356  0.29217350  0.87336850
   0.81273389  0.36989237  0.16893429
   0.06211972  0.20545739  0.47854996
   0.81269674  0.20555666  0.47859874
   0.81247323  0.86996671  0.30199737
   0.81253303  0.20393308  0.34638105
   0.18749790  0.28641706  0.25787968
   0.31291373  0.87528024  0.78626956
   0.43743178  0.29152031  0.74210785
   0.06241757  0.70784296  0.69803267
   0.81264826  0.37146349  0.43475252
   0.31267111  0.04025012  0.60978197
   0.56268394  0.87175035  0.43483938
   0.43760042  0.61946967  0.16897825
   0.31202671  0.20326810  0.21392537
   0.06262185  0.03606148  0.25783173
   0.93716691  0.78770288  0.39018071
   0.06267744  0.03646105  0.12679371
   0.81242435  0.53644330  0.25782133
   0.56262293  0.03764328  0.39029231
   0.56253799  0.04014672  0.60977879
   0.31283033  0.20557659  0.47850436
   0.06235087  0.87377876  0.65355670
   0.68763197  0.45601488  0.56511379
   0.56231444  0.37143575  0.43478045
   0.81235760  0.53763370  0.39018987
   0.43710678  0.95260439  0.21364451
   0.56263059  0.87031483  0.16872976
   0.81243294  0.87392879  0.65365802
   0.93801057  0.12223214  0.52128648
   0.81249683  0.87167824  0.43476694
   0.31230364  0.37406098  0.65370177
   0.18757300  0.61899183  0.16894674
   0.81241777  0.03771395  0.39027846
   0.68750687  0.12395712  0.65369338
   0.68763523  0.45479118  0.47867022
   0.56235068  0.20535417  0.47870294
   0.81259484  0.70396807  0.34639778
   0.68725727  0.12525914  0.78631714
   0.93769398  0.12497638  0.78638836
   0.06238256  0.20260192  0.21379639
   0.56202027  0.70539637  0.47864890
   0.06268170  0.20780570  0.69805129
   0.18742919  0.95808354  0.69821327
   0.18796940  0.29144996  0.87338260
   0.81262100  0.03614976  0.25782159
   0.81265314  0.70296409  0.21373648
   0.93755623  0.29202993  0.74217815
   0.06257936  0.04036486  0.60974719
   0.93792334  0.62212309  0.52129748
   0.81252653  0.54153839  0.74215783
   0.68746206  0.29183799  0.74219159
   0.43752783  0.45776012  0.69811944
   0.06188599  0.70928278  0.83119791
   0.93757870  0.45367704  0.34637611
   0.68746369  0.62172837  0.43503180
   0.06255142  0.86995763  0.30191526
   0.56263896  0.70387932  0.34640807
   0.06253911  0.70482749  0.47853993
   0.31273230  0.70918911  0.83115409
   0.68744887  0.45370969  0.34627281
   0.56299291  0.70848934  0.83104807
   0.18732675  0.45383073  0.34638215
   0.56297626  0.04187063  0.87323253
   0.31252912  0.20405159  0.34631395
   0.68759369  0.78729201  0.39027116
   0.93741647  0.45753260  0.69807474
   0.93751916  0.45324847  0.21379246
   0.93797319  0.12022377  0.30203132
   0.93742060  0.28622855  0.25786449
   0.18782765  0.45787207  0.69791455
   0.68722702  0.79205227  0.87325877
   0.31231785  0.70610557  0.56511642
   0.93701251  0.45545647  0.47862293
   0.31237637  0.37501282  0.78621653
   0.93736097  0.78604619  0.12674450
   0.43680242  0.12218443  0.52130981
   0.43708032  0.12031111  0.30204989
   0.43753035  0.62504115  0.78635040
   0.43742629  0.62139025  0.43475371
   0.68699063  0.11864858  0.16877602
   0.06251634  0.87524665  0.78621516
   0.43770499  0.28645878  0.25790209
   0.56215285  0.87550679  0.78631593
   0.93702976  0.45905504  0.83115116
   0.81259624  0.20776242  0.69807665
   0.68764183  0.45318899  0.21369146
   0.06258606  0.53801053  0.39019379
   0.06237388  0.37051474  0.30203271
   0.18739106  0.12020070  0.30195621
   0.06184960  0.54212151  0.87320348
   0.68753333  0.28760831  0.39032491
   0.93760933  0.62360778  0.65367804
   0.93741374  0.61908524  0.16896170
   0.56250086  0.87284993  0.52135994
   0.93818028  0.11983149  0.16898027
   0.56212439  0.70589125  0.56504673
   0.93754593  0.79108813  0.74214023
   0.68753612  0.62381526  0.65354962
   0.06254050  0.04156680  0.74214434
   0.31256389  0.20776148  0.69805489
   0.43756292  0.95406813  0.34633361
   0.43730241  0.45803069  0.83102374
   0.06259641  0.37491940  0.78634137
   0.43779361  0.12482952  0.78629505
   0.93749296  0.95809394  0.83104365
   0.43719238  0.61990422  0.30192914
   0.68739518  0.95487032  0.47857697
   0.31310275  0.87219735  0.52120456
   0.43777225  0.95603933  0.56513626
   0.43732431  0.28766280  0.39028301
   0.68766819  0.12225401  0.52131595
   0.06243673  0.86928879  0.16897231
   0.81236728  0.04164989  0.74216295
   0.18752015  0.78620664  0.25781606
   0.93787234  0.95265176  0.21365364
   0.43814932  0.11872737  0.16881246
   0.68747901  0.95414961  0.34638249
   0.43760900  0.12371711  0.65366620
   0.81271838  0.37373462  0.65374337
   0.06233687  0.20633997  0.56520862
   0.43707757  0.62210554  0.52128092
   0.43755587  0.45404419  0.34638472