       N       E                     dE             d eps       ncg     rms          rms(c)
DAV:   1     0.304239330461E+05    0.30424E+05   -0.91736E+05 27770   0.213E+03
DAV:   2     0.153056223159E+04   -0.28893E+05   -0.28295E+05 27600   0.616E+02
DAV:   3    -0.189972513439E+04   -0.34303E+04   -0.29823E+04 38500   0.299E+02
DAV:   4    -0.261072232703E+04   -0.71100E+03   -0.64748E+03 50510   0.104E+02
DAV:   5    -0.274054177948E+04   -0.12982E+03   -0.12142E+03 48170   0.426E+01    0.208E+02
RMM:   6    -0.851190526311E+04   -0.57714E+04   -0.23283E+04 49273   0.336E+02    0.116E+03
RMM:   7    -0.118886390821E+05   -0.33767E+04   -0.17355E+04 49433   0.226E+02    0.102E+03
RMM:   8    -0.352544176501E+04    0.83632E+04   -0.87545E+03 27600   0.224E+02    0.392E+02
RMM:   9    -0.644382216588E+04   -0.29184E+04   -0.77082E+03 40483   0.220E+02    0.550E+02
RMM:  10    -0.339294231507E+04    0.30509E+04   -0.29759E+03 28543   0.124E+02    0.332E+02
RMM:  11    -0.859474369052E+04   -0.52018E+04   -0.75093E+03 38889   0.213E+02    0.520E+02
RMM:  12    -0.566722934496E+04    0.29275E+04   -0.74670E+03 44622   0.129E+02    0.482E+02
RMM:  13    -0.454615284408E+04    0.11211E+04   -0.34839E+03 45511   0.125E+02    0.394E+02
RMM:  14    -0.560869805803E+04   -0.10625E+04   -0.30277E+03 36581   0.101E+02    0.412E+02
RMM:  15    -0.434507855042E+04    0.12636E+04   -0.33880E+03 35902   0.177E+02    0.348E+02
RMM:  16    -0.369682717369E+04    0.64825E+03   -0.30489E+03 40947   0.740E+01    0.283E+02
RMM:  17    -0.386652361346E+04   -0.16970E+03   -0.14968E+03 37602   0.694E+01    0.319E+02
RMM:  18    -0.311578662398E+04    0.75074E+03   -0.12031E+03 28569   0.701E+01    0.275E+02
RMM:  19    -0.321892172142E+04   -0.10314E+03   -0.87289E+02 30751   0.549E+01    0.254E+02
RMM:  20    -0.274555598639E+04    0.47337E+03   -0.34810E+02 33384   0.272E+01    0.223E+02
RMM:  21    -0.272281566677E+04    0.22740E+02   -0.16003E+02 29242   0.250E+01    0.232E+02
RMM:  22    -0.254528114630E+04    0.17753E+03   -0.20867E+02 36335   0.177E+01    0.180E+02
RMM:  23    -0.249489986801E+04    0.50381E+02   -0.16861E+02 28991   0.251E+01    0.168E+02
RMM:  24    -0.239747309462E+04    0.97427E+02   -0.13780E+02 34079   0.157E+01    0.126E+02
RMM:  25    -0.235688954535E+04    0.40584E+02   -0.89698E+01 35152   0.125E+01    0.974E+01
RMM:  26    -0.237060861461E+04   -0.13719E+02   -0.89147E+01 36869   0.101E+01    0.974E+01
RMM:  27    -0.234966292226E+04    0.20946E+02   -0.48090E+01 38982   0.719E+00    0.763E+01
RMM:  28    -0.234080299186E+04    0.88599E+01   -0.30850E+01 36162   0.584E+00    0.697E+01
RMM:  29    -0.233708173422E+04    0.37213E+01   -0.19881E+01 41514   0.375E+00    0.654E+01
RMM:  30    -0.233640414332E+04    0.67759E+00   -0.83054E+00 36604   0.262E+00    0.637E+01
RMM:  31    -0.233421754341E+04    0.21866E+01   -0.38208E+00 32426   0.260E+00    0.601E+01
RMM:  32    -0.233417161917E+04    0.45924E-01   -0.28688E+00 29346   0.330E+00    0.602E+01
RMM:  33    -0.233375227188E+04    0.41935E+00   -0.26504E+00 29288   0.309E+00    0.605E+01
RMM:  34    -0.233268094946E+04    0.10713E+01   -0.33560E+00 31436   0.287E+00    0.605E+01
RMM:  35    -0.233035281957E+04    0.23281E+01   -0.31129E+00 31570   0.272E+00    0.591E+01
RMM:  36    -0.232886987272E+04    0.14829E+01   -0.30437E+00 33092   0.245E+00    0.570E+01
RMM:  37    -0.232742998162E+04    0.14399E+01   -0.44140E+00 32050   0.307E+00    0.543E+01
RMM:  38    -0.232714715847E+04    0.28282E+00   -0.50725E+00 35281   0.282E+00    0.537E+01
RMM:  39    -0.232636125575E+04    0.78590E+00   -0.31155E+00 34848   0.218E+00    0.526E+01
RMM:  40    -0.232644675182E+04   -0.85496E-01   -0.21404E+00 38194   0.164E+00    0.529E+01
RMM:  41    -0.232748996624E+04   -0.10432E+01   -0.17179E+00 31043   0.213E+00    0.546E+01
RMM:  42    -0.232831967546E+04   -0.82971E+00   -0.13468E+00 30216   0.202E+00    0.551E+01
RMM:  43    -0.233063780663E+04   -0.23181E+01   -0.17001E+00 31132   0.203E+00    0.577E+01
RMM:  44    -0.233069453612E+04   -0.56729E-01   -0.21416E+00 33343   0.187E+00    0.561E+01
RMM:  45    -0.233008360165E+04    0.61093E+00   -0.15427E+00 35375   0.129E+00    0.556E+01
RMM:  46    -0.232852147045E+04    0.15621E+01   -0.90012E-01 32206   0.131E+00    0.543E+01
RMM:  47    -0.232653150551E+04    0.19900E+01   -0.94789E-01 30790   0.160E+00    0.538E+01
RMM:  48    -0.232637112137E+04    0.16038E+00   -0.10453E+00 35280   0.130E+00    0.548E+01
RMM:  49    -0.232664777650E+04   -0.27666E+00   -0.74873E-01 36294   0.106E+00    0.558E+01
RMM:  50    -0.232706405529E+04   -0.41628E+00   -0.30695E-01 31886   0.816E-01    0.571E+01
RMM:  51    -0.264703679278E+04   -0.31997E+03   -0.37885E+02 32848   0.320E+01    0.194E+02
RMM:  52    -0.279929598048E+04   -0.15226E+03   -0.46107E+02 45088   0.146E+01    0.232E+02
RMM:  53    -0.283814174502E+04   -0.38846E+02   -0.31358E+02 47526   0.795E+00    0.252E+02
RMM:  54    -0.285054032890E+04   -0.12399E+02   -0.19490E+02 40025   0.635E+00    0.261E+02
RMM:  55    -0.286083268956E+04   -0.10292E+02   -0.15291E+02 47016   0.381E+00    0.271E+02
RMM:  56    -0.241832583328E+04    0.44251E+03   -0.17011E+02 28666   0.245E+01    0.141E+02
RMM:  57    -0.243794573688E+04   -0.19620E+02   -0.25104E+02 36474   0.205E+01    0.145E+02
RMM:  58    -0.243199615895E+04    0.59496E+01   -0.17589E+02 37059   0.171E+01    0.132E+02
RMM:  59    -0.241545668193E+04    0.16539E+02   -0.88447E+01 30979   0.152E+01    0.121E+02
RMM:  60    -0.239210202992E+04    0.23355E+02   -0.61240E+01 28473   0.153E+01    0.105E+02
RMM:  61    -0.268482837372E+04   -0.29273E+03   -0.27469E+02 30419   0.291E+01    0.206E+02
RMM:  62    -0.253401167947E+04    0.15082E+03   -0.31329E+02 39196   0.196E+01    0.156E+02
RMM:  63    -0.253294741588E+04    0.10643E+01   -0.17443E+02 36651   0.142E+01    0.156E+02
RMM:  64    -0.251509157258E+04    0.17856E+02   -0.11312E+02 35898   0.112E+01    0.151E+02
RMM:  65    -0.249866509566E+04    0.16426E+02   -0.82081E+01 38031   0.901E+00    0.148E+02
RMM:  66    -0.246091898658E+04    0.37746E+02   -0.66437E+01 29862   0.136E+01    0.145E+02
RMM:  67    -0.244565926688E+04    0.15260E+02   -0.43735E+01 27728   0.145E+01    0.141E+02
RMM:  68    -0.238693466132E+04    0.58725E+02   -0.45125E+01 30719   0.113E+01    0.105E+02
RMM:  69    -0.238744970728E+04   -0.51505E+00   -0.45740E+01 28043   0.146E+01    0.106E+02
RMM:  70    -0.239307692389E+04   -0.56272E+01   -0.66898E+01 29865   0.140E+01    0.109E+02
RMM:  71    -0.238689414087E+04    0.61828E+01   -0.67122E+01 29671   0.144E+01    0.104E+02
RMM:  72    -0.237512080592E+04    0.11773E+02   -0.56357E+01 32929   0.100E+01    0.904E+01
RMM:  73    -0.238980347325E+04   -0.14683E+02   -0.53401E+01 37448   0.794E+00    0.997E+01
RMM:  74    -0.239451540299E+04   -0.47119E+01   -0.31467E+01 43986   0.329E+00    0.104E+02
RMM:  75    -0.239614861778E+04   -0.16332E+01   -0.11464E+01 45681   0.133E+00    0.107E+02
RMM:  76    -0.237335263513E+04    0.22796E+02   -0.51738E+01 28481   0.137E+01    0.937E+01
RMM:  77    -0.237045948733E+04    0.28931E+01   -0.27007E+01 27600   0.138E+01    0.904E+01
RMM:  78    -0.237280212684E+04   -0.23426E+01   -0.10315E+01 28645   0.661E+00    0.903E+01
RMM:  79    -0.237019673142E+04    0.26054E+01   -0.10175E+01 32439   0.498E+00    0.870E+01
RMM:  80    -0.235881032046E+04    0.11386E+02   -0.86188E+00 39221   0.320E+00    0.763E+01
RMM:  81    -0.242124753466E+04   -0.62437E+02   -0.17849E+02 31581   0.213E+01    0.121E+02
RMM:  82    -0.237537569821E+04    0.45872E+02   -0.62933E+01 27980   0.165E+01    0.951E+01
RMM:  83    -0.235833003087E+04    0.17046E+02   -0.53425E+01 32836   0.103E+01    0.783E+01
RMM:  84    -0.236339196971E+04   -0.50619E+01   -0.31565E+01 33460   0.739E+00    0.845E+01
RMM:  85    -0.237171406171E+04   -0.83221E+01   -0.33814E+01 42289   0.433E+00    0.920E+01
RMM:  86    -0.238665546940E+04   -0.14941E+02   -0.19650E+01 31170   0.691E+00    0.106E+02
RMM:  87    -0.238601352759E+04    0.64194E+00   -0.10651E+01 30285   0.559E+00    0.106E+02
RMM:  88    -0.238896760042E+04   -0.29541E+01   -0.15344E+01 38544   0.278E+00    0.110E+02
RMM:  89    -0.239383732078E+04   -0.48697E+01   -0.11401E+01 44952   0.133E+00    0.116E+02
RMM:  90    -0.238829904928E+04    0.55383E+01   -0.41509E+00 41767   0.117E+00    0.115E+02
RMM:  91    -0.238715706775E+04    0.11420E+01   -0.40675E+00 29693   0.351E+00    0.115E+02
RMM:  92    -0.238516168022E+04    0.19954E+01   -0.18233E+00 28859   0.313E+00    0.115E+02
RMM:  93    -0.238384120130E+04    0.13205E+01   -0.12275E+00 31735   0.114E+00    0.114E+02
RMM:  94    -0.238194600258E+04    0.18952E+01   -0.91987E-01 41241   0.639E-01    0.113E+02
RMM:  95    -0.237858870880E+04    0.33573E+01   -0.36238E-01 33281   0.654E-01    0.111E+02
RMM:  96    -0.235719479088E+04    0.21394E+02   -0.23576E+01 31283   0.726E+00    0.825E+01
RMM:  97    -0.233886386303E+04    0.18331E+02   -0.73071E+00 29726   0.490E+00    0.575E+01
RMM:  98    -0.233803658098E+04    0.82728E+00   -0.83122E+00 35147   0.343E+00    0.568E+01
RMM:  99    -0.233574485363E+04    0.22917E+01   -0.33182E+00 37796   0.198E+00    0.519E+01
RMM: 100    -0.233542785901E+04    0.31699E+00   -0.27753E+00 30161   0.294E+00
   1 F= -.23354279E+04 E0= -.23325867E+04  d E =-.233543E+04
       N       E                     dE             d eps       ncg     rms          rms(c)
DAV:   1    -0.236465366626E+04   -0.28909E+02   -0.50524E+02 41900   0.362E+01    0.886E+01
RMM:   2    -0.278973943283E+05   -0.25533E+05   -0.44614E+04 49214   0.484E+02    0.181E+03
RMM:   3    -0.256314067110E+05    0.22660E+04   -0.30970E+04 50078   0.321E+02    0.117E+03
RMM:   4    -0.207133301179E+05    0.49181E+04   -0.23980E+04 49551   0.223E+02    0.112E+03
RMM:   5    -0.245802365462E+05   -0.38669E+04   -0.48049E+04 46333   0.355E+02    0.181E+03
RMM:   6    -0.275027020950E+05   -0.29225E+04   -0.62288E+04 47148   0.412E+02    0.245E+03
RMM:   7    -0.301931519408E+05   -0.26904E+04   -0.65774E+04 47132   0.444E+02    0.248E+03
RMM:   8    -0.302070818115E+05   -0.13930E+02   -0.44300E+04 49010   0.407E+02    0.290E+03
RMM:   9    -0.343939417869E+05   -0.41869E+04   -0.39300E+04 48703   0.352E+02    0.295E+03
RMM:  10    -0.289480239229E+05    0.54459E+04   -0.23515E+04 45056   0.203E+02    0.250E+03
RMM:  11    -0.120209293806E+05    0.16927E+05   -0.45929E+03 39753   0.114E+02    0.137E+03
RMM:  12    -0.278249428300E+04    0.92384E+04   -0.13265E+04 46201   0.188E+02    0.846E+02
RMM:  13     0.121075326771E+04    0.39932E+04   -0.73107E+03 44609   0.179E+02    0.465E+02
RMM:  14     0.107643043925E+04   -0.13432E+03   -0.56868E+03 50844   0.119E+02    0.478E+02
RMM:  15     0.228071013656E+03   -0.84836E+03   -0.41430E+03 49813   0.123E+02    0.401E+02
RMM:  16    -0.630562495708E+03   -0.85863E+03   -0.53906E+03 49602   0.106E+02    0.320E+02
RMM:  17    -0.133872274436E+04   -0.70816E+03   -0.45902E+03 46783   0.944E+01    0.261E+02
RMM:  18    -0.164336488370E+04   -0.30464E+03   -0.36666E+03 50333   0.617E+01    0.166E+02
RMM:  19    -0.183211738053E+04   -0.18875E+03   -0.22862E+03 51228   0.445E+01    0.141E+02
RMM:  20    -0.206958938063E+04   -0.23747E+03   -0.19678E+03 48655   0.345E+01    0.127E+02
RMM:  21    -0.217103436832E+04   -0.10144E+03   -0.15206E+03 49991   0.300E+01    0.102E+02
RMM:  22    -0.226908812848E+04   -0.98054E+02   -0.12270E+03 48721   0.253E+01    0.109E+02
RMM:  23    -0.234582111023E+04   -0.76733E+02   -0.11177E+03 49380   0.226E+01    0.955E+01
RMM:  24    -0.242626042500E+04   -0.80439E+02   -0.10375E+03 48038   0.192E+01    0.110E+02
RMM:  25    -0.251873950364E+04   -0.92479E+02   -0.96616E+02 45200   0.179E+01    0.125E+02
RMM:  26    -0.260225635547E+04   -0.83517E+02   -0.87065E+02 43713   0.170E+01    0.140E+02
RMM:  27    -0.267856441693E+04   -0.76308E+02   -0.72982E+02 47535   0.131E+01    0.156E+02
RMM:  28    -0.274141931650E+04   -0.62855E+02   -0.63117E+02 47946   0.101E+01    0.174E+02
RMM:  29    -0.279003429247E+04   -0.48615E+02   -0.54179E+02 40733   0.123E+01    0.190E+02
RMM:  30    -0.279666531510E+04   -0.66310E+01   -0.47038E+02 45538   0.101E+01    0.201E+02
RMM:  31    -0.281778240985E+04   -0.21117E+02   -0.39509E+02 46262   0.735E+00    0.214E+02
RMM:  32    -0.284116891127E+04   -0.23387E+02   -0.26428E+02 43636   0.582E+00    0.227E+02
RMM:  33    -0.287272412874E+04   -0.31555E+02   -0.16233E+02 42959   0.455E+00    0.237E+02
RMM:  34    -0.281386166083E+04    0.58862E+02   -0.84982E+01 34889   0.575E+00    0.241E+02
RMM:  35    -0.274481778460E+04    0.69044E+02   -0.69571E+01 40449   0.600E+00    0.240E+02
RMM:  36    -0.272760657858E+04    0.17211E+02   -0.62508E+01 42906   0.371E+00    0.241E+02
RMM:  37    -0.273355433424E+04   -0.59478E+01   -0.36162E+01 44933   0.182E+00    0.244E+02
RMM:  38    -0.272802585341E+04    0.55285E+01   -0.19588E+01 42123   0.134E+00    0.245E+02
RMM:  39    -0.271404398851E+04    0.13982E+02   -0.11785E+01 40600   0.130E+00    0.245E+02
RMM:  40    -0.270187153239E+04    0.12172E+02   -0.73562E+00 33068   0.199E+00    0.245E+02
RMM:  41    -0.268465299168E+04    0.17219E+02   -0.56185E+00 35152   0.239E+00    0.243E+02
RMM:  42    -0.263689609687E+04    0.47757E+02   -0.58515E+00 31109   0.325E+00    0.233E+02
RMM:  43    -0.258181169298E+04    0.55084E+02   -0.84187E+00 31646   0.369E+00    0.218E+02
RMM:  44    -0.253063891287E+04    0.51173E+02   -0.12937E+01 30589   0.501E+00    0.201E+02
RMM:  45    -0.248084436533E+04    0.49795E+02   -0.20155E+01 39672   0.383E+00    0.172E+02
RMM:  46    -0.246180260244E+04    0.19042E+02   -0.12938E+01 33093   0.386E+00    0.163E+02
RMM:  47    -0.235678917370E+04    0.10501E+03   -0.47129E+01 36305   0.568E+00    0.726E+01
RMM:  48    -0.234394359215E+04    0.12846E+02   -0.25722E+01 34829   0.573E+00    0.586E+01
RMM:  49    -0.233986065119E+04    0.40829E+01   -0.20659E+01 39663   0.432E+00    0.529E+01
RMM:  50    -0.233659231463E+04    0.32683E+01   -0.11640E+01 36219   0.324E+00    0.491E+01
RMM:  51    -0.233512072922E+04    0.14716E+01   -0.84437E+00 35345   0.323E+00    0.460E+01
RMM:  52    -0.239787347047E+04   -0.62753E+02   -0.65082E+01 32169   0.989E+00    0.951E+01
RMM:  53    -0.236214371130E+04    0.35730E+02   -0.25380E+01 31207   0.783E+00    0.765E+01
RMM:  54    -0.235004758475E+04    0.12096E+02   -0.26109E+01 39999   0.472E+00    0.647E+01
RMM:  55    -0.234114394057E+04    0.89036E+01   -0.75671E+00 30555   0.453E+00    0.554E+01
RMM:  56    -0.233807448927E+04    0.30695E+01   -0.92419E+00 31788   0.457E+00    0.488E+01
RMM:  57    -0.233873346522E+04   -0.65898E+00   -0.23421E+01 28052   0.104E+01    0.523E+01
RMM:  58    -0.233554860910E+04    0.31849E+01   -0.21834E+01 28879   0.901E+00    0.457E+01
RMM:  59    -0.233224046170E+04    0.33081E+01   -0.10873E+01 28573   0.712E+00    0.380E+01
RMM:  60    -0.233555440210E+04   -0.33139E+01   -0.12617E+01 31761   0.525E+00    0.436E+01
RMM:  61    -0.233407074166E+04    0.14837E+01   -0.92341E+00 32063   0.453E+00    0.399E+01
RMM:  62    -0.233276011649E+04    0.13106E+01   -0.87121E+00 31239   0.468E+00    0.367E+01
RMM:  63    -0.233223746611E+04    0.52265E+00   -0.45585E+00 28969   0.421E+00    0.358E+01
RMM:  64    -0.233081730748E+04    0.14202E+01   -0.36344E+00 29388   0.367E+00    0.319E+01
RMM:  65    -0.232777386294E+04    0.30434E+01   -0.16571E+00 29159   0.257E+00    0.227E+01
RMM:  66    -0.232701121917E+04    0.76264E+00   -0.11019E+00 29093   0.220E+00    0.199E+01
RMM:  67    -0.232877831339E+04   -0.17671E+01   -0.65038E+00 29585   0.466E+00    0.264E+01
RMM:  68    -0.232874204488E+04    0.36269E-01   -0.24153E+00 27651   0.391E+00    0.263E+01
RMM:  69    -0.232953963696E+04   -0.79759E+00   -0.12216E+00 29298   0.222E+00    0.283E+01
RMM:  70    -0.232957244417E+04   -0.32807E-01   -0.77631E-01 29894   0.161E+00    0.284E+01
RMM:  71    -0.232810728469E+04    0.14652E+01   -0.62619E-01 29911   0.143E+00    0.238E+01
RMM:  72    -0.232607903922E+04    0.20282E+01   -0.24520E+00 29598   0.274E+00    0.163E+01
RMM:  73    -0.232770722003E+04   -0.16282E+01   -0.10062E+00 27633   0.225E+00    0.228E+01
RMM:  74    -0.233030114029E+04   -0.25939E+01   -0.11327E+00 31982   0.152E+00    0.310E+01
RMM:  75    -0.233048392154E+04   -0.18278E+00   -0.82744E-01 37597   0.924E-01    0.314E+01
RMM:  76    -0.233054958354E+04   -0.65662E-01   -0.29973E-01 32456   0.745E-01    0.317E+01
RMM:  77    -0.232680747379E+04    0.37421E+01   -0.22760E+00 30089   0.259E+00    0.193E+01
RMM:  78    -0.232537541886E+04    0.14321E+01   -0.10487E+00 28160   0.235E+00    0.113E+01
RMM:  79    -0.232533508809E+04    0.40331E-01   -0.62753E-01 28662   0.165E+00    0.107E+01
RMM:  80    -0.232504651913E+04    0.28857E+00   -0.42712E-01 28552   0.139E+00    0.765E+00
RMM:  81    -0.232493226411E+04    0.11426E+00   -0.40523E-01 29331   0.124E+00    0.620E+00
RMM:  82    -0.232552019380E+04   -0.58793E+00   -0.79392E-01 31978   0.128E+00    0.121E+01
RMM:  83    -0.232520151179E+04    0.31868E+00   -0.32056E-01 31947   0.853E-01    0.899E+00
RMM:  84    -0.232503272055E+04    0.16879E+00   -0.17489E-01 30353   0.734E-01    0.738E+00
RMM:  85    -0.232495309791E+04    0.79623E-01   -0.13462E-01 30257   0.643E-01    0.607E+00
RMM:  86    -0.232499189987E+04   -0.38802E-01   -0.90918E-02 30266   0.538E-01    0.662E+00
RMM:  87    -0.232542557822E+04   -0.43368E+00   -0.79392E-01 28149   0.180E+00    0.110E+01
RMM:  88    -0.232505102857E+04    0.37455E+00   -0.38358E-01 27607   0.163E+00    0.728E+00
RMM:  89    -0.232493134968E+04    0.11968E+00   -0.16849E-01 27793   0.937E-01    0.556E+00
RMM:  90    -0.232502748642E+04   -0.96137E-01   -0.22240E-01 28049   0.102E+00    0.689E+00
RMM:  91    -0.232488598441E+04    0.14150E+00   -0.13659E-01 27638   0.887E-01    0.432E+00
RMM:  92    -0.232516005388E+04   -0.27407E+00   -0.58645E-01 27741   0.160E+00    0.811E+00
RMM:  93    -0.232493440207E+04    0.22565E+00   -0.26620E-01 27604   0.138E+00    0.520E+00
RMM:  94    -0.232489894111E+04    0.35461E-01   -0.10167E-01 27873   0.761E-01    0.448E+00
RMM:  95    -0.232487778747E+04    0.21154E-01   -0.69887E-02 28052   0.580E-01    0.404E+00
RMM:  96    -0.232483584968E+04    0.41938E-01   -0.44609E-02 28323   0.442E-01    0.288E+00
RMM:  97    -0.232508101797E+04   -0.24517E+00   -0.25456E-01 27647   0.106E+00    0.712E+00
RMM:  98    -0.232485437429E+04    0.22664E+00   -0.95631E-02 27612   0.859E-01    0.320E+00
RMM:  99    -0.232483379828E+04    0.20576E-01   -0.28313E-02 29284   0.329E-01    0.272E+00
RMM: 100    -0.232482832051E+04    0.54778E-02   -0.27918E-02 30782   0.270E-01
   2 F= -.23248283E+04 E0= -.23220628E+04  d E =0.105995E+02
       N       E                     dE             d eps       ncg     rms          rms(c)
DAV:   1    -0.232488501537E+04   -0.51217E-01   -0.22433E+01 29790   0.502E+00    0.247E+00
RMM:   2    -0.269675683223E+04   -0.37187E+03   -0.11383E+02 39028   0.934E+00    0.182E+02
RMM:   3    -0.233338947349E+04    0.36337E+03   -0.57759E+00 27732   0.489E+00    0.355E+01
RMM:   4    -0.233673874972E+04   -0.33493E+01   -0.42669E+00 35638   0.261E+00    0.452E+01
RMM:   5    -0.233380134940E+04    0.29374E+01   -0.29985E+00 28126   0.331E+00    0.405E+01
RMM:   6    -0.233039596669E+04    0.34054E+01   -0.69433E+00 34271   0.344E+00    0.319E+01
RMM:   7    -0.232788110930E+04    0.25149E+01   -0.28470E+00 27719   0.346E+00    0.227E+01
RMM:   8    -0.232556186454E+04    0.23192E+01   -0.11587E+00 27605   0.262E+00    0.112E+01
RMM:   9    -0.232539925196E+04    0.16261E+00   -0.51548E-01 27810   0.149E+00    0.101E+01
RMM:  10    -0.232562823698E+04   -0.22899E+00   -0.81937E-01 36158   0.103E+00    0.116E+01
RMM:  11    -0.232499984392E+04    0.62839E+00   -0.19742E-01 27986   0.856E-01    0.451E+00
RMM:  12    -0.232499019922E+04    0.96447E-02   -0.14882E-01 28698   0.741E-01    0.486E+00
RMM:  13    -0.232496745943E+04    0.22740E-01   -0.19684E-01 36149   0.516E-01    0.421E+00
RMM:  14    -0.232494182270E+04    0.25637E-01   -0.70752E-02 32179   0.372E-01    0.341E+00
RMM:  15    -0.232493205572E+04    0.97670E-02   -0.55126E-02 39642   0.217E-01    0.306E+00
RMM:  16    -0.232490645764E+04    0.25598E-01   -0.18027E-02 31264   0.211E-01    0.208E+00
RMM:  17    -0.232489072636E+04    0.15731E-01   -0.83934E-03 28371   0.192E-01    0.126E+00
RMM:  18    -0.232488992158E+04    0.80478E-03   -0.64228E-03 29734   0.145E-01    0.120E+00
RMM:  19    -0.232489032828E+04   -0.40670E-03   -0.90572E-03 33594   0.132E-01    0.123E+00
RMM:  20    -0.232488756621E+04    0.27621E-02   -0.39811E-03 29934   0.111E-01    0.101E+00
RMM:  21    -0.232488741752E+04    0.14869E-03   -0.35809E-03 33054   0.832E-02    0.982E-01
RMM:  22    -0.232488734901E+04    0.68514E-04   -0.38442E-03 31979   0.938E-02    0.946E-01
RMM:  23    -0.232488521646E+04    0.21325E-02   -0.17050E-03 28602   0.861E-02    0.656E-01
RMM:  24    -0.232488482124E+04    0.39522E-03   -0.15924E-03 33637   0.526E-02    0.573E-01
RMM:  25    -0.232488395731E+04    0.86393E-03   -0.11782E-03 31293   0.548E-02    0.380E-01
RMM:  26    -0.232488353372E+04    0.42359E-03   -0.66194E-04 30151   0.456E-02    0.233E-01
RMM:  27    -0.232488347851E+04    0.55215E-04   -0.64424E-04 36534   0.275E-02    0.180E-01
RMM:  28    -0.232488348317E+04   -0.46593E-05   -0.35204E-04 34230   0.236E-02    0.158E-01
RMM:  29    -0.232488350195E+04   -0.18783E-04   -0.15839E-04 28786   0.217E-02    0.129E-01
RMM:  30    -0.232488349942E+04    0.25321E-05   -0.99202E-05 24418   0.136E-02
   3 F= -.23248835E+04 E0= -.23221163E+04  d E =0.105444E+02
       N       E                     dE             d eps       ncg     rms          rms(c)
DAV:   1    -0.232490056569E+04   -0.17064E-01   -0.89826E+01 27690   0.997E+00    0.246E+00
RMM:   2    -0.234490791905E+04   -0.20007E+02   -0.55512E+00 30486   0.420E+00    0.586E+01
RMM:   3    -0.234118728322E+04    0.37206E+01   -0.27185E+00 35314   0.227E+00    0.566E+01
RMM:   4    -0.233300352727E+04    0.81838E+01   -0.12559E+00 29925   0.194E+00    0.373E+01
RMM:   5    -0.232846321348E+04    0.45403E+01   -0.79994E-01 29013   0.162E+00    0.251E+01
RMM:   6    -0.232586654410E+04    0.25967E+01   -0.83018E-01 27753   0.181E+00    0.127E+01
RMM:   7    -0.232698477104E+04   -0.11182E+01   -0.20608E+00 33624   0.200E+00    0.193E+01
RMM:   8    -0.232669721060E+04    0.28756E+00   -0.13401E+00 29743   0.197E+00    0.171E+01
RMM:   9    -0.232521949497E+04    0.14777E+01   -0.46335E-01 27633   0.156E+00    0.655E+00
RMM:  10    -0.232503552846E+04    0.18397E+00   -0.20681E-01 28027   0.938E-01    0.375E+00
RMM:  11    -0.232502670574E+04    0.88227E-02   -0.29161E-01 35510   0.657E-01    0.343E+00
RMM:  12    -0.232500576825E+04    0.20937E-01   -0.12494E-01 31752   0.506E-01    0.273E+00
RMM:  13    -0.232499231730E+04    0.13451E-01   -0.75473E-02 32790   0.373E-01    0.203E+00
RMM:  14    -0.232498902546E+04    0.32918E-02   -0.49567E-02 36077   0.273E-01    0.182E+00
RMM:  15    -0.232497757927E+04    0.11446E-01   -0.13121E-02 27949   0.234E-01    0.997E-01
RMM:  16    -0.232497399785E+04    0.35814E-02   -0.72849E-03 28445   0.174E-01    0.669E-01
RMM:  17    -0.232497338361E+04    0.61425E-03   -0.83005E-03 36876   0.110E-01    0.521E-01
RMM:  18    -0.232497303653E+04    0.34707E-03   -0.33950E-03 30728   0.945E-02    0.432E-01
RMM:  19    -0.232497277888E+04    0.25765E-03   -0.21594E-03 29696   0.873E-02    0.364E-01
RMM:  20    -0.232497314314E+04   -0.36425E-03   -0.27975E-03 30236   0.897E-02    0.418E-01
RMM:  21    -0.232497313341E+04    0.97223E-05   -0.14545E-03 28066   0.816E-02    0.404E-01
RMM:  22    -0.232497272640E+04    0.40701E-03   -0.72139E-04 28748   0.572E-02    0.298E-01
RMM:  23    -0.232497260003E+04    0.12638E-03   -0.97081E-04 33813   0.391E-02    0.240E-01
RMM:  24    -0.232497237946E+04    0.22057E-03   -0.40118E-04 30962   0.313E-02    0.120E-01
RMM:  25    -0.232497236720E+04    0.12257E-04   -0.30048E-04 32355   0.195E-02    0.990E-02
RMM:  26    -0.232497237161E+04   -0.44034E-05   -0.15124E-04 27295   0.128E-02    0.906E-02
RMM:  27    -0.232497235871E+04    0.12893E-04   -0.61197E-05 21986   0.126E-02    0.631E-02
RMM:  28    -0.232497235060E+04    0.81101E-05   -0.27022E-05 18203   0.103E-02
   4 F= -.23249724E+04 E0= -.23222013E+04  d E =0.104555E+02
       N       E                     dE             d eps       ncg     rms          rms(c)
DAV:   1    -0.232528719103E+04   -0.31483E+00   -0.11807E+02 27700   0.114E+01    0.293E+00
RMM:   2    -0.233395410632E+04   -0.86669E+01   -0.73567E+00 29955   0.504E+00    0.385E+01
RMM:   3    -0.235423731663E+04   -0.20283E+02   -0.41255E+00 36466   0.253E+00    0.741E+01
RMM:   4    -0.233572109631E+04    0.18516E+02   -0.15170E+00 27676   0.267E+00    0.421E+01
RMM:   5    -0.232673870757E+04    0.89824E+01   -0.88501E-01 30314   0.162E+00    0.149E+01
RMM:   6    -0.232746718726E+04   -0.72848E+00   -0.14362E+00 28442   0.216E+00    0.194E+01
RMM:   7    -0.232844598407E+04   -0.97880E+00   -0.22854E+00 33952   0.212E+00    0.243E+01
RMM:   8    -0.232754843077E+04    0.89755E+00   -0.12717E+00 30387   0.184E+00    0.193E+01
RMM:   9    -0.232585958851E+04    0.16888E+01   -0.54196E-01 27610   0.161E+00    0.914E+00
RMM:  10    -0.232549648407E+04    0.36310E+00   -0.31691E-01 29375   0.969E-01    0.460E+00
RMM:  11    -0.232548514591E+04    0.11338E-01   -0.45222E-01 33646   0.932E-01    0.443E+00
RMM:  12    -0.232544152433E+04    0.43622E-01   -0.18841E-01 30813   0.700E-01    0.325E+00
RMM:  13    -0.232540803335E+04    0.33491E-01   -0.92705E-02 29892   0.509E-01    0.211E+00
RMM:  14    -0.232540782884E+04    0.20451E-03   -0.89725E-02 38681   0.311E-01    0.196E+00
RMM:  15    -0.232539698695E+04    0.10842E-01   -0.23880E-02 28417   0.307E-01    0.133E+00
RMM:  16    -0.232539119718E+04    0.57898E-02   -0.11861E-02 27958   0.237E-01    0.934E-01
RMM:  17    -0.232539085588E+04    0.34130E-03   -0.13271E-02 33290   0.162E-01    0.836E-01
RMM:  18    -0.232538972659E+04    0.11293E-02   -0.81491E-03 32538   0.131E-01    0.680E-01
RMM:  19    -0.232538858962E+04    0.11370E-02   -0.37646E-03 30038   0.108E-01    0.479E-01
RMM:  20    -0.232538894287E+04   -0.35325E-03   -0.42485E-03 32337   0.972E-02    0.525E-01
RMM:  21    -0.232538817473E+04    0.76813E-03   -0.20091E-03 28585   0.909E-02    0.354E-01
RMM:  22    -0.232538790489E+04    0.26984E-03   -0.13751E-03 30359   0.643E-02    0.275E-01
RMM:  23    -0.232538793156E+04   -0.26664E-04   -0.14881E-03 37195   0.422E-02    0.254E-01
RMM:  24    -0.232538781492E+04    0.11664E-03   -0.67673E-04 32306   0.378E-02    0.188E-01
RMM:  25    -0.232538768626E+04    0.12865E-03   -0.33863E-04 31322   0.280E-02    0.995E-02
RMM:  26    -0.232538768998E+04   -0.37134E-05   -0.29783E-04 32286   0.140E-02    0.839E-02
RMM:  27    -0.232538767363E+04    0.16342E-04   -0.99317E-05 24395   0.136E-02    0.586E-02
RMM:  28    -0.232538767054E+04    0.30919E-05   -0.47510E-05 20197   0.116E-02
   5 F= -.23253877E+04 E0= -.23226139E+04  d E =-.415320E+00
       N       E                     dE             d eps       ncg     rms          rms(c)
DAV:   1    -0.232532225496E+04    0.65419E-01   -0.30643E+02 27700   0.185E+01    0.495E+00
RMM:   2    -0.234971682397E+04   -0.24395E+02   -0.20182E+01 29254   0.885E+00    0.630E+01
RMM:   3    -0.241161667178E+04   -0.61900E+02   -0.14164E+01 37973   0.429E+00    0.124E+02
RMM:   4    -0.235216149619E+04    0.59455E+02   -0.45620E+00 27649   0.464E+00    0.672E+01
RMM:   5    -0.232906574526E+04    0.23096E+02   -0.26531E+00 31635   0.265E+00    0.239E+01
RMM:   6    -0.233124848837E+04   -0.21827E+01   -0.40490E+00 28612   0.361E+00    0.322E+01
RMM:   7    -0.233261130069E+04   -0.13628E+01   -0.58949E+00 33601   0.350E+00    0.361E+01
RMM:   8    -0.233229735696E+04    0.31394E+00   -0.34869E+00 30365   0.296E+00    0.340E+01
RMM:   9    -0.232685305267E+04    0.54443E+01   -0.15058E+00 27605   0.277E+00    0.145E+01
RMM:  10    -0.232593941560E+04    0.91364E+00   -0.85755E-01 29720   0.155E+00    0.776E+00
RMM:  11    -0.232592497159E+04    0.14444E-01   -0.11744E+00 32184   0.160E+00    0.749E+00
RMM:  12    -0.232576451410E+04    0.16046E+00   -0.43155E-01 28960   0.116E+00    0.511E+00
RMM:  13    -0.232570585434E+04    0.58660E-01   -0.27943E-01 31160   0.792E-01    0.376E+00
RMM:  14    -0.232570703547E+04   -0.11811E-02   -0.23222E-01 37758   0.533E-01    0.362E+00
RMM:  15    -0.232566949742E+04    0.37538E-01   -0.56796E-02 27843   0.493E-01    0.231E+00
RMM:  16    -0.232565199454E+04    0.17503E-01   -0.30947E-02 28118   0.378E-01    0.162E+00
RMM:  17    -0.232564813155E+04    0.38630E-02   -0.35660E-02 34616   0.242E-01    0.129E+00
RMM:  18    -0.232564535545E+04    0.27761E-02   -0.19385E-02 32340   0.193E-01    0.102E+00
RMM:  19    -0.232564484195E+04    0.51350E-03   -0.12641E-02 31237   0.177E-01    0.937E-01
RMM:  20    -0.232564536895E+04   -0.52701E-03   -0.10862E-02 30069   0.182E-01    0.947E-01
RMM:  21    -0.232564328033E+04    0.20886E-02   -0.49623E-03 28042   0.157E-01    0.738E-01
RMM:  22    -0.232564267134E+04    0.60899E-03   -0.52550E-03 31862   0.108E-01    0.615E-01
RMM:  23    -0.232564200774E+04    0.66360E-03   -0.48116E-03 35367   0.869E-02    0.450E-01
RMM:  24    -0.232564123537E+04    0.77237E-03   -0.16942E-03 30548   0.686E-02    0.237E-01
RMM:  25    -0.232564119008E+04    0.45286E-04   -0.16770E-03 38778   0.391E-02    0.170E-01
RMM:  26    -0.232564118015E+04    0.99315E-05   -0.70196E-04 37392   0.267E-02    0.144E-01
RMM:  27    -0.232564113976E+04    0.40392E-04   -0.25524E-04 30736   0.207E-02    0.108E-01
RMM:  28    -0.232564114530E+04   -0.55369E-05   -0.17091E-04 28281   0.145E-02    0.104E-01
RMM:  29    -0.232564112706E+04    0.18238E-04   -0.12325E-04 28725   0.162E-02    0.771E-02
RMM:  30    -0.232564110552E+04    0.21540E-04   -0.48713E-05 21112   0.139E-02    0.438E-02
RMM:  31    -0.232564110359E+04    0.19278E-05   -0.31998E-05 18770   0.970E-03
   6 F= -.23256411E+04 E0= -.23228636E+04  d E =-.668753E+00
       N       E                     dE             d eps       ncg     rms          rms(c)
DAV:   1    -0.232572077700E+04   -0.79671E-01   -0.36369E+01 27730   0.634E+00    0.164E+00
RMM:   2    -0.232921652444E+04   -0.34957E+01   -0.23928E+00 30690   0.271E+00    0.254E+01
RMM:   3    -0.233212756271E+04   -0.29110E+01   -0.76218E-01 27846   0.177E+00    0.340E+01
RMM:   4    -0.232682102075E+04    0.53065E+01   -0.29719E-01 27745   0.116E+00    0.130E+01
RMM:   5    -0.232702858241E+04   -0.20756E+00   -0.14930E-01 28857   0.721E-01    0.154E+01
RMM:   6    -0.232617291791E+04    0.85566E+00   -0.17053E-01 30015   0.687E-01    0.899E+00
RMM:   7    -0.232607120913E+04    0.10171E+00   -0.26935E-01 28070   0.992E-01    0.756E+00
RMM:   8    -0.232624714643E+04   -0.17594E+00   -0.31854E-01 28714   0.103E+00    0.924E+00
RMM:   9    -0.232582828711E+04    0.41886E+00   -0.11739E-01 27634   0.748E-01    0.383E+00
RMM:  10    -0.232575797713E+04    0.70310E-01   -0.59650E-02 28280   0.511E-01    0.178E+00
RMM:  11    -0.232576253621E+04   -0.45591E-02   -0.65992E-02 32487   0.351E-01    0.193E+00
RMM:  12    -0.232576074834E+04    0.17879E-02   -0.44970E-02 31972   0.322E-01    0.178E+00
RMM:  13    -0.232574610039E+04    0.14648E-01   -0.12727E-02 27748   0.259E-01    0.787E-01
RMM:  14    -0.232574569924E+04    0.40114E-03   -0.11672E-02 33687   0.147E-01    0.717E-01
RMM:  15    -0.232574552316E+04    0.17608E-03   -0.87453E-03 30423   0.151E-01    0.622E-01
RMM:  16    -0.232574425151E+04    0.12717E-02   -0.36722E-03 28106   0.125E-01    0.433E-01
RMM:  17    -0.232574390228E+04    0.34923E-03   -0.30172E-03 34258   0.711E-02    0.329E-01
RMM:  18    -0.232574392234E+04   -0.20056E-04   -0.16462E-03 32965   0.558E-02    0.328E-01
RMM:  19    -0.232574355393E+04    0.36841E-03   -0.67846E-04 29410   0.506E-02    0.188E-01
RMM:  20    -0.232574350222E+04    0.51706E-04   -0.58770E-04 34988   0.291E-02    0.139E-01
RMM:  21    -0.232574351533E+04   -0.13113E-04   -0.41762E-04 34223   0.266E-02    0.129E-01
RMM:  22    -0.232574348722E+04    0.28111E-04   -0.19485E-04 29265   0.238E-02    0.103E-01
RMM:  23    -0.232574347715E+04    0.10075E-04   -0.13035E-04 26518   0.149E-02    0.882E-02
RMM:  24    -0.232574347212E+04    0.50262E-05   -0.64416E-05 22307   0.106E-02
   7 F= -.23257435E+04 E0= -.23229674E+04  d E =-.102369E+00
       N       E                     dE             d eps       ncg     rms          rms(c)
DAV:   1    -0.232574095128E+04    0.25259E-02   -0.79048E+01 27710   0.935E+00    0.248E+00
RMM:   2    -0.233328948504E+04   -0.75485E+01   -0.53142E+00 30328   0.417E+00    0.369E+01
RMM:   3    -0.233939769907E+04   -0.61082E+01   -0.16569E+00 27784   0.271E+00    0.498E+01
RMM:   4    -0.232851594080E+04    0.10882E+02   -0.64413E-01 28205   0.159E+00    0.210E+01
RMM:   5    -0.232842945711E+04    0.86484E-01   -0.34208E-01 28698   0.109E+00    0.218E+01
RMM:   6    -0.232670906145E+04    0.17204E+01   -0.36601E-01 29258   0.106E+00    0.131E+01
RMM:   7    -0.232652971634E+04    0.17935E+00   -0.60593E-01 28207   0.147E+00    0.114E+01
RMM:   8    -0.232702052466E+04   -0.49081E+00   -0.70363E-01 28645   0.153E+00    0.144E+01
RMM:   9    -0.232595341682E+04    0.10671E+01   -0.26139E-01 27626   0.115E+00    0.514E+00
RMM:  10    -0.232581738902E+04    0.13603E+00   -0.12383E-01 28040   0.759E-01    0.230E+00
RMM:  11    -0.232583319940E+04   -0.15810E-01   -0.13847E-01 31602   0.539E-01    0.272E+00
RMM:  12    -0.232582877251E+04    0.44269E-02   -0.93305E-02 31546   0.471E-01    0.254E+00
RMM:  13    -0.232580084025E+04    0.27932E-01   -0.27442E-02 28018   0.366E-01    0.125E+00
RMM:  14    -0.232580049760E+04    0.34265E-03   -0.29388E-02 34050   0.220E-01    0.118E+00
RMM:  15    -0.232579913877E+04    0.13588E-02   -0.20275E-02 30342   0.230E-01    0.939E-01
RMM:  16    -0.232579592538E+04    0.32134E-02   -0.78679E-03 28023   0.187E-01    0.624E-01
RMM:  17    -0.232579518607E+04    0.73930E-03   -0.65098E-03 33946   0.105E-01    0.474E-01
RMM:  18    -0.232579530203E+04   -0.11596E-03   -0.39123E-03 33169   0.852E-02    0.480E-01
RMM:  19    -0.232579460344E+04    0.69859E-03   -0.14880E-03 29638   0.735E-02    0.309E-01
RMM:  20    -0.232579450372E+04    0.99727E-04   -0.13415E-03 35022   0.445E-02    0.248E-01
RMM:  21    -0.232579446325E+04    0.40468E-04   -0.96782E-04 33662   0.429E-02    0.204E-01
RMM:  22    -0.232579446708E+04   -0.38355E-05   -0.41272E-04 29713   0.372E-02    0.206E-01
RMM:  23    -0.232579443726E+04    0.29822E-04   -0.36741E-04 33483   0.241E-02    0.183E-01
RMM:  24    -0.232579437280E+04    0.64459E-04   -0.23142E-04 31788   0.182E-02    0.134E-01
RMM:  25    -0.232579430416E+04    0.68643E-04   -0.77711E-05 23247   0.150E-02    0.628E-02
RMM:  26    -0.232579429753E+04    0.66273E-05   -0.40408E-05 20089   0.107E-02
   8 F= -.23257943E+04 E0= -.23230201E+04  d E =-.153194E+00
       N       E                     dE             d eps       ncg     rms          rms(c)
DAV:   1    -0.232579434799E+04   -0.43835E-04   -0.34706E-01 29070   0.620E-01    0.149E-01
RMM:   2    -0.232583842954E+04   -0.44082E-01   -0.20690E-02 31160   0.242E-01    0.279E+00
RMM:   3    -0.232587673687E+04   -0.38307E-01   -0.10798E-02 37427   0.119E-01    0.392E+00
RMM:   4    -0.232580378233E+04    0.72955E-01   -0.43579E-03 27612   0.152E-01    0.116E+00
RMM:   5    -0.232580426869E+04   -0.48636E-03   -0.30748E-03 32160   0.854E-02    0.134E+00
RMM:   6    -0.232580043939E+04    0.38293E-02   -0.38549E-03 29045   0.108E-01    0.107E+00
RMM:   7    -0.232580443675E+04   -0.39974E-02   -0.78126E-03 36661   0.107E-01    0.135E+00
RMM:   8    -0.232579598588E+04    0.84509E-02   -0.30360E-03 27673   0.114E-01    0.452E-01
RMM:   9    -0.232579506522E+04    0.92066E-03   -0.13871E-03 28062   0.793E-02    0.325E-01
RMM:  10    -0.232579496048E+04    0.10474E-03   -0.13075E-03 38390   0.344E-02    0.267E-01
RMM:  11    -0.232579491207E+04    0.48410E-04   -0.67674E-04 31441   0.386E-02    0.246E-01
RMM:  12    -0.232579476139E+04    0.15068E-03   -0.33060E-04 28466   0.335E-02    0.176E-01
RMM:  13    -0.232579461791E+04    0.14348E-03   -0.11897E-04 26426   0.243E-02    0.836E-02
RMM:  14    -0.232579460855E+04    0.93514E-05   -0.96993E-05 24845   0.157E-02
   9 F= -.23257946E+04 E0= -.23230202E+04  d E =-.153505E+00
       N       E                     dE             d eps       ncg     rms          rms(c)
DAV:   1    -0.232580145625E+04   -0.68383E-02   -0.50741E+00 27840   0.236E+00    0.506E-01
RMM:   2    -0.232708544573E+04   -0.12840E+01   -0.26533E-01 30719   0.901E-01    0.152E+01
RMM:   3    -0.232616379076E+04    0.92165E+00   -0.11998E-01 35387   0.469E-01    0.795E+00
RMM:   4    -0.232657667462E+04   -0.41288E+00   -0.63199E-02 29305   0.454E-01    0.119E+01
RMM:   5    -0.232584954650E+04    0.72713E+00   -0.38747E-02 27761   0.419E-01    0.220E+00
RMM:   6    -0.232588101986E+04   -0.31473E-01   -0.60544E-02 28625   0.453E-01    0.386E+00
RMM:   7    -0.232600095246E+04   -0.11993E+00   -0.13223E-01 36907   0.440E-01    0.600E+00
RMM:   8    -0.232586946839E+04    0.13148E+00   -0.46669E-02 27750   0.434E-01    0.324E+00
RMM:   9    -0.232582034415E+04    0.49124E-01   -0.23750E-02 28796   0.271E-01    0.165E+00
RMM:  10    -0.232581071337E+04    0.96308E-02   -0.16400E-02 30622   0.202E-01    0.104E+00
RMM:  11    -0.232581026170E+04    0.45166E-03   -0.17554E-02 36158   0.165E-01    0.949E-01
RMM:  12    -0.232580715761E+04    0.31041E-02   -0.52728E-03 28973   0.133E-01    0.577E-01
RMM:  13    -0.232580566217E+04    0.14954E-02   -0.26097E-03 29644   0.898E-02    0.269E-01
RMM:  14    -0.232580579934E+04   -0.13717E-03   -0.28174E-03 38002   0.576E-02    0.284E-01
RMM:  15    -0.232580564137E+04    0.15797E-03   -0.97739E-04 29361   0.565E-02    0.217E-01
RMM:  16    -0.232580546662E+04    0.17475E-03   -0.44278E-04 28584   0.412E-02    0.128E-01
RMM:  17    -0.232580545103E+04    0.15597E-04   -0.44773E-04 35247   0.258E-02    0.104E-01
RMM:  18    -0.232580549115E+04   -0.40127E-04   -0.25933E-04 30387   0.266E-02    0.131E-01
RMM:  19    -0.232580542591E+04    0.65246E-04   -0.10324E-04 26361   0.230E-02    0.712E-02
RMM:  20    -0.232580541506E+04    0.10852E-04   -0.61082E-05 22028   0.139E-02    0.551E-02
RMM:  21    -0.232580542369E+04   -0.86307E-05   -0.68137E-05 23542   0.145E-02
  10 F= -.23258054E+04 E0= -.23230317E+04  d E =-.108151E-01
