unknown system                          
            1
     9.726678    0.000000    0.000000
     0.000000    8.423550    0.000000
     0.000000    0.000000   45.000000
   Fe   Mn
 273  15
Direct configuration=     1
   0.81221996  0.37379905  0.52079147
   0.18671968  0.79682010  0.87398999
   0.31262258  0.03136096  0.12644956
   0.43704780  0.62640089  0.78668843
   0.43844319  0.62098153  0.43443567
   0.18913660  0.78412756  0.25774602
   0.93756059  0.61860784  0.16984948
   0.18698131  0.45563841  0.47847185
   0.06237861  0.53889965  0.39096474
   0.68739043  0.78474804  0.12627201
   0.18668014  0.95788219  0.69683295
   0.56271660  0.54304264  0.87423548
   0.93640429  0.28984712  0.39105061
   0.06218084  0.37404235  0.43470389
   0.56223246  0.70483041  0.47851276
   0.93808665  0.28563611  0.25754075
   0.93671404  0.78445860  0.39092147
   0.81291879  0.54300190  0.87405289
   0.93757376  0.79677310  0.87389439
   0.31084964  0.70787893  0.56409025
   0.31306372  0.53594182  0.25780859
   0.81344102  0.86942950  0.30353308
   0.31272605  0.70529539  0.47862225
   0.81211746  0.37547899  0.78670503
   0.06227434  0.04520469  0.87358179
   0.68538249  0.95145812  0.21351700
   0.06245968  0.20944352  0.83123070
   0.43711202  0.95361412  0.34776228
   0.18635378  0.29080312  0.87372999
   0.68739150  0.78577194  0.39093565
   0.06384407  0.20246713  0.21359327
   0.93723679  0.95934988  0.69665892
   0.31117741  0.20978695  0.83085487
   0.06276564  0.87209429  0.52095793
   0.43711641  0.78377597  0.25734019
   0.56435341  0.20699999  0.69677532
   0.81300996  0.70485991  0.47835554
   0.68668223  0.11962567  0.30330247
   0.68829419  0.45923462  0.83029549
   0.93767884  0.45548704  0.34788639
   0.56128674  0.03367357  0.12647083
   0.43617693  0.29143119  0.87394574
   0.93760262  0.45229490  0.21381096
   0.43712849  0.79605600  0.87414038
   0.43781814  0.29121719  0.74157692
   0.81169608  0.20619625  0.47836690
   0.56257600  0.04300423  0.60927410
   0.55991579  0.86786104  0.16977033
   0.68786226  0.62608682  0.78673280
   0.43575391  0.29110291  0.60975901
   0.81595510  0.87543315  0.65359007
   0.18782936  0.95183903  0.34766847
   0.56117771  0.70210660  0.21359114
   0.56261207  0.21013674  0.83062550
   0.43316281  0.78985607  0.60932912
   0.31083370  0.37439272  0.65317452
   0.68702059  0.45265674  0.21392247
   0.18620581  0.12446212  0.65311276
   0.93786739  0.78537323  0.12632402
   0.43637038  0.61835244  0.30298827
   0.93804605  0.11721795  0.16965471
   0.93815119  0.45646943  0.47836750
   0.18913436  0.78669944  0.12641092
   0.43703545  0.45638084  0.47853925
   0.43673281  0.96117143  0.83059361
   0.43840034  0.45778716  0.69675172
   0.68590477  0.28604626  0.25762415
   0.68762569  0.61974171  0.30309734
   0.81162951  0.53502534  0.25752491
   0.18749722  0.12144597  0.43477852
   0.81321499  0.20660655  0.56461823
   0.93690800  0.78497760  0.25784357
   0.68874777  0.95309832  0.34822500
   0.93796093  0.95307378  0.47848470
   0.18745591  0.12157604  0.52074896
   0.06241855  0.86910741  0.30337583
   0.93873503  0.29089030  0.87378284
   0.93644722  0.12132559  0.43478781
   0.06174982  0.37424055  0.65287886
   0.06330155  0.03265842  0.12645018
   0.68636388  0.12135939  0.43460624
   0.56305686  0.71067992  0.83044938
   0.56279338  0.53727721  0.39103668
   0.81282080  0.53403230  0.12614378
   0.68840811  0.45696412  0.69664237
   0.93709805  0.12195664  0.52097980
   0.81153362  0.70084426  0.21346172
   0.56321059  0.20399899  0.34781262
   0.68784521  0.45600927  0.47848514
   0.43686204  0.62093425  0.16994826
   0.06183559  0.70743172  0.56465121
   0.18793184  0.28690695  0.25759092
   0.06232216  0.71030691  0.69664604
   0.06084247  0.20682065  0.69675063
   0.06291257  0.87384052  0.65318462
   0.06205655  0.71120299  0.83030493
   0.69110325  0.78991491  0.60942079
   0.68757952  0.79281081  0.74148317
   0.31209484  0.04173802  0.74154836
   0.31185978  0.87115995  0.52076171
   0.56298944  0.20600634  0.47822778
   0.18887719  0.95173151  0.21326596
   0.68706033  0.11737354  0.16972731
   0.56102588  0.36954923  0.30305312
   0.93706186  0.12490684  0.65321954
   0.18775759  0.11976032  0.30329552
   0.56222040  0.53544381  0.25789494
   0.43854414  0.28840526  0.39081707
   0.93761788  0.12491927  0.78691393
   0.06419808  0.70112899  0.21328258
   0.18753096  0.78547421  0.39077524
   0.81054906  0.03600015  0.39101358
   0.18649860  0.45918491  0.69673695
   0.31402474  0.03590894  0.25755539
   0.93651231  0.95189232  0.34758437
   0.93809932  0.29002819  0.60978421
   0.93652544  0.45820204  0.69673884
   0.68862999  0.79600146  0.87408832
   0.06218494  0.70532786  0.47830636
   0.68906958  0.96062856  0.83069954
   0.31302119  0.53696626  0.12633925
   0.56278302  0.87098428  0.52073964
   0.81134816  0.03690068  0.25814977
   0.31316803  0.70125121  0.21351985
   0.56224309  0.04241806  0.74161370
   0.06210749  0.36787387  0.17016308
   0.93632373  0.28445454  0.12615993
   0.18508809  0.29010313  0.60988063
   0.56271541  0.87615893  0.78670078
   0.18622556  0.96156125  0.83071741
   0.43622629  0.11481171  0.16989697
   0.43691380  0.45954171  0.83029944
   0.06191463  0.54058092  0.60946693
   0.93710372  0.62156123  0.43479034
   0.18518961  0.45747795  0.56445882
   0.18708458  0.95311328  0.47859832
   0.31275882  0.37078411  0.30290116
   0.06166763  0.03956952  0.60957196
   0.81421223  0.04449992  0.87373852
   0.06311339  0.53389839  0.25769886
   0.68947659  0.95613561  0.56378310
   0.43810429  0.12232070  0.52065985
   0.69076450  0.29125860  0.60958179
   0.81114209  0.20233083  0.34793651
   0.56201599  0.87382821  0.65415175
   0.31296100  0.87014059  0.43465536
   0.93708799  0.29213186  0.74130680
   0.06375489  0.37002455  0.30309476
   0.18696449  0.45876722  0.83065469
   0.43714750  0.79284158  0.74148519
   0.06279806  0.20678577  0.47847506
   0.43750743  0.95430274  0.47849548
   0.43823323  0.28671463  0.25781872
   0.68839499  0.28414657  0.12617917
   0.31257069  0.20642538  0.47848944
   0.93870560  0.62365104  0.65295806
   0.18586377  0.95361016  0.56446860
   0.81291032  0.86816040  0.16962018
   0.68693844  0.78420319  0.25758882
   0.68789853  0.62136960  0.43432348
   0.81383918  0.20932146  0.83084286
   0.93787684  0.45742448  0.56440421
   0.93796060  0.62055274  0.30331022
   0.06188657  0.20608302  0.56475341
   0.56139216  0.20143257  0.21375429
   0.31295946  0.37560461  0.78670192
   0.93802947  0.79263020  0.74147820
   0.18887855  0.45211083  0.21374282
   0.43830723  0.28249724  0.12630572
   0.06287873  0.70285050  0.34797936
   0.56192473  0.03693919  0.25754280
   0.56263786  0.37211598  0.43457411
   0.56336403  0.87158604  0.43458561
   0.81222323  0.87019434  0.43457957
   0.31327744  0.53799631  0.39069558
   0.06264296  0.03674039  0.25779517
   0.68954028  0.62190772  0.65392034
   0.68763609  0.29167579  0.74128520
   0.43577068  0.12621641  0.65375628
   0.31284538  0.20170178  0.21354852
   0.06280195  0.04166341  0.74140153
   0.94034265  0.79069096  0.60935336
   0.30924545  0.87401045  0.65345757
   0.43701638  0.45689580  0.56451953
   0.68784842  0.12576660  0.78680865
   0.18719810  0.28231821  0.12631155
   0.69054118  0.12722033  0.65378032
   0.31219847  0.37385584  0.52031884
   0.43593599  0.62345343  0.65374181
   0.93765882  0.11811654  0.30321135
   0.81671472  0.04168726  0.60955800
   0.43668256  0.12614279  0.78661563
   0.18765040  0.62723534  0.78661719
   0.30912978  0.54088072  0.60965950
   0.56295521  0.53842454  0.60953382
   0.43753990  0.62318445  0.52052667
   0.31265822  0.36705676  0.17034788
   0.30923519  0.03998962  0.60967848
   0.31135001  0.86841140  0.30327933
   0.18819817  0.45587194  0.34793935
   0.93788833  0.95471853  0.56464190
   0.56339982  0.37381351  0.52040017
   0.18869523  0.62102932  0.16997768
   0.06456771  0.86812907  0.16937491
   0.18809022  0.61943467  0.30320872
   0.56226239  0.37550761  0.78662104
   0.43799427  0.12131325  0.30318825
   0.31208675  0.54188083  0.87410394
   0.06132376  0.53547213  0.12617590
   0.81287374  0.87587418  0.78672848
   0.31129225  0.20559055  0.56469027
   0.68997329  0.45681322  0.56401783
   0.06239998  0.54098003  0.87412832
   0.68730569  0.12230960  0.52077068
   0.43752506  0.95149466  0.21347656
   0.06251872  0.54374159  0.74169719
   0.56387291  0.20668108  0.56400955
   0.93795268  0.45835929  0.83070684
   0.18738517  0.12511943  0.78682570
   0.18865209  0.28983870  0.39086402
   0.06217041  0.37341676  0.52075902
   0.43660925  0.95475270  0.56400320
   0.81160130  0.53889668  0.39092354
   0.93732131  0.62677928  0.78673009
   0.81202400  0.37363774  0.43453032
   0.06251354  0.87611794  0.78681933
   0.18560800  0.62484465  0.65285573
   0.06140862  0.86908838  0.43469436
   0.81224077  0.20815003  0.69641343
   0.81300764  0.03457142  0.12617849
   0.31184070  0.87587588  0.78652685
   0.68635871  0.28869253  0.39092212
   0.31176070  0.71051094  0.83031095
   0.68742282  0.95474490  0.47833556
   0.56376048  0.37326948  0.65379106
   0.43671486  0.45260358  0.21381780
   0.81276114  0.54201912  0.74157341
   0.43777633  0.45377561  0.34799369
   0.56246320  0.54221216  0.74152740
   0.56296766  0.70157145  0.34810183
   0.56262207  0.04422055  0.87401986
   0.81202431  0.20336208  0.21364310
   0.43979028  0.12165465  0.43462358
   0.68629141  0.45413180  0.34843215
   0.18471592  0.79001520  0.60947987
   0.06246612  0.03553091  0.39096961
   0.31361584  0.03710447  0.39080649
   0.81587626  0.53875963  0.60963765
   0.68740667  0.62230710  0.52084662
   0.68703169  0.61834586  0.16989546
   0.56317124  0.53478327  0.12614073
   0.31313611  0.37272787  0.43464899
   0.81441392  0.70671108  0.56389716
   0.43803731  0.78573060  0.39098008
   0.31223650  0.54272130  0.74181401
   0.18885803  0.11463849  0.16982358
   0.93795857  0.96104996  0.83081852
   0.56332062  0.03677647  0.39102938
   0.31256814  0.20744166  0.69675631
   0.31093819  0.04565001  0.87382158
   0.18753150  0.29138427  0.74166193
   0.81267752  0.36813638  0.16980584
   0.68879185  0.29159449  0.87396647
   0.56279526  0.70710868  0.56338943
   0.06225343  0.20396756  0.34728413
   0.81228196  0.70326418  0.34814469
   0.81267145  0.87145393  0.52091687
   0.81323055  0.71089936  0.83057105
   0.31343490  0.20449893  0.34783192
   0.56264877  0.36747711  0.17009742
   0.56299231  0.70770207  0.69705952
   0.43591594  0.78640191  0.12642375
   0.18737124  0.79298914  0.74142946
   0.93642954  0.62206836  0.52080653
   0.56274312  0.86968194  0.30316259
   0.31152590  0.70901452  0.69665391
   0.18860135  0.62266753  0.52052998
   0.81204736  0.36935401  0.30303524
   0.68937428  0.96052729  0.69671732
   0.31184569  0.70196174  0.34823951
   0.06258915  0.37598080  0.78661251
   0.81292053  0.70812216  0.69656154
   0.93870969  0.95206163  0.21340777
   0.81370324  0.37381988  0.65332733
   0.18648806  0.62097136  0.43483697
   0.43590635  0.95893388  0.69704977
   0.31243413  0.86830016  0.16881287
   0.81319049  0.04166858  0.74127779
Direct configuration=     2
   0.81210852  0.37278286  0.52094203
   0.18638063  0.79575668  0.87383606
   0.31240730  0.03204337  0.12657429
   0.43737359  0.62591642  0.78624590
   0.43833961  0.62106369  0.43465834
   0.18844838  0.78466205  0.25767712
   0.93771459  0.61823554  0.16936996
   0.18725669  0.45573686  0.47847624
   0.06265457  0.53857518  0.39105740
   0.68750891  0.78461274  0.12653762
   0.18728341  0.95768293  0.69723405
   0.56349190  0.54289207  0.87381366
   0.93619787  0.28930742  0.39116426
   0.06226358  0.37310436  0.43488848
   0.56241068  0.70531037  0.47844249
   0.93764344  0.28564213  0.25758059
   0.93688653  0.78509290  0.39106985
   0.81253873  0.54373993  0.87388687
   0.93720403  0.79540486  0.87376304
   0.31151791  0.70755667  0.56451175
   0.31291120  0.53543437  0.25782674
   0.81256246  0.86967496  0.30325488
   0.31254570  0.70522608  0.47853799
   0.81244934  0.37537294  0.78614265
   0.06201039  0.04309571  0.87350376
   0.68595883  0.95176558  0.21329262
   0.06230708  0.20966533  0.83067726
   0.43785039  0.95363771  0.34753653
   0.18718521  0.29165672  0.87355276
   0.68694538  0.78623454  0.39098336
   0.06348816  0.20228768  0.21325071
   0.93631818  0.95888074  0.69726867
   0.31248089  0.20969707  0.83057249
   0.06251727  0.87199664  0.52110979
   0.43756402  0.78456416  0.25746586
   0.56390047  0.20634673  0.69721879
   0.81274191  0.70503554  0.47843348
   0.68657412  0.11990239  0.30316685
   0.68788734  0.45954332  0.83027302
   0.93723236  0.45485538  0.34761341
   0.56140849  0.03397591  0.12664494
   0.43801374  0.29118736  0.87371240
   0.93761391  0.45211125  0.21350671
   0.43751829  0.79623444  0.87371802
   0.43800924  0.29193547  0.74144598
   0.81173817  0.20558703  0.47847952
   0.56275252  0.04222651  0.60951037
   0.56063722  0.86793495  0.16930879
   0.68776827  0.62577745  0.78624923
   0.43624747  0.29092510  0.60992512
   0.81450847  0.87482464  0.65394853
   0.18827344  0.95225110  0.34749363
   0.56196102  0.70209153  0.21333520
   0.56256258  0.21000779  0.83064807
   0.43447033  0.79012431  0.60959109
   0.31131722  0.37458374  0.65362306
   0.68724176  0.45221184  0.21363474
   0.18659610  0.12463024  0.65352144
   0.93781720  0.78528034  0.12655421
   0.43718272  0.61826849  0.30299137
   0.93784629  0.11760686  0.16925103
   0.93786155  0.45611046  0.47843020
   0.18886898  0.78621930  0.12654220
   0.43724963  0.45584819  0.47848549
   0.43752570  0.96091533  0.83049562
   0.43774607  0.45826532  0.69721247
   0.68633310  0.28594684  0.25772765
   0.68747049  0.61932838  0.30298634
   0.81168497  0.53503519  0.25763180
   0.18748763  0.12160731  0.43500547
   0.81264912  0.20621314  0.56487430
   0.93662776  0.78487242  0.25778156
   0.68781556  0.95335993  0.34787487
   0.93760247  0.95422924  0.47850051
   0.18772053  0.12222359  0.52096093
   0.06233704  0.86936183  0.30314896
   0.93695547  0.29219528  0.87368064
   0.93650754  0.12154166  0.43502627
   0.06145570  0.37445584  0.65342000
   0.06319910  0.03311172  0.12655612
   0.68665831  0.12160591  0.43487074
   0.56309591  0.71070108  0.83041846
   0.56250091  0.53713623  0.39102818
   0.81294363  0.53416798  0.12642150
   0.68876915  0.45753454  0.69706368
   0.93694039  0.12243473  0.52106634
   0.81182534  0.70117951  0.21321386
   0.56332235  0.20400829  0.34752846
   0.68766236  0.45555172  0.47846949
   0.43680718  0.62000572  0.16937510
   0.06194886  0.70693610  0.56492601
   0.18787729  0.28650108  0.25763377
   0.06230492  0.70952969  0.69703313
   0.06130021  0.20767113  0.69716881
   0.06274459  0.87382928  0.65350396
   0.06216052  0.71115898  0.83036483
   0.69031390  0.79033228  0.60966445
   0.68818279  0.79334053  0.74121236
   0.31241221  0.04210727  0.74136773
   0.31227506  0.87229514  0.52097835
   0.56290617  0.20561997  0.47841750
   0.18854201  0.95197192  0.21307215
   0.68739119  0.11769665  0.16931171
   0.56163435  0.36924175  0.30299615
   0.93694013  0.12534394  0.65353087
   0.18810704  0.12009166  0.30306612
   0.56292447  0.53517567  0.25799261
   0.43866470  0.28832416  0.39091078
   0.93756409  0.12552930  0.78619528
   0.06366618  0.70123642  0.21304983
   0.18784729  0.78572693  0.39096093
   0.81065290  0.03652289  0.39113185
   0.18675292  0.45944846  0.69713092
   0.31396581  0.03610199  0.25762306
   0.93618864  0.95244286  0.34742479
   0.93757015  0.29001901  0.61003146
   0.93658408  0.45863898  0.69702470
   0.68892886  0.79594109  0.87385121
   0.06242857  0.70495192  0.47844012
   0.68808008  0.96020644  0.83070059
   0.31282508  0.53635999  0.12659767
   0.56276374  0.87252853  0.52096300
   0.81115142  0.03680888  0.25810441
   0.31261610  0.70128868  0.21317533
   0.56320926  0.04217710  0.74133730
   0.06220247  0.36806486  0.16959841
   0.93692384  0.28460515  0.12643139
   0.18555539  0.29000690  0.61004379
   0.56275299  0.87614752  0.78634132
   0.18701787  0.96062267  0.83055992
   0.43647817  0.11564454  0.16940853
   0.43747565  0.45968665  0.83020978
   0.06180306  0.54044397  0.60965957
   0.93701144  0.62155275  0.43499175
   0.18594283  0.45710866  0.56475431
   0.18734042  0.95402407  0.47853457
   0.31302425  0.37025423  0.30286040
   0.06163412  0.03981406  0.60979279
   0.81265632  0.04375044  0.87363581
   0.06252778  0.53420392  0.25769326
   0.68845415  0.95658343  0.56427822
   0.43820122  0.12277169  0.52089782
   0.69038069  0.29115462  0.60983610
   0.81067023  0.20279958  0.34767188
   0.56213264  0.87418726  0.65435345
   0.31305361  0.87040082  0.43484177
   0.93705340  0.29153176  0.74131124
   0.06332134  0.36977648  0.30289137
   0.18708444  0.45961484  0.83034945
   0.43740547  0.79240901  0.74122437
   0.06257127  0.20588118  0.47852904
   0.43770750  0.95509776  0.47852638
   0.43831017  0.28621160  0.25791187
   0.68810265  0.28426358  0.12647193
   0.31283694  0.20568577  0.47856847
   0.93786171  0.62350795  0.65349803
   0.18660178  0.95465927  0.56476705
   0.81300272  0.86816411  0.16918831
   0.68737727  0.78459734  0.25763757
   0.68756214  0.62122275  0.43461452
   0.81271436  0.20942530  0.83065294
   0.93769229  0.45707197  0.56471736
   0.93741385  0.61991008  0.30306797
   0.06209703  0.20586241  0.56495247
   0.56187554  0.20146056  0.21344867
   0.31269178  0.37557276  0.78613736
   0.93721596  0.79314155  0.74130297
   0.18838312  0.45189505  0.21335331
   0.43804763  0.28296540  0.12658268
   0.06284441  0.70271661  0.34775104
   0.56218092  0.03683246  0.25765040
   0.56265269  0.37169955  0.43480965
   0.56314221  0.87167751  0.43482921
   0.81215267  0.87083059  0.43481341
   0.31353915  0.53782106  0.39084401
   0.06263061  0.03673921  0.25774831
   0.68958179  0.62222106  0.65418370
   0.68778140  0.29135870  0.74126238
   0.43618619  0.12526365  0.65404017
   0.31259333  0.20160733  0.21329007
   0.06183943  0.04197656  0.74135912
   0.93929069  0.79053365  0.60960101
   0.31063794  0.87370034  0.65391354
   0.43744402  0.45650225  0.56478228
   0.68806446  0.12596585  0.78623130
   0.18714625  0.28280380  0.12658550
   0.68991738  0.12631129  0.65399690
   0.31264289  0.37283450  0.52070115
   0.43620325  0.62375391  0.65409340
   0.93708186  0.11894903  0.30300378
   0.81543367  0.04132075  0.60972197
   0.43706200  0.12650284  0.78619331
   0.18733272  0.62661413  0.78608744
   0.31000635  0.54090064  0.60988701
   0.56302855  0.53906122  0.60973128
   0.43740147  0.62251875  0.52084011
   0.31247452  0.36718821  0.16974674
   0.31028674  0.04015364  0.60983919
   0.31214290  0.86919105  0.30312509
   0.18842516  0.45538715  0.34768021
   0.93737399  0.95549127  0.56495653
   0.56301160  0.37246629  0.52071798
   0.18837140  0.62015526  0.16943993
   0.06390804  0.86811283  0.16897985
   0.18795130  0.61904253  0.30306695
   0.56239889  0.37553269  0.78610836
   0.43829446  0.12108789  0.30304624
   0.31242561  0.54280635  0.87376741
   0.06154958  0.53505051  0.12646056
   0.81263920  0.87618033  0.78611332
   0.31191762  0.20551956  0.56485116
   0.68897934  0.45640962  0.56445510
   0.06167940  0.54290349  0.87394286
   0.68712407  0.12265821  0.52093961
   0.43761924  0.95202459  0.21324949
   0.06261465  0.54320477  0.74162663
   0.56353939  0.20627276  0.56429276
   0.93766009  0.45919885  0.83052311
   0.18692735  0.12591130  0.78627311
   0.18862566  0.28963132  0.39102541
   0.06224112  0.37292635  0.52098297
   0.43742791  0.95553683  0.56438602
   0.81134675  0.53813246  0.39100994
   0.93740472  0.62632330  0.78619423
   0.81188592  0.37274889  0.43474761
   0.06235678  0.87632637  0.78627141
   0.18616298  0.62473126  0.65346788
   0.06159139  0.86982060  0.43486144
   0.81225983  0.20795728  0.69695617
   0.81321337  0.03462292  0.12643229
   0.31217152  0.87594443  0.78614192
   0.68649092  0.28836387  0.39096861
   0.31230822  0.71067248  0.83029629
   0.68733284  0.95540400  0.47840306
   0.56381155  0.37387209  0.65403552
   0.43696877  0.45212276  0.21347545
   0.81239405  0.54236307  0.74136989
   0.43825615  0.45363972  0.34771503
   0.56235727  0.54184791  0.74145466
   0.56283597  0.70182800  0.34781412
   0.56320761  0.04450887  0.87379551
   0.81214897  0.20294465  0.21336455
   0.43944442  0.12184705  0.43488587
   0.68607001  0.45362363  0.34803441
   0.18525326  0.78996104  0.60966246
   0.06241331  0.03588033  0.39113627
   0.31375391  0.03701720  0.39092621
   0.81502539  0.53902901  0.60997147
   0.68765743  0.62208619  0.52098912
   0.68726023  0.61802577  0.16936183
   0.56300818  0.53449221  0.12640721
   0.31317847  0.37224836  0.43484994
   0.81368095  0.70682246  0.56438697
   0.43802119  0.78603677  0.39100149
   0.31266766  0.54248858  0.74152285
   0.18846345  0.11566015  0.16935595
   0.93736668  0.96019375  0.83062518
   0.56315041  0.03701846  0.39101378
   0.31256361  0.20771653  0.69712235
   0.31220707  0.04448541  0.87360747
   0.18720595  0.29181791  0.74155888
   0.81279291  0.36809609  0.16937140
   0.68791798  0.29162372  0.87380738
   0.56273602  0.70728982  0.56401161
   0.06212203  0.20415837  0.34714269
   0.81151365  0.70303331  0.34778872
   0.81251685  0.87228347  0.52102827
   0.81251372  0.71063010  0.83063240
   0.31391833  0.20457344  0.34756407
   0.56262264  0.36754829  0.16954789
   0.56295002  0.70833048  0.69740595
   0.43611963  0.78596705  0.12656962
   0.18725756  0.79254684  0.74124433
   0.93698599  0.62205066  0.52095695
   0.56299099  0.87009813  0.30311538
   0.31187731  0.70858031  0.69708664
   0.18792585  0.62233542  0.52070584
   0.81153321  0.36894390  0.30290449
   0.68912441  0.95964796  0.69731991
   0.31300333  0.70209138  0.34801657
   0.06237968  0.37584216  0.78595013
   0.81260770  0.70844667  0.69703489
   0.93834771  0.95239403  0.21311674
   0.81341333  0.37446827  0.65369386
   0.18705824  0.62100948  0.43504738
   0.43671083  0.95830505  0.69738341
   0.31229014  0.86819819  0.16841087
   0.81267518  0.04149415  0.74111000
Direct configuration=     3
   0.81208366  0.37255616  0.52097562
   0.18630499  0.79551944  0.87380172
   0.31235927  0.03219561  0.12660212
   0.43744627  0.62580833  0.78614717
   0.43831650  0.62108202  0.43470801
   0.18829484  0.78478128  0.25766175
   0.93774895  0.61815248  0.16926298
   0.18731812  0.45575883  0.47847722
   0.06271613  0.53850279  0.39107807
   0.68753535  0.78458256  0.12659688
   0.18741799  0.95763848  0.69732353
   0.56366486  0.54285848  0.87371955
   0.93615182  0.28918702  0.39118961
   0.06228204  0.37289510  0.43492966
   0.56245044  0.70541744  0.47842681
   0.93754456  0.28564347  0.25758947
   0.93692501  0.78523441  0.39110296
   0.81245394  0.54390457  0.87384983
   0.93712155  0.79509962  0.87373373
   0.31166700  0.70748478  0.56460578
   0.31287717  0.53532116  0.25783079
   0.81236647  0.86972972  0.30319282
   0.31250547  0.70521061  0.47851919
   0.81252337  0.37534929  0.78601719
   0.06195151  0.04262522  0.87348636
   0.68608741  0.95183417  0.21324256
   0.06227303  0.20971481  0.83055379
   0.43801511  0.95364297  0.34748617
   0.18737069  0.29184715  0.87351322
   0.68684586  0.78633774  0.39099401
   0.06340876  0.20224765  0.21317429
   0.93611325  0.95877608  0.69740470
   0.31277168  0.20967702  0.83050949
   0.06246187  0.87197486  0.52114367
   0.43766387  0.78474000  0.25749389
   0.56379942  0.20620100  0.69731773
   0.81268211  0.70507473  0.47845087
   0.68655000  0.11996412  0.30313659
   0.68779658  0.45961219  0.83026801
   0.93713276  0.45471446  0.34755251
   0.56143566  0.03404336  0.12668378
   0.43842352  0.29113296  0.87366035
   0.93761643  0.45207028  0.21343883
   0.43760525  0.79627424  0.87362380
   0.43805187  0.29209571  0.74141677
   0.81174756  0.20545112  0.47850464
   0.56279190  0.04205300  0.60956308
   0.56079817  0.86795144  0.16920582
   0.68774731  0.62570843  0.78614135
   0.43635758  0.29088543  0.60996218
   0.81418575  0.87468889  0.65402850
   0.18837251  0.95234303  0.34745462
   0.56213577  0.70208816  0.21327810
   0.56255154  0.20997903  0.83065310
   0.43476203  0.79018416  0.60964954
   0.31142509  0.37462635  0.65372312
   0.68729111  0.45211259  0.21357055
   0.18668317  0.12466774  0.65361262
   0.93780600  0.78525962  0.12660557
   0.43736395  0.61824976  0.30299206
   0.93780172  0.11769363  0.16916097
   0.93779694  0.45603038  0.47844419
   0.18880977  0.78611218  0.12657148
   0.43729741  0.45572936  0.47847349
   0.43770258  0.96085819  0.83047376
   0.43760011  0.45837199  0.69731525
   0.68642866  0.28592466  0.25775074
   0.68743587  0.61923618  0.30296158
   0.81169734  0.53503739  0.25765565
   0.18748549  0.12164330  0.43505610
   0.81252288  0.20612538  0.56493142
   0.93656525  0.78484895  0.25776772
   0.68760760  0.95341829  0.34779676
   0.93752251  0.95448701  0.47850404
   0.18777956  0.12236806  0.52100822
   0.06231886  0.86941859  0.30309835
   0.93655847  0.29248641  0.87365784
   0.93652100  0.12158986  0.43507947
   0.06139008  0.37450387  0.65354073
   0.06317624  0.03321285  0.12657975
   0.68672400  0.12166090  0.43492975
   0.56310462  0.71070581  0.83041156
   0.56243567  0.53710478  0.39102629
   0.81297103  0.53419825  0.12648346
   0.68884970  0.45766180  0.69715767
   0.93690522  0.12254139  0.52108565
   0.81189042  0.70125430  0.21315857
   0.56334729  0.20401036  0.34746507
   0.68762157  0.45544964  0.47846600
   0.43679494  0.61979858  0.16924724
   0.06197413  0.70682553  0.56498731
   0.18786513  0.28641053  0.25764333
   0.06230107  0.70935630  0.69711949
   0.06140232  0.20786086  0.69726210
   0.06270712  0.87382677  0.65357520
   0.06218371  0.71114917  0.83037819
   0.69013780  0.79042540  0.60971881
   0.68831737  0.79345870  0.74115195
   0.31248301  0.04218965  0.74132743
   0.31236770  0.87254839  0.52102668
   0.56288759  0.20553378  0.47845983
   0.18846723  0.95202556  0.21302891
   0.68746500  0.11776873  0.16921900
   0.56177010  0.36917315  0.30298344
   0.93691297  0.12544145  0.65360033
   0.18818500  0.12016558  0.30301494
   0.56308154  0.53511585  0.25801440
   0.43869160  0.28830607  0.39093168
   0.93755209  0.12566539  0.78603496
   0.06354752  0.70126038  0.21299790
   0.18791786  0.78578331  0.39100236
   0.81067607  0.03663951  0.39115824
   0.18680966  0.45950726  0.69721881
   0.31395266  0.03614506  0.25763816
   0.93611644  0.95256568  0.34738919
   0.93745209  0.29001696  0.61008662
   0.93659716  0.45873646  0.69708847
   0.68899554  0.79592762  0.87379831
   0.06248292  0.70486806  0.47846996
   0.68785933  0.96011226  0.83070082
   0.31278133  0.53622474  0.12665532
   0.56275944  0.87287304  0.52101283
   0.81110753  0.03678840  0.25809429
   0.31249297  0.70129705  0.21309847
   0.56342480  0.04212334  0.74127563
   0.06222366  0.36810747  0.16947244
   0.93705772  0.28463875  0.12649195
   0.18565964  0.28998543  0.61008019
   0.56276137  0.87614497  0.78626113
   0.18719463  0.96041329  0.83052479
   0.43653437  0.11583034  0.16929957
   0.43760100  0.45971899  0.83018977
   0.06177817  0.54041342  0.60970254
   0.93699086  0.62155086  0.43503668
   0.18611086  0.45702627  0.56482023
   0.18739750  0.95422726  0.47852035
   0.31308347  0.37013602  0.30285130
   0.06162665  0.03986862  0.60984206
   0.81230921  0.04358324  0.87361290
   0.06239714  0.53427208  0.25769201
   0.68822606  0.95668333  0.56438868
   0.43822285  0.12287230  0.52095091
   0.69029507  0.29113143  0.60989284
   0.81056496  0.20290415  0.34761285
   0.56215866  0.87426736  0.65439844
   0.31307427  0.87045887  0.43488336
   0.93704569  0.29139789  0.74131224
   0.06322462  0.36972114  0.30284599
   0.18711120  0.45980394  0.83028136
   0.43746302  0.79231250  0.74116618
   0.06252067  0.20567938  0.47854108
   0.43775214  0.95527512  0.47853327
   0.43832734  0.28609938  0.25793265
   0.68803744  0.28428968  0.12653724
   0.31289634  0.20552077  0.47858610
   0.93767345  0.62347602  0.65361850
   0.18676642  0.95489332  0.56483364
   0.81302333  0.86816494  0.16909196
   0.68747516  0.78468527  0.25764844
   0.68748709  0.62119000  0.43467945
   0.81246342  0.20944846  0.83061057
   0.93765112  0.45699333  0.56478723
   0.93729187  0.61976670  0.30301393
   0.06214398  0.20581320  0.56499688
   0.56198338  0.20146680  0.21338049
   0.31263206  0.37556565  0.78601141
   0.93703448  0.79325563  0.74126388
   0.18827259  0.45184691  0.21326641
   0.43798972  0.28306984  0.12664446
   0.06283675  0.70268674  0.34770011
   0.56223808  0.03680865  0.25767441
   0.56265600  0.37160665  0.43486220
   0.56309273  0.87169792  0.43488356
   0.81213692  0.87097254  0.43486558
   0.31359753  0.53778197  0.39087712
   0.06262785  0.03673895  0.25773786
   0.68959105  0.62229097  0.65424246
   0.68781382  0.29128796  0.74125728
   0.43627889  0.12505110  0.65410350
   0.31253709  0.20158625  0.21323242
   0.06162471  0.04204642  0.74134966
   0.93905601  0.79049855  0.60965626
   0.31094860  0.87363115  0.65401526
   0.43753942  0.45641446  0.56484089
   0.68811265  0.12601031  0.78610249
   0.18713468  0.28291213  0.12664662
   0.68977822  0.12610849  0.65404521
   0.31274203  0.37260665  0.52078645
   0.43626287  0.62382095  0.65417184
   0.93695314  0.11913475  0.30295748
   0.81514788  0.04123898  0.60975855
   0.43714665  0.12658317  0.78609910
   0.18726185  0.62647554  0.78596926
   0.31020191  0.54090508  0.60993777
   0.56304491  0.53920326  0.60977533
   0.43737059  0.62237024  0.52091004
   0.31243354  0.36721753  0.16961263
   0.31052133  0.04019023  0.60987504
   0.31231978  0.86936499  0.30309068
   0.18847580  0.45527900  0.34762240
   0.93725924  0.95566366  0.56502672
   0.56292499  0.37216573  0.52078888
   0.18829916  0.61996027  0.16931996
   0.06376088  0.86810920  0.16889172
   0.18792030  0.61895505  0.30303532
   0.56242934  0.37553829  0.78599399