 288 288   0   0
  0.1280206E+02  0.9726678E-09  0.8423550E-09  0.4500000E-08  0.2500000E-15
  1.000000000000000E-004
  CAR 
 unknown system                          
      6.78128726     -6.02137914  301      4.31547527      1.00000000
     -6.021  0.0000E+00  0.0000E+00
     -5.979  0.0000E+00  0.0000E+00
     -5.936  0.0000E+00  0.0000E+00
     -5.893  0.0000E+00  0.0000E+00
     -5.851  0.0000E+00  0.0000E+00
     -5.808  0.0000E+00  0.0000E+00
     -5.765  0.0000E+00  0.0000E+00
     -5.723  0.0000E+00  0.0000E+00
     -5.680  0.0000E+00  0.0000E+00
     -5.637  0.0000E+00  0.0000E+00
     -5.595  0.0000E+00  0.0000E+00
     -5.552  0.0000E+00  0.0000E+00
     -5.509  0.0000E+00  0.0000E+00
     -5.467  0.0000E+00  0.0000E+00
     -5.424  0.0000E+00  0.0000E+00
     -5.381  0.1626E-15  0.6939E-17
     -5.339  0.3675E-14  0.1638E-15
     -5.296  0.7915E-13  0.3542E-14
     -5.253  0.1443E-11  0.6514E-13
     -5.211  0.2243E-10  0.1022E-11
     -5.168  0.2971E-09  0.1370E-10
     -5.125  0.3353E-08  0.1568E-09
     -5.083  0.3227E-07  0.1534E-08
     -5.040  0.2648E-06  0.1284E-07
     -4.997  0.1855E-05  0.9202E-07
     -4.954  0.1111E-04  0.5660E-06
     -4.912  0.5687E-04  0.2993E-05
     -4.869  0.2497E-03  0.1365E-04
     -4.826  0.9431E-03  0.5389E-04
     -4.784  0.3078E-02  0.1853E-03
     -4.741  0.8741E-02  0.5583E-03
     -4.698  0.2179E-01  0.1488E-02
     -4.656  0.4819E-01  0.3545E-02
     -4.613  0.9583E-01  0.7634E-02
     -4.570  0.1734E+00  0.1504E-01
     -4.528  0.2887E+00  0.2736E-01
     -4.485  0.4458E+00  0.4638E-01
     -4.442  0.6421E+00  0.7378E-01
     -4.400  0.8668E+00  0.1108E+00
     -4.357  0.1101E+01  0.1578E+00
     -4.314  0.1323E+01  0.2143E+00
     -4.272  0.1511E+01  0.2787E+00
     -4.229  0.1650E+01  0.3491E+00
     -4.186  0.1742E+01  0.4235E+00
     -4.144  0.1805E+01  0.5005E+00
     -4.101  0.1867E+01  0.5802E+00
     -4.058  0.1961E+01  0.6638E+00
     -4.016  0.2111E+01  0.7539E+00
     -3.973  0.2322E+01  0.8531E+00
     -3.930  0.2575E+01  0.9629E+00
     -3.888  0.2829E+01  0.1084E+01
     -3.845  0.3039E+01  0.1213E+01
     -3.802  0.3166E+01  0.1348E+01
     -3.760  0.3199E+01  0.1485E+01
     -3.717  0.3154E+01  0.1620E+01
     -3.674  0.3078E+01  0.1751E+01
     -3.632  0.3028E+01  0.1880E+01
     -3.589  0.3052E+01  0.2010E+01
     -3.546  0.3171E+01  0.2146E+01
     -3.504  0.3375E+01  0.2290E+01
     -3.461  0.3623E+01  0.2444E+01
     -3.418  0.3866E+01  0.2609E+01
     -3.375  0.4058E+01  0.2783E+01
     -3.333  0.4172E+01  0.2961E+01
     -3.290  0.4209E+01  0.3140E+01
     -3.247  0.4191E+01  0.3319E+01
     -3.205  0.4161E+01  0.3497E+01
     -3.162  0.4164E+01  0.3674E+01
     -3.119  0.4239E+01  0.3855E+01
     -3.077  0.4397E+01  0.4043E+01
     -3.034  0.4623E+01  0.4240E+01
     -2.991  0.4879E+01  0.4448E+01
     -2.949  0.5115E+01  0.4667E+01
     -2.906  0.5290E+01  0.4892E+01
     -2.863  0.5381E+01  0.5122E+01
     -2.821  0.5402E+01  0.5353E+01
     -2.778  0.5395E+01  0.5583E+01
     -2.735  0.5413E+01  0.5814E+01
     -2.693  0.5483E+01  0.6048E+01
     -2.650  0.5585E+01  0.6286E+01
     -2.607  0.5657E+01  0.6527E+01
     -2.565  0.5647E+01  0.6768E+01
     -2.522  0.5559E+01  0.7006E+01
     -2.479  0.5474E+01  0.7239E+01
     -2.437  0.5513E+01  0.7475E+01
     -2.394  0.5770E+01  0.7721E+01
     -2.351  0.6253E+01  0.7988E+01
     -2.309  0.6850E+01  0.8280E+01
     -2.266  0.7368E+01  0.8594E+01
     -2.223  0.7619E+01  0.8920E+01
     -2.181  0.7530E+01  0.9241E+01
     -2.138  0.7195E+01  0.9548E+01
     -2.095  0.6838E+01  0.9840E+01
     -2.053  0.6698E+01  0.1013E+02
     -2.010  0.6902E+01  0.1042E+02
     -1.967  0.7414E+01  0.1074E+02
     -1.925  0.8060E+01  0.1108E+02
     -1.882  0.8614E+01  0.1145E+02
     -1.839  0.8910E+01  0.1183E+02
     -1.796  0.8919E+01  0.1221E+02
     -1.754  0.8756E+01  0.1258E+02
     -1.711  0.8603E+01  0.1295E+02
     -1.668  0.8598E+01  0.1332E+02
     -1.626  0.8772E+01  0.1369E+02
     -1.583  0.9060E+01  0.1408E+02
     -1.540  0.9376E+01  0.1448E+02
     -1.498  0.9664E+01  0.1489E+02
     -1.455  0.9916E+01  0.1531E+02
     -1.412  0.1014E+02  0.1575E+02
     -1.370  0.1033E+02  0.1619E+02
     -1.327  0.1047E+02  0.1663E+02
     -1.284  0.1062E+02  0.1709E+02
     -1.242  0.1089E+02  0.1755E+02
     -1.199  0.1146E+02  0.1804E+02
     -1.156  0.1238E+02  0.1857E+02
     -1.114  0.1353E+02  0.1915E+02
     -1.071  0.1461E+02  0.1977E+02
     -1.028  0.1531E+02  0.2042E+02
     -0.986  0.1553E+02  0.2109E+02
     -0.943  0.1549E+02  0.2175E+02
     -0.900  0.1561E+02  0.2241E+02
     -0.858  0.1624E+02  0.2311E+02
     -0.815  0.1752E+02  0.2385E+02
     -0.772  0.1938E+02  0.2468E+02
     -0.730  0.2167E+02  0.2561E+02
     -0.687  0.2442E+02  0.2665E+02
     -0.644  0.2778E+02  0.2783E+02
     -0.602  0.3185E+02  0.2919E+02
     -0.559  0.3643E+02  0.3075E+02
     -0.516  0.4100E+02  0.3250E+02
     -0.474  0.4500E+02  0.3442E+02
     -0.431  0.4812E+02  0.3647E+02
     -0.388  0.5043E+02  0.3862E+02
     -0.346  0.5225E+02  0.4085E+02
     -0.303  0.5383E+02  0.4315E+02
     -0.260  0.5525E+02  0.4551E+02
     -0.218  0.5639E+02  0.4791E+02
     -0.175  0.5711E+02  0.5035E+02
     -0.132  0.5742E+02  0.5280E+02
     -0.089  0.5747E+02  0.5525E+02
     -0.047  0.5755E+02  0.5771E+02
     -0.004  0.5788E+02  0.6018E+02
      0.039  0.5861E+02  0.6268E+02
      0.081  0.5989E+02  0.6524E+02
      0.124  0.6185E+02  0.6788E+02
      0.167  0.6455E+02  0.7063E+02
      0.209  0.6786E+02  0.7353E+02
      0.252  0.7147E+02  0.7658E+02
      0.295  0.7499E+02  0.7978E+02
      0.337  0.7813E+02  0.8311E+02
      0.380  0.8076E+02  0.8656E+02
      0.423  0.8286E+02  0.9010E+02
      0.465  0.8448E+02  0.9370E+02
      0.508  0.8563E+02  0.9736E+02
      0.551  0.8633E+02  0.1010E+03
      0.593  0.8658E+02  0.1047E+03
      0.636  0.8644E+02  0.1084E+03
      0.679  0.8595E+02  0.1121E+03
      0.721  0.8508E+02  0.1157E+03
      0.764  0.8377E+02  0.1193E+03
      0.807  0.8201E+02  0.1228E+03
      0.849  0.8005E+02  0.1262E+03
      0.892  0.7825E+02  0.1296E+03
      0.935  0.7696E+02  0.1328E+03
      0.977  0.7626E+02  0.1361E+03
      1.020  0.7597E+02  0.1393E+03
      1.063  0.7576E+02  0.1426E+03
      1.105  0.7534E+02  0.1458E+03
      1.148  0.7466E+02  0.1490E+03
      1.191  0.7391E+02  0.1521E+03
      1.233  0.7341E+02  0.1553E+03
      1.276  0.7335E+02  0.1584E+03
      1.319  0.7359E+02  0.1615E+03
      1.361  0.7371E+02  0.1647E+03
      1.404  0.7325E+02  0.1678E+03
      1.447  0.7205E+02  0.1709E+03
      1.490  0.7042E+02  0.1739E+03
      1.532  0.6894E+02  0.1768E+03
      1.575  0.6819E+02  0.1797E+03
      1.618  0.6848E+02  0.1827E+03
      1.660  0.6976E+02  0.1856E+03
      1.703  0.7178E+02  0.1887E+03
      1.746  0.7419E+02  0.1919E+03
      1.788  0.7665E+02  0.1951E+03
      1.831  0.7898E+02  0.1985E+03
      1.874  0.8108E+02  0.2020E+03
      1.916  0.8298E+02  0.2055E+03
      1.959  0.8470E+02  0.2091E+03
      2.002  0.8629E+02  0.2128E+03
      2.044  0.8781E+02  0.2165E+03
      2.087  0.8930E+02  0.2204E+03
      2.130  0.9077E+02  0.2242E+03
      2.172  0.9225E+02  0.2282E+03
      2.215  0.9376E+02  0.2322E+03
      2.258  0.9543E+02  0.2362E+03
      2.300  0.9748E+02  0.2404E+03
      2.343  0.1002E+03  0.2447E+03
      2.386  0.1037E+03  0.2491E+03
      2.428  0.1078E+03  0.2537E+03
      2.471  0.1123E+03  0.2585E+03
      2.514  0.1167E+03  0.2635E+03
      2.556  0.1206E+03  0.2686E+03
      2.599  0.1238E+03  0.2739E+03
      2.642  0.1261E+03  0.2793E+03
      2.684  0.1276E+03  0.2847E+03
      2.727  0.1285E+03  0.2902E+03
      2.770  0.1292E+03  0.2957E+03
      2.812  0.1302E+03  0.3013E+03
      2.855  0.1321E+03  0.3069E+03
      2.898  0.1349E+03  0.3127E+03
      2.940  0.1381E+03  0.3186E+03
      2.983  0.1403E+03  0.3246E+03
      3.026  0.1402E+03  0.3305E+03
      3.069  0.1368E+03  0.3364E+03
      3.111  0.1301E+03  0.3419E+03
      3.154  0.1213E+03  0.3471E+03
      3.197  0.1120E+03  0.3519E+03
      3.239  0.1038E+03  0.3563E+03
      3.282  0.9771E+02  0.3605E+03
      3.325  0.9394E+02  0.3645E+03
      3.367  0.9213E+02  0.3684E+03
      3.410  0.9156E+02  0.3723E+03
      3.453  0.9137E+02  0.3762E+03
      3.495  0.9081E+02  0.3801E+03
      3.538  0.8945E+02  0.3839E+03
      3.581  0.8740E+02  0.3877E+03
      3.623  0.8530E+02  0.3913E+03
      3.666  0.8402E+02  0.3949E+03
      3.709  0.8424E+02  0.3985E+03
      3.751  0.8608E+02  0.4022E+03
      3.794  0.8903E+02  0.4060E+03
      3.837  0.9229E+02  0.4099E+03
      3.879  0.9518E+02  0.4140E+03
      3.922  0.9747E+02  0.4181E+03
      3.965  0.9928E+02  0.4224E+03
      4.007  0.1008E+03  0.4267E+03
      4.050  0.1022E+03  0.4310E+03
      4.093  0.1030E+03  0.4354E+03
      4.135  0.1033E+03  0.4398E+03
      4.178  0.1028E+03  0.4442E+03
      4.221  0.1017E+03  0.4485E+03
      4.263  0.1005E+03  0.4528E+03
      4.306  0.9936E+02  0.4571E+03
      4.349  0.9871E+02  0.4613E+03
      4.391  0.9859E+02  0.4655E+03
      4.434  0.9892E+02  0.4697E+03
      4.477  0.9941E+02  0.4740E+03
      4.519  0.9972E+02  0.4782E+03
      4.562  0.9963E+02  0.4825E+03
      4.605  0.9915E+02  0.4867E+03
      4.648  0.9855E+02  0.4909E+03
      4.690  0.9827E+02  0.4951E+03
      4.733  0.9877E+02  0.4993E+03
      4.776  0.1003E+03  0.5036E+03
      4.818  0.1028E+03  0.5080E+03
      4.861  0.1058E+03  0.5125E+03
      4.904  0.1089E+03  0.5171E+03
      4.946  0.1116E+03  0.5219E+03
      4.989  0.1134E+03  0.5267E+03
      5.032  0.1134E+03  0.5316E+03
      5.074  0.1107E+03  0.5363E+03
      5.117  0.1039E+03  0.5407E+03
      5.160  0.9248E+02  0.5447E+03
      5.202  0.7681E+02  0.5480E+03
      5.245  0.5870E+02  0.5505E+03
      5.288  0.4077E+02  0.5522E+03
      5.330  0.2548E+02  0.5533E+03
      5.373  0.1421E+02  0.5539E+03
      5.416  0.7027E+01  0.5542E+03
      5.458  0.3064E+01  0.5543E+03
      5.501  0.1174E+01  0.5544E+03
      5.544  0.3934E+00  0.5544E+03
      5.586  0.1151E+00  0.5544E+03
      5.629  0.2931E-01  0.5544E+03
      5.672  0.6485E-02  0.5544E+03
      5.714  0.1244E-02  0.5544E+03
      5.757  0.2065E-03  0.5544E+03
      5.800  0.2961E-04  0.5544E+03
      5.842  0.3666E-05  0.5544E+03
      5.885  0.3910E-06  0.5544E+03
      5.928  0.3591E-07  0.5544E+03
      5.970  0.2835E-08  0.5544E+03
      6.013  0.1923E-09  0.5544E+03
      6.056  0.1120E-10  0.5544E+03
      6.098  0.5584E-12  0.5544E+03
      6.141  0.2341E-13  0.5544E+03
      6.184  0.3252E-15  0.5544E+03
      6.227  0.0000E+00  0.5544E+03
      6.269  0.0000E+00  0.5544E+03
      6.312  0.0000E+00  0.5544E+03
      6.355  0.0000E+00  0.5544E+03
      6.397  0.0000E+00  0.5544E+03
      6.440  0.0000E+00  0.5544E+03
      6.483  0.0000E+00  0.5544E+03
      6.525  0.0000E+00  0.5544E+03
      6.568  0.0000E+00  0.5544E+03
      6.611  0.0000E+00  0.5544E+03
      6.653  0.0000E+00  0.5544E+03
      6.696  0.0000E+00  0.5544E+03
      6.739  0.0000E+00  0.5544E+03
      6.781  0.0000E+00  0.5544E+03
