       N       E                     dE             d eps       ncg     rms          rms(c)
DAV:   1     0.290732988524E+05    0.29073E+05   -0.86152E+05 27930   0.196E+03
DAV:   2     0.118696907602E+04   -0.27886E+05   -0.27267E+05 27720   0.601E+02
DAV:   3    -0.195032329012E+04   -0.31373E+04   -0.27194E+04 38990   0.279E+02
DAV:   4    -0.261963895061E+04   -0.66932E+03   -0.60920E+03 50918   0.974E+01
DAV:   5    -0.273906205710E+04   -0.11942E+03   -0.11180E+03 48328   0.397E+01    0.204E+02
RMM:   6    -0.598581513532E+04   -0.32468E+04   -0.11351E+04 47914   0.241E+02    0.626E+02
RMM:   7    -0.347966341252E+04    0.25062E+04   -0.38083E+03 36704   0.103E+02    0.368E+02
RMM:   8    -0.111354855524E+05   -0.76558E+04   -0.18369E+04 46207   0.369E+02    0.115E+03
RMM:   9    -0.138311710100E+05   -0.26957E+04   -0.16466E+04 50058   0.181E+02    0.772E+02
RMM:  10    -0.710598750839E+04    0.67252E+04   -0.55132E+03 33346   0.148E+02    0.494E+02
RMM:  11    -0.102468059235E+05   -0.31408E+04   -0.13884E+04 42297   0.264E+02    0.761E+02
RMM:  12    -0.104983874491E+05   -0.25158E+03   -0.10774E+04 48256   0.136E+02    0.675E+02
RMM:  13    -0.904072524588E+04    0.14577E+04   -0.61321E+03 47162   0.112E+02    0.601E+02
RMM:  14    -0.103825629587E+05   -0.13418E+04   -0.65204E+03 35255   0.181E+02    0.565E+02
RMM:  15    -0.562213666747E+04    0.47604E+04   -0.10060E+04 30039   0.236E+02    0.506E+02
RMM:  16    -0.525103002518E+04    0.37111E+03   -0.36444E+03 27810   0.118E+02    0.435E+02
RMM:  17    -0.406121377784E+04    0.11898E+04   -0.25466E+03 35112   0.806E+01    0.385E+02
RMM:  18    -0.290280729988E+04    0.11584E+04   -0.10799E+03 28721   0.625E+01    0.275E+02
RMM:  19    -0.253693683996E+04    0.36587E+03   -0.11018E+03 42004   0.282E+01    0.211E+02
RMM:  20    -0.251627635534E+04    0.20660E+02   -0.92571E+02 38895   0.337E+01    0.196E+02
RMM:  21    -0.245446929265E+04    0.61807E+02   -0.75335E+02 36035   0.327E+01    0.152E+02
RMM:  22    -0.237244208514E+04    0.82027E+02   -0.51332E+02 38613   0.234E+01    0.105E+02
RMM:  23    -0.238018409810E+04   -0.77420E+01   -0.40544E+02 43230   0.150E+01    0.782E+01
RMM:  24    -0.236299654212E+04    0.17188E+02   -0.10207E+02 32734   0.119E+01    0.825E+01
RMM:  25    -0.234115827105E+04    0.21838E+02   -0.65357E+01 35503   0.893E+00    0.556E+01
RMM:  26    -0.233824894146E+04    0.29093E+01   -0.36284E+01 32071   0.876E+00    0.538E+01
RMM:  27    -0.233314572615E+04    0.51032E+01   -0.28004E+01 33787   0.724E+00    0.449E+01
RMM:  28    -0.233936713872E+04   -0.62214E+01   -0.34142E+01 34460   0.680E+00    0.504E+01
RMM:  29    -0.234384856838E+04   -0.44814E+01   -0.24957E+01 43767   0.300E+00    0.550E+01
RMM:  30    -0.234541305469E+04   -0.15645E+01   -0.12412E+01 45933   0.121E+00    0.579E+01
RMM:  31    -0.234342588586E+04    0.19872E+01   -0.17189E+00 34145   0.106E+00    0.558E+01
RMM:  32    -0.233956937606E+04    0.38565E+01   -0.11284E+00 31179   0.150E+00    0.508E+01
RMM:  33    -0.233707956845E+04    0.24898E+01   -0.19547E+00 32400   0.191E+00    0.467E+01
RMM:  34    -0.233471473358E+04    0.23648E+01   -0.73395E+00 32899   0.363E+00    0.404E+01
RMM:  35    -0.233422965457E+04    0.48508E+00   -0.69248E+00 34531   0.340E+00    0.448E+01
RMM:  36    -0.233425710979E+04   -0.27455E-01   -0.80493E+00 36796   0.327E+00    0.479E+01
RMM:  37    -0.232775155869E+04    0.65056E+01   -0.51876E+00 40255   0.231E+00    0.328E+01
RMM:  38    -0.232653002861E+04    0.12215E+01   -0.34940E+00 31251   0.295E+00    0.309E+01
RMM:  39    -0.232777284848E+04   -0.12428E+01   -0.40286E+00 30868   0.329E+00    0.351E+01
RMM:  40    -0.233012702426E+04   -0.23542E+01   -0.84914E+00 42048   0.248E+00    0.406E+01
RMM:  41    -0.233183857963E+04   -0.17116E+01   -0.51964E+00 41648   0.152E+00    0.449E+01
RMM:  42    -0.233207537014E+04   -0.23679E+00   -0.20128E+00 41226   0.987E-01    0.458E+01
RMM:  43    -0.233185774972E+04    0.21762E+00   -0.58922E-01 33405   0.852E-01    0.459E+01
RMM:  44    -0.233158981982E+04    0.26793E+00   -0.53107E-01 35481   0.783E-01    0.454E+01
RMM:  45    -0.232954051246E+04    0.20493E+01   -0.31546E-01 29474   0.109E+00    0.406E+01
RMM:  46    -0.232753380465E+04    0.20067E+01   -0.62663E-01 28639   0.158E+00    0.352E+01
RMM:  47    -0.232641398862E+04    0.11198E+01   -0.20940E+00 35233   0.185E+00    0.312E+01
RMM:  48    -0.232579166397E+04    0.62232E+00   -0.22763E+00 41230   0.134E+00    0.285E+01
RMM:  49    -0.232569123691E+04    0.10043E+00   -0.84644E-01 42806   0.661E-01    0.280E+01
RMM:  50    -0.232556541094E+04    0.12583E+00   -0.21833E-01 30848   0.781E-01    0.276E+01
RMM:  51    -0.239316982972E+04   -0.67604E+02   -0.33758E+01 30763   0.994E+00    0.104E+02
RMM:  52    -0.239168343834E+04    0.14864E+01   -0.36760E+01 42061   0.489E+00    0.104E+02
RMM:  53    -0.239396752947E+04   -0.22841E+01   -0.11117E+01 34405   0.392E+00    0.108E+02
RMM:  54    -0.239984068442E+04   -0.58732E+01   -0.11254E+01 42167   0.256E+00    0.113E+02
RMM:  55    -0.240137940537E+04   -0.15387E+01   -0.66395E+00 46055   0.961E-01    0.116E+02
RMM:  56    -0.234670172845E+04    0.54678E+02   -0.30575E+01 30743   0.837E+00    0.663E+01
RMM:  57    -0.234767037596E+04   -0.96865E+00   -0.27640E+01 35860   0.637E+00    0.617E+01
RMM:  58    -0.235732474530E+04   -0.96544E+01   -0.14935E+01 27739   0.819E+00    0.776E+01
RMM:  59    -0.234106905904E+04    0.16256E+02   -0.14678E+01 28549   0.738E+00    0.578E+01
RMM:  60    -0.233204069929E+04    0.90284E+01   -0.12855E+01 30013   0.600E+00    0.424E+01
RMM:  61    -0.236817910378E+04   -0.36138E+02   -0.34106E+01 32936   0.774E+00    0.876E+01
RMM:  62    -0.235502312581E+04    0.13156E+02   -0.22057E+01 41539   0.415E+00    0.739E+01
RMM:  63    -0.234570497310E+04    0.93182E+01   -0.72426E+00 34809   0.323E+00    0.634E+01
RMM:  64    -0.233502670414E+04    0.10678E+02   -0.43064E+00 28459   0.402E+00    0.463E+01
RMM:  65    -0.233282897455E+04    0.21977E+01   -0.30919E+00 28439   0.380E+00    0.413E+01
RMM:  66    -0.234188885621E+04   -0.90599E+01   -0.90294E+00 35081   0.379E+00    0.568E+01
RMM:  67    -0.234234274799E+04   -0.45389E+00   -0.35148E+00 30040   0.335E+00    0.580E+01
RMM:  68    -0.234150556607E+04    0.83718E+00   -0.36656E+00 41100   0.162E+00    0.572E+01
RMM:  69    -0.234174181691E+04   -0.23625E+00   -0.18172E+00 45433   0.451E-01    0.583E+01
RMM:  70    -0.234275076330E+04   -0.10089E+01   -0.14206E+00 33134   0.166E+00    0.596E+01
RMM:  71    -0.233552732784E+04    0.72234E+01   -0.98233E+00 30797   0.472E+00    0.490E+01
RMM:  72    -0.233218915856E+04    0.33382E+01   -0.33277E+00 28526   0.384E+00    0.410E+01
RMM:  73    -0.233173886508E+04    0.45029E+00   -0.35659E+00 37714   0.211E+00    0.402E+01
RMM:  74    -0.233350477315E+04   -0.17659E+01   -0.13644E+00 28550   0.235E+00    0.440E+01
RMM:  75    -0.233556574008E+04   -0.20610E+01   -0.12765E+00 28584   0.209E+00    0.477E+01
RMM:  76    -0.233978162817E+04   -0.42159E+01   -0.48389E+00 27936   0.456E+00    0.565E+01
RMM:  77    -0.233676665236E+04    0.30150E+01   -0.30817E+00 27724   0.403E+00    0.504E+01
RMM:  78    -0.234222128712E+04   -0.54546E+01   -0.24226E+00 28062   0.338E+00    0.589E+01
RMM:  79    -0.234321441696E+04   -0.99313E+00   -0.18263E+00 29676   0.238E+00    0.595E+01
RMM:  80    -0.234008931458E+04    0.31251E+01   -0.13863E+00 28012   0.243E+00    0.552E+01
RMM:  81    -0.237836080481E+04   -0.38271E+02   -0.32103E+01 29950   0.945E+00    0.946E+01
RMM:  82    -0.234192453637E+04    0.36436E+02   -0.11040E+01 27720   0.843E+00    0.586E+01
RMM:  83    -0.233470575945E+04    0.72188E+01   -0.41568E+00 28031   0.434E+00    0.469E+01
RMM:  84    -0.233336726064E+04    0.13385E+01   -0.37402E+00 27797   0.401E+00    0.434E+01
RMM:  85    -0.233395165792E+04   -0.58440E+00   -0.33319E+00 32157   0.243E+00    0.447E+01
RMM:  86    -0.233378345658E+04    0.16820E+00   -0.42877E+00 28007   0.405E+00    0.451E+01
RMM:  87    -0.233331470618E+04    0.46875E+00   -0.18030E+00 27720   0.326E+00    0.438E+01
RMM:  88    -0.233260296231E+04    0.71174E+00   -0.10733E+00 29052   0.197E+00    0.424E+01
RMM:  89    -0.233021185091E+04    0.23911E+01   -0.17660E+00 27957   0.266E+00    0.366E+01
RMM:  90    -0.232761091800E+04    0.26009E+01   -0.17557E+00 28032   0.278E+00    0.290E+01
RMM:  91    -0.232826278952E+04   -0.65187E+00   -0.42959E+00 28130   0.418E+00    0.300E+01
RMM:  92    -0.232660579450E+04    0.16570E+01   -0.18795E+00 27721   0.338E+00    0.252E+01
RMM:  93    -0.232640715871E+04    0.19864E+00   -0.22940E+00 33147   0.200E+00    0.239E+01
RMM:  94    -0.232560514295E+04    0.80202E+00   -0.17795E+00 32189   0.191E+00    0.200E+01
RMM:  95    -0.232556849258E+04    0.36650E-01   -0.15655E+00 32303   0.184E+00    0.194E+01
RMM:  96    -0.232692002557E+04   -0.13515E+01   -0.17528E+00 28172   0.264E+00    0.247E+01
RMM:  97    -0.232561811677E+04    0.13019E+01   -0.75213E-01 27756   0.204E+00    0.195E+01
RMM:  98    -0.232523731004E+04    0.38081E+00   -0.75790E-01 37409   0.889E-01    0.170E+01
RMM:  99    -0.232513852223E+04    0.98788E-01   -0.30020E-01 35920   0.650E-01    0.161E+01
RMM: 100    -0.232507639483E+04    0.62127E-01   -0.13057E-01 35632   0.422E-01
   1 F= -.23250764E+04 E0= -.23223216E+04  d E =-.232508E+04
       N       E                     dE             d eps       ncg     rms          rms(c)
DAV:   1    -0.232551140843E+04   -0.37289E+00   -0.12132E+02 27818   0.117E+01    0.174E+01
RMM:   2    -0.429466764893E+04   -0.19692E+04   -0.98511E+02 44453   0.508E+01    0.311E+02
RMM:   3    -0.252465920483E+04    0.17700E+04   -0.18990E+02 27805   0.300E+01    0.157E+02
RMM:   4    -0.273713611055E+04   -0.21248E+03   -0.11804E+02 27844   0.210E+01    0.231E+02
RMM:   5    -0.238271378880E+04    0.35442E+03   -0.27738E+01 33157   0.785E+00    0.956E+01
RMM:   6    -0.240649314077E+04   -0.23779E+02   -0.15804E+01 27779   0.812E+00    0.117E+02
RMM:   7    -0.234738477390E+04    0.59108E+02   -0.20492E+01 28497   0.848E+00    0.642E+01
RMM:   8    -0.235122661082E+04   -0.38418E+01   -0.39081E+01 36901   0.775E+00    0.670E+01
RMM:   9    -0.233530492785E+04    0.15922E+02   -0.14230E+01 29181   0.658E+00    0.435E+01
RMM:  10    -0.233530732519E+04   -0.23973E-02   -0.10625E+01 28542   0.594E+00    0.436E+01
RMM:  11    -0.233731733597E+04   -0.20100E+01   -0.11842E+01 33529   0.455E+00    0.466E+01
RMM:  12    -0.233374347608E+04    0.35739E+01   -0.36843E+00 31129   0.299E+00    0.404E+01
RMM:  13    -0.233169214515E+04    0.20513E+01   -0.18914E+00 31121   0.222E+00    0.362E+01
RMM:  14    -0.232877425147E+04    0.29179E+01   -0.10121E+00 28338   0.199E+00    0.282E+01
RMM:  15    -0.232664924935E+04    0.21250E+01   -0.10118E+00 28154   0.211E+00    0.213E+01
RMM:  16    -0.232571986612E+04    0.92938E+00   -0.16587E+00 32612   0.188E+00    0.175E+01
RMM:  17    -0.232503314071E+04    0.68673E+00   -0.86515E-01 31618   0.139E+00    0.136E+01
RMM:  18    -0.232489715030E+04    0.13599E+00   -0.77012E-01 43135   0.566E-01    0.122E+01
RMM:  19    -0.232462641824E+04    0.27073E+00   -0.14193E-01 34240   0.452E-01    0.993E+00
RMM:  20    -0.232438369375E+04    0.24272E+00   -0.74314E-02 31967   0.409E-01    0.736E+00
RMM:  21    -0.232437513498E+04    0.85588E-02   -0.68817E-02 29298   0.492E-01    0.722E+00
RMM:  22    -0.232441182877E+04   -0.36694E-01   -0.46961E-02 28589   0.445E-01    0.777E+00
RMM:  23    -0.232441527865E+04   -0.34499E-02   -0.52280E-02 31435   0.360E-01    0.769E+00
RMM:  24    -0.232431478678E+04    0.10049E+00   -0.71484E-02 32227   0.404E-01    0.621E+00
RMM:  25    -0.232421812343E+04    0.96663E-01   -0.46124E-02 28597   0.421E-01    0.438E+00
RMM:  26    -0.232417953855E+04    0.38585E-01   -0.78215E-02 31757   0.422E-01    0.327E+00
RMM:  27    -0.232417093383E+04    0.86047E-02   -0.91674E-02 33243   0.414E-01    0.281E+00
RMM:  28    -0.232416499657E+04    0.59373E-02   -0.51886E-02 32031   0.336E-01    0.249E+00
RMM:  29    -0.232416204307E+04    0.29535E-02   -0.39686E-02 32434   0.299E-01    0.233E+00
RMM:  30    -0.232414952116E+04    0.12522E-01   -0.16367E-02 27777   0.279E-01    0.176E+00
RMM:  31    -0.232414804092E+04    0.14802E-02   -0.14097E-02 28577   0.234E-01    0.175E+00
RMM:  32    -0.232416192416E+04   -0.13883E-01   -0.22994E-02 30831   0.242E-01    0.237E+00
RMM:  33    -0.232416899435E+04   -0.70702E-02   -0.11089E-02 29367   0.195E-01    0.260E+00
RMM:  34    -0.232415830662E+04    0.10688E-01   -0.11638E-02 41833   0.863E-02    0.214E+00
RMM:  35    -0.232414469684E+04    0.13610E-01   -0.16872E-03 30780   0.681E-02    0.142E+00
RMM:  36    -0.232413895716E+04    0.57397E-02   -0.14871E-03 29801   0.681E-02    0.961E-01
RMM:  37    -0.232413763391E+04    0.13232E-02   -0.20989E-03 29085   0.842E-02    0.822E-01
RMM:  38    -0.232413985087E+04   -0.22170E-02   -0.17577E-03 29415   0.769E-02    0.107E+00
RMM:  39    -0.232413928944E+04    0.56142E-03   -0.27547E-03 37180   0.602E-02    0.972E-01
RMM:  40    -0.232413771821E+04    0.15712E-02   -0.12052E-03 30759   0.568E-02    0.750E-01
RMM:  41    -0.232413722369E+04    0.49452E-03   -0.67001E-04 30669   0.432E-02    0.675E-01
RMM:  42    -0.232413683810E+04    0.38559E-03   -0.93322E-04 39047   0.348E-02    0.594E-01
RMM:  43    -0.232413612535E+04    0.71275E-03   -0.34322E-04 31599   0.293E-02    0.439E-01
RMM:  44    -0.232413593420E+04    0.19114E-03   -0.23909E-04 31223   0.250E-02    0.382E-01
RMM:  45    -0.232413581869E+04    0.11551E-03   -0.28541E-04 38897   0.197E-02    0.332E-01
RMM:  46    -0.232413563567E+04    0.18302E-03   -0.95948E-05 28833   0.194E-02    0.239E-01
RMM:  47    -0.232413587421E+04   -0.23853E-03   -0.67146E-04 29086   0.493E-02    0.270E-01
RMM:  48    -0.232413577142E+04    0.10279E-03   -0.42805E-04 27833   0.420E-02    0.240E-01
RMM:  49    -0.232413556354E+04    0.20789E-03   -0.26197E-04 27728   0.369E-02    0.128E-01
RMM:  50    -0.232413554406E+04    0.19473E-04   -0.25087E-04 36357   0.202E-02    0.108E-01
RMM:  51    -0.232413553216E+04    0.11899E-04   -0.11452E-04 33380   0.149E-02    0.980E-02
RMM:  52    -0.232413556542E+04   -0.33262E-04   -0.15443E-04 29399   0.230E-02    0.133E-01
RMM:  53    -0.232413555552E+04    0.99074E-05   -0.14385E-04 30321   0.199E-02    0.116E-01
RMM:  54    -0.232413551218E+04    0.43338E-04   -0.47459E-05 28159   0.153E-02    0.691E-02
RMM:  55    -0.232413550607E+04    0.61054E-05   -0.33046E-05 30511   0.965E-03    0.584E-02
RMM:  56    -0.232413550114E+04    0.49374E-05   -0.28134E-05 32084   0.765E-03    0.449E-02
RMM:  57    -0.232413549986E+04    0.12796E-05   -0.14475E-05 28009   0.730E-03    0.397E-02
RMM:  58    -0.232413549633E+04    0.35259E-05   -0.11677E-05 27307   0.528E-03    0.253E-02
RMM:  59    -0.232413549538E+04    0.95487E-06   -0.46400E-06 20611   0.456E-03
   2 F= -.23241355E+04 E0= -.23213663E+04  d E =0.940899E+00
       N       E                     dE             d eps       ncg     rms          rms(c)
DAV:   1    -0.232414701175E+04   -0.11515E-01   -0.32429E+00 29722   0.188E+00    0.431E-01
RMM:   2    -0.232455940959E+04   -0.41240E+00   -0.16331E-01 30415   0.714E-01    0.859E+00
RMM:   3    -0.232446437373E+04    0.95036E-01   -0.10511E-01 38807   0.358E-01    0.745E+00
RMM:   4    -0.232457171448E+04   -0.10734E+00   -0.38845E-02 27797   0.417E-01    0.872E+00
RMM:   5    -0.232417186476E+04    0.39985E+00   -0.21450E-02 30701   0.251E-01    0.160E+00
RMM:   6    -0.232418277660E+04   -0.10912E-01   -0.31589E-02 28658   0.323E-01    0.262E+00
RMM:   7    -0.232425464099E+04   -0.71864E-01   -0.74722E-02 37615   0.314E-01    0.449E+00
RMM:   8    -0.232417252720E+04    0.82114E-01   -0.28013E-02 28732   0.302E-01    0.189E+00
RMM:   9    -0.232416165340E+04    0.10874E-01   -0.13874E-02 28144   0.223E-01    0.150E+00
RMM:  10    -0.232415150382E+04    0.10150E-01   -0.10543E-02 32112   0.143E-01    0.669E-01
RMM:  11    -0.232415090394E+04    0.59988E-03   -0.92700E-03 36203   0.118E-01    0.558E-01
RMM:  12    -0.232415086294E+04    0.40999E-04   -0.41250E-03 31800   0.992E-02    0.534E-01
RMM:  13    -0.232414964260E+04    0.12203E-02   -0.13661E-03 27902   0.766E-02    0.275E-01
RMM:  14    -0.232414958017E+04    0.62432E-04   -0.15651E-03 35525   0.486E-02    0.240E-01
RMM:  15    -0.232414954096E+04    0.39210E-04   -0.84318E-04 29668   0.506E-02    0.214E-01
RMM:  16    -0.232414935919E+04    0.18176E-03   -0.36064E-04 27818   0.405E-02    0.119E-01
RMM:  17    -0.232414933049E+04    0.28702E-04   -0.29895E-04 35228   0.224E-02    0.862E-02
RMM:  18    -0.232414934671E+04   -0.16214E-04   -0.18152E-04 33483   0.185E-02    0.964E-02
RMM:  19    -0.232414931195E+04    0.34759E-04   -0.68503E-05 29046   0.166E-02    0.538E-02
RMM:  20    -0.232414930620E+04    0.57442E-05   -0.54586E-05 33205   0.958E-03    0.373E-02
RMM:  21    -0.232414931117E+04   -0.49650E-05   -0.43782E-05 34823   0.819E-03    0.429E-02
RMM:  22    -0.232414930825E+04    0.29188E-05   -0.20609E-05 29806   0.767E-03    0.328E-02
RMM:  23    -0.232414930708E+04    0.11656E-05   -0.15087E-05 28103   0.487E-03    0.262E-02
RMM:  24    -0.232414930643E+04    0.65161E-06   -0.75237E-06 23453   0.354E-03
   3 F= -.23241493E+04 E0= -.23213786E+04  d E =0.927088E+00
       N       E                     dE             d eps       ncg     rms          rms(c)
DAV:   1    -0.232415452191E+04   -0.52148E-02   -0.12970E+01 27902   0.377E+00    0.866E-01
RMM:   2    -0.232578292468E+04   -0.16284E+01   -0.64940E-01 30416   0.144E+00    0.171E+01
RMM:   3    -0.232530770842E+04    0.47522E+00   -0.41769E-01 38310   0.732E-01    0.142E+01
RMM:   4    -0.232488453647E+04    0.42317E+00   -0.15089E-01 27727   0.883E-01    0.114E+01
RMM:   5    -0.232424584006E+04    0.63870E+00   -0.87038E-02 37517   0.351E-01    0.362E+00
RMM:   6    -0.232424217883E+04    0.36612E-02   -0.82923E-02 28081   0.550E-01    0.404E+00
RMM:   7    -0.232449457378E+04   -0.25239E+00   -0.22863E-01 37263   0.555E-01    0.802E+00
RMM:   8    -0.232423974389E+04    0.25483E+00   -0.95509E-02 29948   0.521E-01    0.344E+00
RMM:   9    -0.232419323130E+04    0.46513E-01   -0.42978E-02 27780   0.437E-01    0.229E+00
RMM:  10    -0.232417375824E+04    0.19473E-01   -0.37421E-02 35724   0.227E-01    0.139E+00
RMM:  11    -0.232416867409E+04    0.50841E-02   -0.22448E-02 34110   0.201E-01    0.964E-01
RMM:  12    -0.232417034500E+04   -0.16709E-02   -0.17430E-02 33629   0.188E-01    0.108E+00
RMM:  13    -0.232416580612E+04    0.45389E-02   -0.54610E-03 27797   0.155E-01    0.619E-01
RMM:  14    -0.232416510571E+04    0.70040E-03   -0.53419E-03 34360   0.976E-02    0.500E-01
RMM:  15    -0.232416480399E+04    0.30172E-03   -0.33300E-03 30146   0.970E-02    0.418E-01
RMM:  16    -0.232416411005E+04    0.69394E-03   -0.13945E-03 27942   0.795E-02    0.242E-01
RMM:  17    -0.232416396502E+04    0.14503E-03   -0.95015E-04 33037   0.452E-02    0.169E-01
RMM:  18    -0.232416402059E+04   -0.55576E-04   -0.77655E-04 35592   0.349E-02    0.184E-01
RMM:  19    -0.232416389087E+04    0.12973E-03   -0.26038E-04 29448   0.310E-02    0.102E-01
RMM:  20    -0.232416386839E+04    0.22481E-04   -0.19371E-04 33090   0.188E-02    0.713E-02
RMM:  21    -0.232416387892E+04   -0.10531E-04   -0.15586E-04 35517   0.154E-02    0.763E-02
RMM:  22    -0.232416386715E+04    0.11768E-04   -0.64043E-05 30205   0.140E-02    0.603E-02
RMM:  23    -0.232416386419E+04    0.29634E-05   -0.55496E-05 34165   0.923E-03    0.508E-02
RMM:  24    -0.232416386365E+04    0.53272E-06   -0.39478E-05 35793   0.710E-03    0.447E-02
RMM:  25    -0.232416385632E+04    0.73313E-05   -0.14744E-05 28508   0.626E-03    0.230E-02
RMM:  26    -0.232416385560E+04    0.72143E-06   -0.94652E-06 23958   0.361E-03
   4 F= -.23241639E+04 E0= -.23213903E+04  d E =0.912539E+00
       N       E                     dE             d eps       ncg     rms          rms(c)
DAV:   1    -0.232430552368E+04   -0.14167E+00   -0.53946E+01 27720   0.767E+00    0.124E+00
RMM:   2    -0.232747253237E+04   -0.31670E+01   -0.11016E+00 27979   0.215E+00    0.241E+01
RMM:   3    -0.232497643004E+04    0.24961E+01   -0.44746E-01 37117   0.886E-01    0.983E+00
RMM:   4    -0.232441245287E+04    0.56398E+00   -0.18983E-01 27720   0.102E+00    0.288E+00
RMM:   5    -0.232610927875E+04   -0.16968E+01   -0.21877E-01 39162   0.521E-01    0.184E+01
RMM:   6    -0.232529928981E+04    0.80999E+00   -0.27969E-01 38433   0.599E-01    0.128E+01
RMM:   7    -0.232483340456E+04    0.46589E+00   -0.22199E-01 28502   0.847E-01    0.896E+00
RMM:   8    -0.232445457945E+04    0.37883E+00   -0.10973E-01 27758   0.742E-01    0.370E+00
RMM:   9    -0.232447189439E+04   -0.17315E-01   -0.89207E-02 28310   0.602E-01    0.454E+00
RMM:  10    -0.232442251242E+04    0.49382E-01   -0.83902E-02 30315   0.485E-01    0.307E+00
RMM:  11    -0.232438818994E+04    0.34322E-01   -0.61880E-02 28252   0.489E-01    0.200E+00
RMM:  12    -0.232437130563E+04    0.16884E-01   -0.24699E-02 27862   0.366E-01    0.118E+00
RMM:  13    -0.232436752988E+04    0.37758E-02   -0.15124E-02 31263   0.184E-01    0.826E-01
RMM:  14    -0.232436761782E+04   -0.87944E-04   -0.12669E-02 37255   0.123E-01    0.776E-01
RMM:  15    -0.232436597178E+04    0.16460E-02   -0.47421E-03 31105   0.110E-01    0.528E-01
RMM:  16    -0.232436507240E+04    0.89938E-03   -0.22960E-03 29734   0.862E-02    0.332E-01
RMM:  17    -0.232436509948E+04   -0.27081E-04   -0.25833E-03 36575   0.589E-02    0.307E-01
RMM:  18    -0.232436490341E+04    0.19607E-03   -0.11090E-03 30669   0.546E-02    0.219E-01
RMM:  19    -0.232436470464E+04    0.19877E-03   -0.47441E-04 29876   0.404E-02    0.110E-01
RMM:  20    -0.232436476515E+04   -0.60514E-04   -0.60036E-04 36718   0.281E-02    0.136E-01
RMM:  21    -0.232436477382E+04   -0.86621E-05   -0.25916E-04 30466   0.275E-02    0.136E-01
RMM:  22    -0.232436473818E+04    0.35638E-04   -0.13220E-04 30849   0.195E-02    0.106E-01
RMM:  23    -0.232436473679E+04    0.13844E-05   -0.14516E-04 37804   0.126E-02    0.945E-02
RMM:  24    -0.232436471093E+04    0.25864E-04   -0.72396E-05 31541   0.130E-02    0.548E-02
RMM:  25    -0.232436470286E+04    0.80666E-05   -0.47226E-05 32884   0.926E-03    0.341E-02
RMM:  26    -0.232436470412E+04   -0.12593E-05   -0.38286E-05 35990   0.531E-03    0.309E-02
RMM:  27    -0.232436470124E+04    0.28806E-05   -0.11145E-05 25723   0.479E-03    0.181E-02
RMM:  28    -0.232436470019E+04    0.10497E-05   -0.47882E-06 20652   0.350E-03    0.101E-02
RMM:  29    -0.232436470042E+04   -0.22585E-06   -0.31247E-06 19090   0.264E-03
   5 F= -.23243647E+04 E0= -.23215856E+04  d E =-.200845E+00
