<?xml version="1.0" encoding="ISO-8859-1"?>
<modeling>
 <generator>
  <i name="program" type="string">vasp </i>
  <i name="version" type="string">5.4.4.18Apr17-6-g9f103f2a35  </i>
  <i name="subversion" type="string">(build Sep 27 2018 12:46:37) complex + VL-xray_ parallel </i>
  <i name="platform" type="string">LLNL_Quartz_ifc </i>
  <i name="date" type="string">2021 09 27 </i>
  <i name="time" type="string">00:53:36 </i>
 </generator>
 <incar>
  <i type="int" name="ISTART">     2</i>
  <i type="string" name="PREC">accurate</i>
  <i type="string" name="ALGO"> Fast</i>
  <i type="int" name="ICHARG">     2</i>
  <i type="int" name="INIWAV">     1</i>
  <i type="int" name="NELM">   100</i>
  <i type="int" name="NELMIN">     4</i>
  <i type="int" name="IBRION">     2</i>
  <i name="EDIFF">      0.00000100</i>
  <i type="int" name="NSW">     5</i>
  <i type="int" name="ISIF">     2</i>
  <i type="int" name="ISYM">     2</i>
  <i name="ENCUT">    450.00000000</i>
  <i name="POTIM">      0.25000000</i>
  <i type="string" name="LREAL"> Auto</i>
  <i type="int" name="ISMEAR">     0</i>
  <i name="SIGMA">      0.15000000</i>
  <i type="logical" name="LWAVE"> F  </i>
  <i type="logical" name="LCHARG"> F  </i>
  <i type="int" name="ICORELEVEL">     0</i>
  <i type="int" name="CLNT">     1</i>
  <i type="int" name="CLN">     1</i>
  <i type="int" name="INCAR     ">     0</i>
  <i name="CLZ">      0.00000000</i>
  <v type="int" name="KPOINT_BSE">    -1     0     0     0</v>
  <i type="int" name="NELM">   100</i>
 </incar>
 <structure name="primitive_cell" >
  <crystal>
   <varray name="basis" >
    <v>       9.72667804       0.00000000       0.00000000 </v>
    <v>       0.00000000       8.42355028       0.00000000 </v>
    <v>       0.00000000       0.00000000      45.00000000 </v>
   </varray>
   <i name="volume">   3686.99226691 </i>
   <varray name="rec_basis" >
    <v>       0.10281002       0.00000000       0.00000000 </v>
    <v>       0.00000000       0.11871479       0.00000000 </v>
    <v>       0.00000000       0.00000000       0.02222222 </v>
   </varray>
  </crystal>
  <varray name="positions" >
   <v>       0.06284560       0.03017606       0.12416239 </v>
   <v>       0.18337974       0.11215988       0.16648170 </v>
   <v>       0.05680994      -0.13578294       0.16666329 </v>
   <v>       0.18600922      -0.21263058       0.12398537 </v>
   <v>      -0.06532476      -0.21209606       0.12445803 </v>
   <v>      -0.06943175       0.11516334       0.16675968 </v>
   <v>       0.31182399       0.03103337       0.12419660 </v>
   <v>      -0.18648957       0.03051334       0.12408034 </v>
   <v>       0.18584952       0.28608985       0.12429115 </v>
   <v>      -0.06488088       0.28691748       0.12418953 </v>
   <v>       0.30567241      -0.13621165       0.16574691 </v>
   <v>       0.05568875       0.36509161       0.16664978 </v>
   <v>      -0.19295077      -0.13655118       0.16675494 </v>
   <v>       0.43218075       0.11285170       0.16662585 </v>
   <v>      -0.05868009      -0.04620398       0.21123488 </v>
   <v>       0.30679022       0.36344200       0.16677251 </v>
   <v>       0.18235974      -0.38630557       0.16657473 </v>
   <v>       0.43496635      -0.21412781       0.12419197 </v>
   <v>       0.06593944       0.20327572       0.21121543 </v>
   <v>       0.19162853      -0.04513787       0.21170761 </v>
   <v>      -0.06793270      -0.38718562       0.16670621 </v>
   <v>      -0.31485986      -0.21260514       0.12439370 </v>
   <v>      -0.19392587       0.36424761       0.16601272 </v>
   <v>       0.06238951      -0.46933927       0.12417291 </v>
   <v>       0.43516533       0.28645029       0.12421343 </v>
   <v>      -0.31744291       0.11404538       0.16675510 </v>
   <v>      -0.31416585       0.28688530       0.12404624 </v>
   <v>       0.06770373      -0.29720336       0.21127249 </v>
   <v>      -0.18368816       0.20306827       0.21117415 </v>
   <v>       0.31594938       0.20350248       0.21125819 </v>
   <v>       0.31354166      -0.46871332       0.12410980 </v>
   <v>      -0.43706276       0.03205577       0.12427350 </v>
   <v>      -0.18800804      -0.46992807       0.12405456 </v>
   <v>       0.43022828      -0.38442608       0.16655283 </v>
   <v>      -0.18374781      -0.29686131       0.21120086 </v>
   <v>      -0.44326267      -0.13646938       0.16663065 </v>
   <v>      -0.30945509      -0.04515115       0.21152146 </v>
   <v>       0.31554204      -0.29770945       0.21211073 </v>
   <v>       0.44196525      -0.04425904       0.21184587 </v>
   <v>       0.19087627       0.45332885       0.21116867 </v>
   <v>      -0.05935503       0.45382911       0.21158681 </v>
   <v>      -0.31802971      -0.38671107       0.16658204 </v>
   <v>      -0.44272801       0.36364707       0.16670061 </v>
   <v>       0.05882228       0.03727733       0.25570830 </v>
   <v>       0.18366191      -0.21276406       0.25562252 </v>
   <v>      -0.43327419       0.20316151       0.21121426 </v>
   <v>       0.30976625       0.03699289       0.25560634 </v>
   <v>      -0.06649786      -0.21308579       0.25561073 </v>
   <v>       0.18388872       0.28726929       0.25579432 </v>
   <v>      -0.18993713       0.03746927       0.25588723 </v>
   <v>      -0.43694090      -0.46904653       0.12422498 </v>
   <v>      -0.06599936       0.28728736       0.25578011 </v>
   <v>      -0.30971429       0.45442532       0.21185947 </v>
   <v>       0.44088050       0.45394614       0.21135841 </v>
   <v>      -0.43265977      -0.29690365       0.21200447 </v>
   <v>       0.43307938      -0.21285297       0.25560242 </v>
   <v>       0.05942305      -0.46310960       0.25572227 </v>
   <v>       0.43348780       0.28727833       0.25577642 </v>
   <v>      -0.31638899      -0.21263409       0.25576814 </v>
   <v>      -0.31639031       0.28737701       0.25586429 </v>
   <v>       0.30880886      -0.46296475       0.25556404 </v>
   <v>      -0.43960247       0.03709078       0.25557068 </v>
   <v>      -0.19119269      -0.46267791       0.25582929 </v>
   <v>       0.07101559      -0.12700935       0.30007623 </v>
   <v>      -0.05437998       0.12243084       0.30003108 </v>
   <v>       0.19588123       0.12279944       0.30009225 </v>
   <v>      -0.17868096      -0.12651160       0.30014114 </v>
   <v>       0.31986951      -0.12769967       0.29999676 </v>
   <v>       0.06991774       0.37428171       0.30006014 </v>
   <v>      -0.44147152      -0.46266644       0.25548920 </v>
   <v>      -0.05416312      -0.37676311       0.29974216 </v>
   <v>      -0.30405035       0.12317743       0.30019771 </v>
   <v>       0.19566399      -0.37763010       0.30018838 </v>
   <v>      -0.17958927       0.37311346       0.30001688 </v>
   <v>       0.32055643       0.37243644       0.30009963 </v>
   <v>       0.44534145       0.12244371       0.30032853 </v>
   <v>      -0.30401314      -0.37649336       0.30012517 </v>
   <v>      -0.42909359      -0.12694238       0.30009444 </v>
   <v>       0.44634687      -0.37682422       0.30012820 </v>
   <v>      -0.43016424       0.37176883       0.30005379 </v>
   <v>       0.18358864      -0.04760447       0.34491136 </v>
   <v>      -0.06593493      -0.04875325       0.34480678 </v>
   <v>       0.05887164       0.20270209       0.34483852 </v>
   <v>       0.05837745      -0.29758234       0.34480018 </v>
   <v>       0.30900881       0.20272725       0.34460104 </v>
   <v>      -0.19085590       0.20247958       0.34491975 </v>
   <v>       0.30914417      -0.29804617       0.34469705 </v>
   <v>       0.43381181      -0.04749217       0.34487843 </v>
   <v>      -0.19141558      -0.29750546       0.34489076 </v>
   <v>      -0.31701890      -0.04826706       0.34463309 </v>
   <v>       0.18370355       0.45233668       0.34479904 </v>
   <v>      -0.06642223       0.45254820       0.34475361 </v>
   <v>      -0.44116516       0.20248728       0.34467272 </v>
   <v>       0.43374435       0.45213860       0.34495357 </v>
   <v>       0.06561326       0.03902717      -0.12405380 </v>
   <v>      -0.31623510       0.45226087       0.34494529 </v>
   <v>      -0.44088443      -0.29761436       0.34481035 </v>
   <v>       0.18774257      -0.20236838      -0.12377742 </v>
   <v>      -0.06290918      -0.20451653      -0.12422931 </v>
   <v>       0.31447473       0.04194726      -0.12389093 </v>
   <v>      -0.18764188       0.04086121      -0.12415009 </v>
   <v>       0.18860419       0.29703701      -0.12364638 </v>
   <v>      -0.06520584       0.29796035      -0.12425790 </v>
   <v>       0.43654046      -0.20197265      -0.12372967 </v>
   <v>       0.06376784      -0.45902912      -0.12395624 </v>
   <v>       0.06697368       0.03854381       0.38895887 </v>
   <v>      -0.31540083      -0.20214758      -0.12400197 </v>
   <v>       0.43648539       0.29868849      -0.12349910 </v>
   <v>      -0.31521672       0.29928890      -0.12380040 </v>
   <v>      -0.05854910      -0.21235361       0.38876378 </v>
   <v>       0.31376817      -0.45891953      -0.12380161 </v>
   <v>       0.19276954      -0.21253618       0.38883060 </v>
   <v>      -0.18193510       0.03917585       0.38894623 </v>
   <v>      -0.18770394      -0.45949103      -0.12411187 </v>
   <v>       0.31618060       0.03726577       0.38879200 </v>
   <v>      -0.05893555       0.28643792       0.38886203 </v>
   <v>       0.19136118       0.28752837       0.38879319 </v>
   <v>      -0.43699053       0.04098613      -0.12392166 </v>
   <v>      -0.30791681      -0.21191808       0.38891430 </v>
   <v>       0.06763271      -0.46125993       0.38901195 </v>
   <v>      -0.30872257       0.28741760       0.38894151 </v>
   <v>       0.44149573      -0.21233254       0.38908246 </v>
   <v>       0.44158435       0.28789055       0.38909296 </v>
   <v>      -0.18348597      -0.46212243       0.38885756 </v>
   <v>       0.31598178      -0.46162097       0.38885846 </v>
   <v>      -0.43752079      -0.45900769      -0.12395251 </v>
   <v>      -0.43339891       0.03801109       0.38895676 </v>
   <v>      -0.05756422      -0.03497644      -0.16599587 </v>
   <v>       0.06714338       0.21549859      -0.16580924 </v>
   <v>       0.19168245      -0.03589737      -0.16630006 </v>
   <v>       0.06657035      -0.28280334      -0.16589059 </v>
   <v>      -0.18209395       0.21513494      -0.16621636 </v>
   <v>       0.31720380       0.21304125      -0.16654938 </v>
   <v>      -0.43356599      -0.46203842       0.38889340 </v>
   <v>      -0.18277470      -0.28475799      -0.16655262 </v>
   <v>      -0.30827936      -0.03769193      -0.16652654 </v>
   <v>       0.31781056      -0.28600206      -0.16675712 </v>
   <v>       0.44278954      -0.03656418      -0.16661481 </v>
   <v>      -0.05727718       0.46429449      -0.16602459 </v>
   <v>       0.19219587       0.46378882      -0.16642992 </v>
   <v>       0.18813394       0.12106528       0.43402184 </v>
   <v>       0.06253064      -0.12799224       0.43439096 </v>
   <v>      -0.43375929       0.21351462      -0.16670685 </v>
   <v>      -0.06314903       0.12002962       0.43448610 </v>
   <v>      -0.30777326       0.46187035      -0.16660081 </v>
   <v>       0.44257350       0.46287937      -0.16661747 </v>
   <v>      -0.43359144      -0.28625305      -0.16662866 </v>
   <v>      -0.18876844      -0.12863561       0.43410023 </v>
   <v>       0.31173073      -0.12846089       0.43425398 </v>
   <v>       0.06277475       0.37215928       0.43428068 </v>
   <v>       0.18687321      -0.37955776       0.43427205 </v>
   <v>      -0.06279812      -0.37945561       0.43446198 </v>
   <v>      -0.31255675       0.12056729       0.43413578 </v>
   <v>       0.43721473       0.12104892       0.43434819 </v>
   <v>      -0.18827196       0.37164399       0.43409614 </v>
   <v>       0.31262758       0.37188748       0.43428075 </v>
   <v>       0.43654140      -0.37869916       0.43432713 </v>
   <v>      -0.31225709      -0.37937566       0.43444510 </v>
   <v>      -0.43706814      -0.12909860       0.43433093 </v>
   <v>      -0.43793330       0.37194219       0.43426814 </v>
   <v>       0.05818836      -0.12469046      -0.21133440 </v>
   <v>       0.18266164       0.12412186      -0.21120944 </v>
   <v>      -0.06712557       0.12514192      -0.21120878 </v>
   <v>       0.30974144      -0.12650238      -0.21150773 </v>
   <v>      -0.19207723      -0.12492740      -0.21140666 </v>
   <v>       0.05822668       0.37571099      -0.21138019 </v>
   <v>       0.43295610       0.12357690      -0.21100017 </v>
   <v>       0.18380783      -0.37711863      -0.21135399 </v>
   <v>      -0.06762941      -0.37507355      -0.21144000 </v>
   <v>       0.30821172       0.37422843      -0.21120672 </v>
   <v>      -0.31793873       0.12361000      -0.21137586 </v>
   <v>      -0.19199589       0.37528389      -0.21135236 </v>
   <v>       0.43253116      -0.37665759      -0.21107859 </v>
   <v>      -0.44186074      -0.12560579      -0.21121626 </v>
   <v>      -0.31767748      -0.37664282      -0.21126239 </v>
   <v>      -0.06260846      -0.04470252       0.47852996 </v>
   <v>       0.18720893      -0.04408716       0.47863179 </v>
   <v>       0.06265394       0.20596346       0.47851125 </v>
   <v>      -0.44191212       0.37367468      -0.21116897 </v>
   <v>       0.06234339      -0.29437535       0.47834902 </v>
   <v>       0.31235881       0.20574867       0.47863099 </v>
   <v>      -0.18800817       0.20593749       0.47865154 </v>
   <v>      -0.18775587      -0.29424266       0.47850498 </v>
   <v>       0.31249438      -0.29447952       0.47854832 </v>
   <v>       0.43720397      -0.04419108       0.47856609 </v>
   <v>      -0.31238670      -0.04434604       0.47866048 </v>
   <v>      -0.06283725       0.45527480       0.47848881 </v>
   <v>       0.18725676       0.45584500       0.47865828 </v>
   <v>      -0.43769097       0.20563724       0.47852445 </v>
   <v>       0.43741291       0.45559589       0.47841124 </v>
   <v>      -0.31283734       0.45576916       0.47853951 </v>
   <v>      -0.43785943      -0.29484369       0.47843697 </v>
   <v>       0.06590911       0.04071113      -0.25568854 </v>
   <v>      -0.05967123      -0.20885106      -0.25543623 </v>
   <v>       0.18956289      -0.20842188      -0.25551346 </v>
   <v>      -0.18444962       0.04098944      -0.25561959 </v>
   <v>      -0.06054383       0.29102784      -0.25548218 </v>
   <v>       0.31503359       0.04164523      -0.25579301 </v>
   <v>       0.19052489       0.29115149      -0.25559951 </v>
   <v>       0.06526768      -0.45891508      -0.25557657 </v>
   <v>      -0.30987068      -0.20840311      -0.25556047 </v>
   <v>       0.43957346      -0.20809627      -0.25553398 </v>
   <v>      -0.30965329       0.29110196      -0.25564126 </v>
   <v>       0.43960773       0.29170748      -0.25559631 </v>
   <v>      -0.18406215      -0.45919141      -0.25557972 </v>
   <v>       0.31519871      -0.45872721      -0.25561707 </v>
   <v>      -0.43411354       0.04127843      -0.25565735 </v>
   <v>       0.06164580      -0.12888092      -0.47868555 </v>
   <v>       0.18665730       0.12144425      -0.47875901 </v>
   <v>      -0.06335183       0.12142923      -0.47863112 </v>
   <v>       0.31142062      -0.12861764      -0.47866824 </v>
   <v>      -0.18856579      -0.12874407      -0.47870138 </v>
   <v>       0.06146963       0.37207004      -0.47868283 </v>
   <v>      -0.43477351      -0.45840713      -0.25580332 </v>
   <v>       0.18670680      -0.37855140      -0.47865717 </v>
   <v>      -0.06332624      -0.37826263      -0.47861961 </v>
   <v>       0.43679033       0.12168525      -0.47873711 </v>
   <v>      -0.31353788       0.12122771      -0.47869849 </v>
   <v>      -0.18813732       0.37172542      -0.47867878 </v>
   <v>       0.31156181       0.37181588      -0.47861477 </v>
   <v>       0.43667672      -0.37838829      -0.47874674 </v>
   <v>      -0.31333741      -0.37902434      -0.47879516 </v>
   <v>      -0.43790976      -0.12845943      -0.47871400 </v>
   <v>      -0.43830560       0.37174045      -0.47864072 </v>
   <v>       0.18398940      -0.04312964      -0.30008167 </v>
   <v>      -0.06552170      -0.04257255      -0.30029762 </v>
   <v>       0.05965042       0.20700349      -0.30022957 </v>
   <v>       0.05990864      -0.29313877      -0.30026699 </v>
   <v>       0.30931220       0.20694797      -0.30010124 </v>
   <v>      -0.19013947       0.20695241      -0.30010486 </v>
   <v>       0.30944771      -0.29374183      -0.30013784 </v>
   <v>       0.43429287      -0.04298435      -0.30014249 </v>
   <v>      -0.19059939      -0.29293731      -0.30013002 </v>
   <v>      -0.31615995      -0.04318382      -0.30009041 </v>
   <v>       0.18424848       0.45722105      -0.30021165 </v>
   <v>      -0.06570561       0.45731656      -0.30021326 </v>
   <v>      -0.44058890       0.20678784      -0.30009813 </v>
   <v>       0.43435113       0.45703543      -0.30017568 </v>
   <v>      -0.31620109       0.45692694      -0.30016345 </v>
   <v>      -0.44025858      -0.29313954      -0.30021618 </v>
   <v>       0.06202140       0.20683716      -0.43477025 </v>
   <v>      -0.06316171      -0.04280658      -0.43453258 </v>
   <v>       0.18666479      -0.04317846      -0.43446721 </v>
   <v>       0.06233809      -0.29352957      -0.43446743 </v>
   <v>      -0.18873167       0.20641119      -0.43458541 </v>
   <v>       0.31138963       0.20653222      -0.43438600 </v>
   <v>       0.43697753      -0.04320627      -0.43500583 </v>
   <v>      -0.18863478      -0.29371470      -0.43457301 </v>
   <v>       0.31142241      -0.29329647      -0.43447422 </v>
   <v>      -0.31254367      -0.04321454      -0.43443545 </v>
   <v>       0.18714744       0.45704111      -0.43454435 </v>
   <v>      -0.06331688       0.45653392      -0.43446656 </v>
   <v>      -0.43776815       0.20657426      -0.43438396 </v>
   <v>       0.43670352       0.45632309      -0.43451913 </v>
   <v>      -0.31347387       0.45656858      -0.43461600 </v>
   <v>      -0.43796865      -0.29346960      -0.43437336 </v>
   <v>      -0.05851266       0.12509834      -0.34483753 </v>
   <v>       0.06622099      -0.12518396      -0.34505224 </v>
   <v>       0.19136826       0.12515673      -0.34483263 </v>
   <v>      -0.18365042      -0.12525631      -0.34488060 </v>
   <v>       0.31634248      -0.12518069      -0.34487578 </v>
   <v>       0.06606970       0.37464115      -0.34496087 </v>
   <v>       0.19109859      -0.37478164      -0.34486366 </v>
   <v>      -0.05887212      -0.37481647      -0.34505016 </v>
   <v>      -0.30881149       0.12508321      -0.34496920 </v>
   <v>      -0.18365960       0.37472990      -0.34483225 </v>
   <v>       0.44144056       0.12473121      -0.34510142 </v>
   <v>       0.31639613       0.37471751      -0.34504618 </v>
   <v>      -0.30875973      -0.37506975      -0.34478932 </v>
   <v>      -0.43392658      -0.12497917      -0.34495035 </v>
   <v>       0.44097381      -0.37490146      -0.34496291 </v>
   <v>      -0.43374787       0.37484175      -0.34488269 </v>
   <v>       0.05883040       0.03786698      -0.38915609 </v>
   <v>       0.18387113      -0.21186578      -0.38911516 </v>
   <v>      -0.06609760      -0.21226577      -0.38900241 </v>
   <v>       0.30907567       0.03850270      -0.38889876 </v>
   <v>      -0.19105874       0.03841407      -0.38903682 </v>
   <v>       0.18407705       0.28855056      -0.38901602 </v>
   <v>      -0.06629210       0.28836542      -0.38905487 </v>
   <v>       0.43397244      -0.21144301      -0.38911174 </v>
   <v>       0.05860473      -0.46222803      -0.38902280 </v>
   <v>       0.43388825       0.28810171      -0.38914727 </v>
   <v>      -0.31602406      -0.21186541      -0.38905535 </v>
   <v>      -0.31588855       0.28855934      -0.38906541 </v>
   <v>       0.30900221      -0.46163265      -0.38904992 </v>
   <v>      -0.19114081      -0.46162442      -0.38895562 </v>
   <v>      -0.44062501       0.03870384      -0.38888700 </v>
   <v>      -0.44107642      -0.46169096      -0.38896942 </v>
  </varray>
 </structure>
 <varray name="primitive_index" >
  <v type="int" >        1 </v>
  <v type="int" >      125 </v>
  <v type="int" >       60 </v>
  <v type="int" >       83 </v>
  <v type="int" >       44 </v>
  <v type="int" >       26 </v>
  <v type="int" >      256 </v>
  <v type="int" >      202 </v>
  <v type="int" >      111 </v>
  <v type="int" >      155 </v>
  <v type="int" >      277 </v>
  <v type="int" >       51 </v>
  <v type="int" >      102 </v>
  <v type="int" >      182 </v>
  <v type="int" >      212 </v>
  <v type="int" >      108 </v>
  <v type="int" >       20 </v>
  <v type="int" >      170 </v>
  <v type="int" >       50 </v>
  <v type="int" >      146 </v>
  <v type="int" >      104 </v>
  <v type="int" >      163 </v>
  <v type="int" >      284 </v>
  <v type="int" >      176 </v>
  <v type="int" >      117 </v>
  <v type="int" >      166 </v>
  <v type="int" >      145 </v>
  <v type="int" >      250 </v>
  <v type="int" >      167 </v>
  <v type="int" >      249 </v>
  <v type="int" >       91 </v>
  <v type="int" >      114 </v>
  <v type="int" >      205 </v>
  <v type="int" >      174 </v>
  <v type="int" >      213 </v>
  <v type="int" >      192 </v>
  <v type="int" >       92 </v>
  <v type="int" >      276 </v>
  <v type="int" >      229 </v>
  <v type="int" >      189 </v>
  <v type="int" >      175 </v>
  <v type="int" >       97 </v>
  <v type="int" >       30 </v>
  <v type="int" >      185 </v>
  <v type="int" >      200 </v>
  <v type="int" >      103 </v>
  <v type="int" >      179 </v>
  <v type="int" >       52 </v>
  <v type="int" >      112 </v>
  <v type="int" >       24 </v>
  <v type="int" >      105 </v>
  <v type="int" >      127 </v>
  <v type="int" >      261 </v>
  <v type="int" >      139 </v>
  <v type="int" >      288 </v>
  <v type="int" >      137 </v>
  <v type="int" >      168 </v>
  <v type="int" >      265 </v>
  <v type="int" >      118 </v>
  <v type="int" >       58 </v>
  <v type="int" >      275 </v>
  <v type="int" >      221 </v>
  <v type="int" >       81 </v>
  <v type="int" >      214 </v>
  <v type="int" >      135 </v>
  <v type="int" >      215 </v>
  <v type="int" >       72 </v>
  <v type="int" >       98 </v>
  <v type="int" >      226 </v>
  <v type="int" >       28 </v>
  <v type="int" >      178 </v>
  <v type="int" >      109 </v>
  <v type="int" >      263 </v>
  <v type="int" >      220 </v>
  <v type="int" >      242 </v>
  <v type="int" >      159 </v>
  <v type="int" >      130 </v>
  <v type="int" >      210 </v>
  <v type="int" >      101 </v>
  <v type="int" >      171 </v>
  <v type="int" >      258 </v>
  <v type="int" >      194 </v>
  <v type="int" >       47 </v>
  <v type="int" >      216 </v>
  <v type="int" >       86 </v>
  <v type="int" >      207 </v>
  <v type="int" >      208 </v>
  <v type="int" >      172 </v>
  <v type="int" >       73 </v>
  <v type="int" >       25 </v>
  <v type="int" >      116 </v>
  <v type="int" >       12 </v>
  <v type="int" >      219 </v>
  <v type="int" >      206 </v>
  <v type="int" >      282 </v>
  <v type="int" >       48 </v>
  <v type="int" >      164 </v>
  <v type="int" >      268 </v>
  <v type="int" >      281 </v>
  <v type="int" >      245 </v>
  <v type="int" >       14 </v>
  <v type="int" >      120 </v>
  <v type="int" >      280 </v>
  <v type="int" >      150 </v>
  <v type="int" >      266 </v>
  <v type="int" >      124 </v>
  <v type="int" >       29 </v>
  <v type="int" >      255 </v>
  <v type="int" >      191 </v>
  <v type="int" >      190 </v>
  <v type="int" >       18 </v>
  <v type="int" >      287 </v>
  <v type="int" >      279 </v>
  <v type="int" >      231 </v>
  <v type="int" >      165 </v>
  <v type="int" >       13 </v>
  <v type="int" >      248 </v>
  <v type="int" >      161 </v>
  <v type="int" >       45 </v>
  <v type="int" >      273 </v>
  <v type="int" >       84 </v>
  <v type="int" >      264 </v>
  <v type="int" >        4 </v>
  <v type="int" >      123 </v>
  <v type="int" >       67 </v>
  <v type="int" >       64 </v>
  <v type="int" >       16 </v>
  <v type="int" >       17 </v>
  <v type="int" >      259 </v>
  <v type="int" >        7 </v>
  <v type="int" >      134 </v>
  <v type="int" >        6 </v>
  <v type="int" >       39 </v>
  <v type="int" >      222 </v>
  <v type="int" >      253 </v>
  <v type="int" >       88 </v>
  <v type="int" >        5 </v>
  <v type="int" >      110 </v>
  <v type="int" >       36 </v>
  <v type="int" >      181 </v>
  <v type="int" >      160 </v>
  <v type="int" >      285 </v>
  <v type="int" >      143 </v>
  <v type="int" >      158 </v>
  <v type="int" >       82 </v>
  <v type="int" >       74 </v>
  <v type="int" >      241 </v>
  <v type="int" >      235 </v>
  <v type="int" >       23 </v>
  <v type="int" >      218 </v>
  <v type="int" >      238 </v>
  <v type="int" >      131 </v>
  <v type="int" >      257 </v>
  <v type="int" >      201 </v>
  <v type="int" >       80 </v>
  <v type="int" >      113 </v>
  <v type="int" >      278 </v>
  <v type="int" >      232 </v>
  <v type="int" >       69 </v>
  <v type="int" >      251 </v>
  <v type="int" >      197 </v>
  <v type="int" >        3 </v>
  <v type="int" >      149 </v>
  <v type="int" >      224 </v>
  <v type="int" >       55 </v>
  <v type="int" >      254 </v>
  <v type="int" >       49 </v>
  <v type="int" >      272 </v>
  <v type="int" >      132 </v>
  <v type="int" >      138 </v>
  <v type="int" >      188 </v>
  <v type="int" >       57 </v>
  <v type="int" >      184 </v>
  <v type="int" >       33 </v>
  <v type="int" >       66 </v>
  <v type="int" >      236 </v>
  <v type="int" >       94 </v>
  <v type="int" >      223 </v>
  <v type="int" >      106 </v>
  <v type="int" >      157 </v>
  <v type="int" >      230 </v>
  <v type="int" >       21 </v>
  <v type="int" >      234 </v>
  <v type="int" >       99 </v>
  <v type="int" >      283 </v>
  <v type="int" >       75 </v>
  <v type="int" >      269 </v>
  <v type="int" >      244 </v>
  <v type="int" >      237 </v>
  <v type="int" >      156 </v>
  <v type="int" >      199 </v>
  <v type="int" >      169 </v>
  <v type="int" >        9 </v>
  <v type="int" >       46 </v>
  <v type="int" >      262 </v>
  <v type="int" >      151 </v>
  <v type="int" >      187 </v>
  <v type="int" >      239 </v>
  <v type="int" >       11 </v>
  <v type="int" >      211 </v>
  <v type="int" >       43 </v>
  <v type="int" >       31 </v>
  <v type="int" >       19 </v>
  <v type="int" >       71 </v>
  <v type="int" >       87 </v>
  <v type="int" >      243 </v>
  <v type="int" >      267 </v>
  <v type="int" >       27 </v>
  <v type="int" >      140 </v>
  <v type="int" >      286 </v>
  <v type="int" >      144 </v>
  <v type="int" >       10 </v>
  <v type="int" >      107 </v>
  <v type="int" >      270 </v>
  <v type="int" >       68 </v>
  <v type="int" >      203 </v>
  <v type="int" >      119 </v>
  <v type="int" >       34 </v>
  <v type="int" >      177 </v>
  <v type="int" >      183 </v>
  <v type="int" >      252 </v>
  <v type="int" >      195 </v>
  <v type="int" >       77 </v>
  <v type="int" >      247 </v>
  <v type="int" >      173 </v>
  <v type="int" >      225 </v>
  <v type="int" >       37 </v>
  <v type="int" >      274 </v>
  <v type="int" >       63 </v>
  <v type="int" >      233 </v>
  <v type="int" >      154 </v>
  <v type="int" >       38 </v>
  <v type="int" >      141 </v>
  <v type="int" >       54 </v>
  <v type="int" >      246 </v>
  <v type="int" >      152 </v>
  <v type="int" >       53 </v>
  <v type="int" >      193 </v>
  <v type="int" >       76 </v>
  <v type="int" >      133 </v>
  <v type="int" >       62 </v>
  <v type="int" >      129 </v>
  <v type="int" >      162 </v>
  <v type="int" >       65 </v>
  <v type="int" >      271 </v>
  <v type="int" >       93 </v>
  <v type="int" >       56 </v>
  <v type="int" >       32 </v>
  <v type="int" >       90 </v>
  <v type="int" >       95 </v>
  <v type="int" >       59 </v>
  <v type="int" >       42 </v>
  <v type="int" >        8 </v>
  <v type="int" >       70 </v>
  <v type="int" >      228 </v>
  <v type="int" >      186 </v>
  <v type="int" >      122 </v>
  <v type="int" >      196 </v>
  <v type="int" >      121 </v>
  <v type="int" >       79 </v>
  <v type="int" >        2 </v>
  <v type="int" >      198 </v>
  <v type="int" >      153 </v>
  <v type="int" >      240 </v>
  <v type="int" >      209 </v>
  <v type="int" >       35 </v>
  <v type="int" >      204 </v>
  <v type="int" >       85 </v>
  <v type="int" >      227 </v>
  <v type="int" >       89 </v>
  <v type="int" >       40 </v>
  <v type="int" >       78 </v>
  <v type="int" >      142 </v>
  <v type="int" >       15 </v>
  <v type="int" >      136 </v>
  <v type="int" >      148 </v>
  <v type="int" >      217 </v>
  <v type="int" >       61 </v>
  <v type="int" >      100 </v>
  <v type="int" >       96 </v>
  <v type="int" >      126 </v>
  <v type="int" >      115 </v>
  <v type="int" >      180 </v>
  <v type="int" >      147 </v>
  <v type="int" >       41 </v>
  <v type="int" >       22 </v>
  <v type="int" >      260 </v>
  <v type="int" >      128 </v>
 </varray>
 <kpoints>
  <generation param="Gamma">
   <v type="int" name="divisions">       4        4        1 </v>
   <v name="usershift">      0.00000000       0.00000000       0.00000000 </v>
   <v name="genvec1">      0.25000000       0.00000000       0.00000000 </v>
   <v name="genvec2">      0.00000000       0.25000000       0.00000000 </v>
   <v name="genvec3">      0.00000000       0.00000000       1.00000000 </v>
   <v name="shift">      0.00000000       0.00000000       0.00000000 </v>
  </generation>
  <varray name="kpointlist" >
   <v>       0.00000000       0.00000000       0.00000000 </v>
   <v>       0.25000000       0.00000000       0.00000000 </v>
   <v>       0.50000000       0.00000000       0.00000000 </v>
   <v>       0.00000000       0.25000000       0.00000000 </v>
   <v>       0.25000000       0.25000000       0.00000000 </v>
   <v>       0.50000000       0.25000000       0.00000000 </v>
   <v>      -0.25000000       0.25000000       0.00000000 </v>
   <v>       0.00000000       0.50000000       0.00000000 </v>
   <v>       0.25000000       0.50000000       0.00000000 </v>
   <v>       0.50000000       0.50000000       0.00000000 </v>
  </varray>
  <varray name="weights" >
   <v>       0.06250000 </v>
   <v>       0.12500000 </v>
   <v>       0.06250000 </v>
   <v>       0.12500000 </v>
   <v>       0.12500000 </v>
   <v>       0.12500000 </v>
   <v>       0.12500000 </v>
   <v>       0.06250000 </v>
   <v>       0.12500000 </v>
   <v>       0.06250000 </v>
  </varray>
 </kpoints>
 <parameters>
  <separator name="general" >
   <i type="string" name="SYSTEM">unknown system</i>
   <i type="logical" name="LCOMPAT"> F  </i>
  </separator>
  <separator name="electronic" >
   <i type="string" name="PREC">accura</i>
   <i name="ENMAX">    450.00000000</i>
   <i name="ENAUG">    838.43500000</i>
   <i name="EDIFF">      0.00000100</i>
   <i type="int" name="IALGO">    68</i>
   <i type="int" name="IWAVPR">    11</i>
   <i type="int" name="NBANDS">  1386</i>
   <i name="NELECT">   2290.00000000</i>
   <i type="int" name="TURBO">     0</i>
   <i type="int" name="IRESTART">     0</i>
   <i type="int" name="NREBOOT">     0</i>
   <i type="int" name="NMIN">     0</i>
   <i name="EREF">      0.00000000</i>
   <separator name="electronic smearing" >
    <i type="int" name="ISMEAR">     0</i>
    <i name="SIGMA">      0.15000000</i>
    <i name="KSPACING">      0.50000000</i>
    <i type="logical" name="KGAMMA"> T  </i>
   </separator>
   <separator name="electronic projectors" >
    <i type="logical" name="LREAL"> T  </i>
    <v name="ROPT">     -0.00025000     -0.00025000</v>
    <i type="int" name="LMAXPAW">  -100</i>
    <i type="int" name="LMAXMIX">     2</i>
    <i type="logical" name="NLSPLINE"> F  </i>
   </separator>
   <separator name="electronic startup" >
    <i type="int" name="ISTART">     0</i>
    <i type="int" name="ICHARG">     2</i>
    <i type="int" name="INIWAV">     1</i>
   </separator>
   <separator name="electronic spin" >
    <i type="int" name="ISPIN">     1</i>
    <i type="logical" name="LNONCOLLINEAR"> F  </i>
    <v name="MAGMOM">      1.00000000      1.00000000      1.00000000      1.00000000      1.00000000      1.00000000      1.00000000      1.00000000      1.00000000      1.00000000      1.00000000      1.00000000      1.00000000      1.00000000      1.00000000      1.00000000      1.00000000      1.00000000      1.00000000      1.00000000
      1.00000000      1.00000000      1.00000000      1.00000000      1.00000000      1.00000000      1.00000000      1.00000000      1.00000000      1.00000000      1.00000000      1.00000000      1.00000000      1.00000000      1.00000000      1.00000000      1.00000000      1.00000000      1.00000000      1.00000000
      1.00000000      1.00000000      1.00000000      1.00000000      1.00000000      1.00000000      1.00000000      1.00000000      1.00000000      1.00000000      1.00000000      1.00000000      1.00000000      1.00000000      1.00000000      1.00000000      1.00000000      1.00000000      1.00000000      1.00000000
      1.00000000      1.00000000      1.00000000      1.00000000      1.00000000      1.00000000      1.00000000      1.00000000      1.00000000      1.00000000      1.00000000      1.00000000      1.00000000      1.00000000      1.00000000      1.00000000      1.00000000      1.00000000      1.00000000      1.00000000
      1.00000000      1.00000000      1.00000000      1.00000000      1.00000000      1.00000000      1.00000000      1.00000000      1.00000000      1.00000000      1.00000000      1.00000000      1.00000000      1.00000000      1.00000000      1.00000000      1.00000000      1.00000000      1.00000000      1.00000000
      1.00000000      1.00000000      1.00000000      1.00000000      1.00000000      1.00000000      1.00000000      1.00000000      1.00000000      1.00000000      1.00000000      1.00000000      1.00000000      1.00000000      1.00000000      1.00000000      1.00000000      1.00000000      1.00000000      1.00000000
      1.00000000      1.00000000      1.00000000      1.00000000      1.00000000      1.00000000      1.00000000      1.00000000      1.00000000      1.00000000      1.00000000      1.00000000      1.00000000      1.00000000      1.00000000      1.00000000      1.00000000      1.00000000      1.00000000      1.00000000
      1.00000000      1.00000000      1.00000000      1.00000000      1.00000000      1.00000000      1.00000000      1.00000000      1.00000000      1.00000000      1.00000000      1.00000000      1.00000000      1.00000000      1.00000000      1.00000000      1.00000000      1.00000000      1.00000000      1.00000000
      1.00000000      1.00000000      1.00000000      1.00000000      1.00000000      1.00000000      1.00000000      1.00000000      1.00000000      1.00000000      1.00000000      1.00000000      1.00000000      1.00000000      1.00000000      1.00000000      1.00000000      1.00000000      1.00000000      1.00000000
      1.00000000      1.00000000      1.00000000      1.00000000      1.00000000      1.00000000      1.00000000      1.00000000      1.00000000      1.00000000      1.00000000      1.00000000      1.00000000      1.00000000      1.00000000      1.00000000      1.00000000      1.00000000      1.00000000      1.00000000
      1.00000000      1.00000000      1.00000000      1.00000000      1.00000000      1.00000000      1.00000000      1.00000000      1.00000000      1.00000000      1.00000000      1.00000000      1.00000000      1.00000000      1.00000000      1.00000000      1.00000000      1.00000000      1.00000000      1.00000000
      1.00000000      1.00000000      1.00000000      1.00000000      1.00000000      1.00000000      1.00000000      1.00000000      1.00000000      1.00000000      1.00000000      1.00000000      1.00000000      1.00000000      1.00000000      1.00000000      1.00000000      1.00000000      1.00000000      1.00000000
      1.00000000      1.00000000      1.00000000      1.00000000      1.00000000      1.00000000      1.00000000      1.00000000      1.00000000      1.00000000      1.00000000      1.00000000      1.00000000      1.00000000      1.00000000      1.00000000      1.00000000      1.00000000      1.00000000      1.00000000
      1.00000000      1.00000000      1.00000000      1.00000000      1.00000000      1.00000000      1.00000000      1.00000000      1.00000000      1.00000000      1.00000000      1.00000000      1.00000000      1.00000000      1.00000000      1.00000000      1.00000000      1.00000000      1.00000000      1.00000000
      1.00000000      1.00000000      1.00000000      1.00000000      1.00000000      1.00000000      1.00000000      1.00000000</v>
    <i name="NUPDOWN">     -1.00000000</i>
    <i type="logical" name="LSORBIT"> F  </i>
    <v name="SAXIS">      0.00000000      0.00000000      1.00000000</v>
    <i type="logical" name="LSPIRAL"> F  </i>
    <v name="QSPIRAL">      0.00000000      0.00000000      0.00000000</v>
    <i type="logical" name="LZEROZ"> F  </i>
   </separator>
   <separator name="electronic exchange-correlation" >
    <i type="logical" name="LASPH"> F  </i>
    <i type="logical" name="LMETAGGA"> F  </i>
   </separator>
   <separator name="electronic convergence" >
    <i type="int" name="NELM">   100</i>
    <i type="int" name="NELMDL">     0</i>
    <i type="int" name="NELMIN">     4</i>
    <i name="ENINI">    450.00000000</i>
    <separator name="electronic convergence detail" >
     <i type="logical" name="LDIAG"> T  </i>
     <i type="logical" name="LSUBROT"> F  </i>
     <i name="WEIMIN">      0.00100000</i>
     <i name="EBREAK">      0.00000000</i>
     <i name="DEPER">      0.30000000</i>
     <i type="int" name="NRMM">     4</i>
     <i name="TIME">      0.40000000</i>
    </separator>
   </separator>
   <separator name="electronic mixer" >
    <i name="AMIX">      0.40000000</i>
    <i name="BMIX">      1.00000000</i>
    <i name="AMIN">      0.10000000</i>
    <i name="AMIX_MAG">      1.60000000</i>
    <i name="BMIX_MAG">      1.00000000</i>
    <separator name="electronic mixer details" >
     <i type="int" name="IMIX">     4</i>
     <i type="logical" name="MIXFIRST"> F  </i>
     <i type="int" name="MAXMIX">   -45</i>
     <i name="WC">    100.00000000</i>
     <i type="int" name="INIMIX">     1</i>
     <i type="int" name="MIXPRE">     1</i>
     <i type="int" name="MREMOVE">     5</i>
    </separator>
   </separator>
   <separator name="electronic dipolcorrection" >
    <i type="logical" name="LDIPOL"> F  </i>
    <i type="logical" name="LMONO"> F  </i>
    <i type="int" name="IDIPOL">     0</i>
    <i name="EPSILON">      1.00000000</i>
    <v name="DIPOL">   -100.00000000   -100.00000000   -100.00000000</v>
    <i name="EFIELD">      0.00000000</i>
   </separator>
  </separator>
  <separator name="grids" >
   <i type="int" name="NGX">    70</i>
   <i type="int" name="NGY">    60</i>
   <i type="int" name="NGZ">   320</i>
   <i type="int" name="NGXF">   140</i>
   <i type="int" name="NGYF">   120</i>
   <i type="int" name="NGZF">   640</i>
   <i type="logical" name="ADDGRID"> F  </i>
  </separator>
  <separator name="ionic" >
   <i type="int" name="NSW">     5</i>
   <i type="int" name="IBRION">     2</i>
   <i type="int" name="MDALGO">     0</i>
   <i type="int" name="ISIF">     2</i>
   <i name="PSTRESS">      0.00000000</i>
   <i name="EDIFFG">      0.00001000</i>
   <i type="int" name="NFREE">     1</i>
   <i name="POTIM">      0.25000000</i>
   <i name="SMASS">     -3.00000000</i>
   <i name="SCALEE">      1.00000000</i>
  </separator>
  <separator name="ionic md" >
   <i name="TEBEG">      0.00010000</i>
   <i name="TEEND">      0.00010000</i>
   <i type="int" name="NBLOCK">     1</i>
   <i type="int" name="KBLOCK">     5</i>
   <i type="int" name="NPACO">   256</i>
   <i name="APACO">     16.00000000</i>
  </separator>
  <separator name="symmetry" >
   <i type="int" name="ISYM">     2</i>
   <i name="SYMPREC">      0.00001000</i>
  </separator>
  <separator name="dos" >
   <i type="int" name="LORBIT">     0</i>
   <v name="RWIGS">     -1.00000000     -1.00000000</v>
   <i type="int" name="NEDOS">   301</i>
   <i name="EMIN">     10.00000000</i>
   <i name="EMAX">    -10.00000000</i>
   <i name="EFERMI">      0.00000000</i>
  </separator>
  <separator name="writing" >
   <i type="int" name="NWRITE">     2</i>
   <i type="logical" name="LWAVE"> F  </i>
   <i type="logical" name="LDOWNSAMPLE"> F  </i>
   <i type="logical" name="LCHARG"> F  </i>
   <i type="logical" name="LPARD"> F  </i>
   <i type="logical" name="LVTOT"> F  </i>
   <i type="logical" name="LVHAR"> F  </i>
   <i type="logical" name="LELF"> F  </i>
   <i type="logical" name="LOPTICS"> F  </i>
   <v name="STM">      0.00000000      0.00000000      0.00000000      0.00000000      0.00000000      0.00000000      0.00000000</v>
  </separator>
  <separator name="performance" >
   <i type="int" name="NPAR">    14</i>
   <i type="int" name="NSIM">     4</i>
   <i type="int" name="NBLK">    -1</i>
   <i type="logical" name="LPLANE"> T  </i>
   <i type="logical" name="LSCALAPACK"> T  </i>
   <i type="logical" name="LSCAAWARE"> T  </i>
   <i type="logical" name="LSCALU"> F  </i>
   <i type="logical" name="LASYNC"> F  </i>
   <i type="logical" name="LORBITALREAL"> F  </i>
  </separator>
  <separator name="miscellaneous" >
   <i type="int" name="IDIOT">     3</i>
   <i type="int" name="ISPECIAL">     0</i>
   <i type="logical" name="LMUSIC"> F  </i>
   <v name="POMASS">     55.84700000     54.93800000</v>
   <v name="DARWINR">      0.00000000      0.00000000</v>
   <v name="DARWINV">      1.00000000      1.00000000</v>
   <i type="logical" name="LCORR"> T  </i>
  </separator>
  <i type="logical" name="GGA_COMPAT"> T  </i>
  <i type="logical" name="LBERRY"> F  </i>
  <i type="int" name="ICORELEVEL">     0</i>
  <i type="logical" name="LDAU"> F  </i>
  <i type="int" name="I_CONSTRAINED_M">     0</i>
  <separator name="electronic exchange-correlation" >
   <i type="string" name="GGA">--</i>
   <i type="int" name="VOSKOWN">     0</i>
   <i type="logical" name="LHFCALC"> F  </i>
   <i type="string" name="PRECFOCK"></i>
   <i type="logical" name="LSYMGRAD"> F  </i>
   <i type="logical" name="LHFONE"> F  </i>
   <i type="logical" name="LRHFCALC"> F  </i>
   <i type="logical" name="LTHOMAS"> F  </i>
   <i type="logical" name="LMODELHF"> F  </i>
   <i name="ENCUT4O">     -1.00000000</i>
   <i type="int" name="EXXOEP">     0</i>
   <i type="int" name="FOURORBIT">     0</i>
   <i name="AEXX">      0.00000000</i>
   <i name="HFALPHA">      0.00000000</i>
   <i name="MCALPHA">      0.00000000</i>
   <i name="ALDAX">      1.00000000</i>
   <i name="AGGAX">      1.00000000</i>
   <i name="ALDAC">      1.00000000</i>
   <i name="AGGAC">      1.00000000</i>
   <i type="int" name="NKREDX">     1</i>
   <i type="int" name="NKREDY">     1</i>
   <i type="int" name="NKREDZ">     1</i>
   <i type="logical" name="SHIFTRED"> F  </i>
   <i type="logical" name="ODDONLY"> F  </i>
   <i type="logical" name="EVENONLY"> F  </i>
   <i type="int" name="LMAXFOCK">     0</i>
   <i type="int" name="NMAXFOCKAE">     0</i>
   <i type="logical" name="LFOCKAEDFT"> F  </i>
   <i name="HFSCREEN">      0.00000000</i>
   <i name="HFSCREENC">      0.00000000</i>
   <i type="int" name="NBANDSGWLOW">     0</i>
  </separator>
  <separator name="vdW DFT" >
   <i type="logical" name="LUSE_VDW"> F  </i>
   <i name="Zab_VDW">     -0.84910000</i>
   <i name="PARAM1">      0.12340000</i>
   <i name="PARAM2">      1.00000000</i>
   <i name="PARAM3">      0.00000000</i>
  </separator>
  <separator name="model GW" >
   <i type="int" name="MODEL_GW">     0</i>
   <i name="MODEL_EPS0">      7.68123389</i>
   <i name="MODEL_ALPHA">      1.00000000</i>
  </separator>
  <separator name="linear response parameters" >
   <i type="logical" name="LEPSILON"> F  </i>
   <i type="logical" name="LRPA"> F  </i>
   <i type="logical" name="LNABLA"> F  </i>
   <i type="logical" name="LVEL"> F  </i>
   <i type="int" name="KINTER">     0</i>
   <i name="CSHIFT">      0.10000000</i>
   <i name="OMEGAMAX">     -1.00000000</i>
   <i name="DEG_THRESHOLD">      0.00200000</i>
   <i name="RTIME">     -0.10000000</i>
   <i name="WPLASMAI">      0.00000000</i>
   <v name="DFIELD">      0.00000000      0.00000000      0.00000000</v>
   <v name="WPLASMA">      0.00000000      0.00000000      0.00000000      0.00000000      0.00000000      0.00000000      0.00000000      0.00000000      0.00000000</v>
  </separator>
  <separator name="orbital magnetization" >
   <i type="logical" name="NUCIND"> F  </i>
   <v name="MAGPOS">      0.00000000      0.00000000      0.00000000</v>
   <i type="logical" name="LNICSALL"> T  </i>
   <i type="logical" name="ORBITALMAG"> F  </i>
   <i type="logical" name="LMAGBLOCH"> F  </i>
   <i type="logical" name="LCHIMAG"> F  </i>
   <i type="logical" name="LGAUGE"> T  </i>
   <i type="int" name="MAGATOM">     0</i>
   <v name="MAGDIPOL">      0.00000000      0.00000000      0.00000000</v>
   <v name="AVECCONST">      0.00000000      0.00000000      0.00000000</v>
  </separator>
  <separator name="response functions" >
   <i type="logical" name="LADDER"> F  </i>
   <i type="logical" name="LRPAFORCE"> F  </i>
   <i type="logical" name="LFXC"> F  </i>
   <i type="logical" name="LHARTREE"> T  </i>
   <i type="int" name="IBSE">     0</i>
   <v type="int" name="KPOINT">    -1     0     0     0</v>
   <i type="logical" name="LTCTE"> F  </i>
   <i type="logical" name="LTETE"> F  </i>
   <i type="logical" name="LTRIPLET"> F  </i>
   <i type="logical" name="LFXCEPS"> F  </i>
   <i type="logical" name="LFXHEG"> F  </i>
   <i type="int" name="NATURALO">     2</i>
   <i type="logical" name="L2ORDER"> F  </i>
   <i type="logical" name="LMP2LT"> F  </i>
   <i type="logical" name="LUSEW"> F  </i>
   <i name="ENCUTGW">     -2.00000000</i>
   <i name="ENCUTGWSOFT">     -2.00000000</i>
   <i name="ENCUTLF">     -1.00000000</i>
   <i type="int" name="LMAXMP2">    -1</i>
   <i name="SCISSOR">      0.00000000</i>
   <i type="int" name="NOMEGA">     0</i>
   <i type="int" name="NOMEGAR">     0</i>
   <i type="int" name="NBANDSGW">    -1</i>
   <i type="int" name="NBANDSO">    -1</i>
   <i type="int" name="NBANDSV">    -1</i>
   <i type="int" name="NELM">   100</i>
   <i type="int" name="NELMHF">     1</i>
   <i type="int" name="DIM">     3</i>
   <i type="int" name="ANTIRES">     0</i>
   <i name="OMEGAMAX">    -30.00000000</i>
   <i name="OMEGAMIN">    -30.00000000</i>
   <i name="OMEGATL">   -200.00000000</i>
   <i type="int" name="OMEGAGRID">   140</i>
   <i name="CSHIFT">     -0.10000000</i>
   <i type="logical" name="SELFENERGY"> F  </i>
   <i type="logical" name="LSPECTRAL"> F  </i>
   <i type="logical" name="LSPECTRALGW"> F  </i>
   <i type="logical" name="LSINGLES"> F  </i>
   <i type="logical" name="LFERMIGW"> F  </i>
   <i type="logical" name="ODDONLYGW"> F  </i>
   <i type="logical" name="EVENONLYGW"> F  </i>
   <i type="int" name="NKREDLFX">     1</i>
   <i type="int" name="NKREDLFY">     1</i>
   <i type="int" name="NKREDLFZ">     1</i>
   <i type="int" name="MAXMEM">  2800</i>
   <i type="int" name="TELESCOPE">     0</i>
   <i type="int" name="TAUPAR">     1</i>
   <i type="int" name="OMEGAPAR">    -1</i>
   <i name="LAMBDA">      1.00000000</i>
  </separator>
  <separator name="External order field" >
   <i name="OFIELD_KAPPA">      0.00000000</i>
   <v name="OFIELD_K">      0.00000000      0.00000000      0.00000000</v>
   <i name="OFIELD_Q6_NEAR">      0.00000000</i>
   <i name="OFIELD_Q6_FAR">      0.00000000</i>
   <i name="OFIELD_A">      0.00000000</i>
  </separator>
 </parameters>
 <atominfo>
  <atoms>     288 </atoms>
  <types>       2 </types>
  <array name="atoms" >
   <dimension dim="1">ion</dimension>
   <field type="string">element</field>
   <field type="int">atomtype</field>
   <set>
    <rc><c>Fe</c><c>   1</c></rc>
    <rc><c>Fe</c><c>   1</c></rc>
    <rc><c>Fe</c><c>   1</c></rc>
    <rc><c>Fe</c><c>   1</c></rc>
    <rc><c>Fe</c><c>   1</c></rc>
    <rc><c>Fe</c><c>   1</c></rc>
    <rc><c>Fe</c><c>   1</c></rc>
    <rc><c>Fe</c><c>   1</c></rc>
    <rc><c>Fe</c><c>   1</c></rc>
    <rc><c>Fe</c><c>   1</c></rc>
    <rc><c>Fe</c><c>   1</c></rc>
    <rc><c>Fe</c><c>   1</c></rc>
    <rc><c>Fe</c><c>   1</c></rc>
    <rc><c>Fe</c><c>   1</c></rc>
    <rc><c>Fe</c><c>   1</c></rc>
    <rc><c>Fe</c><c>   1</c></rc>
    <rc><c>Fe</c><c>   1</c></rc>
    <rc><c>Fe</c><c>   1</c></rc>
    <rc><c>Fe</c><c>   1</c></rc>
    <rc><c>Fe</c><c>   1</c></rc>
    <rc><c>Fe</c><c>   1</c></rc>
    <rc><c>Fe</c><c>   1</c></rc>
    <rc><c>Fe</c><c>   1</c></rc>
    <rc><c>Fe</c><c>   1</c></rc>
    <rc><c>Fe</c><c>   1</c></rc>
    <rc><c>Fe</c><c>   1</c></rc>
    <rc><c>Fe</c><c>   1</c></rc>
    <rc><c>Fe</c><c>   1</c></rc>
    <rc><c>Fe</c><c>   1</c></rc>
    <rc><c>Fe</c><c>   1</c></rc>
    <rc><c>Fe</c><c>   1</c></rc>
    <rc><c>Fe</c><c>   1</c></rc>
    <rc><c>Fe</c><c>   1</c></rc>
    <rc><c>Fe</c><c>   1</c></rc>
    <rc><c>Fe</c><c>   1</c></rc>
    <rc><c>Fe</c><c>   1</c></rc>
    <rc><c>Fe</c><c>   1</c></rc>
    <rc><c>Fe</c><c>   1</c></rc>
    <rc><c>Fe</c><c>   1</c></rc>
    <rc><c>Fe</c><c>   1</c></rc>
    <rc><c>Fe</c><c>   1</c></rc>
    <rc><c>Fe</c><c>   1</c></rc>
    <rc><c>Fe</c><c>   1</c></rc>
    <rc><c>Fe</c><c>   1</c></rc>
    <rc><c>Fe</c><c>   1</c></rc>
    <rc><c>Fe</c><c>   1</c></rc>
    <rc><c>Fe</c><c>   1</c></rc>
    <rc><c>Fe</c><c>   1</c></rc>
    <rc><c>Fe</c><c>   1</c></rc>
    <rc><c>Fe</c><c>   1</c></rc>
    <rc><c>Fe</c><c>   1</c></rc>
    <rc><c>Fe</c><c>   1</c></rc>
    <rc><c>Fe</c><c>   1</c></rc>
    <rc><c>Fe</c><c>   1</c></rc>
    <rc><c>Fe</c><c>   1</c></rc>
    <rc><c>Fe</c><c>   1</c></rc>
    <rc><c>Fe</c><c>   1</c></rc>
    <rc><c>Fe</c><c>   1</c></rc>
    <rc><c>Fe</c><c>   1</c></rc>
    <rc><c>Fe</c><c>   1</c></rc>
    <rc><c>Fe</c><c>   1</c></rc>
    <rc><c>Fe</c><c>   1</c></rc>
    <rc><c>Fe</c><c>   1</c></rc>
    <rc><c>Fe</c><c>   1</c></rc>
    <rc><c>Fe</c><c>   1</c></rc>
    <rc><c>Fe</c><c>   1</c></rc>
    <rc><c>Fe</c><c>   1</c></rc>
    <rc><c>Fe</c><c>   1</c></rc>
    <rc><c>Fe</c><c>   1</c></rc>
    <rc><c>Fe</c><c>   1</c></rc>
    <rc><c>Fe</c><c>   1</c></rc>
    <rc><c>Fe</c><c>   1</c></rc>
    <rc><c>Fe</c><c>   1</c></rc>
    <rc><c>Fe</c><c>   1</c></rc>
    <rc><c>Fe</c><c>   1</c></rc>
    <rc><c>Fe</c><c>   1</c></rc>
    <rc><c>Fe</c><c>   1</c></rc>
    <rc><c>Fe</c><c>   1</c></rc>
    <rc><c>Fe</c><c>   1</c></rc>
    <rc><c>Fe</c><c>   1</c></rc>
    <rc><c>Fe</c><c>   1</c></rc>
    <rc><c>Fe</c><c>   1</c></rc>
    <rc><c>Fe</c><c>   1</c></rc>
    <rc><c>Fe</c><c>   1</c></rc>
    <rc><c>Fe</c><c>   1</c></rc>
    <rc><c>Fe</c><c>   1</c></rc>
    <rc><c>Fe</c><c>   1</c></rc>
    <rc><c>Fe</c><c>   1</c></rc>
    <rc><c>Fe</c><c>   1</c></rc>
    <rc><c>Fe</c><c>   1</c></rc>
    <rc><c>Fe</c><c>   1</c></rc>
    <rc><c>Fe</c><c>   1</c></rc>
    <rc><c>Fe</c><c>   1</c></rc>
    <rc><c>Fe</c><c>   1</c></rc>
    <rc><c>Fe</c><c>   1</c></rc>
    <rc><c>Fe</c><c>   1</c></rc>
    <rc><c>Fe</c><c>   1</c></rc>
    <rc><c>Fe</c><c>   1</c></rc>
    <rc><c>Fe</c><c>   1</c></rc>
    <rc><c>Fe</c><c>   1</c></rc>
    <rc><c>Fe</c><c>   1</c></rc>
    <rc><c>Fe</c><c>   1</c></rc>
    <rc><c>Fe</c><c>   1</c></rc>
    <rc><c>Fe</c><c>   1</c></rc>
    <rc><c>Fe</c><c>   1</c></rc>
    <rc><c>Fe</c><c>   1</c></rc>
    <rc><c>Fe</c><c>   1</c></rc>
    <rc><c>Fe</c><c>   1</c></rc>
    <rc><c>Fe</c><c>   1</c></rc>
    <rc><c>Fe</c><c>   1</c></rc>
    <rc><c>Fe</c><c>   1</c></rc>
    <rc><c>Fe</c><c>   1</c></rc>
    <rc><c>Fe</c><c>   1</c></rc>
    <rc><c>Fe</c><c>   1</c></rc>
    <rc><c>Fe</c><c>   1</c></rc>
    <rc><c>Fe</c><c>   1</c></rc>
    <rc><c>Fe</c><c>   1</c></rc>
    <rc><c>Fe</c><c>   1</c></rc>
    <rc><c>Fe</c><c>   1</c></rc>
    <rc><c>Fe</c><c>   1</c></rc>
    <rc><c>Fe</c><c>   1</c></rc>
    <rc><c>Fe</c><c>   1</c></rc>
    <rc><c>Fe</c><c>   1</c></rc>
    <rc><c>Fe</c><c>   1</c></rc>
    <rc><c>Fe</c><c>   1</c></rc>
    <rc><c>Fe</c><c>   1</c></rc>
    <rc><c>Fe</c><c>   1</c></rc>
    <rc><c>Fe</c><c>   1</c></rc>
    <rc><c>Fe</c><c>   1</c></rc>
    <rc><c>Fe</c><c>   1</c></rc>
    <rc><c>Fe</c><c>   1</c></rc>
    <rc><c>Fe</c><c>   1</c></rc>
    <rc><c>Fe</c><c>   1</c></rc>
    <rc><c>Fe</c><c>   1</c></rc>
    <rc><c>Fe</c><c>   1</c></rc>
    <rc><c>Fe</c><c>   1</c></rc>
    <rc><c>Fe</c><c>   1</c></rc>
    <rc><c>Fe</c><c>   1</c></rc>
    <rc><c>Fe</c><c>   1</c></rc>
    <rc><c>Fe</c><c>   1</c></rc>
    <rc><c>Fe</c><c>   1</c></rc>
    <rc><c>Fe</c><c>   1</c></rc>
    <rc><c>Fe</c><c>   1</c></rc>
    <rc><c>Fe</c><c>   1</c></rc>
    <rc><c>Fe</c><c>   1</c></rc>
    <rc><c>Fe</c><c>   1</c></rc>
    <rc><c>Fe</c><c>   1</c></rc>
    <rc><c>Fe</c><c>   1</c></rc>
    <rc><c>Fe</c><c>   1</c></rc>
    <rc><c>Fe</c><c>   1</c></rc>
    <rc><c>Fe</c><c>   1</c></rc>
    <rc><c>Fe</c><c>   1</c></rc>
    <rc><c>Fe</c><c>   1</c></rc>
    <rc><c>Fe</c><c>   1</c></rc>
    <rc><c>Fe</c><c>   1</c></rc>
    <rc><c>Fe</c><c>   1</c></rc>
    <rc><c>Fe</c><c>   1</c></rc>
    <rc><c>Fe</c><c>   1</c></rc>
    <rc><c>Fe</c><c>   1</c></rc>
    <rc><c>Fe</c><c>   1</c></rc>
    <rc><c>Fe</c><c>   1</c></rc>
    <rc><c>Fe</c><c>   1</c></rc>
    <rc><c>Fe</c><c>   1</c></rc>
    <rc><c>Fe</c><c>   1</c></rc>
    <rc><c>Fe</c><c>   1</c></rc>
    <rc><c>Fe</c><c>   1</c></rc>
    <rc><c>Fe</c><c>   1</c></rc>
    <rc><c>Fe</c><c>   1</c></rc>
    <rc><c>Fe</c><c>   1</c></rc>
    <rc><c>Fe</c><c>   1</c></rc>
    <rc><c>Fe</c><c>   1</c></rc>
    <rc><c>Fe</c><c>   1</c></rc>
    <rc><c>Fe</c><c>   1</c></rc>
    <rc><c>Fe</c><c>   1</c></rc>
    <rc><c>Fe</c><c>   1</c></rc>
    <rc><c>Fe</c><c>   1</c></rc>
    <rc><c>Fe</c><c>   1</c></rc>
    <rc><c>Fe</c><c>   1</c></rc>
    <rc><c>Fe</c><c>   1</c></rc>
    <rc><c>Fe</c><c>   1</c></rc>
    <rc><c>Fe</c><c>   1</c></rc>
    <rc><c>Fe</c><c>   1</c></rc>
    <rc><c>Fe</c><c>   1</c></rc>
    <rc><c>Fe</c><c>   1</c></rc>
    <rc><c>Fe</c><c>   1</c></rc>
    <rc><c>Fe</c><c>   1</c></rc>
    <rc><c>Fe</c><c>   1</c></rc>
    <rc><c>Fe</c><c>   1</c></rc>
    <rc><c>Fe</c><c>   1</c></rc>
    <rc><c>Fe</c><c>   1</c></rc>
    <rc><c>Fe</c><c>   1</c></rc>
    <rc><c>Fe</c><c>   1</c></rc>
    <rc><c>Fe</c><c>   1</c></rc>
    <rc><c>Fe</c><c>   1</c></rc>
    <rc><c>Fe</c><c>   1</c></rc>
    <rc><c>Fe</c><c>   1</c></rc>
    <rc><c>Fe</c><c>   1</c></rc>
    <rc><c>Fe</c><c>   1</c></rc>
    <rc><c>Fe</c><c>   1</c></rc>
    <rc><c>Fe</c><c>   1</c></rc>
    <rc><c>Fe</c><c>   1</c></rc>
    <rc><c>Fe</c><c>   1</c></rc>
    <rc><c>Fe</c><c>   1</c></rc>
    <rc><c>Fe</c><c>   1</c></rc>
    <rc><c>Fe</c><c>   1</c></rc>
    <rc><c>Fe</c><c>   1</c></rc>
    <rc><c>Fe</c><c>   1</c></rc>
    <rc><c>Fe</c><c>   1</c></rc>
    <rc><c>Fe</c><c>   1</c></rc>
    <rc><c>Fe</c><c>   1</c></rc>
    <rc><c>Fe</c><c>   1</c></rc>
    <rc><c>Fe</c><c>   1</c></rc>
    <rc><c>Fe</c><c>   1</c></rc>
    <rc><c>Fe</c><c>   1</c></rc>
    <rc><c>Fe</c><c>   1</c></rc>
    <rc><c>Fe</c><c>   1</c></rc>
    <rc><c>Fe</c><c>   1</c></rc>
    <rc><c>Fe</c><c>   1</c></rc>
    <rc><c>Fe</c><c>   1</c></rc>
    <rc><c>Fe</c><c>   1</c></rc>
    <rc><c>Fe</c><c>   1</c></rc>
    <rc><c>Fe</c><c>   1</c></rc>
    <rc><c>Fe</c><c>   1</c></rc>
    <rc><c>Fe</c><c>   1</c></rc>
    <rc><c>Fe</c><c>   1</c></rc>
    <rc><c>Fe</c><c>   1</c></rc>
    <rc><c>Fe</c><c>   1</c></rc>
    <rc><c>Fe</c><c>   1</c></rc>
    <rc><c>Fe</c><c>   1</c></rc>
    <rc><c>Fe</c><c>   1</c></rc>
    <rc><c>Fe</c><c>   1</c></rc>
    <rc><c>Fe</c><c>   1</c></rc>
    <rc><c>Fe</c><c>   1</c></rc>
    <rc><c>Fe</c><c>   1</c></rc>
    <rc><c>Fe</c><c>   1</c></rc>
    <rc><c>Fe</c><c>   1</c></rc>
    <rc><c>Fe</c><c>   1</c></rc>
    <rc><c>Fe</c><c>   1</c></rc>
    <rc><c>Fe</c><c>   1</c></rc>
    <rc><c>Fe</c><c>   1</c></rc>
    <rc><c>Fe</c><c>   1</c></rc>
    <rc><c>Fe</c><c>   1</c></rc>
    <rc><c>Fe</c><c>   1</c></rc>
    <rc><c>Fe</c><c>   1</c></rc>
    <rc><c>Fe</c><c>   1</c></rc>
    <rc><c>Fe</c><c>   1</c></rc>
    <rc><c>Fe</c><c>   1</c></rc>
    <rc><c>Fe</c><c>   1</c></rc>
    <rc><c>Fe</c><c>   1</c></rc>
    <rc><c>Fe</c><c>   1</c></rc>
    <rc><c>Fe</c><c>   1</c></rc>
    <rc><c>Fe</c><c>   1</c></rc>
    <rc><c>Fe</c><c>   1</c></rc>
    <rc><c>Fe</c><c>   1</c></rc>
    <rc><c>Fe</c><c>   1</c></rc>
    <rc><c>Fe</c><c>   1</c></rc>
    <rc><c>Fe</c><c>   1</c></rc>
    <rc><c>Fe</c><c>   1</c></rc>
    <rc><c>Fe</c><c>   1</c></rc>
    <rc><c>Fe</c><c>   1</c></rc>
    <rc><c>Fe</c><c>   1</c></rc>
    <rc><c>Fe</c><c>   1</c></rc>
    <rc><c>Fe</c><c>   1</c></rc>
    <rc><c>Fe</c><c>   1</c></rc>
    <rc><c>Fe</c><c>   1</c></rc>
    <rc><c>Fe</c><c>   1</c></rc>
    <rc><c>Fe</c><c>   1</c></rc>
    <rc><c>Fe</c><c>   1</c></rc>
    <rc><c>Fe</c><c>   1</c></rc>
    <rc><c>Fe</c><c>   1</c></rc>
    <rc><c>Fe</c><c>   1</c></rc>
    <rc><c>Fe</c><c>   1</c></rc>
    <rc><c>Fe</c><c>   1</c></rc>
    <rc><c>Fe</c><c>   1</c></rc>
    <rc><c>Mn</c><c>   2</c></rc>
    <rc><c>Mn</c><c>   2</c></rc>
    <rc><c>Mn</c><c>   2</c></rc>
    <rc><c>Mn</c><c>   2</c></rc>
    <rc><c>Mn</c><c>   2</c></rc>
    <rc><c>Mn</c><c>   2</c></rc>
    <rc><c>Mn</c><c>   2</c></rc>
    <rc><c>Mn</c><c>   2</c></rc>
    <rc><c>Mn</c><c>   2</c></rc>
    <rc><c>Mn</c><c>   2</c></rc>
    <rc><c>Mn</c><c>   2</c></rc>
    <rc><c>Mn</c><c>   2</c></rc>
    <rc><c>Mn</c><c>   2</c></rc>
    <rc><c>Mn</c><c>   2</c></rc>
   </set>
  </array>
  <array name="atomtypes" >
   <dimension dim="1">type</dimension>
   <field type="int">atomspertype</field>
   <field type="string">element</field>
   <field>mass</field>
   <field>valence</field>
   <field type="string">pseudopotential</field>
   <set>
    <rc><c> 274</c><c>Fe</c><c>     55.84700000</c><c>      8.00000000</c><c>  PAW_PBE Fe_GW 31Mar2010               </c></rc>
    <rc><c>  14</c><c>Mn</c><c>     54.93800000</c><c>      7.00000000</c><c>  PAW_PBE Mn_GW 31Mar2010               </c></rc>
   </set>
  </array>
 </atominfo>
 <structure name="initialpos" >
  <crystal>
   <varray name="basis" >
    <v>       9.72667804       0.00000000       0.00000000 </v>
    <v>       0.00000000       8.42355028       0.00000000 </v>
    <v>       0.00000000       0.00000000      45.00000000 </v>
   </varray>
   <i name="volume">   3686.99226691 </i>
   <varray name="rec_basis" >
    <v>       0.10281002       0.00000000       0.00000000 </v>
    <v>       0.00000000       0.11871479       0.00000000 </v>
    <v>       0.00000000       0.00000000       0.02222222 </v>
   </varray>
  </crystal>
  <varray name="positions" >
   <v>       0.06284560       0.03017606       0.12416239 </v>
   <v>       0.31634248       0.87481931       0.65512422 </v>
   <v>       0.18266164       0.12412186       0.78879056 </v>
   <v>       0.44158435       0.28789055       0.38909296 </v>
   <v>       0.31781056       0.71399794       0.83324288 </v>
   <v>       0.81790605       0.21513494       0.83378364 </v>
   <v>       0.19168245       0.96410263       0.83369994 </v>
   <v>       0.56223185       0.20657426       0.56561604 </v>
   <v>       0.06590911       0.04071113       0.74431146 </v>
   <v>       0.81143421       0.87125593       0.52129862 </v>
   <v>       0.19052489       0.29115149       0.74440049 </v>
   <v>       0.93357777       0.45254820       0.34475361 </v>
   <v>       0.94106445       0.28643792       0.38886203 </v>
   <v>       0.81235812       0.04086121       0.87584991 </v>
   <v>       0.18387113       0.78813422       0.61088484 </v>
   <v>       0.56660109       0.03801109       0.38895676 </v>
   <v>       0.94243578       0.96502356       0.83400413 </v>
   <v>       0.31376817       0.54108047       0.87619839 </v>
   <v>       0.69034671       0.29110196       0.74435874 </v>
   <v>       0.18235974       0.61369443       0.16657473 </v>
   <v>       0.81199183       0.20593749       0.47865154 </v>
   <v>       0.80885919       0.53837558       0.61104438 </v>
   <v>       0.31173073       0.87153911       0.43425398 </v>
   <v>       0.81006287       0.03746927       0.25588723 </v>
   <v>       0.68298110       0.95173294       0.34463309 </v>
   <v>       0.93056825       0.11516334       0.16675968 </v>
   <v>       0.06164580       0.87111908       0.52131445 </v>
   <v>       0.55852848       0.53733356       0.25548920 </v>
   <v>       0.68459917       0.79785242       0.87599803 </v>
   <v>       0.55727199       0.36364707       0.16670061 </v>
   <v>       0.43957346       0.79190373       0.74446602 </v>
   <v>       0.81136522       0.70628530       0.56542699 </v>
   <v>       0.55813926       0.87439421       0.78878374 </v>
   <v>       0.68646212       0.12122771       0.52130151 </v>
   <v>       0.81634040       0.37472990       0.65516775 </v>
   <v>       0.94272282       0.46429449       0.83397541 </v>
   <v>       0.05965042       0.20700349       0.69977043 </v>
   <v>       0.43429287       0.95701565       0.69985751 </v>
   <v>       0.31720380       0.21304125       0.83345062 </v>
   <v>       0.44097381       0.62509854       0.65503709 </v>
   <v>       0.30900221       0.53836735       0.61095008 </v>
   <v>       0.93668312       0.45653392       0.56553344 </v>
   <v>       0.69012932       0.79159689       0.74443953 </v>
   <v>       0.93467524       0.78790394       0.12445803 </v>
   <v>       0.69208319       0.78808192       0.38891430 </v>
   <v>       0.94032877       0.79114894       0.74456377 </v>
   <v>       0.05887164       0.20270209       0.34483852 </v>
   <v>       0.68376490       0.45226087       0.34494529 </v>
   <v>       0.43295610       0.12357690       0.78899983 </v>
   <v>       0.06593944       0.20327572       0.21121543 </v>
   <v>       0.05568875       0.36509161       0.16664978 </v>
   <v>       0.93350214       0.78691421       0.25561073 </v>
   <v>       0.55941110       0.20678784       0.69990187 </v>
   <v>       0.68384005       0.95681618       0.69990959 </v>
   <v>       0.80792277       0.87507260       0.78859334 </v>
   <v>       0.43697753       0.95679373       0.56499417 </v>
   <v>       0.80800411       0.37528389       0.78864764 </v>
   <v>       0.68360969       0.28737701       0.25586429 </v>
   <v>       0.18714744       0.45704111       0.56545565 </v>
   <v>       0.05680994       0.86421706       0.16666329 </v>
   <v>       0.18407705       0.28855056       0.61098398 </v>
   <v>       0.06202140       0.20683716       0.56522975 </v>
   <v>       0.30931220       0.20694797       0.69989876 </v>
   <v>       0.56247921       0.54099231       0.87604749 </v>
   <v>       0.06233809       0.70647043       0.56553257 </v>
   <v>       0.68232252       0.62335718       0.78873761 </v>
   <v>       0.31598178       0.53837903       0.38885846 </v>
   <v>       0.18670680       0.62144860       0.52134283 </v>
   <v>       0.56293186       0.87090140       0.43433093 </v>
   <v>       0.43670352       0.45632309       0.56548087 </v>
   <v>       0.43960773       0.29170748       0.74440369 </v>
   <v>       0.82131904       0.87348840       0.30014114 </v>
   <v>       0.80858442       0.70249454       0.34489076 </v>
   <v>       0.44257350       0.46287937       0.83338253 </v>
   <v>       0.68761330       0.95565396       0.47866048 </v>
   <v>       0.68379891       0.45692694       0.69983655 </v>
   <v>       0.56209024       0.87154057       0.52128600 </v>
   <v>       0.56625213       0.37484175       0.65511731 </v>
   <v>       0.81634958       0.87474369       0.65511940 </v>
   <v>       0.81172804       0.37164399       0.43409614 </v>
   <v>       0.80880731       0.53732209       0.25582929 </v>
   <v>       0.69222674       0.46187035       0.83339919 </v>
   <v>       0.18600922       0.78736942       0.12398537 </v>
   <v>       0.69127743       0.28741760       0.38894151 </v>
   <v>       0.31639613       0.37471751       0.65495382 </v>
   <v>       0.30900881       0.20272725       0.34460104 </v>
   <v>       0.81593785       0.54080859       0.74442028 </v>
   <v>       0.69172064       0.96230807       0.83347346 </v>
   <v>       0.56607342       0.87502083       0.65504965 </v>
   <v>       0.31142241       0.70670353       0.56552578 </v>
   <v>       0.31354166       0.53128668       0.12410980 </v>
   <v>       0.69054491       0.95484885       0.21152146 </v>
   <v>       0.31138963       0.20653222       0.56561400 </v>
   <v>       0.18720893       0.95591284       0.47863179 </v>
   <v>       0.68745633       0.95678546       0.56556455 </v>
   <v>       0.43397244       0.78855699       0.61088826 </v>
   <v>       0.68197029       0.61328893       0.16658204 </v>
   <v>       0.31986951       0.87230033       0.29999676 </v>
   <v>       0.31249438       0.70552048       0.47854832 </v>
   <v>       0.93370790       0.28836542       0.61094513 </v>
   <v>       0.44634687       0.62317578       0.30012820 </v>
   <v>       0.80704923       0.86344882       0.16675494 </v>
   <v>       0.56672581       0.20316151       0.21121426 </v>
   <v>       0.93206730       0.61281438       0.16670621 </v>
   <v>       0.56305910       0.53095347       0.12422498 </v>
   <v>       0.55808788       0.37367468       0.78883103 </v>
   <v>       0.06146963       0.37207004       0.52131717 </v>
   <v>       0.30679022       0.36344200       0.16677251 </v>
   <v>       0.69594965       0.12317743       0.30019771 </v>
   <v>       0.44278954       0.96343582       0.83338519 </v>
   <v>       0.18584952       0.28608985       0.12429115 </v>
   <v>       0.18388872       0.28726929       0.25579432 </v>
   <v>       0.31262758       0.37188748       0.43428075 </v>
   <v>       0.56293724       0.03205577       0.12427350 </v>
   <v>       0.43388825       0.28810171       0.61085273 </v>
   <v>       0.18370355       0.45233668       0.34479904 </v>
   <v>       0.43516533       0.28645029       0.12421343 </v>
   <v>       0.68361101       0.78736591       0.25576814 </v>
   <v>       0.43679033       0.12168525       0.52126289 </v>
   <v>       0.18860419       0.29703701       0.87635362 </v>
   <v>       0.19136826       0.12515673       0.65516737 </v>
   <v>       0.94148734       0.12509834       0.65516247 </v>
   <v>       0.81651403       0.53787757       0.38885756 </v>
   <v>       0.06697368       0.03854381       0.38895887 </v>
   <v>       0.18337974       0.11215988       0.16648170 </v>
   <v>       0.05860473       0.53777197       0.61097720 </v>
   <v>       0.93400064       0.28728736       0.25578011 </v>
   <v>       0.55892358       0.53830904       0.61103058 </v>
   <v>       0.93683829       0.95719342       0.56546742 </v>
   <v>       0.69598686       0.62350664       0.30012517 </v>
   <v>       0.93720188       0.62054439       0.43446198 </v>
   <v>       0.93237059       0.62492645       0.78856000 </v>
   <v>       0.55974142       0.70686046       0.69978382 </v>
   <v>       0.06657035       0.71719666       0.83410941 </v>
   <v>       0.94562002       0.12243084       0.30003108 </v>
   <v>       0.93390240       0.78773423       0.61099759 </v>
   <v>       0.43307938       0.78714703       0.25560242 </v>
   <v>       0.30821172       0.37422843       0.78879328 </v>
   <v>       0.44088050       0.45394614       0.21135841 </v>
   <v>       0.18665730       0.12144425       0.52124099 </v>
   <v>       0.80940061       0.70706269       0.69986998 </v>
   <v>       0.05883040       0.03786698       0.61084391 </v>
   <v>       0.56624071       0.21351462       0.83329315 </v>
   <v>       0.31142062       0.87138236       0.52133176 </v>
   <v>       0.68583415       0.28688530       0.12404624 </v>
   <v>       0.19162853       0.95486213       0.21170761 </v>
   <v>       0.68411145       0.28855934       0.61093459 </v>
   <v>       0.30907567       0.03850270       0.61110124 </v>
   <v>       0.93287443       0.12514192       0.78879122 </v>
   <v>       0.43654046       0.79802735       0.87627033 </v>
   <v>       0.81555038       0.04098944       0.74438041 </v>
   <v>       0.93429439       0.45731656       0.69978674 </v>
   <v>       0.19109859       0.62521836       0.65513634 </v>
   <v>       0.30944771       0.70625817       0.69986216 </v>
   <v>       0.93511912       0.28691748       0.12418953 </v>
   <v>       0.43741291       0.45559589       0.47841124 </v>
   <v>       0.06234339       0.70562465       0.47834902 </v>
   <v>       0.93685097       0.12002962       0.43448610 </v>
   <v>       0.44534145       0.12244371       0.30032853 </v>
   <v>       0.18813394       0.12106528       0.43402184 </v>
   <v>       0.56300947       0.04098613       0.87607834 </v>
   <v>       0.18666479       0.95682154       0.56553279 </v>
   <v>       0.68514014       0.78739486       0.12439370 </v>
   <v>       0.55911557       0.70238564       0.34481035 </v>
   <v>       0.31618060       0.03726577       0.38879200 </v>
   <v>       0.68255709       0.11404538       0.16675510 </v>
   <v>       0.81631184       0.20306827       0.21117415 </v>
   <v>       0.05942305       0.53689040       0.25572227 </v>
   <v>       0.56214057       0.70515631       0.47843697 </v>
   <v>       0.43496635       0.78587219       0.12419197 </v>
   <v>       0.56983576       0.37176883       0.30005379 </v>
   <v>       0.43381181       0.95250783       0.34487843 </v>
   <v>       0.18398940       0.95687036       0.69991833 </v>
   <v>       0.43022828       0.61557392       0.16655283 </v>
   <v>       0.94064497       0.45382911       0.21158681 </v>
   <v>       0.06238951       0.53066073       0.12417291 </v>
   <v>       0.81186268       0.37172542       0.52132122 </v>
   <v>       0.94583688       0.62323689       0.29974216 </v>
   <v>       0.30976625       0.03699289       0.25560634 </v>
   <v>       0.68397594       0.78813459       0.61094465 </v>
   <v>       0.19219587       0.46378882       0.83357008 </v>
   <v>       0.43218075       0.11285170       0.16662585 </v>
   <v>       0.31156181       0.37181588       0.52138523 </v>
   <v>       0.43253116       0.62334241       0.78892141 </v>
   <v>       0.05882228       0.03727733       0.25570830 </v>
   <v>       0.56203135       0.70653040       0.56562664 </v>
   <v>       0.93945617       0.29102784       0.74451782 </v>
   <v>       0.68206127       0.12361000       0.78862414 </v>
   <v>       0.19087627       0.45332885       0.21116867 </v>
   <v>       0.94145090       0.78764639       0.38876378 </v>
   <v>       0.68478328       0.29928890       0.87619960 </v>
   <v>       0.55673733       0.86353062       0.16663065 </v>
   <v>       0.43435113       0.45703543       0.69982432 </v>
   <v>       0.93406507       0.95124675       0.34480678 </v>
   <v>       0.68666259       0.62097566       0.52120484 </v>
   <v>       0.06622099       0.87481604       0.65494776 </v>
   <v>       0.05818836       0.87530954       0.78866560 </v>
   <v>       0.06606970       0.37464115       0.65503913 </v>
   <v>       0.68716266       0.45576916       0.47853951 </v>
   <v>       0.18366191       0.78723594       0.25562252 </v>
   <v>       0.43721473       0.12104892       0.43434819 </v>
   <v>       0.81351043       0.03051334       0.12408034 </v>
   <v>       0.93667376       0.62173737       0.52138039 </v>
   <v>       0.44144056       0.12473121       0.65489858 </v>
   <v>       0.81199196       0.53007193       0.12405456 </v>
   <v>       0.43374435       0.45213860       0.34495357 </v>
   <v>       0.80914410       0.20247958       0.34491975 </v>
   <v>       0.30914417       0.70195383       0.34469705 </v>
   <v>       0.69118851       0.12508321       0.65503080 </v>
   <v>       0.57090641       0.87305762       0.30009444 </v>
   <v>       0.06526768       0.54108492       0.74442343 </v>
   <v>       0.94131991       0.95379602       0.21123488 </v>
   <v>       0.81625219       0.70313869       0.21120086 </v>
   <v>       0.07101559       0.87299065       0.30007623 </v>
   <v>       0.19588123       0.12279944       0.30009225 </v>
   <v>       0.05837745       0.70241766       0.34480018 </v>
   <v>       0.80894126       0.03841407       0.61096318 </v>
   <v>       0.06277475       0.37215928       0.43428068 </v>
   <v>       0.55883484       0.20248728       0.34467272 </v>
   <v>       0.82041073       0.37311346       0.30001688 </v>
   <v>       0.56039753       0.03709078       0.25557068 </v>
   <v>       0.56643401       0.53796158       0.38889340 </v>
   <v>       0.06265394       0.20596346       0.47851125 </v>
   <v>       0.30974144       0.87349762       0.78849227 </v>
   <v>       0.93447830       0.95742745       0.69970238 </v>
   <v>       0.06991774       0.37428171       0.30006014 </v>
   <v>       0.69124027       0.62493025       0.65521068 </v>
   <v>       0.68652613       0.45656858       0.56538400 </v>
   <v>       0.44196525       0.95574096       0.21184587 </v>
   <v>       0.31235881       0.20574867       0.47863099 </v>
   <v>       0.81229606       0.54050897       0.87588813 </v>
   <v>       0.68774291       0.62062434       0.43444510 </v>
   <v>       0.80986053       0.20695241       0.69989514 </v>
   <v>       0.81224413       0.70575734       0.47850498 </v>
   <v>       0.81123156       0.87136439       0.43410023 </v>
   <v>       0.93739154       0.95529748       0.47852996 </v>
   <v>       0.56230903       0.20563724       0.47852445 </v>
   <v>       0.18687321       0.62044224       0.43427205 </v>
   <v>       0.31503359       0.04164523       0.74420699 </v>
   <v>       0.94112788       0.62518353       0.65494984 </v>
   <v>       0.56640856       0.71374695       0.83337134 </v>
   <v>       0.32055643       0.37243644       0.30009963 </v>
   <v>       0.31519871       0.54127279       0.74438293 </v>
   <v>       0.18725676       0.45584500       0.47865828 </v>
   <v>       0.31447473       0.04194726       0.87610907 </v>
   <v>       0.18424848       0.45722105       0.69978835 </v>
   <v>       0.56169440       0.37174045       0.52135928 </v>
   <v>       0.19136118       0.28752837       0.38879319 </v>
   <v>       0.31594938       0.20350248       0.21125819 </v>
   <v>       0.06770373       0.70279664       0.21127249 </v>
   <v>       0.56206670       0.37194219       0.43426814 </v>
   <v>       0.43667672       0.62161171       0.52125326 </v>
   <v>       0.81722530       0.71524201       0.83344738 </v>
   <v>       0.05822668       0.37571099       0.78861981 </v>
   <v>       0.43648539       0.29868849       0.87650090 </v>
   <v>       0.31182399       0.03103337       0.12419660 </v>
   <v>       0.68744325       0.12056729       0.43413578 </v>
   <v>       0.18358864       0.95239553       0.34491136 </v>
   <v>       0.06714338       0.21549859       0.83419076 </v>
   <v>       0.55937499       0.03870384       0.61111300 </v>
   <v>       0.69028571       0.45442532       0.21185947 </v>
   <v>       0.18956289       0.79157812       0.74448654 </v>
   <v>       0.19566399       0.62236990       0.30018838 </v>
   <v>       0.44149573       0.78766746       0.38908246 </v>
   <v>       0.43348780       0.28727833       0.25577642 </v>
   <v>       0.06376784       0.54097088       0.87604376 </v>
   <v>       0.56588646       0.04127843       0.74434265 </v>
   <v>       0.18774257       0.79763162       0.87622258 </v>
   <v>       0.93716275       0.45527480       0.47848881 </v>
   <v>       0.56522649       0.54159287       0.74419668 </v>
   <v>       0.81126833       0.20641119       0.56541459 </v>
   <v>       0.18380783       0.62288137       0.78864601 </v>
   <v>       0.06763271       0.53874007       0.38901195 </v>
   <v>       0.05990864       0.70686123       0.69973301 </v>
   <v>       0.30880886       0.53703525       0.25556404 </v>
   <v>       0.31554204       0.70229055       0.21211073 </v>
   <v>       0.30567241       0.86378835       0.16574691 </v>
   <v>       0.43654140       0.62130084       0.43432713 </v>
   <v>       0.81806490       0.03917585       0.38894623 </v>
   <v>       0.93479416       0.29796035       0.87574210 </v>
   <v>       0.93709082       0.79548347       0.87577069 </v>
   <v>       0.06561326       0.03902717       0.87594620 </v>
   <v>       0.43720397       0.95580892       0.47856609 </v>
   <v>       0.80607413       0.36424761       0.16601272 </v>
   <v>       0.06253064       0.87200776       0.43439096 </v>
   <v>       0.93664817       0.12142923       0.52136888 </v>
   <v>       0.19276954       0.78746382       0.38883060 </v>
   <v>       0.56734023       0.70309635       0.21200447 </v>
  </varray>
 </structure>
 <calculation>
  <scstep>
   <time name="dav">   54.56   54.57</time>
   <time name="total">   54.72   54.76</time>
   <energy>
    <i name="alphaZ">  16293.21160653 </i>
    <i name="ewald"> 723293.65582374 </i>
    <i name="hartreedc">-913810.18631301 </i>
    <i name="XCdc">  -6512.78066557 </i>
    <i name="pawpsdc"> 162273.92519768 </i>
    <i name="pawaedc">-159623.75899949 </i>
    <i name="eentropy">     -1.07564444 </i>
    <i name="bandstr">  38488.54110963 </i>
    <i name="atom"> 168671.76673737 </i>
    <i name="e_fr_energy">  29073.29885244 </i>
    <i name="e_wo_entrp">  29074.37449688 </i>
    <i name="e_0_energy">  29073.83667466 </i>
   </energy>
  </scstep>
  <scstep>
   <time name="dav">   54.00   54.03</time>
   <time name="total">   54.01   54.04</time>
   <energy>
    <i name="e_fr_energy">   1186.96907602 </i>
    <i name="e_wo_entrp">   1188.46149342 </i>
    <i name="e_0_energy">   1187.71528472 </i>
   </energy>
  </scstep>
  <scstep>
   <time name="dav">   71.08   71.12</time>
   <time name="total">   71.08   71.12</time>
   <energy>
    <i name="e_fr_energy">  -1950.32329012 </i>
    <i name="e_wo_entrp">  -1946.77275230 </i>
    <i name="e_0_energy">  -1948.54802121 </i>
   </energy>
  </scstep>
  <scstep>
   <time name="dav">   88.68   88.71</time>
   <time name="total">   88.68   88.72</time>
   <energy>
    <i name="e_fr_energy">  -2619.63895061 </i>
    <i name="e_wo_entrp">  -2616.09473997 </i>
    <i name="e_0_energy">  -2617.86684529 </i>
   </energy>
  </scstep>
  <scstep>
   <time name="dav">   85.15   85.19</time>
   <time name="total">   87.29   87.32</time>
   <energy>
    <i name="e_fr_energy">  -2739.06205710 </i>
    <i name="e_wo_entrp">  -2735.39681842 </i>
    <i name="e_0_energy">  -2737.22943776 </i>
   </energy>
  </scstep>
  <scstep>
   <time name="diag">    8.27    8.27</time>
   <time name="diis">   37.39   37.39</time>
   <time name="orth">    2.30    2.30</time>
   <time name="total">   50.08   50.13</time>
   <energy>
    <i name="e_fr_energy">  -5985.81513532 </i>
    <i name="e_wo_entrp">  -5983.25716881 </i>
    <i name="e_0_energy">  -5984.53615207 </i>
   </energy>
  </scstep>
  <scstep>
   <time name="diag">    8.38    8.39</time>
   <time name="diis">   28.89   28.89</time>
   <time name="orth">    2.30    2.30</time>
   <time name="total">   41.81   41.84</time>
[...]
       <r>     5.8424     0.0000  2772.0000 </r>
       <r>     5.8851     0.0000  2772.0000 </r>
       <r>     5.9278     0.0000  2772.0000 </r>
       <r>     5.9705     0.0000  2772.0000 </r>
       <r>     6.0131     0.0000  2772.0000 </r>
       <r>     6.0558     0.0000  2772.0000 </r>
       <r>     6.0985     0.0000  2772.0000 </r>
       <r>     6.1412     0.0000  2772.0000 </r>
       <r>     6.1838     0.0000  2772.0000 </r>
       <r>     6.2265     0.0000  2772.0000 </r>
       <r>     6.2692     0.0000  2772.0000 </r>
       <r>     6.3119     0.0000  2772.0000 </r>
       <r>     6.3545     0.0000  2772.0000 </r>
       <r>     6.3972     0.0000  2772.0000 </r>
       <r>     6.4399     0.0000  2772.0000 </r>
       <r>     6.4826     0.0000  2772.0000 </r>
       <r>     6.5252     0.0000  2772.0000 </r>
       <r>     6.5679     0.0000  2772.0000 </r>
       <r>     6.6106     0.0000  2772.0000 </r>
       <r>     6.6533     0.0000  2772.0000 </r>
       <r>     6.6959     0.0000  2772.0000 </r>
       <r>     6.7386     0.0000  2772.0000 </r>
       <r>     6.7813     0.0000  2772.0000 </r>
      </set>
     </set>
    </array>
   </total>
  </dos>
 </calculation>
 <structure name="finalpos" >
  <crystal>
   <varray name="basis" >
    <v>       9.72667804       0.00000000       0.00000000 </v>
    <v>       0.00000000       8.42355028       0.00000000 </v>
    <v>       0.00000000       0.00000000      45.00000000 </v>
   </varray>
   <i name="volume">   3686.99226691 </i>
   <varray name="rec_basis" >
    <v>       0.10281002       0.00000000       0.00000000 </v>
    <v>       0.00000000       0.11871479       0.00000000 </v>
    <v>       0.00000000       0.00000000       0.02222222 </v>
   </varray>
  </crystal>
  <varray name="positions" >
   <v>       0.06261954       0.03189984       0.12430725 </v>
   <v>       0.31536389       0.87461199       0.65504917 </v>
   <v>       0.18411808       0.12449162       0.78855310 </v>
   <v>       0.44090329       0.28793382       0.38932953 </v>
   <v>       0.31675415       0.71359793       0.83353418 </v>
   <v>       0.81736367       0.21406504       0.83385650 </v>
   <v>       0.19038038       0.96354692       0.83398587 </v>
   <v>       0.56183941       0.20625805       0.56584834 </v>
   <v>       0.06479414       0.04110978       0.74410896 </v>
   <v>       0.81161456       0.87169808       0.52121147 </v>
   <v>       0.18945830       0.29111742       0.74421924 </v>
   <v>       0.93516377       0.45355281       0.34488970 </v>
   <v>       0.94056526       0.28696572       0.38925476 </v>
   <v>       0.81288147       0.04272291       0.87581331 </v>
   <v>       0.18489462       0.78868924       0.61080583 </v>
   <v>       0.56547409       0.03717979       0.38933001 </v>
   <v>       0.94241902       0.96425049       0.83410357 </v>
   <v>       0.31426127       0.54326126       0.87606161 </v>
   <v>       0.68954181       0.29126799       0.74419835 </v>
   <v>       0.18350169       0.61459665       0.16640138 </v>
   <v>       0.81240285       0.20524972       0.47811661 </v>
   <v>       0.80983443       0.53868429       0.61102163 </v>
   <v>       0.31229264       0.87110182       0.43424010 </v>
   <v>       0.81101765       0.03723526       0.25577416 </v>
   <v>       0.68482135       0.95209857       0.34484741 </v>
   <v>       0.93167663       0.11581407       0.16680396 </v>
   <v>       0.06194875       0.87159749       0.52123068 </v>
   <v>       0.55966981       0.53704265       0.25567539 </v>
   <v>       0.68510296       0.79600167       0.87598358 </v>
   <v>       0.55833844       0.36411122       0.16657332 </v>
   <v>       0.43892376       0.79203806       0.74430455 </v>
   <v>       0.81186164       0.70613272       0.56564857 </v>
   <v>       0.55885944       0.87444616       0.78855581 </v>
   <v>       0.68664829       0.12145353       0.52120022 </v>
   <v>       0.81504466       0.37452625       0.65518226 </v>
   <v>       0.94168982       0.46363891       0.83401518 </v>
   <v>       0.06017879       0.20700350       0.69982653 </v>
   <v>       0.43509959       0.95719862       0.69973514 </v>
   <v>       0.31615396       0.21241627       0.83374712 </v>
   <v>       0.44010252       0.62487355       0.65499827 </v>
   <v>       0.30962930       0.53884814       0.61088716 </v>
   <v>       0.93702110       0.45639757       0.56572638 </v>
   <v>       0.68954900       0.79168607       0.74424572 </v>
   <v>       0.93453952       0.78607969       0.12456222 </v>
   <v>       0.69141750       0.78791406       0.38922318 </v>
   <v>       0.93963407       0.79122941       0.74427473 </v>
   <v>       0.06015292       0.20322689       0.34488763 </v>
   <v>       0.68561274       0.45334079       0.34496698 </v>
   <v>       0.43388764       0.12408745       0.78871914 </v>
   <v>       0.06472587       0.20271232       0.21129869 </v>
   <v>       0.05641121       0.36487350       0.16654451 </v>
   <v>       0.93502470       0.78719262       0.25554815 </v>
   <v>       0.56012621       0.20669675       0.69977043 </v>
   <v>       0.68491427       0.95709990       0.69977876 </v>
   <v>       0.80905492       0.87513638       0.78839016 </v>
   <v>       0.43662076       0.95653788       0.56543288 </v>
   <v>       0.80885096       0.37530512       0.78843198 </v>
   <v>       0.68502865       0.28681948       0.25574296 </v>
   <v>       0.18671040       0.45669843       0.56571348 </v>
   <v>       0.05797833       0.86552751       0.16664137 </v>
   <v>       0.18506532       0.28868291       0.61090964 </v>
   <v>       0.06203492       0.20655778       0.56554763 </v>
   <v>       0.31014940       0.20686536       0.69982018 </v>
   <v>       0.56302268       0.54340048       0.87596542 </v>
   <v>       0.06204372       0.70615898       0.56573536 </v>
   <v>       0.68323959       0.62404426       0.78849150 </v>
   <v>       0.31548937       0.53925517       0.38932366 </v>
   <v>       0.18664801       0.62211666       0.52128012 </v>
   <v>       0.56236648       0.87090504       0.43434466 </v>
   <v>       0.43649468       0.45611230       0.56575466 </v>
   <v>       0.43895613       0.29169781       0.74424935 </v>
   <v>       0.81938826       0.87302152       0.30029579 </v>
   <v>       0.81026035       0.70300859       0.34506911 </v>
   <v>       0.44189375       0.46225647       0.83367053 </v>
   <v>       0.68756611       0.95526626       0.47804472 </v>
   <v>       0.68490507       0.45692630       0.69974096 </v>
   <v>       0.56173212       0.87192246       0.52107693 </v>
   <v>       0.56527860       0.37428294       0.65511945 </v>
   <v>       0.81505392       0.87434480       0.65515611 </v>
   <v>       0.81233078       0.37152578       0.43412747 </v>
   <v>       0.81025571       0.53698141       0.25579245 </v>
   <v>       0.69140855       0.46207680       0.83369510 </v>
   <v>       0.18659204       0.78587236       0.12408381 </v>
   <v>       0.69075786       0.28738596       0.38928879 </v>
   <v>       0.31524986       0.37435736       0.65494954 </v>
   <v>       0.31026388       0.20274013       0.34479547 </v>
   <v>       0.81496624       0.54107498       0.74418435 </v>
   <v>       0.69128749       0.96219182       0.83373175 </v>
   <v>       0.56514878       0.87478467       0.65506645 </v>
   <v>       0.31128852       0.70655389       0.56582536 </v>
   <v>       0.31245444       0.53206918       0.12412947 </v>
   <v>       0.69062495       0.95526176       0.21155114 </v>
   <v>       0.31131702       0.20617527       0.56587299 </v>
   <v>       0.18719081       0.95538791       0.47803999 </v>
   <v>       0.68731779       0.95635592       0.56584576 </v>
   <v>       0.43450149       0.78915229       0.61087742 </v>
   <v>       0.68302986       0.61341026       0.16648922 </v>
   <v>       0.31830203       0.87224677       0.30007086 </v>
   <v>       0.31239984       0.70586284       0.47796202 </v>
   <v>       0.93478630       0.28861587       0.61087350 </v>
   <v>       0.44441311       0.62283968       0.30013378 </v>
   <v>       0.80737801       0.86450889       0.16673949 </v>
   <v>       0.56601312       0.20290970       0.21125135 </v>
   <v>       0.93238534       0.61290465       0.16676211 </v>
   <v>       0.56237262       0.53173850       0.12432556 </v>
   <v>       0.55893847       0.37409682       0.78857635 </v>
   <v>       0.06146345       0.37223286       0.52125968 </v>
   <v>       0.30750153       0.36351479       0.16658770 </v>
   <v>       0.69443265       0.12242548       0.30026801 </v>
   <v>       0.44169481       0.96244136       0.83368853 </v>
   <v>       0.18590744       0.28486331       0.12444090 </v>
   <v>       0.18491779       0.28664944       0.25571618 </v>
   <v>       0.31258776       0.37230626       0.43427191 </v>
   <v>       0.56197464       0.03258887       0.12441323 </v>
   <v>       0.43441844       0.28821734       0.61084513 </v>
   <v>       0.18471314       0.45330788       0.34493071 </v>
   <v>       0.43486076       0.28495826       0.12445468 </v>
   <v>       0.68509469       0.78773260       0.25586574 </v>
   <v>       0.43661710       0.12174953       0.52109896 </v>
   <v>       0.18888256       0.29507164       0.87629109 </v>
   <v>       0.19046802       0.12460543       0.65510344 </v>
   <v>       0.94011329       0.12450579       0.65515343 </v>
   <v>       0.81612516       0.53837334       0.38923203 </v>
   <v>       0.06589699       0.03736975       0.38941205 </v>
   <v>       0.18396381       0.11328951       0.16661361 </v>
   <v>       0.05972638       0.53851385       0.61089135 </v>
   <v>       0.93524232       0.28688078       0.25565668 </v>
   <v>       0.55942423       0.53882731       0.61098687 </v>
   <v>       0.93710862       0.95639773       0.56569869 </v>
   <v>       0.69443185       0.62298328       0.30030779 </v>
   <v>       0.93763261       0.62170572       0.43427452 </v>
   <v>       0.93373475       0.62549795       0.78837013 </v>
   <v>       0.56042433       0.70705122       0.69967812 </v>
   <v>       0.06573832       0.71629502       0.83411922 </v>
   <v>       0.94392957       0.12238486       0.30011435 </v>
   <v>       0.93491507       0.78819878       0.61095546 </v>
   <v>       0.43451162       0.78752754       0.25586139 </v>
   <v>       0.30942290       0.37433060       0.78850376 </v>
   <v>       0.44011459       0.45188237       0.21146779 </v>
   <v>       0.18672106       0.12164013       0.52122647 </v>
   <v>       0.81025620       0.70727197       0.69977155 </v>
   <v>       0.06002169       0.03841480       0.61077481 </v>
   <v>       0.56539850       0.21292125       0.83346180 </v>
   <v>       0.31164646       0.87190004       0.52115467 </v>
   <v>       0.68582761       0.28516081       0.12426968 </v>
   <v>       0.19009239       0.95523304       0.21165892 </v>
   <v>       0.68457928       0.28863806       0.61098007 </v>
   <v>       0.30982448       0.03859109       0.61095860 </v>
   <v>       0.93411427       0.12537913       0.78859521 </v>
   <v>       0.43678970       0.79637378       0.87617982 </v>
   <v>       0.81488101       0.04130940       0.74410804 </v>
   <v>       0.93501984       0.45723838       0.69975642 </v>
   <v>       0.18995739       0.62476751       0.65505477 </v>
   <v>       0.31002421       0.70676084       0.69980355 </v>
   <v>       0.93496202       0.28527813       0.12434870 </v>
   <v>       0.43719286       0.45581221       0.47802124 </v>
   <v>       0.06226257       0.70554632       0.47789869 </v>
   <v>       0.93724085       0.11982823       0.43446574 </v>
   <v>       0.44376513       0.12171894       0.30031770 </v>
   <v>       0.18726408       0.12027236       0.43403937 </v>
   <v>       0.56299913       0.04272211       0.87598861 </v>
   <v>       0.18653920       0.95654112       0.56584338 </v>
   <v>       0.68481132       0.78615251       0.12451309 </v>
   <v>       0.56064171       0.70339493       0.34507767 </v>
   <v>       0.31575262       0.03646401       0.38919966 </v>
   <v>       0.68346432       0.11527880       0.16679708 </v>
   <v>       0.81571755       0.20290461       0.21123099 </v>
   <v>       0.06036279       0.53695095       0.25564139 </v>
   <v>       0.56202216       0.70569875       0.47791452 </v>
   <v>       0.43484158       0.78512200       0.12423035 </v>
   <v>       0.56851790       0.37118752       0.30016243 </v>
   <v>       0.43509011       0.95270691       0.34504794 </v>
   <v>       0.18478106       0.95714026       0.69987758 </v>
   <v>       0.43130692       0.61582369       0.16626038 </v>
   <v>       0.93972672       0.45289238       0.21157983 </v>
   <v>       0.06198191       0.53093470       0.12422693 </v>
   <v>       0.81213695       0.37199302       0.52123972 </v>
   <v>       0.94398153       0.62282262       0.30003352 </v>
   <v>       0.31069612       0.03641082       0.25561241 </v>
   <v>       0.68449734       0.78868608       0.61095839 </v>
   <v>       0.19127279       0.46319954       0.83380666 </v>
   <v>       0.43294436       0.11353404       0.16670214 </v>
   <v>       0.31147165       0.37204202       0.52132568 </v>
   <v>       0.43377435       0.62380493       0.78870402 </v>
   <v>       0.06010995       0.03708835       0.25559675 </v>
   <v>       0.56184281       0.70639229       0.56586672 </v>
   <v>       0.93914091       0.29093676       0.74423589 </v>
   <v>       0.68312667       0.12449307       0.78839621 </v>
   <v>       0.18931781       0.45195406       0.21134655 </v>
   <v>       0.94090172       0.78770927       0.38928865 </v>
   <v>       0.68534147       0.29768718       0.87610081 </v>
   <v>       0.55682081       0.86528874       0.16642151 </v>
   <v>       0.43512451       0.45675743       0.69975448 </v>
   <v>       0.93546781       0.95175754       0.34496194 </v>
   <v>       0.68670494       0.62187054       0.52115658 </v>
   <v>       0.06504081       0.87425151       0.65499337 </v>
   <v>       0.05935440       0.87549554       0.78854758 </v>
   <v>       0.06503219       0.37458132       0.65506056 </v>
   <v>       0.68760179       0.45532921       0.47805288 </v>
   <v>       0.18487414       0.78746323       0.25575216 </v>
   <v>       0.43731652       0.12012141       0.43437869 </v>
   <v>       0.81235356       0.03222125       0.12426526 </v>
   <v>       0.93690604       0.62202826       0.52127160 </v>
   <v>       0.44041784       0.12429615       0.65496531 </v>
   <v>       0.81180727       0.53091058       0.12418200 </v>
   <v>       0.43510173       0.45296899       0.34510654 </v>
   <v>       0.81070529       0.20268147       0.34495655 </v>
   <v>       0.31032726       0.70306725       0.34503943 </v>
   <v>       0.68988833       0.12448211       0.65510223 </v>
   <v>       0.56912461       0.87266700       0.30015604 </v>
   <v>       0.06442020       0.54107460       0.74417393 </v>
   <v>       0.94034027       0.95402064       0.21139089 </v>
   <v>       0.81601862       0.70307903       0.21132313 </v>
   <v>       0.06884859       0.87250737       0.30020196 </v>
   <v>       0.19382093       0.12254316       0.30013136 </v>
   <v>       0.05984451       0.70293491       0.34504775 </v>
   <v>       0.80974775       0.03855466       0.61093733 </v>
   <v>       0.06238167       0.37187396       0.43422382 </v>
   <v>       0.56028589       0.20252941       0.34482236 </v>
   <v>       0.81894732       0.37267486       0.30010881 </v>
   <v>       0.56117081       0.03680341       0.25561031 </v>
   <v>       0.56527914       0.53878711       0.38931873 </v>
   <v>       0.06226038       0.20543953       0.47807423 </v>
   <v>       0.31020823       0.87416194       0.78831745 </v>
   <v>       0.93509418       0.95734648       0.69972089 </v>
   <v>       0.06832943       0.37304149       0.30016821 </v>
   <v>       0.69018642       0.62464981       0.65520181 </v>
   <v>       0.68674422       0.45634484       0.56562224 </v>
   <v>       0.44064757       0.95640933       0.21178738 </v>
   <v>       0.31206657       0.20482959       0.47815505 </v>
   <v>       0.81225866       0.54271948       0.87592688 </v>
   <v>       0.68789924       0.62146125       0.43428143 </v>
   <v>       0.81033754       0.20689343       0.69982326 </v>
   <v>       0.81252375       0.70568956       0.47801382 </v>
   <v>       0.81219344       0.87143979       0.43411954 </v>
   <v>       0.93736264       0.95485131       0.47799035 </v>
   <v>       0.56257677       0.20460611       0.47809491 </v>
   <v>       0.18679133       0.62175421       0.43419007 </v>
   <v>       0.31403191       0.04180675       0.74410011 </v>
   <v>       0.93996192       0.62480922       0.65501460 </v>
   <v>       0.56540917       0.71283546       0.83357956 </v>
   <v>       0.31863733       0.37159508       0.30018634 </v>
   <v>       0.31419845       0.54123298       0.74427270 </v>
   <v>       0.18696137       0.45568292       0.47815846 </v>
   <v>       0.31454310       0.04347336       0.87600475 </v>
   <v>       0.18483389       0.45708680       0.69978131 </v>
   <v>       0.56172536       0.37197564       0.52126539 </v>
   <v>       0.19035066       0.28770774       0.38918075 </v>
   <v>       0.31490677       0.20305692       0.21124747 </v>
   <v>       0.06566055       0.70302347       0.21146938 </v>
   <v>       0.56219933       0.37223692       0.43427040 </v>
   <v>       0.43662780       0.62215294       0.52113189 </v>
   <v>       0.81665958       0.71434243       0.83361851 </v>
   <v>       0.05936219       0.37556478       0.78844385 </v>
   <v>       0.43678962       0.29696849       0.87629753 </v>
   <v>       0.31181892       0.03205632       0.12425869 </v>
   <v>       0.68804561       0.12032409       0.43417777 </v>
   <v>       0.18506644       0.95245994       0.34508536 </v>
   <v>       0.06590290       0.21356394       0.83415851 </v>
   <v>       0.55962782       0.03874601       0.61104363 </v>
   <v>       0.69068605       0.45256591       0.21165208 </v>
   <v>       0.18882436       0.79164906       0.74426164 </v>
   <v>       0.19358960       0.62218533       0.30021076 </v>
   <v>       0.44058804       0.78763895       0.38947148 </v>
   <v>       0.43476103       0.28679500       0.25566721 </v>
   <v>       0.06404823       0.54305066       0.87598379 </v>
   <v>       0.56485187       0.04155425       0.74417267 </v>
   <v>       0.18824063       0.79673200       0.87625159 </v>
   <v>       0.93734091       0.45513436       0.47803770 </v>
   <v>       0.56447974       0.54151563       0.74411378 </v>
   <v>       0.81167834       0.20637872       0.56566179 </v>
   <v>       0.18474518       0.62406756       0.78842205 </v>
   <v>       0.06651231       0.53919121       0.38936354 </v>
   <v>       0.06016836       0.70712180       0.69971640 </v>
   <v>       0.30990910       0.53694319       0.25565147 </v>
   <v>       0.31360781       0.70314930       0.21205028 </v>
   <v>       0.30706935       0.86560866       0.16571811 </v>
   <v>       0.43667787       0.62239018       0.43420981 </v>
   <v>       0.81740690       0.03785785       0.38937532 </v>
   <v>       0.93550662       0.29655766       0.87592511 </v>
   <v>       0.93741681       0.79472307       0.87588459 </v>
   <v>       0.06562188       0.04086620       0.87586468 </v>
   <v>       0.43726382       0.95483537       0.47802255 </v>
   <v>       0.80679374       0.36456799       0.16614082 </v>
   <v>       0.06216147       0.87160701       0.43426652 </v>
   <v>       0.93692295       0.12181866       0.52106827 </v>
   <v>       0.19149569       0.78732334       0.38923049 </v>
   <v>       0.56777464       0.70349878       0.21200458 </v>
  </varray>
 </structure>
</modeling>
