 288 288   0   0
  0.1280206E+02  0.9726678E-09  0.8423550E-09  0.4500000E-08  0.2500000E-15
  1.000000000000000E-004
  CAR 
 unknown system                          
      6.86877234     -6.04760076  301      4.31406726      1.00000000
     -6.048  0.0000E+00  0.0000E+00
     -6.005  0.0000E+00  0.0000E+00
     -5.961  0.0000E+00  0.0000E+00
     -5.918  0.0000E+00  0.0000E+00
     -5.875  0.0000E+00  0.0000E+00
     -5.832  0.0000E+00  0.0000E+00
     -5.789  0.0000E+00  0.0000E+00
     -5.746  0.0000E+00  0.0000E+00
     -5.703  0.0000E+00  0.0000E+00
     -5.660  0.0000E+00  0.0000E+00
     -5.617  0.0000E+00  0.0000E+00
     -5.574  0.0000E+00  0.0000E+00
     -5.531  0.0000E+00  0.0000E+00
     -5.488  0.0000E+00  0.0000E+00
     -5.445  0.0000E+00  0.0000E+00
     -5.402  0.2256E-15  0.9714E-17
     -5.359  0.5737E-14  0.2567E-15
     -5.316  0.1230E-12  0.5551E-14
     -5.273  0.2245E-11  0.1022E-12
     -5.230  0.3482E-10  0.1601E-11
     -5.187  0.4588E-09  0.2136E-10
     -5.143  0.5138E-08  0.2426E-09
     -5.100  0.4892E-07  0.2349E-08
     -5.057  0.3961E-06  0.1940E-07
     -5.014  0.2729E-05  0.1369E-06
     -4.971  0.1602E-04  0.8267E-06
     -4.928  0.8022E-04  0.4281E-05
     -4.885  0.3434E-03  0.1907E-04
     -4.842  0.1261E-02  0.7337E-04
     -4.799  0.3994E-02  0.2453E-03
     -4.756  0.1098E-01  0.7181E-03
     -4.713  0.2648E-01  0.1858E-02
     -4.670  0.5668E-01  0.4299E-02
     -4.627  0.1092E+00  0.9000E-02
     -4.584  0.1919E+00  0.1726E-01
     -4.541  0.3111E+00  0.3066E-01
     -4.498  0.4687E+00  0.5083E-01
     -4.455  0.6603E+00  0.7926E-01
     -4.412  0.8744E+00  0.1169E+00
     -4.368  0.1094E+01  0.1640E+00
     -4.325  0.1300E+01  0.2200E+00
     -4.282  0.1473E+01  0.2834E+00
     -4.239  0.1607E+01  0.3526E+00
     -4.196  0.1704E+01  0.4259E+00
     -4.153  0.1781E+01  0.5026E+00
     -4.110  0.1862E+01  0.5828E+00
     -4.067  0.1972E+01  0.6677E+00
     -4.024  0.2127E+01  0.7593E+00
     -3.981  0.2327E+01  0.8595E+00
     -3.938  0.2555E+01  0.9695E+00
     -3.895  0.2781E+01  0.1089E+01
     -3.852  0.2970E+01  0.1217E+01
     -3.809  0.3094E+01  0.1350E+01
     -3.766  0.3143E+01  0.1486E+01
     -3.723  0.3130E+01  0.1620E+01
     -3.680  0.3089E+01  0.1753E+01
     -3.637  0.3064E+01  0.1885E+01
     -3.593  0.3090E+01  0.2018E+01
     -3.550  0.3190E+01  0.2156E+01
     -3.507  0.3363E+01  0.2301E+01
     -3.464  0.3587E+01  0.2455E+01
     -3.421  0.3823E+01  0.2620E+01
     -3.378  0.4027E+01  0.2793E+01
     -3.335  0.4165E+01  0.2972E+01
     -3.292  0.4225E+01  0.3154E+01
     -3.249  0.4218E+01  0.3336E+01
     -3.206  0.4183E+01  0.3516E+01
     -3.163  0.4173E+01  0.3696E+01
     -3.120  0.4236E+01  0.3878E+01
     -3.077  0.4394E+01  0.4067E+01
     -3.034  0.4632E+01  0.4267E+01
     -2.991  0.4908E+01  0.4478E+01
     -2.948  0.5161E+01  0.4700E+01
     -2.905  0.5336E+01  0.4930E+01
     -2.862  0.5408E+01  0.5163E+01
     -2.819  0.5394E+01  0.5395E+01
     -2.775  0.5350E+01  0.5625E+01
     -2.732  0.5341E+01  0.5855E+01
     -2.689  0.5400E+01  0.6088E+01
     -2.646  0.5511E+01  0.6325E+01
     -2.603  0.5612E+01  0.6567E+01
     -2.560  0.5651E+01  0.6810E+01
     -2.517  0.5625E+01  0.7052E+01
     -2.474  0.5601E+01  0.7293E+01
     -2.431  0.5680E+01  0.7538E+01
     -2.388  0.5941E+01  0.7794E+01
     -2.345  0.6386E+01  0.8069E+01
     -2.302  0.6915E+01  0.8366E+01
     -2.259  0.7351E+01  0.8683E+01
     -2.216  0.7531E+01  0.9007E+01
     -2.173  0.7407E+01  0.9326E+01
     -2.130  0.7094E+01  0.9631E+01
     -2.087  0.6815E+01  0.9925E+01
     -2.044  0.6778E+01  0.1022E+02
     -2.000  0.7074E+01  0.1052E+02
     -1.957  0.7632E+01  0.1085E+02
     -1.914  0.8261E+01  0.1121E+02
     -1.871  0.8741E+01  0.1158E+02
     -1.828  0.8939E+01  0.1197E+02
     -1.785  0.8870E+01  0.1235E+02
     -1.742  0.8684E+01  0.1272E+02
     -1.699  0.8563E+01  0.1309E+02
     -1.656  0.8615E+01  0.1346E+02
     -1.613  0.8841E+01  0.1384E+02
     -1.570  0.9162E+01  0.1424E+02
     -1.527  0.9494E+01  0.1465E+02
     -1.484  0.9791E+01  0.1507E+02
     -1.441  0.1005E+02  0.1550E+02
     -1.398  0.1026E+02  0.1594E+02
     -1.355  0.1045E+02  0.1639E+02
     -1.312  0.1062E+02  0.1685E+02
     -1.269  0.1085E+02  0.1732E+02
     -1.225  0.1128E+02  0.1780E+02
     -1.182  0.1200E+02  0.1832E+02
     -1.139  0.1299E+02  0.1888E+02
     -1.096  0.1404E+02  0.1948E+02
     -1.053  0.1488E+02  0.2012E+02
     -1.010  0.1531E+02  0.2078E+02
     -0.967  0.1542E+02  0.2145E+02
     -0.924  0.1553E+02  0.2211E+02
     -0.881  0.1605E+02  0.2280E+02
     -0.838  0.1719E+02  0.2355E+02
     -0.795  0.1895E+02  0.2436E+02
     -0.752  0.2116E+02  0.2527E+02
     -0.709  0.2377E+02  0.2630E+02
     -0.666  0.2685E+02  0.2745E+02
     -0.623  0.3055E+02  0.2877E+02
     -0.580  0.3481E+02  0.3027E+02
     -0.537  0.3929E+02  0.3196E+02
     -0.494  0.4344E+02  0.3383E+02
     -0.451  0.4685E+02  0.3584E+02
     -0.407  0.4941E+02  0.3797E+02
     -0.364  0.5132E+02  0.4018E+02
     -0.321  0.5291E+02  0.4246E+02
     -0.278  0.5436E+02  0.4480E+02
     -0.235  0.5567E+02  0.4720E+02
     -0.192  0.5669E+02  0.4964E+02
     -0.149  0.5729E+02  0.5210E+02
     -0.106  0.5753E+02  0.5458E+02
     -0.063  0.5761E+02  0.5706E+02
     -0.020  0.5782E+02  0.5955E+02
      0.023  0.5842E+02  0.6207E+02
      0.066  0.5961E+02  0.6463E+02
      0.109  0.6149E+02  0.6728E+02
      0.152  0.6406E+02  0.7004E+02
      0.195  0.6716E+02  0.7293E+02
      0.238  0.7047E+02  0.7596E+02
      0.281  0.7370E+02  0.7914E+02
      0.324  0.7664E+02  0.8244E+02
      0.368  0.7923E+02  0.8585E+02
      0.411  0.8148E+02  0.8936E+02
      0.454  0.8339E+02  0.9295E+02
      0.497  0.8493E+02  0.9660E+02
      0.540  0.8605E+02  0.1003E+03
      0.583  0.8668E+02  0.1040E+03
      0.626  0.8679E+02  0.1078E+03
      0.669  0.8640E+02  0.1115E+03
      0.712  0.8554E+02  0.1152E+03
      0.755  0.8421E+02  0.1188E+03
      0.798  0.8245E+02  0.1224E+03
      0.841  0.8045E+02  0.1258E+03
      0.884  0.7854E+02  0.1292E+03
      0.927  0.7703E+02  0.1325E+03
      0.970  0.7607E+02  0.1358E+03
      1.013  0.7556E+02  0.1390E+03
      1.056  0.7524E+02  0.1423E+03
      1.099  0.7485E+02  0.1455E+03
      1.143  0.7429E+02  0.1487E+03
      1.186  0.7368E+02  0.1519E+03
      1.229  0.7326E+02  0.1550E+03
      1.272  0.7319E+02  0.1582E+03
      1.315  0.7338E+02  0.1613E+03
      1.358  0.7348E+02  0.1645E+03
      1.401  0.7313E+02  0.1677E+03
      1.444  0.7218E+02  0.1708E+03
      1.487  0.7084E+02  0.1738E+03
      1.530  0.6960E+02  0.1768E+03
      1.573  0.6900E+02  0.1798E+03
      1.616  0.6935E+02  0.1828E+03
      1.659  0.7067E+02  0.1858E+03
      1.702  0.7267E+02  0.1889E+03
      1.745  0.7500E+02  0.1922E+03
      1.788  0.7732E+02  0.1955E+03
      1.831  0.7947E+02  0.1989E+03
      1.874  0.8145E+02  0.2024E+03
      1.917  0.8327E+02  0.2060E+03
      1.961  0.8499E+02  0.2097E+03
      2.004  0.8663E+02  0.2134E+03
      2.047  0.8818E+02  0.2172E+03
      2.090  0.8967E+02  0.2211E+03
      2.133  0.9113E+02  0.2250E+03
      2.176  0.9259E+02  0.2290E+03
      2.219  0.9411E+02  0.2330E+03
      2.262  0.9581E+02  0.2371E+03
      2.305  0.9795E+02  0.2414E+03
      2.348  0.1008E+03  0.2457E+03
      2.391  0.1044E+03  0.2502E+03
      2.434  0.1086E+03  0.2549E+03
      2.477  0.1131E+03  0.2597E+03
      2.520  0.1175E+03  0.2648E+03
      2.563  0.1212E+03  0.2700E+03
      2.606  0.1242E+03  0.2754E+03
      2.649  0.1261E+03  0.2808E+03
      2.692  0.1272E+03  0.2863E+03
      2.736  0.1278E+03  0.2918E+03
      2.779  0.1284E+03  0.2973E+03
      2.822  0.1296E+03  0.3029E+03
      2.865  0.1319E+03  0.3086E+03
      2.908  0.1350E+03  0.3144E+03
      2.951  0.1380E+03  0.3203E+03
      2.994  0.1397E+03  0.3263E+03
      3.037  0.1386E+03  0.3323E+03
      3.080  0.1340E+03  0.3381E+03
      3.123  0.1264E+03  0.3435E+03
      3.166  0.1173E+03  0.3486E+03
      3.209  0.1084E+03  0.3532E+03
      3.252  0.1011E+03  0.3576E+03
      3.295  0.9606E+02  0.3617E+03
      3.338  0.9330E+02  0.3657E+03
      3.381  0.9230E+02  0.3697E+03
      3.424  0.9222E+02  0.3737E+03
      3.467  0.9216E+02  0.3776E+03
      3.511  0.9143E+02  0.3816E+03
      3.554  0.8977E+02  0.3854E+03
      3.597  0.8752E+02  0.3892E+03
      3.640  0.8549E+02  0.3929E+03
      3.683  0.8456E+02  0.3965E+03
      3.726  0.8527E+02  0.4002E+03
      3.769  0.8749E+02  0.4040E+03
      3.812  0.9058E+02  0.4079E+03
      3.855  0.9369E+02  0.4119E+03
      3.898  0.9630E+02  0.4160E+03
      3.941  0.9833E+02  0.4203E+03
      3.984  0.9996E+02  0.4246E+03
      4.027  0.1013E+03  0.4289E+03
      4.070  0.1024E+03  0.4334E+03
      4.113  0.1028E+03  0.4378E+03
      4.156  0.1026E+03  0.4422E+03
      4.199  0.1017E+03  0.4466E+03
      4.242  0.1005E+03  0.4509E+03
      4.285  0.9934E+02  0.4552E+03
      4.329  0.9858E+02  0.4594E+03
      4.372  0.9838E+02  0.4637E+03
      4.415  0.9869E+02  0.4679E+03
      4.458  0.9927E+02  0.4722E+03
      4.501  0.9974E+02  0.4765E+03
      4.544  0.9980E+02  0.4808E+03
      4.587  0.9937E+02  0.4851E+03
      4.630  0.9866E+02  0.4893E+03
      4.673  0.9813E+02  0.4935E+03
      4.716  0.9827E+02  0.4978E+03
      4.759  0.9937E+02  0.5020E+03
      4.802  0.1014E+03  0.5064E+03
      4.845  0.1040E+03  0.5109E+03
      4.888  0.1065E+03  0.5155E+03
      4.931  0.1084E+03  0.5201E+03
      4.974  0.1090E+03  0.5248E+03
      5.017  0.1081E+03  0.5295E+03
      5.060  0.1051E+03  0.5340E+03
      5.104  0.9946E+02  0.5383E+03
      5.147  0.9098E+02  0.5422E+03
      5.190  0.7960E+02  0.5456E+03
      5.233  0.6586E+02  0.5485E+03
      5.276  0.5091E+02  0.5507E+03
      5.319  0.3633E+02  0.5522E+03
      5.362  0.2367E+02  0.5532E+03
      5.405  0.1394E+02  0.5538E+03
      5.448  0.7363E+01  0.5542E+03
      5.491  0.3464E+01  0.5543E+03
      5.534  0.1443E+01  0.5544E+03
      5.577  0.5303E+00  0.5544E+03
      5.620  0.1712E+00  0.5544E+03
      5.663  0.4846E-01  0.5544E+03
      5.706  0.1199E-01  0.5544E+03
      5.749  0.2588E-02  0.5544E+03
      5.792  0.4867E-03  0.5544E+03
      5.835  0.7956E-04  0.5544E+03
      5.879  0.1129E-04  0.5544E+03
      5.922  0.1389E-05  0.5544E+03
      5.965  0.1479E-06  0.5544E+03
      6.008  0.1361E-07  0.5544E+03
      6.051  0.1080E-08  0.5544E+03
      6.094  0.7384E-10  0.5544E+03
      6.137  0.4343E-11  0.5544E+03
      6.180  0.2188E-12  0.5544E+03
      6.223  0.8961E-14  0.5544E+03
      6.266  0.2579E-15  0.5544E+03
      6.309  0.0000E+00  0.5544E+03
      6.352  0.0000E+00  0.5544E+03
      6.395  0.0000E+00  0.5544E+03
      6.438  0.0000E+00  0.5544E+03
      6.481  0.0000E+00  0.5544E+03
      6.524  0.0000E+00  0.5544E+03
      6.567  0.0000E+00  0.5544E+03
      6.610  0.0000E+00  0.5544E+03
      6.653  0.0000E+00  0.5544E+03
      6.697  0.0000E+00  0.5544E+03
      6.740  0.0000E+00  0.5544E+03
      6.783  0.0000E+00  0.5544E+03
      6.826  0.0000E+00  0.5544E+03
      6.869  0.0000E+00  0.5544E+03
