<?xml version="1.0" encoding="ISO-8859-1"?>
<modeling>
 <generator>
  <i name="program" type="string">vasp </i>
  <i name="version" type="string">5.4.4.18Apr17-6-g9f103f2a35  </i>
  <i name="subversion" type="string">(build Sep 27 2018 12:46:37) complex + VL-xray_ parallel </i>
  <i name="platform" type="string">LLNL_Quartz_ifc </i>
  <i name="date" type="string">2021 09 26 </i>
  <i name="time" type="string">22:04:09 </i>
 </generator>
 <incar>
  <i type="int" name="ISTART">     2</i>
  <i type="string" name="PREC">accurate</i>
  <i type="string" name="ALGO"> Fast</i>
  <i type="int" name="ICHARG">     2</i>
  <i type="int" name="INIWAV">     1</i>
  <i type="int" name="NELM">   100</i>
  <i type="int" name="NELMIN">     4</i>
  <i type="int" name="IBRION">     2</i>
  <i name="EDIFF">      0.00000100</i>
  <i type="int" name="NSW">     5</i>
  <i type="int" name="ISIF">     2</i>
  <i type="int" name="ISYM">     2</i>
  <i name="ENCUT">    450.00000000</i>
  <i name="POTIM">      0.25000000</i>
  <i type="string" name="LREAL"> Auto</i>
  <i type="int" name="ISMEAR">     0</i>
  <i name="SIGMA">      0.15000000</i>
  <i type="logical" name="LWAVE"> F  </i>
  <i type="logical" name="LCHARG"> F  </i>
  <i type="int" name="ICORELEVEL">     0</i>
  <i type="int" name="CLNT">     1</i>
  <i type="int" name="CLN">     1</i>
  <i type="int" name="INCAR     ">     0</i>
  <i name="CLZ">      0.00000000</i>
  <v type="int" name="KPOINT_BSE">    -1     0     0     0</v>
  <i type="int" name="NELM">   100</i>
 </incar>
 <structure name="primitive_cell" >
  <crystal>
   <varray name="basis" >
    <v>       9.72667804       0.00000000       0.00000000 </v>
    <v>       0.00000000       8.42355028       0.00000000 </v>
    <v>       0.00000000       0.00000000      45.00000000 </v>
   </varray>
   <i name="volume">   3686.99226691 </i>
   <varray name="rec_basis" >
    <v>       0.10281002       0.00000000       0.00000000 </v>
    <v>       0.00000000       0.11871479       0.00000000 </v>
    <v>       0.00000000       0.00000000       0.02222222 </v>
   </varray>
  </crystal>
  <varray name="positions" >
   <v>       0.06178807       0.03128860       0.12437557 </v>
   <v>       0.18307975       0.11259966       0.16656621 </v>
   <v>       0.05603384      -0.13405098       0.16683498 </v>
   <v>       0.18617578      -0.21140936       0.12427408 </v>
   <v>      -0.06637392      -0.21124580       0.12464357 </v>
   <v>      -0.18661775       0.03172246       0.12436093 </v>
   <v>      -0.06877969       0.11481706       0.16731184 </v>
   <v>       0.31109255       0.03169470       0.12437602 </v>
   <v>       0.18468170       0.28770556       0.12453669 </v>
   <v>      -0.06554606       0.28787101       0.12439197 </v>
   <v>       0.30559734      -0.13412564       0.16613520 </v>
   <v>       0.05491118       0.36578734       0.16678034 </v>
   <v>      -0.19309491      -0.13569362       0.16724786 </v>
   <v>       0.43201844       0.11296505       0.16668170 </v>
   <v>       0.30713851       0.36389011       0.16697876 </v>
   <v>      -0.05962286      -0.04459142       0.21163478 </v>
   <v>       0.43453434      -0.21192325       0.12444507 </v>
   <v>       0.18248819      -0.38588537       0.16675573 </v>
   <v>       0.18908668      -0.04328090       0.21208905 </v>
   <v>       0.06490513       0.20552151       0.21172549 </v>
   <v>      -0.06730757      -0.38681821       0.16682056 </v>
   <v>      -0.31556472      -0.21103364       0.12477572 </v>
   <v>       0.06153664      -0.46892087       0.12438535 </v>
   <v>       0.43419245       0.28748411       0.12457740 </v>
   <v>      -0.19484642       0.36666719       0.16648398 </v>
   <v>      -0.31758783       0.11453671       0.16722025 </v>
   <v>      -0.31368882       0.28855760       0.12428346 </v>
   <v>       0.06659392      -0.29427027       0.21171827 </v>
   <v>      -0.18528374       0.20499945       0.21162175 </v>
   <v>      -0.18703204      -0.46936934       0.12433444 </v>
   <v>      -0.43735180       0.03266997       0.12453951 </v>
   <v>       0.31196131      -0.46800872       0.12429676 </v>
   <v>       0.31552566       0.20577123       0.21213633 </v>
   <v>      -0.44425856      -0.13494873       0.16665384 </v>
   <v>      -0.18383524      -0.29448763       0.21172700 </v>
   <v>       0.43133131      -0.38561888       0.16667699 </v>
   <v>      -0.31082070      -0.04381996       0.21198640 </v>
   <v>       0.31472102      -0.29551008       0.21248628 </v>
   <v>       0.43948237      -0.04245806       0.21236437 </v>
   <v>      -0.31759149      -0.38766243       0.16674584 </v>
   <v>      -0.06046530       0.45648564       0.21204909 </v>
   <v>       0.18902522       0.45684921       0.21187800 </v>
   <v>      -0.44369044       0.36578309       0.16673426 </v>
   <v>       0.05904322       0.03848218       0.25617608 </v>
   <v>       0.18421685      -0.21048678       0.25600764 </v>
   <v>       0.30981657       0.03908749       0.25576136 </v>
   <v>      -0.06599839      -0.21046562       0.25604836 </v>
   <v>      -0.43387611       0.20360913       0.21193192 </v>
   <v>      -0.19081573       0.03853104       0.25613979 </v>
   <v>      -0.43728039      -0.47007901       0.12491921 </v>
   <v>       0.18415486       0.28954273       0.25602350 </v>
   <v>      -0.06565119       0.28972158       0.25606634 </v>
   <v>      -0.31132279       0.45638440       0.21212524 </v>
   <v>       0.43969812       0.45673856       0.21184346 </v>
   <v>      -0.43501263      -0.29505888       0.21170905 </v>
   <v>       0.05990245      -0.46079443       0.25603517 </v>
   <v>       0.43436954      -0.21004887       0.25614377 </v>
   <v>      -0.31576340      -0.21019355       0.25605584 </v>
   <v>       0.43364147       0.28956961       0.25608153 </v>
   <v>      -0.31583820       0.28993009       0.25613942 </v>
   <v>       0.30895312      -0.46146762       0.25561526 </v>
   <v>      -0.19071728      -0.46170750       0.25616639 </v>
   <v>      -0.44055602       0.03898751       0.25592161 </v>
   <v>       0.06881567      -0.12503409       0.30047925 </v>
   <v>      -0.05552455       0.12410269       0.30041132 </v>
   <v>       0.19416115       0.12487138       0.30053047 </v>
   <v>      -0.18099022      -0.12501167       0.30041124 </v>
   <v>       0.31889269      -0.12510164       0.30043481 </v>
   <v>       0.06895038       0.37500248       0.30049350 </v>
   <v>      -0.44084511      -0.46110908       0.25594807 </v>
   <v>      -0.05623450      -0.37555171       0.30038821 </v>
   <v>      -0.30550986       0.12466899       0.30045416 </v>
   <v>       0.19404425      -0.37545329       0.30053666 </v>
   <v>      -0.18087581       0.37498932       0.30041176 </v>
   <v>       0.44391079       0.12442204       0.30051451 </v>
   <v>       0.31892844       0.37461326       0.30044480 </v>
   <v>      -0.30599562      -0.37498726       0.30041664 </v>
   <v>      -0.43076745      -0.12505400       0.30051848 </v>
   <v>       0.44418444      -0.37510394       0.30054819 </v>
   <v>      -0.43082861       0.37492122       0.30052668 </v>
   <v>       0.18375443      -0.04727048       0.34505697 </v>
   <v>      -0.06581340      -0.04777288       0.34498060 </v>
   <v>       0.05929958       0.20263835       0.34499542 </v>
   <v>       0.05910586      -0.29712141       0.34508596 </v>
   <v>       0.30956252       0.20283575       0.34509599 </v>
   <v>      -0.19073412       0.20323392       0.34504074 </v>
   <v>       0.30940829      -0.29696923       0.34501784 </v>
   <v>       0.43376590      -0.04745467       0.34509756 </v>
   <v>      -0.19132560      -0.29733926       0.34507024 </v>
   <v>      -0.31625642      -0.04755301       0.34505162 </v>
   <v>       0.18396576       0.45280453       0.34507243 </v>
   <v>      -0.06583356       0.45257700       0.34506204 </v>
   <v>      -0.44058789       0.20316870       0.34512335 </v>
   <v>       0.43359842       0.45263430       0.34509809 </v>
   <v>      -0.31692153       0.45267777       0.34512095 </v>
   <v>       0.06549954       0.03694513      -0.12470207 </v>
   <v>      -0.44038701      -0.29730283       0.34501949 </v>
   <v>       0.18789885      -0.20581251      -0.12440540 </v>
   <v>      -0.06250974      -0.20704315      -0.12479095 </v>
   <v>      -0.18743304       0.03872768      -0.12455588 </v>
   <v>       0.31481412       0.03908214      -0.12445581 </v>
   <v>       0.18872628       0.29369193      -0.12427140 </v>
   <v>      -0.06453382       0.29569831      -0.12476353 </v>
   <v>       0.06646897       0.03765802       0.38907875 </v>
   <v>       0.43687722      -0.20567904      -0.12434088 </v>
   <v>       0.06498884      -0.46183581      -0.12449889 </v>
   <v>      -0.31544147      -0.20547253      -0.12456414 </v>
   <v>       0.43695861       0.29471195      -0.12410768 </v>
   <v>      -0.31311169       0.29594110      -0.12429379 </v>
   <v>      -0.05862921      -0.21245678       0.38905532 </v>
   <v>      -0.18362616       0.03752826       0.38907864 </v>
   <v>       0.19126077      -0.21225312       0.38915064 </v>
   <v>      -0.05869817       0.28751332       0.38907078 </v>
   <v>       0.31634208       0.03768669       0.38913116 </v>
   <v>       0.19129945       0.28770542       0.38911806 </v>
   <v>      -0.18648662      -0.46244380      -0.12444333 </v>
   <v>       0.31490981      -0.46209774      -0.12429465 </v>
   <v>      -0.43671558       0.03765303      -0.12419314 </v>
   <v>      -0.30862964      -0.21247405       0.38904441 </v>
   <v>       0.06654786      -0.46231320       0.38903216 </v>
   <v>      -0.30865623       0.28748346       0.38899806 </v>
   <v>       0.44132781      -0.21230595       0.38911426 </v>
   <v>       0.44141006       0.28764301       0.38905939 </v>
   <v>      -0.18360091      -0.46257657       0.38911538 </v>
   <v>      -0.43357898       0.03759020       0.38909852 </v>
   <v>       0.31634417      -0.46249713       0.38906819 </v>
   <v>      -0.43627566      -0.46139993      -0.12437975 </v>
   <v>      -0.05837298      -0.03695900      -0.16642828 </v>
   <v>       0.19120397      -0.03737673      -0.16669930 </v>
   <v>       0.06642869       0.21333924      -0.16635021 </v>
   <v>       0.06563399      -0.28487731      -0.16640072 </v>
   <v>      -0.18223973       0.21393531      -0.16664969 </v>
   <v>       0.31658314       0.21157329      -0.16667218 </v>
   <v>      -0.43346348      -0.46238032       0.38906936 </v>
   <v>      -0.18314203      -0.28571227      -0.16695090 </v>
   <v>      -0.30833830      -0.03866866      -0.16687662 </v>
   <v>       0.31758990      -0.28770091      -0.16721905 </v>
   <v>      -0.05849023       0.46269706      -0.16647566 </v>
   <v>       0.44260168      -0.03827332      -0.16693961 </v>
   <v>       0.19166001       0.46264969      -0.16682481 </v>
   <v>       0.06252656      -0.12945488       0.43444371 </v>
   <v>       0.18768714       0.12024258       0.43443580 </v>
   <v>      -0.06289763       0.12063564       0.43458039 </v>
   <v>      -0.43426621       0.21262095      -0.16702774 </v>
   <v>      -0.30801635       0.46098001      -0.16693362 </v>
   <v>       0.44166935       0.46228865      -0.16687802 </v>
   <v>      -0.43369771      -0.28747004      -0.16692328 </v>
   <v>      -0.18788624      -0.12880782       0.43440253 </v>
   <v>       0.31222607      -0.12922253       0.43441753 </v>
   <v>       0.06199051       0.37070413       0.43440835 </v>
   <v>      -0.06293282      -0.37938279       0.43443290 </v>
   <v>       0.18745441      -0.37954438       0.43447971 </v>
   <v>      -0.31251535       0.12018343       0.43445034 </v>
   <v>       0.43712249       0.12045066       0.43443740 </v>
   <v>      -0.18745949       0.37176809       0.43435826 </v>
   <v>       0.31199974       0.37072620       0.43446796 </v>
   <v>      -0.31222924      -0.37955375       0.43441803 </v>
   <v>       0.43693458      -0.37951685       0.43446339 </v>
   <v>      -0.43767571      -0.12912486       0.43448226 </v>
   <v>      -0.43759394       0.37121463       0.43441195 </v>
   <v>       0.06053979      -0.12779183      -0.21179196 </v>
   <v>       0.18526785       0.12124746      -0.21164417 </v>
   <v>      -0.06427866       0.12242513      -0.21171257 </v>
   <v>      -0.18993967      -0.12813043      -0.21183063 </v>
   <v>       0.31144873      -0.12897685      -0.21197186 </v>
   <v>       0.06087493       0.37290198      -0.21188387 </v>
   <v>       0.43541140       0.12099577      -0.21137046 </v>
   <v>       0.18533969      -0.37973317      -0.21197342 </v>
   <v>      -0.06555059      -0.37776211      -0.21199922 </v>
   <v>      -0.31614618       0.12133010      -0.21174662 </v>
   <v>       0.31069416       0.37162052      -0.21177898 </v>
   <v>      -0.18918498       0.37238085      -0.21184262 </v>
   <v>       0.43471719      -0.37935592      -0.21165599 </v>
   <v>      -0.43944255      -0.12819225      -0.21171738 </v>
   <v>      -0.31470302      -0.37880747      -0.21193549 </v>
   <v>       0.18704574      -0.04447653       0.47857625 </v>
   <v>      -0.06294254      -0.04467477       0.47864477 </v>
   <v>       0.06232206       0.20573836       0.47863498 </v>
   <v>      -0.43940827       0.37106783      -0.21170049 </v>
   <v>       0.06205938      -0.29453427       0.47846911 </v>
   <v>       0.31230074       0.20581432       0.47862495 </v>
   <v>      -0.18810418       0.20565505       0.47865155 </v>
   <v>      -0.18785149      -0.29432653       0.47854506 </v>
   <v>       0.31229343      -0.29424483       0.47858458 </v>
   <v>      -0.31269539      -0.04417795       0.47859455 </v>
   <v>       0.43721600      -0.04432123       0.47866061 </v>
   <v>       0.18717368       0.45538139       0.47851706 </v>
   <v>      -0.06302914       0.45547693       0.47852293 </v>
   <v>      -0.43780428       0.20576655       0.47860998 </v>
   <v>       0.43714307       0.45565112       0.47862524 </v>
   <v>      -0.31305299       0.45542916       0.47866553 </v>
   <v>      -0.43787062      -0.29414617       0.47861930 </v>
   <v>       0.06561466       0.03918022      -0.25605834 </v>
   <v>      -0.05945801      -0.20989940      -0.25585946 </v>
   <v>       0.19040884      -0.20970159      -0.25599447 </v>
   <v>      -0.18454862       0.04031291      -0.25614252 </v>
   <v>      -0.05996405       0.28941372      -0.25598680 </v>
   <v>       0.31524935       0.04065535      -0.25612325 </v>
   <v>       0.19085163       0.29021827      -0.25602709 </v>
   <v>       0.06565623      -0.46020408      -0.25599843 </v>
   <v>      -0.30986852      -0.20915969      -0.25599711 </v>
   <v>       0.43976774      -0.20978844      -0.25590132 </v>
   <v>      -0.30926052       0.29046783      -0.25608600 </v>
   <v>       0.43996357       0.29100735      -0.25600725 </v>
   <v>       0.31536586      -0.46003147      -0.25579293 </v>
   <v>      -0.18444915      -0.46015927      -0.25606476 </v>
   <v>      -0.43419546       0.04020210      -0.25605203 </v>
   <v>       0.18672232       0.12089340      -0.47877642 </v>
   <v>       0.06157202      -0.12872769      -0.47861732 </v>
   <v>      -0.06361576       0.12138363      -0.47870418 </v>
   <v>       0.31136633      -0.12855564      -0.47867655 </v>
   <v>      -0.18846958      -0.12871159      -0.47867073 </v>
   <v>       0.06120695       0.37170973      -0.47860646 </v>
   <v>       0.18658149      -0.37883118      -0.47870321 </v>
   <v>      -0.06344337      -0.37872062      -0.47869012 </v>
   <v>       0.43664359       0.12137285      -0.47864668 </v>
   <v>      -0.31373950       0.12146225      -0.47866013 </v>
   <v>       0.31127662       0.37136487      -0.47869998 </v>
   <v>      -0.18818308       0.37128545      -0.47870455 </v>
   <v>      -0.43420543      -0.45949287      -0.25608062 </v>
   <v>      -0.31366782      -0.37854581      -0.47872725 </v>
   <v>       0.43659714      -0.37852072      -0.47862520 </v>
   <v>      -0.43832864      -0.12830994      -0.47862993 </v>
   <v>      -0.43856077       0.37137301      -0.47865174 </v>
   <v>       0.18533077      -0.04176410      -0.30032036 </v>
   <v>      -0.06488892      -0.04162860      -0.30040591 </v>
   <v>       0.06009730       0.20790117      -0.30046054 </v>
   <v>       0.06048191      -0.29214466      -0.30047761 </v>
   <v>       0.31026632       0.20816134      -0.30034973 </v>
   <v>      -0.18945702       0.20756900      -0.30035476 </v>
   <v>       0.31047114      -0.29220780      -0.30043267 </v>
   <v>      -0.18991937      -0.29210603      -0.30044267 </v>
   <v>       0.43500097      -0.04185120      -0.30047917 </v>
   <v>      -0.31495265      -0.04192807      -0.30037084 </v>
   <v>       0.18477896       0.45816898      -0.30042581 </v>
   <v>      -0.06496664       0.45819836      -0.30041259 </v>
   <v>      -0.43984690       0.20793186      -0.30039095 </v>
   <v>       0.43509069       0.45774666      -0.30048446 </v>
   <v>      -0.31466783       0.45792683      -0.30038410 </v>
   <v>       0.18679440      -0.04265741      -0.43458118 </v>
   <v>      -0.06297461      -0.04270360      -0.43457628 </v>
   <v>      -0.43968868      -0.29229514      -0.30041002 </v>
   <v>       0.06334357       0.20659940      -0.43434809 </v>
   <v>       0.06177811      -0.29365219      -0.43448700 </v>
   <v>       0.31129983       0.20650397      -0.43459725 </v>
   <v>      -0.18872979       0.20667415      -0.43461662 </v>
   <v>       0.31188897      -0.29293472      -0.43461233 </v>
   <v>      -0.18853351      -0.29330898      -0.43453883 </v>
   <v>      -0.31217928      -0.04259697      -0.43463514 </v>
   <v>       0.43679514      -0.04281494      -0.43457503 </v>
   <v>       0.18686014       0.45729015      -0.43458635 </v>
   <v>      -0.06297217       0.45700578      -0.43445834 </v>
   <v>      -0.43750641       0.20719752      -0.43452857 </v>
   <v>       0.43674965       0.45786878      -0.43462288 </v>
   <v>      -0.31300458       0.45731485      -0.43455087 </v>
   <v>      -0.43794908      -0.29288612      -0.43457001 </v>
   <v>       0.06620422      -0.12577842      -0.34509350 </v>
   <v>      -0.05837462       0.12498170      -0.34510664 </v>
   <v>       0.19145047       0.12507114      -0.34508409 </v>
   <v>      -0.18367478      -0.12539734      -0.34505349 </v>
   <v>       0.31670790      -0.12498860      -0.34515236 </v>
   <v>       0.06641215       0.37490454      -0.34506793 </v>
   <v>      -0.05852481      -0.37489538      -0.34510200 </v>
   <v>       0.19126825      -0.37501758      -0.34504545 </v>
   <v>      -0.30871612       0.12490036      -0.34506489 </v>
   <v>      -0.18366914       0.37485979      -0.34504860 </v>
   <v>       0.31646768       0.37480963      -0.34503932 </v>
   <v>       0.44241017       0.12455375      -0.34533696 </v>
   <v>      -0.30859330      -0.37498366      -0.34505249 </v>
   <v>      -0.43381611      -0.12565920      -0.34508801 </v>
   <v>       0.44138968      -0.37526681      -0.34511392 </v>
   <v>      -0.43347945       0.37439959      -0.34515193 </v>
   <v>       0.05848929       0.03774148      -0.38909050 </v>
   <v>       0.18341887      -0.21194751      -0.38913654 </v>
   <v>      -0.06620988      -0.21237166      -0.38910491 </v>
   <v>       0.30867373       0.03800505      -0.38906566 </v>
   <v>       0.18400008       0.28802759      -0.38921724 </v>
   <v>      -0.06640163       0.28783049      -0.38922439 </v>
   <v>      -0.19094981       0.03810571      -0.38908454 </v>
   <v>       0.43374305      -0.21181089      -0.38911317 </v>
   <v>       0.05859293      -0.46210236      -0.38908693 </v>
   <v>      -0.31638767      -0.21197032      -0.38912482 </v>
   <v>       0.43366340       0.28797419      -0.38913704 </v>
   <v>      -0.31647402       0.28815397      -0.38912231 </v>
   <v>       0.30876998      -0.46206304      -0.38910136 </v>
   <v>      -0.44147230       0.03811152      -0.38910302 </v>
   <v>      -0.19133680      -0.46216281      -0.38909463 </v>
   <v>      -0.44136646      -0.46163921      -0.38920549 </v>
  </varray>
 </structure>
 <varray name="primitive_index" >
  <v type="int" >        1 </v>
  <v type="int" >      125 </v>
  <v type="int" >       60 </v>
  <v type="int" >       83 </v>
  <v type="int" >       44 </v>
  <v type="int" >      202 </v>
  <v type="int" >       26 </v>
  <v type="int" >      256 </v>
  <v type="int" >      111 </v>
  <v type="int" >      155 </v>
  <v type="int" >      277 </v>
  <v type="int" >       51 </v>
  <v type="int" >      102 </v>
  <v type="int" >      182 </v>
  <v type="int" >      108 </v>
  <v type="int" >      212 </v>
  <v type="int" >      170 </v>
  <v type="int" >       20 </v>
  <v type="int" >      146 </v>
  <v type="int" >       50 </v>
  <v type="int" >      104 </v>
  <v type="int" >      163 </v>
  <v type="int" >      176 </v>
  <v type="int" >      117 </v>
  <v type="int" >      284 </v>
  <v type="int" >      166 </v>
  <v type="int" >      145 </v>
  <v type="int" >      250 </v>
  <v type="int" >      167 </v>
  <v type="int" >      205 </v>
  <v type="int" >      114 </v>
  <v type="int" >       91 </v>
  <v type="int" >      278 </v>
  <v type="int" >      192 </v>
  <v type="int" >      213 </v>
  <v type="int" >      174 </v>
  <v type="int" >       92 </v>
  <v type="int" >      276 </v>
  <v type="int" >      229 </v>
  <v type="int" >       97 </v>
  <v type="int" >      175 </v>
  <v type="int" >      189 </v>
  <v type="int" >       30 </v>
  <v type="int" >      185 </v>
  <v type="int" >      200 </v>
  <v type="int" >      179 </v>
  <v type="int" >       52 </v>
  <v type="int" >      103 </v>
  <v type="int" >       24 </v>
  <v type="int" >      283 </v>
  <v type="int" >      112 </v>
  <v type="int" >      127 </v>
  <v type="int" >      261 </v>
  <v type="int" >      139 </v>
  <v type="int" >      243 </v>
  <v type="int" >      168 </v>
  <v type="int" >      137 </v>
  <v type="int" >      118 </v>
  <v type="int" >      265 </v>
  <v type="int" >       58 </v>
  <v type="int" >      275 </v>
  <v type="int" >       81 </v>
  <v type="int" >      221 </v>
  <v type="int" >      214 </v>
  <v type="int" >      135 </v>
  <v type="int" >      215 </v>
  <v type="int" >       72 </v>
  <v type="int" >       98 </v>
  <v type="int" >      226 </v>
  <v type="int" >       28 </v>
  <v type="int" >      178 </v>
  <v type="int" >      109 </v>
  <v type="int" >      263 </v>
  <v type="int" >      220 </v>
  <v type="int" >      159 </v>
  <v type="int" >      242 </v>
  <v type="int" >      130 </v>
  <v type="int" >      210 </v>
  <v type="int" >      101 </v>
  <v type="int" >      171 </v>
  <v type="int" >      258 </v>
  <v type="int" >      194 </v>
  <v type="int" >       47 </v>
  <v type="int" >      216 </v>
  <v type="int" >       86 </v>
  <v type="int" >      207 </v>
  <v type="int" >      208 </v>
  <v type="int" >      172 </v>
  <v type="int" >       73 </v>
  <v type="int" >       25 </v>
  <v type="int" >      116 </v>
  <v type="int" >       12 </v>
  <v type="int" >      219 </v>
  <v type="int" >      206 </v>
  <v type="int" >      279 </v>
  <v type="int" >      282 </v>
  <v type="int" >      164 </v>
  <v type="int" >      268 </v>
  <v type="int" >      281 </v>
  <v type="int" >       14 </v>
  <v type="int" >      245 </v>
  <v type="int" >      120 </v>
  <v type="int" >      280 </v>
  <v type="int" >      124 </v>
  <v type="int" >      150 </v>
  <v type="int" >      266 </v>
  <v type="int" >       29 </v>
  <v type="int" >      255 </v>
  <v type="int" >      191 </v>
  <v type="int" >      190 </v>
  <v type="int" >       48 </v>
  <v type="int" >       62 </v>
  <v type="int" >       13 </v>
  <v type="int" >      165 </v>
  <v type="int" >      248 </v>
  <v type="int" >      231 </v>
  <v type="int" >       18 </v>
  <v type="int" >      161 </v>
  <v type="int" >       45 </v>
  <v type="int" >      273 </v>
  <v type="int" >       84 </v>
  <v type="int" >      264 </v>
  <v type="int" >        4 </v>
  <v type="int" >      123 </v>
  <v type="int" >       16 </v>
  <v type="int" >       67 </v>
  <v type="int" >       64 </v>
  <v type="int" >       17 </v>
  <v type="int" >        7 </v>
  <v type="int" >      259 </v>
  <v type="int" >      134 </v>
  <v type="int" >        6 </v>
  <v type="int" >       39 </v>
  <v type="int" >      222 </v>
  <v type="int" >      253 </v>
  <v type="int" >       88 </v>
  <v type="int" >        5 </v>
  <v type="int" >       36 </v>
  <v type="int" >      110 </v>
  <v type="int" >      181 </v>
  <v type="int" >      204 </v>
  <v type="int" >      160 </v>
  <v type="int" >      158 </v>
  <v type="int" >      143 </v>
  <v type="int" >       82 </v>
  <v type="int" >       74 </v>
  <v type="int" >      241 </v>
  <v type="int" >      235 </v>
  <v type="int" >       23 </v>
  <v type="int" >      218 </v>
  <v type="int" >      131 </v>
  <v type="int" >      238 </v>
  <v type="int" >      257 </v>
  <v type="int" >      201 </v>
  <v type="int" >       80 </v>
  <v type="int" >      113 </v>
  <v type="int" >      232 </v>
  <v type="int" >      249 </v>
  <v type="int" >       69 </v>
  <v type="int" >      251 </v>
  <v type="int" >      197 </v>
  <v type="int" >        3 </v>
  <v type="int" >      149 </v>
  <v type="int" >       55 </v>
  <v type="int" >      224 </v>
  <v type="int" >      254 </v>
  <v type="int" >       49 </v>
  <v type="int" >      272 </v>
  <v type="int" >      132 </v>
  <v type="int" >      188 </v>
  <v type="int" >      138 </v>
  <v type="int" >       57 </v>
  <v type="int" >      184 </v>
  <v type="int" >       33 </v>
  <v type="int" >       66 </v>
  <v type="int" >       94 </v>
  <v type="int" >      236 </v>
  <v type="int" >      223 </v>
  <v type="int" >      106 </v>
  <v type="int" >      157 </v>
  <v type="int" >      230 </v>
  <v type="int" >       21 </v>
  <v type="int" >      234 </v>
  <v type="int" >       99 </v>
  <v type="int" >       75 </v>
  <v type="int" >      105 </v>
  <v type="int" >      244 </v>
  <v type="int" >      269 </v>
  <v type="int" >      237 </v>
  <v type="int" >      156 </v>
  <v type="int" >      199 </v>
  <v type="int" >      169 </v>
  <v type="int" >        9 </v>
  <v type="int" >       46 </v>
  <v type="int" >      262 </v>
  <v type="int" >      151 </v>
  <v type="int" >      187 </v>
  <v type="int" >      239 </v>
  <v type="int" >       11 </v>
  <v type="int" >      211 </v>
  <v type="int" >       43 </v>
  <v type="int" >       31 </v>
  <v type="int" >       19 </v>
  <v type="int" >       71 </v>
  <v type="int" >      288 </v>
  <v type="int" >       87 </v>
  <v type="int" >      267 </v>
  <v type="int" >      140 </v>
  <v type="int" >       27 </v>
  <v type="int" >      286 </v>
  <v type="int" >      144 </v>
  <v type="int" >       10 </v>
  <v type="int" >      107 </v>
  <v type="int" >       68 </v>
  <v type="int" >      203 </v>
  <v type="int" >      119 </v>
  <v type="int" >       34 </v>
  <v type="int" >      183 </v>
  <v type="int" >      177 </v>
  <v type="int" >      270 </v>
  <v type="int" >      195 </v>
  <v type="int" >      252 </v>
  <v type="int" >       77 </v>
  <v type="int" >      247 </v>
  <v type="int" >      173 </v>
  <v type="int" >      225 </v>
  <v type="int" >       37 </v>
  <v type="int" >      274 </v>
  <v type="int" >       63 </v>
  <v type="int" >      233 </v>
  <v type="int" >      154 </v>
  <v type="int" >      141 </v>
  <v type="int" >       38 </v>
  <v type="int" >       54 </v>
  <v type="int" >      246 </v>
  <v type="int" >      152 </v>
  <v type="int" >       53 </v>
  <v type="int" >      193 </v>
  <v type="int" >       76 </v>
  <v type="int" >      162 </v>
  <v type="int" >      129 </v>
  <v type="int" >      133 </v>
  <v type="int" >      287 </v>
  <v type="int" >       65 </v>
  <v type="int" >       93 </v>
  <v type="int" >      271 </v>
  <v type="int" >       90 </v>
  <v type="int" >       32 </v>
  <v type="int" >       95 </v>
  <v type="int" >       56 </v>
  <v type="int" >       59 </v>
  <v type="int" >       42 </v>
  <v type="int" >        8 </v>
  <v type="int" >       70 </v>
  <v type="int" >      228 </v>
  <v type="int" >      186 </v>
  <v type="int" >      196 </v>
  <v type="int" >      122 </v>
  <v type="int" >      121 </v>
  <v type="int" >       79 </v>
  <v type="int" >        2 </v>
  <v type="int" >      198 </v>
  <v type="int" >      240 </v>
  <v type="int" >      153 </v>
  <v type="int" >      209 </v>
  <v type="int" >       35 </v>
  <v type="int" >       85 </v>
  <v type="int" >      285 </v>
  <v type="int" >      227 </v>
  <v type="int" >       89 </v>
  <v type="int" >       40 </v>
  <v type="int" >       78 </v>
  <v type="int" >      142 </v>
  <v type="int" >       15 </v>
  <v type="int" >      136 </v>
  <v type="int" >      148 </v>
  <v type="int" >       61 </v>
  <v type="int" >      100 </v>
  <v type="int" >      217 </v>
  <v type="int" >       96 </v>
  <v type="int" >      126 </v>
  <v type="int" >      180 </v>
  <v type="int" >      115 </v>
  <v type="int" >      147 </v>
  <v type="int" >       41 </v>
  <v type="int" >      260 </v>
  <v type="int" >       22 </v>
  <v type="int" >      128 </v>
 </varray>
 <kpoints>
  <generation param="Gamma">
   <v type="int" name="divisions">       4        4        1 </v>
   <v name="usershift">      0.00000000       0.00000000       0.00000000 </v>
   <v name="genvec1">      0.25000000       0.00000000       0.00000000 </v>
   <v name="genvec2">      0.00000000       0.25000000       0.00000000 </v>
   <v name="genvec3">      0.00000000       0.00000000       1.00000000 </v>
   <v name="shift">      0.00000000       0.00000000       0.00000000 </v>
  </generation>
  <varray name="kpointlist" >
   <v>       0.00000000       0.00000000       0.00000000 </v>
   <v>       0.25000000       0.00000000       0.00000000 </v>
   <v>       0.50000000       0.00000000       0.00000000 </v>
   <v>       0.00000000       0.25000000       0.00000000 </v>
   <v>       0.25000000       0.25000000       0.00000000 </v>
   <v>       0.50000000       0.25000000       0.00000000 </v>
   <v>      -0.25000000       0.25000000       0.00000000 </v>
   <v>       0.00000000       0.50000000       0.00000000 </v>
   <v>       0.25000000       0.50000000       0.00000000 </v>
   <v>       0.50000000       0.50000000       0.00000000 </v>
  </varray>
  <varray name="weights" >
   <v>       0.06250000 </v>
   <v>       0.12500000 </v>
   <v>       0.06250000 </v>
   <v>       0.12500000 </v>
   <v>       0.12500000 </v>
   <v>       0.12500000 </v>
   <v>       0.12500000 </v>
   <v>       0.06250000 </v>
   <v>       0.12500000 </v>
   <v>       0.06250000 </v>
  </varray>
 </kpoints>
 <parameters>
  <separator name="general" >
   <i type="string" name="SYSTEM">unknown system</i>
   <i type="logical" name="LCOMPAT"> F  </i>
  </separator>
  <separator name="electronic" >
   <i type="string" name="PREC">accura</i>
   <i name="ENMAX">    450.00000000</i>
   <i name="ENAUG">    838.43500000</i>
   <i name="EDIFF">      0.00000100</i>
   <i type="int" name="IALGO">    68</i>
   <i type="int" name="IWAVPR">    11</i>
   <i type="int" name="NBANDS">  1386</i>
   <i name="NELECT">   2290.00000000</i>
   <i type="int" name="TURBO">     0</i>
   <i type="int" name="IRESTART">     0</i>
   <i type="int" name="NREBOOT">     0</i>
   <i type="int" name="NMIN">     0</i>
   <i name="EREF">      0.00000000</i>
   <separator name="electronic smearing" >
    <i type="int" name="ISMEAR">     0</i>
    <i name="SIGMA">      0.15000000</i>
    <i name="KSPACING">      0.50000000</i>
    <i type="logical" name="KGAMMA"> T  </i>
   </separator>
   <separator name="electronic projectors" >
    <i type="logical" name="LREAL"> T  </i>
    <v name="ROPT">     -0.00025000     -0.00025000</v>
    <i type="int" name="LMAXPAW">  -100</i>
    <i type="int" name="LMAXMIX">     2</i>
    <i type="logical" name="NLSPLINE"> F  </i>
   </separator>
   <separator name="electronic startup" >
    <i type="int" name="ISTART">     0</i>
    <i type="int" name="ICHARG">     2</i>
    <i type="int" name="INIWAV">     1</i>
   </separator>
   <separator name="electronic spin" >
    <i type="int" name="ISPIN">     1</i>
    <i type="logical" name="LNONCOLLINEAR"> F  </i>
    <v name="MAGMOM">      1.00000000      1.00000000      1.00000000      1.00000000      1.00000000      1.00000000      1.00000000      1.00000000      1.00000000      1.00000000      1.00000000      1.00000000      1.00000000      1.00000000      1.00000000      1.00000000      1.00000000      1.00000000      1.00000000      1.00000000
      1.00000000      1.00000000      1.00000000      1.00000000      1.00000000      1.00000000      1.00000000      1.00000000      1.00000000      1.00000000      1.00000000      1.00000000      1.00000000      1.00000000      1.00000000      1.00000000      1.00000000      1.00000000      1.00000000      1.00000000
      1.00000000      1.00000000      1.00000000      1.00000000      1.00000000      1.00000000      1.00000000      1.00000000      1.00000000      1.00000000      1.00000000      1.00000000      1.00000000      1.00000000      1.00000000      1.00000000      1.00000000      1.00000000      1.00000000      1.00000000
      1.00000000      1.00000000      1.00000000      1.00000000      1.00000000      1.00000000      1.00000000      1.00000000      1.00000000      1.00000000      1.00000000      1.00000000      1.00000000      1.00000000      1.00000000      1.00000000      1.00000000      1.00000000      1.00000000      1.00000000
      1.00000000      1.00000000      1.00000000      1.00000000      1.00000000      1.00000000      1.00000000      1.00000000      1.00000000      1.00000000      1.00000000      1.00000000      1.00000000      1.00000000      1.00000000      1.00000000      1.00000000      1.00000000      1.00000000      1.00000000
      1.00000000      1.00000000      1.00000000      1.00000000      1.00000000      1.00000000      1.00000000      1.00000000      1.00000000      1.00000000      1.00000000      1.00000000      1.00000000      1.00000000      1.00000000      1.00000000      1.00000000      1.00000000      1.00000000      1.00000000
      1.00000000      1.00000000      1.00000000      1.00000000      1.00000000      1.00000000      1.00000000      1.00000000      1.00000000      1.00000000      1.00000000      1.00000000      1.00000000      1.00000000      1.00000000      1.00000000      1.00000000      1.00000000      1.00000000      1.00000000
      1.00000000      1.00000000      1.00000000      1.00000000      1.00000000      1.00000000      1.00000000      1.00000000      1.00000000      1.00000000      1.00000000      1.00000000      1.00000000      1.00000000      1.00000000      1.00000000      1.00000000      1.00000000      1.00000000      1.00000000
      1.00000000      1.00000000      1.00000000      1.00000000      1.00000000      1.00000000      1.00000000      1.00000000      1.00000000      1.00000000      1.00000000      1.00000000      1.00000000      1.00000000      1.00000000      1.00000000      1.00000000      1.00000000      1.00000000      1.00000000
      1.00000000      1.00000000      1.00000000      1.00000000      1.00000000      1.00000000      1.00000000      1.00000000      1.00000000      1.00000000      1.00000000      1.00000000      1.00000000      1.00000000      1.00000000      1.00000000      1.00000000      1.00000000      1.00000000      1.00000000
      1.00000000      1.00000000      1.00000000      1.00000000      1.00000000      1.00000000      1.00000000      1.00000000      1.00000000      1.00000000      1.00000000      1.00000000      1.00000000      1.00000000      1.00000000      1.00000000      1.00000000      1.00000000      1.00000000      1.00000000
      1.00000000      1.00000000      1.00000000      1.00000000      1.00000000      1.00000000      1.00000000      1.00000000      1.00000000      1.00000000      1.00000000      1.00000000      1.00000000      1.00000000      1.00000000      1.00000000      1.00000000      1.00000000      1.00000000      1.00000000
      1.00000000      1.00000000      1.00000000      1.00000000      1.00000000      1.00000000      1.00000000      1.00000000      1.00000000      1.00000000      1.00000000      1.00000000      1.00000000      1.00000000      1.00000000      1.00000000      1.00000000      1.00000000      1.00000000      1.00000000
      1.00000000      1.00000000      1.00000000      1.00000000      1.00000000      1.00000000      1.00000000      1.00000000      1.00000000      1.00000000      1.00000000      1.00000000      1.00000000      1.00000000      1.00000000      1.00000000      1.00000000      1.00000000      1.00000000      1.00000000
      1.00000000      1.00000000      1.00000000      1.00000000      1.00000000      1.00000000      1.00000000      1.00000000</v>
    <i name="NUPDOWN">     -1.00000000</i>
    <i type="logical" name="LSORBIT"> F  </i>
    <v name="SAXIS">      0.00000000      0.00000000      1.00000000</v>
    <i type="logical" name="LSPIRAL"> F  </i>
    <v name="QSPIRAL">      0.00000000      0.00000000      0.00000000</v>
    <i type="logical" name="LZEROZ"> F  </i>
   </separator>
   <separator name="electronic exchange-correlation" >
    <i type="logical" name="LASPH"> F  </i>
    <i type="logical" name="LMETAGGA"> F  </i>
   </separator>
   <separator name="electronic convergence" >
    <i type="int" name="NELM">   100</i>
    <i type="int" name="NELMDL">     0</i>
    <i type="int" name="NELMIN">     4</i>
    <i name="ENINI">    450.00000000</i>
    <separator name="electronic convergence detail" >
     <i type="logical" name="LDIAG"> T  </i>
     <i type="logical" name="LSUBROT"> F  </i>
     <i name="WEIMIN">      0.00100000</i>
     <i name="EBREAK">      0.00000000</i>
     <i name="DEPER">      0.30000000</i>
     <i type="int" name="NRMM">     4</i>
     <i name="TIME">      0.40000000</i>
    </separator>
   </separator>
   <separator name="electronic mixer" >
    <i name="AMIX">      0.40000000</i>
    <i name="BMIX">      1.00000000</i>
    <i name="AMIN">      0.10000000</i>
    <i name="AMIX_MAG">      1.60000000</i>
    <i name="BMIX_MAG">      1.00000000</i>
    <separator name="electronic mixer details" >
     <i type="int" name="IMIX">     4</i>
     <i type="logical" name="MIXFIRST"> F  </i>
     <i type="int" name="MAXMIX">   -45</i>
     <i name="WC">    100.00000000</i>
     <i type="int" name="INIMIX">     1</i>
     <i type="int" name="MIXPRE">     1</i>
     <i type="int" name="MREMOVE">     5</i>
    </separator>
   </separator>
   <separator name="electronic dipolcorrection" >
    <i type="logical" name="LDIPOL"> F  </i>
    <i type="logical" name="LMONO"> F  </i>
    <i type="int" name="IDIPOL">     0</i>
    <i name="EPSILON">      1.00000000</i>
    <v name="DIPOL">   -100.00000000   -100.00000000   -100.00000000</v>
    <i name="EFIELD">      0.00000000</i>
   </separator>
  </separator>
  <separator name="grids" >
   <i type="int" name="NGX">    70</i>
   <i type="int" name="NGY">    60</i>
   <i type="int" name="NGZ">   320</i>
   <i type="int" name="NGXF">   140</i>
   <i type="int" name="NGYF">   120</i>
   <i type="int" name="NGZF">   640</i>
   <i type="logical" name="ADDGRID"> F  </i>
  </separator>
  <separator name="ionic" >
   <i type="int" name="NSW">     5</i>
   <i type="int" name="IBRION">     2</i>
   <i type="int" name="MDALGO">     0</i>
   <i type="int" name="ISIF">     2</i>
   <i name="PSTRESS">      0.00000000</i>
   <i name="EDIFFG">      0.00001000</i>
   <i type="int" name="NFREE">     1</i>
   <i name="POTIM">      0.25000000</i>
   <i name="SMASS">     -3.00000000</i>
   <i name="SCALEE">      1.00000000</i>
  </separator>
  <separator name="ionic md" >
   <i name="TEBEG">      0.00010000</i>
   <i name="TEEND">      0.00010000</i>
   <i type="int" name="NBLOCK">     1</i>
   <i type="int" name="KBLOCK">     5</i>
   <i type="int" name="NPACO">   256</i>
   <i name="APACO">     16.00000000</i>
  </separator>
  <separator name="symmetry" >
   <i type="int" name="ISYM">     2</i>
   <i name="SYMPREC">      0.00001000</i>
  </separator>
  <separator name="dos" >
   <i type="int" name="LORBIT">     0</i>
   <v name="RWIGS">     -1.00000000     -1.00000000</v>
   <i type="int" name="NEDOS">   301</i>
   <i name="EMIN">     10.00000000</i>
   <i name="EMAX">    -10.00000000</i>
   <i name="EFERMI">      0.00000000</i>
  </separator>
  <separator name="writing" >
   <i type="int" name="NWRITE">     2</i>
   <i type="logical" name="LWAVE"> F  </i>
   <i type="logical" name="LDOWNSAMPLE"> F  </i>
   <i type="logical" name="LCHARG"> F  </i>
   <i type="logical" name="LPARD"> F  </i>
   <i type="logical" name="LVTOT"> F  </i>
   <i type="logical" name="LVHAR"> F  </i>
   <i type="logical" name="LELF"> F  </i>
   <i type="logical" name="LOPTICS"> F  </i>
   <v name="STM">      0.00000000      0.00000000      0.00000000      0.00000000      0.00000000      0.00000000      0.00000000</v>
  </separator>
  <separator name="performance" >
   <i type="int" name="NPAR">    14</i>
   <i type="int" name="NSIM">     4</i>
   <i type="int" name="NBLK">    -1</i>
   <i type="logical" name="LPLANE"> T  </i>
   <i type="logical" name="LSCALAPACK"> T  </i>
   <i type="logical" name="LSCAAWARE"> T  </i>
   <i type="logical" name="LSCALU"> F  </i>
   <i type="logical" name="LASYNC"> F  </i>
   <i type="logical" name="LORBITALREAL"> F  </i>
  </separator>
  <separator name="miscellaneous" >
   <i type="int" name="IDIOT">     3</i>
   <i type="int" name="ISPECIAL">     0</i>
   <i type="logical" name="LMUSIC"> F  </i>
   <v name="POMASS">     55.84700000     54.93800000</v>
   <v name="DARWINR">      0.00000000      0.00000000</v>
   <v name="DARWINV">      1.00000000      1.00000000</v>
   <i type="logical" name="LCORR"> T  </i>
  </separator>
  <i type="logical" name="GGA_COMPAT"> T  </i>
  <i type="logical" name="LBERRY"> F  </i>
  <i type="int" name="ICORELEVEL">     0</i>
  <i type="logical" name="LDAU"> F  </i>
  <i type="int" name="I_CONSTRAINED_M">     0</i>
  <separator name="electronic exchange-correlation" >
   <i type="string" name="GGA">--</i>
   <i type="int" name="VOSKOWN">     0</i>
   <i type="logical" name="LHFCALC"> F  </i>
   <i type="string" name="PRECFOCK"></i>
   <i type="logical" name="LSYMGRAD"> F  </i>
   <i type="logical" name="LHFONE"> F  </i>
   <i type="logical" name="LRHFCALC"> F  </i>
   <i type="logical" name="LTHOMAS"> F  </i>
   <i type="logical" name="LMODELHF"> F  </i>
   <i name="ENCUT4O">     -1.00000000</i>
   <i type="int" name="EXXOEP">     0</i>
   <i type="int" name="FOURORBIT">     0</i>
   <i name="AEXX">      0.00000000</i>
   <i name="HFALPHA">      0.00000000</i>
   <i name="MCALPHA">      0.00000000</i>
   <i name="ALDAX">      1.00000000</i>
   <i name="AGGAX">      1.00000000</i>
   <i name="ALDAC">      1.00000000</i>
   <i name="AGGAC">      1.00000000</i>
   <i type="int" name="NKREDX">     1</i>
   <i type="int" name="NKREDY">     1</i>
   <i type="int" name="NKREDZ">     1</i>
   <i type="logical" name="SHIFTRED"> F  </i>
   <i type="logical" name="ODDONLY"> F  </i>
   <i type="logical" name="EVENONLY"> F  </i>
   <i type="int" name="LMAXFOCK">     0</i>
   <i type="int" name="NMAXFOCKAE">     0</i>
   <i type="logical" name="LFOCKAEDFT"> F  </i>
   <i name="HFSCREEN">      0.00000000</i>
   <i name="HFSCREENC">      0.00000000</i>
   <i type="int" name="NBANDSGWLOW">     0</i>
  </separator>
  <separator name="vdW DFT" >
   <i type="logical" name="LUSE_VDW"> F  </i>
   <i name="Zab_VDW">     -0.84910000</i>
   <i name="PARAM1">      0.12340000</i>
   <i name="PARAM2">      1.00000000</i>
   <i name="PARAM3">      0.00000000</i>
  </separator>
  <separator name="model GW" >
   <i type="int" name="MODEL_GW">     0</i>
   <i name="MODEL_EPS0">      7.68123389</i>
   <i name="MODEL_ALPHA">      1.00000000</i>
  </separator>
  <separator name="linear response parameters" >
   <i type="logical" name="LEPSILON"> F  </i>
   <i type="logical" name="LRPA"> F  </i>
   <i type="logical" name="LNABLA"> F  </i>
   <i type="logical" name="LVEL"> F  </i>
   <i type="int" name="KINTER">     0</i>
   <i name="CSHIFT">      0.10000000</i>
   <i name="OMEGAMAX">     -1.00000000</i>
   <i name="DEG_THRESHOLD">      0.00200000</i>
   <i name="RTIME">     -0.10000000</i>
   <i name="WPLASMAI">      0.00000000</i>
   <v name="DFIELD">      0.00000000      0.00000000      0.00000000</v>
   <v name="WPLASMA">      0.00000000      0.00000000      0.00000000      0.00000000      0.00000000      0.00000000      0.00000000      0.00000000      0.00000000</v>
  </separator>
  <separator name="orbital magnetization" >
   <i type="logical" name="NUCIND"> F  </i>
   <v name="MAGPOS">      0.00000000      0.00000000      0.00000000</v>
   <i type="logical" name="LNICSALL"> T  </i>
   <i type="logical" name="ORBITALMAG"> F  </i>
   <i type="logical" name="LMAGBLOCH"> F  </i>
   <i type="logical" name="LCHIMAG"> F  </i>
   <i type="logical" name="LGAUGE"> T  </i>
   <i type="int" name="MAGATOM">     0</i>
   <v name="MAGDIPOL">      0.00000000      0.00000000      0.00000000</v>
   <v name="AVECCONST">      0.00000000      0.00000000      0.00000000</v>
  </separator>
  <separator name="response functions" >
   <i type="logical" name="LADDER"> F  </i>
   <i type="logical" name="LRPAFORCE"> F  </i>
   <i type="logical" name="LFXC"> F  </i>
   <i type="logical" name="LHARTREE"> T  </i>
   <i type="int" name="IBSE">     0</i>
   <v type="int" name="KPOINT">    -1     0     0     0</v>
   <i type="logical" name="LTCTE"> F  </i>
   <i type="logical" name="LTETE"> F  </i>
   <i type="logical" name="LTRIPLET"> F  </i>
   <i type="logical" name="LFXCEPS"> F  </i>
   <i type="logical" name="LFXHEG"> F  </i>
   <i type="int" name="NATURALO">     2</i>
   <i type="logical" name="L2ORDER"> F  </i>
   <i type="logical" name="LMP2LT"> F  </i>
   <i type="logical" name="LUSEW"> F  </i>
   <i name="ENCUTGW">     -2.00000000</i>
   <i name="ENCUTGWSOFT">     -2.00000000</i>
   <i name="ENCUTLF">     -1.00000000</i>
   <i type="int" name="LMAXMP2">    -1</i>
   <i name="SCISSOR">      0.00000000</i>
   <i type="int" name="NOMEGA">     0</i>
   <i type="int" name="NOMEGAR">     0</i>
   <i type="int" name="NBANDSGW">    -1</i>
   <i type="int" name="NBANDSO">    -1</i>
   <i type="int" name="NBANDSV">    -1</i>
   <i type="int" name="NELM">   100</i>
   <i type="int" name="NELMHF">     1</i>
   <i type="int" name="DIM">     3</i>
   <i type="int" name="ANTIRES">     0</i>
   <i name="OMEGAMAX">    -30.00000000</i>
   <i name="OMEGAMIN">    -30.00000000</i>
   <i name="OMEGATL">   -200.00000000</i>
   <i type="int" name="OMEGAGRID">   140</i>
   <i name="CSHIFT">     -0.10000000</i>
   <i type="logical" name="SELFENERGY"> F  </i>
   <i type="logical" name="LSPECTRAL"> F  </i>
   <i type="logical" name="LSPECTRALGW"> F  </i>
   <i type="logical" name="LSINGLES"> F  </i>
   <i type="logical" name="LFERMIGW"> F  </i>
   <i type="logical" name="ODDONLYGW"> F  </i>
   <i type="logical" name="EVENONLYGW"> F  </i>
   <i type="int" name="NKREDLFX">     1</i>
   <i type="int" name="NKREDLFY">     1</i>
   <i type="int" name="NKREDLFZ">     1</i>
   <i type="int" name="MAXMEM">  2800</i>
   <i type="int" name="TELESCOPE">     0</i>
   <i type="int" name="TAUPAR">     1</i>
   <i type="int" name="OMEGAPAR">    -1</i>
   <i name="LAMBDA">      1.00000000</i>
  </separator>
  <separator name="External order field" >
   <i name="OFIELD_KAPPA">      0.00000000</i>
   <v name="OFIELD_K">      0.00000000      0.00000000      0.00000000</v>
   <i name="OFIELD_Q6_NEAR">      0.00000000</i>
   <i name="OFIELD_Q6_FAR">      0.00000000</i>
   <i name="OFIELD_A">      0.00000000</i>
  </separator>
 </parameters>
 <atominfo>
  <atoms>     288 </atoms>
  <types>       2 </types>
  <array name="atoms" >
   <dimension dim="1">ion</dimension>
   <field type="string">element</field>
   <field type="int">atomtype</field>
   <set>
    <rc><c>Fe</c><c>   1</c></rc>
    <rc><c>Fe</c><c>   1</c></rc>
    <rc><c>Fe</c><c>   1</c></rc>
    <rc><c>Fe</c><c>   1</c></rc>
    <rc><c>Fe</c><c>   1</c></rc>
    <rc><c>Fe</c><c>   1</c></rc>
    <rc><c>Fe</c><c>   1</c></rc>
    <rc><c>Fe</c><c>   1</c></rc>
    <rc><c>Fe</c><c>   1</c></rc>
    <rc><c>Fe</c><c>   1</c></rc>
    <rc><c>Fe</c><c>   1</c></rc>
    <rc><c>Fe</c><c>   1</c></rc>
    <rc><c>Fe</c><c>   1</c></rc>
    <rc><c>Fe</c><c>   1</c></rc>
    <rc><c>Fe</c><c>   1</c></rc>
    <rc><c>Fe</c><c>   1</c></rc>
    <rc><c>Fe</c><c>   1</c></rc>
    <rc><c>Fe</c><c>   1</c></rc>
    <rc><c>Fe</c><c>   1</c></rc>
    <rc><c>Fe</c><c>   1</c></rc>
    <rc><c>Fe</c><c>   1</c></rc>
    <rc><c>Fe</c><c>   1</c></rc>
    <rc><c>Fe</c><c>   1</c></rc>
    <rc><c>Fe</c><c>   1</c></rc>
    <rc><c>Fe</c><c>   1</c></rc>
    <rc><c>Fe</c><c>   1</c></rc>
    <rc><c>Fe</c><c>   1</c></rc>
    <rc><c>Fe</c><c>   1</c></rc>
    <rc><c>Fe</c><c>   1</c></rc>
    <rc><c>Fe</c><c>   1</c></rc>
    <rc><c>Fe</c><c>   1</c></rc>
    <rc><c>Fe</c><c>   1</c></rc>
    <rc><c>Fe</c><c>   1</c></rc>
    <rc><c>Fe</c><c>   1</c></rc>
    <rc><c>Fe</c><c>   1</c></rc>
    <rc><c>Fe</c><c>   1</c></rc>
    <rc><c>Fe</c><c>   1</c></rc>
    <rc><c>Fe</c><c>   1</c></rc>
    <rc><c>Fe</c><c>   1</c></rc>
    <rc><c>Fe</c><c>   1</c></rc>
    <rc><c>Fe</c><c>   1</c></rc>
    <rc><c>Fe</c><c>   1</c></rc>
    <rc><c>Fe</c><c>   1</c></rc>
    <rc><c>Fe</c><c>   1</c></rc>
    <rc><c>Fe</c><c>   1</c></rc>
    <rc><c>Fe</c><c>   1</c></rc>
    <rc><c>Fe</c><c>   1</c></rc>
    <rc><c>Fe</c><c>   1</c></rc>
    <rc><c>Fe</c><c>   1</c></rc>
    <rc><c>Fe</c><c>   1</c></rc>
    <rc><c>Fe</c><c>   1</c></rc>
    <rc><c>Fe</c><c>   1</c></rc>
    <rc><c>Fe</c><c>   1</c></rc>
    <rc><c>Fe</c><c>   1</c></rc>
    <rc><c>Fe</c><c>   1</c></rc>
    <rc><c>Fe</c><c>   1</c></rc>
    <rc><c>Fe</c><c>   1</c></rc>
    <rc><c>Fe</c><c>   1</c></rc>
    <rc><c>Fe</c><c>   1</c></rc>
    <rc><c>Fe</c><c>   1</c></rc>
    <rc><c>Fe</c><c>   1</c></rc>
    <rc><c>Fe</c><c>   1</c></rc>
    <rc><c>Fe</c><c>   1</c></rc>
    <rc><c>Fe</c><c>   1</c></rc>
    <rc><c>Fe</c><c>   1</c></rc>
    <rc><c>Fe</c><c>   1</c></rc>
    <rc><c>Fe</c><c>   1</c></rc>
    <rc><c>Fe</c><c>   1</c></rc>
    <rc><c>Fe</c><c>   1</c></rc>
    <rc><c>Fe</c><c>   1</c></rc>
    <rc><c>Fe</c><c>   1</c></rc>
    <rc><c>Fe</c><c>   1</c></rc>
    <rc><c>Fe</c><c>   1</c></rc>
    <rc><c>Fe</c><c>   1</c></rc>
    <rc><c>Fe</c><c>   1</c></rc>
    <rc><c>Fe</c><c>   1</c></rc>
    <rc><c>Fe</c><c>   1</c></rc>
    <rc><c>Fe</c><c>   1</c></rc>
    <rc><c>Fe</c><c>   1</c></rc>
    <rc><c>Fe</c><c>   1</c></rc>
    <rc><c>Fe</c><c>   1</c></rc>
    <rc><c>Fe</c><c>   1</c></rc>
    <rc><c>Fe</c><c>   1</c></rc>
    <rc><c>Fe</c><c>   1</c></rc>
    <rc><c>Fe</c><c>   1</c></rc>
    <rc><c>Fe</c><c>   1</c></rc>
    <rc><c>Fe</c><c>   1</c></rc>
    <rc><c>Fe</c><c>   1</c></rc>
    <rc><c>Fe</c><c>   1</c></rc>
    <rc><c>Fe</c><c>   1</c></rc>
    <rc><c>Fe</c><c>   1</c></rc>
    <rc><c>Fe</c><c>   1</c></rc>
    <rc><c>Fe</c><c>   1</c></rc>
    <rc><c>Fe</c><c>   1</c></rc>
    <rc><c>Fe</c><c>   1</c></rc>
    <rc><c>Fe</c><c>   1</c></rc>
    <rc><c>Fe</c><c>   1</c></rc>
    <rc><c>Fe</c><c>   1</c></rc>
    <rc><c>Fe</c><c>   1</c></rc>
    <rc><c>Fe</c><c>   1</c></rc>
    <rc><c>Fe</c><c>   1</c></rc>
    <rc><c>Fe</c><c>   1</c></rc>
    <rc><c>Fe</c><c>   1</c></rc>
    <rc><c>Fe</c><c>   1</c></rc>
    <rc><c>Fe</c><c>   1</c></rc>
    <rc><c>Fe</c><c>   1</c></rc>
    <rc><c>Fe</c><c>   1</c></rc>
    <rc><c>Fe</c><c>   1</c></rc>
    <rc><c>Fe</c><c>   1</c></rc>
    <rc><c>Fe</c><c>   1</c></rc>
    <rc><c>Fe</c><c>   1</c></rc>
    <rc><c>Fe</c><c>   1</c></rc>
    <rc><c>Fe</c><c>   1</c></rc>
    <rc><c>Fe</c><c>   1</c></rc>
    <rc><c>Fe</c><c>   1</c></rc>
    <rc><c>Fe</c><c>   1</c></rc>
    <rc><c>Fe</c><c>   1</c></rc>
    <rc><c>Fe</c><c>   1</c></rc>
    <rc><c>Fe</c><c>   1</c></rc>
    <rc><c>Fe</c><c>   1</c></rc>
    <rc><c>Fe</c><c>   1</c></rc>
    <rc><c>Fe</c><c>   1</c></rc>
    <rc><c>Fe</c><c>   1</c></rc>
    <rc><c>Fe</c><c>   1</c></rc>
    <rc><c>Fe</c><c>   1</c></rc>
    <rc><c>Fe</c><c>   1</c></rc>
    <rc><c>Fe</c><c>   1</c></rc>
    <rc><c>Fe</c><c>   1</c></rc>
    <rc><c>Fe</c><c>   1</c></rc>
    <rc><c>Fe</c><c>   1</c></rc>
    <rc><c>Fe</c><c>   1</c></rc>
    <rc><c>Fe</c><c>   1</c></rc>
    <rc><c>Fe</c><c>   1</c></rc>
    <rc><c>Fe</c><c>   1</c></rc>
    <rc><c>Fe</c><c>   1</c></rc>
    <rc><c>Fe</c><c>   1</c></rc>
    <rc><c>Fe</c><c>   1</c></rc>
    <rc><c>Fe</c><c>   1</c></rc>
    <rc><c>Fe</c><c>   1</c></rc>
    <rc><c>Fe</c><c>   1</c></rc>
    <rc><c>Fe</c><c>   1</c></rc>
    <rc><c>Fe</c><c>   1</c></rc>
    <rc><c>Fe</c><c>   1</c></rc>
    <rc><c>Fe</c><c>   1</c></rc>
    <rc><c>Fe</c><c>   1</c></rc>
    <rc><c>Fe</c><c>   1</c></rc>
    <rc><c>Fe</c><c>   1</c></rc>
    <rc><c>Fe</c><c>   1</c></rc>
    <rc><c>Fe</c><c>   1</c></rc>
    <rc><c>Fe</c><c>   1</c></rc>
    <rc><c>Fe</c><c>   1</c></rc>
    <rc><c>Fe</c><c>   1</c></rc>
    <rc><c>Fe</c><c>   1</c></rc>
    <rc><c>Fe</c><c>   1</c></rc>
    <rc><c>Fe</c><c>   1</c></rc>
    <rc><c>Fe</c><c>   1</c></rc>
    <rc><c>Fe</c><c>   1</c></rc>
    <rc><c>Fe</c><c>   1</c></rc>
    <rc><c>Fe</c><c>   1</c></rc>
    <rc><c>Fe</c><c>   1</c></rc>
    <rc><c>Fe</c><c>   1</c></rc>
    <rc><c>Fe</c><c>   1</c></rc>
    <rc><c>Fe</c><c>   1</c></rc>
    <rc><c>Fe</c><c>   1</c></rc>
    <rc><c>Fe</c><c>   1</c></rc>
    <rc><c>Fe</c><c>   1</c></rc>
    <rc><c>Fe</c><c>   1</c></rc>
    <rc><c>Fe</c><c>   1</c></rc>
    <rc><c>Fe</c><c>   1</c></rc>
    <rc><c>Fe</c><c>   1</c></rc>
    <rc><c>Fe</c><c>   1</c></rc>
    <rc><c>Fe</c><c>   1</c></rc>
    <rc><c>Fe</c><c>   1</c></rc>
    <rc><c>Fe</c><c>   1</c></rc>
    <rc><c>Fe</c><c>   1</c></rc>
    <rc><c>Fe</c><c>   1</c></rc>
    <rc><c>Fe</c><c>   1</c></rc>
    <rc><c>Fe</c><c>   1</c></rc>
    <rc><c>Fe</c><c>   1</c></rc>
    <rc><c>Fe</c><c>   1</c></rc>
    <rc><c>Fe</c><c>   1</c></rc>
    <rc><c>Fe</c><c>   1</c></rc>
    <rc><c>Fe</c><c>   1</c></rc>
    <rc><c>Fe</c><c>   1</c></rc>
    <rc><c>Fe</c><c>   1</c></rc>
    <rc><c>Fe</c><c>   1</c></rc>
    <rc><c>Fe</c><c>   1</c></rc>
    <rc><c>Fe</c><c>   1</c></rc>
    <rc><c>Fe</c><c>   1</c></rc>
    <rc><c>Fe</c><c>   1</c></rc>
    <rc><c>Fe</c><c>   1</c></rc>
    <rc><c>Fe</c><c>   1</c></rc>
    <rc><c>Fe</c><c>   1</c></rc>
    <rc><c>Fe</c><c>   1</c></rc>
    <rc><c>Fe</c><c>   1</c></rc>
    <rc><c>Fe</c><c>   1</c></rc>
    <rc><c>Fe</c><c>   1</c></rc>
    <rc><c>Fe</c><c>   1</c></rc>
    <rc><c>Fe</c><c>   1</c></rc>
    <rc><c>Fe</c><c>   1</c></rc>
    <rc><c>Fe</c><c>   1</c></rc>
    <rc><c>Fe</c><c>   1</c></rc>
    <rc><c>Fe</c><c>   1</c></rc>
    <rc><c>Fe</c><c>   1</c></rc>
    <rc><c>Fe</c><c>   1</c></rc>
    <rc><c>Fe</c><c>   1</c></rc>
    <rc><c>Fe</c><c>   1</c></rc>
    <rc><c>Fe</c><c>   1</c></rc>
    <rc><c>Fe</c><c>   1</c></rc>
    <rc><c>Fe</c><c>   1</c></rc>
    <rc><c>Fe</c><c>   1</c></rc>
    <rc><c>Fe</c><c>   1</c></rc>
    <rc><c>Fe</c><c>   1</c></rc>
    <rc><c>Fe</c><c>   1</c></rc>
    <rc><c>Fe</c><c>   1</c></rc>
    <rc><c>Fe</c><c>   1</c></rc>
    <rc><c>Fe</c><c>   1</c></rc>
    <rc><c>Fe</c><c>   1</c></rc>
    <rc><c>Fe</c><c>   1</c></rc>
    <rc><c>Fe</c><c>   1</c></rc>
    <rc><c>Fe</c><c>   1</c></rc>
    <rc><c>Fe</c><c>   1</c></rc>
    <rc><c>Fe</c><c>   1</c></rc>
    <rc><c>Fe</c><c>   1</c></rc>
    <rc><c>Fe</c><c>   1</c></rc>
    <rc><c>Fe</c><c>   1</c></rc>
    <rc><c>Fe</c><c>   1</c></rc>
    <rc><c>Fe</c><c>   1</c></rc>
    <rc><c>Fe</c><c>   1</c></rc>
    <rc><c>Fe</c><c>   1</c></rc>
    <rc><c>Fe</c><c>   1</c></rc>
    <rc><c>Fe</c><c>   1</c></rc>
    <rc><c>Fe</c><c>   1</c></rc>
    <rc><c>Fe</c><c>   1</c></rc>
    <rc><c>Fe</c><c>   1</c></rc>
    <rc><c>Fe</c><c>   1</c></rc>
    <rc><c>Fe</c><c>   1</c></rc>
    <rc><c>Fe</c><c>   1</c></rc>
    <rc><c>Fe</c><c>   1</c></rc>
    <rc><c>Fe</c><c>   1</c></rc>
    <rc><c>Fe</c><c>   1</c></rc>
    <rc><c>Fe</c><c>   1</c></rc>
    <rc><c>Fe</c><c>   1</c></rc>
    <rc><c>Fe</c><c>   1</c></rc>
    <rc><c>Fe</c><c>   1</c></rc>
    <rc><c>Fe</c><c>   1</c></rc>
    <rc><c>Fe</c><c>   1</c></rc>
    <rc><c>Fe</c><c>   1</c></rc>
    <rc><c>Fe</c><c>   1</c></rc>
    <rc><c>Fe</c><c>   1</c></rc>
    <rc><c>Fe</c><c>   1</c></rc>
    <rc><c>Fe</c><c>   1</c></rc>
    <rc><c>Fe</c><c>   1</c></rc>
    <rc><c>Fe</c><c>   1</c></rc>
    <rc><c>Fe</c><c>   1</c></rc>
    <rc><c>Fe</c><c>   1</c></rc>
    <rc><c>Fe</c><c>   1</c></rc>
    <rc><c>Fe</c><c>   1</c></rc>
    <rc><c>Fe</c><c>   1</c></rc>
    <rc><c>Fe</c><c>   1</c></rc>
    <rc><c>Fe</c><c>   1</c></rc>
    <rc><c>Fe</c><c>   1</c></rc>
    <rc><c>Fe</c><c>   1</c></rc>
    <rc><c>Fe</c><c>   1</c></rc>
    <rc><c>Fe</c><c>   1</c></rc>
    <rc><c>Fe</c><c>   1</c></rc>
    <rc><c>Fe</c><c>   1</c></rc>
    <rc><c>Fe</c><c>   1</c></rc>
    <rc><c>Fe</c><c>   1</c></rc>
    <rc><c>Fe</c><c>   1</c></rc>
    <rc><c>Fe</c><c>   1</c></rc>
    <rc><c>Fe</c><c>   1</c></rc>
    <rc><c>Fe</c><c>   1</c></rc>
    <rc><c>Fe</c><c>   1</c></rc>
    <rc><c>Mn</c><c>   2</c></rc>
    <rc><c>Mn</c><c>   2</c></rc>
    <rc><c>Mn</c><c>   2</c></rc>
    <rc><c>Mn</c><c>   2</c></rc>
    <rc><c>Mn</c><c>   2</c></rc>
    <rc><c>Mn</c><c>   2</c></rc>
    <rc><c>Mn</c><c>   2</c></rc>
    <rc><c>Mn</c><c>   2</c></rc>
    <rc><c>Mn</c><c>   2</c></rc>
    <rc><c>Mn</c><c>   2</c></rc>
    <rc><c>Mn</c><c>   2</c></rc>
    <rc><c>Mn</c><c>   2</c></rc>
    <rc><c>Mn</c><c>   2</c></rc>
    <rc><c>Mn</c><c>   2</c></rc>
   </set>
  </array>
  <array name="atomtypes" >
   <dimension dim="1">type</dimension>
   <field type="int">atomspertype</field>
   <field type="string">element</field>
   <field>mass</field>
   <field>valence</field>
   <field type="string">pseudopotential</field>
   <set>
    <rc><c> 274</c><c>Fe</c><c>     55.84700000</c><c>      8.00000000</c><c>  PAW_PBE Fe_GW 31Mar2010               </c></rc>
    <rc><c>  14</c><c>Mn</c><c>     54.93800000</c><c>      7.00000000</c><c>  PAW_PBE Mn_GW 31Mar2010               </c></rc>
   </set>
  </array>
 </atominfo>
 <structure name="initialpos" >
  <crystal>
   <varray name="basis" >
    <v>       9.72667804       0.00000000       0.00000000 </v>
    <v>       0.00000000       8.42355028       0.00000000 </v>
    <v>       0.00000000       0.00000000      45.00000000 </v>
   </varray>
   <i name="volume">   3686.99226691 </i>
   <varray name="rec_basis" >
    <v>       0.10281002       0.00000000       0.00000000 </v>
    <v>       0.00000000       0.11871479       0.00000000 </v>
    <v>       0.00000000       0.00000000       0.02222222 </v>
   </varray>
  </crystal>
  <varray name="positions" >
   <v>       0.06178807       0.03128860       0.12437557 </v>
   <v>       0.31670790       0.87501140       0.65484764 </v>
   <v>       0.18526785       0.12124746       0.78835583 </v>
   <v>       0.44141006       0.28764301       0.38905939 </v>
   <v>       0.31758990       0.71229909       0.83278095 </v>
   <v>       0.81776027       0.21393531       0.83335031 </v>
   <v>       0.19120397       0.96262327       0.83330070 </v>
   <v>       0.56249359       0.20719752       0.56547143 </v>
   <v>       0.06561466       0.03918022       0.74394166 </v>
   <v>       0.81153042       0.87128841       0.52132927 </v>
   <v>       0.19085163       0.29021827       0.74397291 </v>
   <v>       0.93416644       0.45257700       0.34506204 </v>
   <v>       0.94130183       0.28751332       0.38907078 </v>
   <v>       0.81256696       0.03872768       0.87544412 </v>
   <v>       0.18341887       0.78805249       0.61086346 </v>
   <v>       0.56642102       0.03759020       0.38909852 </v>
   <v>       0.94162702       0.96304100       0.83357172 </v>
   <v>       0.31490981       0.53790226       0.87570535 </v>
   <v>       0.69073948       0.29046783       0.74391400 </v>
   <v>       0.18248819       0.61411463       0.16675573 </v>
   <v>       0.81189582       0.20565505       0.47865155 </v>
   <v>       0.80866320       0.53783719       0.61090537 </v>
   <v>       0.31222607       0.87077747       0.43441753 </v>
   <v>       0.80918427       0.03853104       0.25613979 </v>
   <v>       0.68374358       0.95244699       0.34505162 </v>
   <v>       0.93122031       0.11481706       0.16731184 </v>
   <v>       0.06157202       0.87127231       0.52138268 </v>
   <v>       0.55915489       0.53889092       0.25594807 </v>
   <v>       0.68455853       0.79452747       0.87543586 </v>
   <v>       0.55630956       0.36578309       0.16673426 </v>
   <v>       0.43976774       0.79021156       0.74409868 </v>
   <v>       0.81146649       0.70669102       0.56546117 </v>
   <v>       0.56055745       0.87180775       0.78828262 </v>
   <v>       0.68626050       0.12146225       0.52133987 </v>
   <v>       0.81633086       0.37485979       0.65495140 </v>
   <v>       0.94150977       0.46269706       0.83352434 </v>
   <v>       0.06009730       0.20790117       0.69953946 </v>
   <v>       0.43500097       0.95814880       0.69952083 </v>
   <v>       0.31658314       0.21157329       0.83332782 </v>
   <v>       0.44138968       0.62473319       0.65488608 </v>
   <v>       0.30876998       0.53793696       0.61089864 </v>
   <v>       0.93702783       0.45700578       0.56554166 </v>
   <v>       0.69013148       0.79084031       0.74400289 </v>
   <v>       0.93362608       0.78875420       0.12464357 </v>
   <v>       0.69137036       0.78752595       0.38904441 </v>
   <v>       0.94054199       0.79010060       0.74414054 </v>
   <v>       0.05929958       0.20263835       0.34499542 </v>
   <v>       0.81637384       0.03752826       0.38907864 </v>
   <v>       0.43541140       0.12099577       0.78862954 </v>
   <v>       0.06490513       0.20552151       0.21172549 </v>
   <v>       0.05491118       0.36578734       0.16678034 </v>
   <v>       0.93400161       0.78953438       0.25604836 </v>
   <v>       0.56015310       0.20793186       0.69960905 </v>
   <v>       0.68504735       0.95807193       0.69962916 </v>
   <v>       0.81006033       0.87186957       0.78816937 </v>
   <v>       0.43679514       0.95718506       0.56542497 </v>
   <v>       0.81081502       0.37238085       0.78815738 </v>
   <v>       0.68416180       0.28993009       0.25613942 </v>
   <v>       0.18686014       0.45729015       0.56541365 </v>
   <v>       0.05603384       0.86594902       0.16683498 </v>
   <v>       0.18400008       0.28802759       0.61078276 </v>
   <v>       0.19126077       0.78774688       0.38915064 </v>
   <v>       0.31026632       0.20816134       0.69965027 </v>
   <v>       0.56372434       0.53860007       0.87562025 </v>
   <v>       0.06177811       0.70634781       0.56551300 </v>
   <v>       0.68529698       0.62119253       0.78806451 </v>
   <v>       0.31634417       0.53750287       0.38906819 </v>
   <v>       0.18658149       0.62116882       0.52129679 </v>
   <v>       0.56232429       0.87087514       0.43448226 </v>
   <v>       0.43674965       0.45786878       0.56537712 </v>
   <v>       0.43996357       0.29100735       0.74399275 </v>
   <v>       0.81900978       0.87498833       0.30041124 </v>
   <v>       0.80867440       0.70266074       0.34507024 </v>
   <v>       0.44166935       0.46228865       0.83312198 </v>
   <v>       0.68730461       0.95582205       0.47859455 </v>
   <v>       0.68533217       0.45792683       0.69961590 </v>
   <v>       0.56167136       0.87169006       0.52137007 </v>
   <v>       0.56652055       0.37439959       0.65484807 </v>
   <v>       0.81632522       0.87460266       0.65494651 </v>
   <v>       0.81254051       0.37176809       0.43435826 </v>
   <v>       0.80928272       0.53829250       0.25616639 </v>
   <v>       0.69198365       0.46098001       0.83306638 </v>
   <v>       0.18617578       0.78859064       0.12427408 </v>
   <v>       0.69134377       0.28748346       0.38899806 </v>
   <v>       0.31646768       0.37480963       0.65496068 </v>
   <v>       0.30956252       0.20283575       0.34509599 </v>
   <v>       0.81555085       0.53984073       0.74393524 </v>
   <v>       0.69166170       0.96133134       0.83312338 </v>
   <v>       0.56618389       0.87434080       0.65491199 </v>
   <v>       0.31188897       0.70706528       0.56538767 </v>
   <v>       0.31196131       0.53199128       0.12429676 </v>
   <v>       0.68917930       0.95618004       0.21198640 </v>
   <v>       0.31129983       0.20650397       0.56540275 </v>
   <v>       0.18704574       0.95552347       0.47857625 </v>
   <v>       0.68782072       0.95740303       0.56536486 </v>
   <v>       0.43374305       0.78818911       0.61088683 </v>
   <v>       0.68240851       0.61233757       0.16674584 </v>
   <v>       0.31889269       0.87489836       0.30043481 </v>
   <v>       0.31229343       0.70575517       0.47858458 </v>
   <v>       0.93359837       0.28783049       0.61077561 </v>
   <v>       0.44418444       0.62489606       0.30054819 </v>
   <v>       0.80690509       0.86430638       0.16724786 </v>
   <v>       0.56612389       0.20360913       0.21193192 </v>
   <v>       0.93269243       0.61318179       0.16682056 </v>
   <v>       0.43721600       0.95567877       0.47866061 </v>
   <v>       0.56059173       0.37106783       0.78829951 </v>
   <v>       0.06120695       0.37170973       0.52139354 </v>
   <v>       0.30713851       0.36389011       0.16697876 </v>
   <v>       0.69449014       0.12466899       0.30045416 </v>
   <v>       0.44260168       0.96172668       0.83306039 </v>
   <v>       0.18468170       0.28770556       0.12453669 </v>
   <v>       0.18415486       0.28954273       0.25602350 </v>
   <v>       0.31199974       0.37072620       0.43446796 </v>
   <v>       0.56264820       0.03266997       0.12453951 </v>
   <v>       0.43366340       0.28797419       0.61086296 </v>
   <v>       0.18396576       0.45280453       0.34507243 </v>
   <v>       0.43419245       0.28748411       0.12457740 </v>
   <v>       0.68423660       0.78980645       0.25605584 </v>
   <v>       0.43664359       0.12137285       0.52135332 </v>
   <v>       0.18872628       0.29369193       0.87572860 </v>
   <v>       0.19145047       0.12507114       0.65491591 </v>
   <v>       0.94162538       0.12498170       0.65489336 </v>
   <v>       0.81639909       0.53742343       0.38911538 </v>
   <v>       0.06646897       0.03765802       0.38907875 </v>
   <v>       0.18307975       0.11259966       0.16656621 </v>
   <v>       0.05859293       0.53789764       0.61091307 </v>
   <v>       0.93434881       0.28972158       0.25606634 </v>
   <v>       0.55863354       0.53836079       0.61079451 </v>
   <v>       0.93702539       0.95729640       0.56542372 </v>
   <v>       0.69400438       0.62501274       0.30041664 </v>
   <v>       0.93706718       0.62061721       0.43443290 </v>
   <v>       0.93444941       0.62223789       0.78800078 </v>
   <v>       0.56031132       0.70770486       0.69958998 </v>
   <v>       0.06563399       0.71512269       0.83359928 </v>
   <v>       0.94447545       0.12410269       0.30041132 </v>
   <v>       0.93379012       0.78762834       0.61089509 </v>
   <v>       0.43436954       0.78995113       0.25614377 </v>
   <v>       0.31069416       0.37162052       0.78822102 </v>
   <v>       0.43969812       0.45673856       0.21184346 </v>
   <v>       0.18672232       0.12089340       0.52122358 </v>
   <v>       0.81008063       0.70789397       0.69955733 </v>
   <v>       0.05848929       0.03774148       0.61090950 </v>
   <v>       0.56573379       0.21262095       0.83297226 </v>
   <v>       0.31136633       0.87144436       0.52132345 </v>
   <v>       0.68631118       0.28855760       0.12428346 </v>
   <v>       0.18908668       0.95671910       0.21208905 </v>
   <v>       0.68352598       0.28815397       0.61087769 </v>
   <v>       0.30867373       0.03800505       0.61093434 </v>
   <v>       0.93572134       0.12242513       0.78828743 </v>
   <v>       0.43687722       0.79432096       0.87565912 </v>
   <v>       0.81545138       0.04031291       0.74385748 </v>
   <v>       0.93503336       0.45819836       0.69958741 </v>
   <v>       0.19126825       0.62498242       0.65495455 </v>
   <v>       0.31047114       0.70779220       0.69956733 </v>
   <v>       0.93445394       0.28787101       0.12439197 </v>
   <v>       0.43714307       0.45565112       0.47862524 </v>
   <v>       0.06205938       0.70546573       0.47846911 </v>
   <v>       0.93710237       0.12063564       0.43458039 </v>
   <v>       0.44391079       0.12442204       0.30051451 </v>
   <v>       0.18768714       0.12024258       0.43443580 </v>
   <v>       0.56328442       0.03765303       0.87580686 </v>
   <v>       0.18679440       0.95734259       0.56541882 </v>
   <v>       0.68443528       0.78896636       0.12477572 </v>
   <v>       0.55961299       0.70269717       0.34501949 </v>
   <v>       0.31634208       0.03768669       0.38913116 </v>
   <v>       0.68241217       0.11453671       0.16722025 </v>
   <v>       0.81471626       0.20499945       0.21162175 </v>
   <v>       0.05990245       0.53920557       0.25603517 </v>
   <v>       0.56212938       0.70585383       0.47861930 </v>
   <v>       0.43453434       0.78807675       0.12444507 </v>
   <v>       0.56917139       0.37492122       0.30052668 </v>
   <v>       0.43376590       0.95254533       0.34509756 </v>
   <v>       0.18533077       0.95823590       0.69967964 </v>
   <v>       0.43133131       0.61438112       0.16667699 </v>
   <v>       0.93953470       0.45648564       0.21204909 </v>
   <v>       0.06153664       0.53107913       0.12438535 </v>
   <v>       0.81181692       0.37128545       0.52129545 </v>
   <v>       0.94376550       0.62444829       0.30038821 </v>
   <v>       0.30981657       0.03908749       0.25576136 </v>
   <v>       0.68361233       0.78802968       0.61087518 </v>
   <v>       0.19166001       0.46264969       0.83317519 </v>
   <v>       0.43201844       0.11296505       0.16668170 </v>
   <v>       0.31127662       0.37136487       0.52130002 </v>
   <v>       0.43471719       0.62064408       0.78834401 </v>
   <v>       0.05904322       0.03848218       0.25617608 </v>
   <v>       0.56205092       0.70711388       0.56542999 </v>
   <v>       0.94003595       0.28941372       0.74401320 </v>
   <v>       0.68385382       0.12133010       0.78825338 </v>
   <v>       0.18902522       0.45684921       0.21187800 </v>
   <v>       0.94137079       0.78754322       0.38905532 </v>
   <v>       0.68688831       0.29594110       0.87570621 </v>
   <v>       0.55574144       0.86505127       0.16665384 </v>
   <v>       0.43509069       0.45774666       0.69951554 </v>
   <v>       0.93418660       0.95222712       0.34498060 </v>
   <v>       0.68633218       0.62145419       0.52127275 </v>
   <v>       0.06620422       0.87422158       0.65490650 </v>
   <v>       0.06053979       0.87220817       0.78820804 </v>
   <v>       0.06641215       0.37490454       0.65493207 </v>
   <v>       0.68694701       0.45542916       0.47866553 </v>
   <v>       0.18421685       0.78951322       0.25600764 </v>
   <v>       0.43712249       0.12045066       0.43443740 </v>
   <v>       0.81338225       0.03172246       0.12436093 </v>
   <v>       0.93655663       0.62127938       0.52130988 </v>
   <v>       0.06252656       0.87054512       0.43444371 </v>
   <v>       0.81296796       0.53063066       0.12433444 </v>
   <v>       0.43359842       0.45263430       0.34509809 </v>
   <v>       0.80926588       0.20323392       0.34504074 </v>
   <v>       0.30940829       0.70303077       0.34501784 </v>
   <v>       0.69128388       0.12490036       0.65493511 </v>
   <v>       0.56923255       0.87494600       0.30051848 </v>
   <v>       0.06565623       0.53979592       0.74400157 </v>
   <v>       0.94037714       0.95540858       0.21163478 </v>
   <v>       0.81616476       0.70551237       0.21172700 </v>
   <v>       0.06881567       0.87496591       0.30047925 </v>
   <v>       0.19416115       0.12487138       0.30053047 </v>
   <v>       0.05910586       0.70287859       0.34508596 </v>
   <v>       0.80905019       0.03810571       0.61091546 </v>
   <v>       0.06199051       0.37070413       0.43440835 </v>
   <v>       0.55941211       0.20316870       0.34512335 </v>
   <v>       0.81912419       0.37498932       0.30041176 </v>
   <v>       0.55944398       0.03898751       0.25592161 </v>
   <v>       0.56653652       0.53761968       0.38906936 </v>
   <v>       0.06232206       0.20573836       0.47863498 </v>
   <v>       0.31144873       0.87102315       0.78802814 </v>
   <v>       0.93511108       0.95837140       0.69959409 </v>
   <v>       0.06895038       0.37500248       0.30049350 </v>
   <v>       0.69140670       0.62501634       0.65494751 </v>
   <v>       0.68699542       0.45731485       0.56544913 </v>
   <v>       0.43948237       0.95754194       0.21236437 </v>
   <v>       0.31230074       0.20581432       0.47862495 </v>
   <v>       0.81351338       0.53755620       0.87555667 </v>
   <v>       0.68777076       0.62044625       0.43441803 </v>
   <v>       0.81054298       0.20756900       0.69964524 </v>
   <v>       0.81214851       0.70567347       0.47854506 </v>
   <v>       0.81211376       0.87119218       0.43440253 </v>
   <v>       0.93705746       0.95532523       0.47864477 </v>
   <v>       0.56219572       0.20576655       0.47860998 </v>
   <v>       0.18745441       0.62045562       0.43447971 </v>
   <v>       0.31524935       0.04065535       0.74387675 </v>
   <v>       0.94147519       0.62510462       0.65489800 </v>
   <v>       0.56630229       0.71252996       0.83307672 </v>
   <v>       0.31892844       0.37461326       0.30044480 </v>
   <v>       0.56498737       0.70494112       0.21170905 </v>
   <v>       0.18717368       0.45538139       0.47851706 </v>
   <v>       0.31481412       0.03908214       0.87554419 </v>
   <v>       0.18477896       0.45816898       0.69957419 </v>
   <v>       0.56143923       0.37137301       0.52134826 </v>
   <v>       0.19129945       0.28770542       0.38911806 </v>
   <v>       0.43693458       0.62048315       0.43446339 </v>
   <v>       0.06659392       0.70572973       0.21171827 </v>
   <v>       0.56240606       0.37121463       0.43441195 </v>
   <v>       0.43659714       0.62147928       0.52137480 </v>
   <v>       0.81685797       0.71428773       0.83304910 </v>
   <v>       0.06087493       0.37290198       0.78811613 </v>
   <v>       0.43695861       0.29471195       0.87589232 </v>
   <v>       0.31109255       0.03169470       0.12437602 </v>
   <v>       0.68748465       0.12018343       0.43445034 </v>
   <v>       0.18375443       0.95272952       0.34505697 </v>
   <v>       0.06642869       0.21333924       0.83364979 </v>
   <v>       0.55852770       0.03811152       0.61089698 </v>
   <v>       0.68867721       0.45638440       0.21212524 </v>
   <v>       0.19040884       0.79029841       0.74400553 </v>
   <v>       0.19404425       0.62454671       0.30053666 </v>
   <v>       0.44132781       0.78769405       0.38911426 </v>
   <v>       0.43364147       0.28956961       0.25608153 </v>
   <v>       0.06498884       0.53816419       0.87550111 </v>
   <v>       0.56580454       0.04020210       0.74394797 </v>
   <v>       0.18789885       0.79418749       0.87559460 </v>
   <v>       0.93697086       0.45547693       0.47852293 </v>
   <v>       0.56579457       0.54050713       0.74391938 </v>
   <v>       0.81127021       0.20667415       0.56538338 </v>
   <v>       0.18533969       0.62026683       0.78802658 </v>
   <v>       0.06654786       0.53768680       0.38903216 </v>
   <v>       0.06048191       0.70785534       0.69952239 </v>
   <v>       0.30895312       0.53853238       0.25561526 </v>
   <v>       0.31472102       0.70448992       0.21248628 </v>
   <v>       0.30559734       0.86587436       0.16613520 </v>
   <v>       0.31552566       0.20577123       0.21213633 </v>
   <v>       0.68307847       0.45267777       0.34512095 </v>
   <v>       0.93546618       0.29569831       0.87523647 </v>
   <v>       0.93749026       0.79295685       0.87520905 </v>
   <v>       0.06549954       0.03694513       0.87529793 </v>
   <v>       0.56271961       0.52992099       0.12491921 </v>
   <v>       0.80515358       0.36666719       0.16648398 </v>
   <v>       0.44241017       0.12455375       0.65466304 </v>
   <v>       0.93638424       0.12138363       0.52129582 </v>
   <v>       0.06334357       0.20659940       0.56565191 </v>
   <v>       0.31536586       0.53996853       0.74420707 </v>
  </varray>
 </structure>
 <calculation>
  <scstep>
   <time name="dav">   54.58   54.60</time>
   <time name="total">   54.72   54.78</time>
   <energy>
    <i name="alphaZ">  16293.21160653 </i>
    <i name="ewald"> 738353.96114772 </i>
    <i name="hartreedc">-928852.95639139 </i>
    <i name="XCdc">  -6511.88637431 </i>
    <i name="pawpsdc"> 162273.92519768 </i>
    <i name="pawaedc">-159623.75899949 </i>
    <i name="eentropy">     -1.07134270 </i>
    <i name="bandstr">  38483.66145113 </i>
    <i name="atom"> 168671.76673737 </i>
    <i name="e_fr_energy">  29086.85303253 </i>
    <i name="e_wo_entrp">  29087.92437524 </i>
    <i name="e_0_energy">  29087.38870389 </i>
   </energy>
  </scstep>
  <scstep>
   <time name="dav">   54.34   54.36</time>
   <time name="total">   54.35   54.37</time>
   <energy>
    <i name="e_fr_energy">   1190.09046608 </i>
    <i name="e_wo_entrp">   1191.57342219 </i>
    <i name="e_0_energy">   1190.83194413 </i>
   </energy>
  </scstep>
  <scstep>
   <time name="dav">   71.12   71.16</time>
   <time name="total">   71.13   71.16</time>
   <energy>
    <i name="e_fr_energy">  -1949.34229621 </i>
    <i name="e_wo_entrp">  -1945.78575462 </i>
    <i name="e_0_energy">  -1947.56402542 </i>
   </energy>
  </scstep>
  <scstep>
   <time name="dav">   89.18   89.23</time>
   <time name="total">   89.19   89.23</time>
   <energy>
    <i name="e_fr_energy">  -2618.94112362 </i>
    <i name="e_wo_entrp">  -2615.42720794 </i>
    <i name="e_0_energy">  -2617.18416578 </i>
   </energy>
  </scstep>
  <scstep>
   <time name="dav">   85.30   85.33</time>
   <time name="total">   87.32   87.36</time>
   <energy>
    <i name="e_fr_energy">  -2738.67724899 </i>
    <i name="e_wo_entrp">  -2735.03494443 </i>
    <i name="e_0_energy">  -2736.85609671 </i>
   </energy>
  </scstep>
  <scstep>
   <time name="diag">    8.27    8.27</time>
   <time name="diis">   37.24   37.24</time>
   <time name="orth">    2.32    2.32</time>
   <time name="total">   49.95   49.99</time>
   <energy>
    <i name="e_fr_energy">  -4877.31287380 </i>
    <i name="e_wo_entrp">  -4873.51079074 </i>
    <i name="e_0_energy">  -4875.41183227 </i>
   </energy>
  </scstep>
  <scstep>
   <time name="diag">    8.28    8.28</time>
   <time name="diis">   23.97   23.97</time>
   <time name="orth">    2.32    2.32</time>
   <time name="total">   36.69   36.73</time>
[...]
       <r>     5.9216     0.0000  2772.0000 </r>
       <r>     5.9646     0.0000  2772.0000 </r>
       <r>     6.0077     0.0000  2772.0000 </r>
       <r>     6.0507     0.0000  2772.0000 </r>
       <r>     6.0938     0.0000  2772.0000 </r>
       <r>     6.1368     0.0000  2772.0000 </r>
       <r>     6.1799     0.0000  2772.0000 </r>
       <r>     6.2230     0.0000  2772.0000 </r>
       <r>     6.2660     0.0000  2772.0000 </r>
       <r>     6.3091     0.0000  2772.0000 </r>
       <r>     6.3521     0.0000  2772.0000 </r>
       <r>     6.3952     0.0000  2772.0000 </r>
       <r>     6.4382     0.0000  2772.0000 </r>
       <r>     6.4813     0.0000  2772.0000 </r>
       <r>     6.5243     0.0000  2772.0000 </r>
       <r>     6.5674     0.0000  2772.0000 </r>
       <r>     6.6104     0.0000  2772.0000 </r>
       <r>     6.6535     0.0000  2772.0000 </r>
       <r>     6.6966     0.0000  2772.0000 </r>
       <r>     6.7396     0.0000  2772.0000 </r>
       <r>     6.7827     0.0000  2772.0000 </r>
       <r>     6.8257     0.0000  2772.0000 </r>
       <r>     6.8688     0.0000  2772.0000 </r>
      </set>
     </set>
    </array>
   </total>
  </dos>
 </calculation>
 <structure name="finalpos" >
  <crystal>
   <varray name="basis" >
    <v>       9.72667804       0.00000000       0.00000000 </v>
    <v>       0.00000000       8.42355028       0.00000000 </v>
    <v>       0.00000000       0.00000000      45.00000000 </v>
   </varray>
   <i name="volume">   3686.99226691 </i>
   <varray name="rec_basis" >
    <v>       0.10281002       0.00000000       0.00000000 </v>
    <v>       0.00000000       0.11871479       0.00000000 </v>
    <v>       0.00000000       0.00000000       0.02222222 </v>
   </varray>
  </crystal>
  <varray name="positions" >
   <v>       0.06167802       0.03132252       0.12412359 </v>
   <v>       0.31634031       0.87474078       0.65483102 </v>
   <v>       0.18560871       0.12261637       0.78832744 </v>
   <v>       0.44029942       0.28845756       0.38930497 </v>
   <v>       0.31672637       0.71215777       0.83229890 </v>
   <v>       0.81816244       0.21369604       0.83337236 </v>
   <v>       0.19016751       0.96242437       0.83311345 </v>
   <v>       0.56239319       0.20723376       0.56511872 </v>
   <v>       0.06500341       0.03997917       0.74375475 </v>
   <v>       0.81103051       0.87132640       0.52105187 </v>
   <v>       0.19024745       0.29033370       0.74403451 </v>
   <v>       0.93493572       0.45244055       0.34536782 </v>
   <v>       0.94218179       0.28814467       0.38899700 </v>
   <v>       0.81387247       0.03963429       0.87571589 </v>
   <v>       0.18357609       0.78775994       0.61047923 </v>
   <v>       0.56462836       0.03829636       0.38908845 </v>
   <v>       0.94195951       0.96343386       0.83355642 </v>
   <v>       0.31421739       0.53849117       0.87604948 </v>
   <v>       0.69100375       0.29048938       0.74380472 </v>
   <v>       0.18290439       0.61400426       0.16666842 </v>
   <v>       0.81158021       0.20600429       0.47825282 </v>
   <v>       0.80835294       0.53789438       0.61063321 </v>
   <v>       0.31331649       0.87048412       0.43432308 </v>
   <v>       0.80881750       0.03862378       0.25674129 </v>
   <v>       0.68325449       0.95288181       0.34530297 </v>
   <v>       0.93136560       0.11454648       0.16689262 </v>
   <v>       0.06201309       0.87125941       0.52105890 </v>
   <v>       0.55859471       0.53896235       0.25636714 </v>
   <v>       0.68621737       0.79327517       0.87582501 </v>
   <v>       0.55586703       0.36569194       0.16682481 </v>
   <v>       0.44021987       0.79006335       0.74426620 </v>
   <v>       0.81106019       0.70655223       0.56517022 </v>
   <v>       0.56014697       0.87175926       0.78820762 </v>
   <v>       0.68571723       0.12139817       0.52104414 </v>
   <v>       0.81619291       0.37447615       0.65509984 </v>
   <v>       0.94164771       0.46213209       0.83346062 </v>
   <v>       0.05912916       0.20791095       0.69975677 </v>
   <v>       0.43552361       0.95840552       0.69973240 </v>
   <v>       0.31594034       0.21224308       0.83283343 </v>
   <v>       0.44182432       0.62440289       0.65479467 </v>
   <v>       0.30919840       0.53811543       0.61049746 </v>
   <v>       0.93632282       0.45797567       0.56525232 </v>
   <v>       0.69021416       0.79094464       0.74391135 </v>
   <v>       0.93396996       0.78863383       0.12443575 </v>
   <v>       0.68985313       0.78727991       0.38895898 </v>
   <v>       0.94034021       0.79043446       0.74390889 </v>
   <v>       0.06008032       0.20331338       0.34538201 </v>
   <v>       0.81582316       0.03810477       0.38894113 </v>
   <v>       0.43556146       0.12208379       0.78854323 </v>
   <v>       0.06505390       0.20598748       0.21204869 </v>
   <v>       0.05544857       0.36601574       0.16679273 </v>
   <v>       0.93447471       0.78915082       0.25660478 </v>
   <v>       0.56151504       0.20835464       0.69982021 </v>
   <v>       0.68608506       0.95877996       0.69976474 </v>
   <v>       0.80989060       0.87284986       0.78813608 </v>
   <v>       0.43711489       0.95685703       0.56500185 </v>
   <v>       0.81076379       0.37157941       0.78805989 </v>
   <v>       0.68378776       0.29005360       0.25666754 </v>
   <v>       0.18751043       0.45825907       0.56503999 </v>
   <v>       0.05635183       0.86562815       0.16667784 </v>
   <v>       0.18432634       0.28854363       0.61064855 </v>
   <v>       0.19272450       0.78649968       0.38909096 </v>
   <v>       0.30969525       0.20853137       0.69988059 </v>
   <v>       0.56498291       0.53842464       0.87596821 </v>
   <v>       0.06174629       0.70619975       0.56516544 </v>
   <v>       0.68412680       0.62092086       0.78796651 </v>
   <v>       0.31684568       0.53643770       0.38934002 </v>
   <v>       0.18754811       0.62145287       0.52089031 </v>
   <v>       0.56073813       0.87052726       0.43443741 </v>
   <v>       0.43714610       0.45809392       0.56500348 </v>
   <v>       0.44007437       0.29101563       0.74420109 </v>
   <v>       0.81856508       0.87470619       0.30097082 </v>
   <v>       0.80873764       0.70262753       0.34527311 </v>
   <v>       0.44170174       0.46229989       0.83244931 </v>
   <v>       0.68604096       0.95570402       0.47823506 </v>
   <v>       0.68615215       0.45719425       0.69976560 </v>
   <v>       0.56097278       0.87119599       0.52099273 </v>
   <v>       0.56735035       0.37470573       0.65487832 </v>
   <v>       0.81633167       0.87488795       0.65503038 </v>
   <v>       0.81189363       0.37161198       0.43431902 </v>
   <v>       0.80918224       0.53804906       0.25670925 </v>
   <v>       0.69231493       0.46027887       0.83301211 </v>
   <v>       0.18621986       0.78840314       0.12403027 </v>
   <v>       0.68967542       0.28785474       0.38903743 </v>
   <v>       0.31615358       0.37488148       0.65496703 </v>
   <v>       0.30983019       0.20325945       0.34570465 </v>
   <v>       0.81550014       0.53910153       0.74369213 </v>
   <v>       0.69259284       0.96180652       0.83282102 </v>
   <v>       0.56699366       0.87406119       0.65488685 </v>
   <v>       0.31231134       0.70708220       0.56498260 </v>
   <v>       0.31176092       0.53296910       0.12420400 </v>
   <v>       0.68766256       0.95580667       0.21224219 </v>
   <v>       0.31259563       0.20660125       0.56498981 </v>
   <v>       0.18824619       0.95564816       0.47813720 </v>
   <v>       0.68739243       0.95703115       0.56505765 </v>
   <v>       0.43428027       0.78793947       0.61042955 </v>
   <v>       0.68235340       0.61270017       0.16666441 </v>
   <v>       0.31885816       0.87494645       0.30089945 </v>
   <v>       0.31330252       0.70491723       0.47805178 </v>
   <v>       0.93294788       0.28826117       0.61072813 </v>
   <v>       0.44356202       0.62507161       0.30098225 </v>
   <v>       0.80692773       0.86462543       0.16696064 </v>
   <v>       0.56578183       0.20370553       0.21228455 </v>
   <v>       0.93280966       0.61350103       0.16662404 </v>
   <v>       0.43706661       0.95556411       0.47813686 </v>
   <v>       0.55955882       0.37127082       0.78818679 </v>
   <v>       0.06156315       0.37213759       0.52093823 </v>
   <v>       0.30734127       0.36535087       0.16687440 </v>
   <v>       0.69395302       0.12456789       0.30102333 </v>
   <v>       0.44227202       0.96193616       0.83246919 </v>
   <v>       0.18477560       0.28692761       0.12434990 </v>
   <v>       0.18463989       0.29012282       0.25659176 </v>
   <v>       0.31300366       0.37112930       0.43421826 </v>
   <v>       0.56224844       0.03291356       0.12433182 </v>
   <v>       0.43423611       0.28875079       0.61043162 </v>
   <v>       0.18451887       0.45255982       0.34560888 </v>
   <v>       0.43407524       0.28660930       0.12441954 </v>
   <v>       0.68364367       0.78965696       0.25658115 </v>
   <v>       0.43679498       0.12119752       0.52094516 </v>
   <v>       0.18708825       0.29283244       0.87603349 </v>
   <v>       0.19047295       0.12535062       0.65505216 </v>
   <v>       0.94099891       0.12519789       0.65513898 </v>
   <v>       0.81602694       0.53670369       0.38903802 </v>
   <v>       0.06776590       0.03863131       0.38897671 </v>
   <v>       0.18293298       0.11238489       0.16636298 </v>
   <v>       0.05838812       0.53793239       0.61061872 </v>
   <v>       0.93466074       0.29019924       0.25661364 </v>
   <v>       0.55906680       0.53849783       0.61042056 </v>
   <v>       0.93637226       0.95637074       0.56507357 </v>
   <v>       0.69372154       0.62502982       0.30090065 </v>
   <v>       0.93748509       0.61984789       0.43438940 </v>
   <v>       0.93542707       0.62161652       0.78799632 </v>
   <v>       0.56122264       0.70739759       0.69976837 </v>
   <v>       0.06571215       0.71520561       0.83352915 </v>
   <v>       0.94426839       0.12436903       0.30096011 </v>
   <v>       0.93337227       0.78741373       0.61059671 </v>
   <v>       0.43414665       0.79019805       0.25654128 </v>
   <v>       0.31108190       0.37230942       0.78817338 </v>
   <v>       0.43949994       0.45736637       0.21218944 </v>
   <v>       0.18744283       0.12065929       0.52075842 </v>
   <v>       0.81037877       0.70771147       0.69968902 </v>
   <v>       0.05820295       0.03740794       0.61079503 </v>
   <v>       0.56656707       0.21320718       0.83266390 </v>
   <v>       0.31217286       0.87092029       0.52088593 </v>
   <v>       0.68668131       0.28755838       0.12408746 </v>
   <v>       0.18969285       0.95549812       0.21249033 </v>
   <v>       0.68357511       0.28848271       0.61062010 </v>
   <v>       0.30875780       0.03780982       0.61049755 </v>
   <v>       0.93554282       0.12296849       0.78827489 </v>
   <v>       0.43668379       0.79325350       0.87604941 </v>
   <v>       0.81556147       0.04104089       0.74366694 </v>
   <v>       0.93464750       0.45732367       0.69976460 </v>
   <v>       0.19078103       0.62472067       0.65494419 </v>
   <v>       0.31026209       0.70787835       0.69970448 </v>
   <v>       0.93405564       0.28697753       0.12416119 </v>
   <v>       0.43690177       0.45588797       0.47782218 </v>
   <v>       0.06318278       0.70492513       0.47816516 </v>
   <v>       0.93757521       0.12165892       0.43455062 </v>
   <v>       0.44344923       0.12420979       0.30100177 </v>
   <v>       0.18944431       0.12221312       0.43429615 </v>
   <v>       0.56439015       0.03891748       0.87616163 </v>
   <v>       0.18748423       0.95616458       0.56502531 </v>
   <v>       0.68459566       0.78884283       0.12460797 </v>
   <v>       0.55906109       0.70290249       0.34546679 </v>
   <v>       0.31702782       0.03891628       0.38918378 </v>
   <v>       0.68222295       0.11444287       0.16693126 </v>
   <v>       0.81449404       0.20585680       0.21192761 </v>
   <v>       0.06075392       0.53914190       0.25638984 </v>
   <v>       0.56077027       0.70519788       0.47812711 </v>
   <v>       0.43397953       0.78791912       0.12420088 </v>
   <v>       0.56873495       0.37470200       0.30101425 </v>
   <v>       0.43381434       0.95282960       0.34552226 </v>
   <v>       0.18435878       0.95886991       0.69984490 </v>
   <v>       0.43117294       0.61430463       0.16662314 </v>
   <v>       0.94020799       0.45656997       0.21233284 </v>
   <v>       0.06150117       0.53210188       0.12419182 </v>
   <v>       0.81130966       0.37148152       0.52099293 </v>
   <v>       0.94381013       0.62425654       0.30097871 </v>
   <v>       0.31030876       0.03808331       0.25625159 </v>
   <v>       0.68366722       0.78776035       0.61050601 </v>
   <v>       0.19112748       0.46237987       0.83267284 </v>
   <v>       0.43250344       0.11269649       0.16651892 </v>
   <v>       0.31198832       0.37190958       0.52085399 </v>
   <v>       0.43433887       0.61975691       0.78830836 </v>
   <v>       0.06023962       0.03845210       0.25659023 </v>
   <v>       0.56201342       0.70708432       0.56507044 </v>
   <v>       0.93997756       0.28946737       0.74382458 </v>
   <v>       0.68381173       0.12195544       0.78816374 </v>
   <v>       0.18904114       0.45771843       0.21222350 </v>
   <v>       0.94180493       0.78712098       0.38889426 </v>
   <v>       0.68812354       0.29571778       0.87602892 </v>
   <v>       0.55538793       0.86489930       0.16667375 </v>
   <v>       0.43591282       0.45715205       0.69965124 </v>
   <v>       0.93434036       0.95248980       0.34518696 </v>
   <v>       0.68539473       0.62156051       0.52095380 </v>
   <v>       0.06545593       0.87454563       0.65500072 </v>
   <v>       0.06091812       0.87203569       0.78827895 </v>
   <v>       0.06563158       0.37454842       0.65508429 </v>
   <v>       0.68547780       0.45536798       0.47811410 </v>
   <v>       0.18521685       0.78951935       0.25639356 </v>
   <v>       0.43657330       0.12216257       0.43428787 </v>
   <v>       0.81346826       0.03224157       0.12414381 </v>
   <v>       0.93648497       0.62140116       0.52102416 </v>
   <v>       0.06352519       0.87057715       0.43440471 </v>
   <v>       0.81310826       0.53099316       0.12411367 </v>
   <v>       0.43321412       0.45236694       0.34574592 </v>
   <v>       0.80924187       0.20340411       0.34533436 </v>
   <v>       0.30967320       0.70276308       0.34552465 </v>
   <v>       0.69225066       0.12534030       0.65506582 </v>
   <v>       0.56873177       0.87502625       0.30103657 </v>
   <v>       0.06533746       0.53919740       0.74397468 </v>
   <v>       0.94131220       0.95487349       0.21184690 </v>
   <v>       0.81597048       0.70519293       0.21197611 </v>
   <v>       0.06906390       0.87458027       0.30097305 </v>
   <v>       0.19456051       0.12492293       0.30103561 </v>
   <v>       0.05978451       0.70232244       0.34540506 </v>
   <v>       0.80879978       0.03807283       0.61069487 </v>
   <v>       0.06406141       0.37062818       0.43423691 </v>
   <v>       0.55890648       0.20306611       0.34561354 </v>
   <v>       0.81894779       0.37486092       0.30091858 </v>
   <v>       0.55868765       0.03885314       0.25630434 </v>
   <v>       0.56402485       0.53685014       0.38930238 </v>
   <v>       0.06302873       0.20610456       0.47810779 </v>
   <v>       0.31189281       0.87014301       0.78804818 </v>
   <v>       0.93480318       0.95923750       0.69974133 </v>
   <v>       0.06902686       0.37498684       0.30108485 </v>
   <v>       0.69168998       0.62454054       0.65493522 </v>
   <v>       0.68659637       0.45760181       0.56515009 </v>
   <v>       0.43921823       0.95657192       0.21277590 </v>
   <v>       0.31308596       0.20656520       0.47783485 </v>
   <v>       0.81383463       0.53777104       0.87587853 </v>
   <v>       0.68578477       0.61949587       0.43439573 </v>
   <v>       0.81101760       0.20768954       0.69978722 </v>
   <v>       0.81129175       0.70513971       0.47828615 </v>
   <v>       0.81152999       0.87122918       0.43439195 </v>
   <v>       0.93721894       0.95583607       0.47841258 </v>
   <v>       0.56095097       0.20652833       0.47795939 </v>
   <v>       0.18970586       0.61858199       0.43427522 </v>
   <v>       0.31503319       0.04111833       0.74393616 </v>
   <v>       0.94089514       0.62466266       0.65498146 </v>
   <v>       0.56628311       0.71198366       0.83268228 </v>
   <v>       0.31861958       0.37466458       0.30095306 </v>
   <v>       0.56398626       0.70523912       0.21205163 </v>
   <v>       0.18857946       0.45531559       0.47779226 </v>
   <v>       0.31343750       0.03951366       0.87590066 </v>
   <v>       0.18384057       0.45732429       0.69976005 </v>
   <v>       0.56091083       0.37182768       0.52096232 </v>
   <v>       0.19301040       0.28872125       0.38925986 </v>
   <v>       0.43635429       0.61877988       0.43431473 </v>
   <v>       0.06754461       0.70556829       0.21203380 </v>
   <v>       0.56016296       0.37159002       0.43427796 </v>
   <v>       0.43663854       0.62171830       0.52086497 </v>
   <v>       0.81754275       0.71421551       0.83313116 </v>
   <v>       0.06183179       0.37299157       0.78804723 </v>
   <v>       0.43771387       0.29443317       0.87623382 </v>
   <v>       0.31106036       0.03143194       0.12408202 </v>
   <v>       0.68607387       0.12111967       0.43441130 </v>
   <v>       0.18463972       0.95302819       0.34542027 </v>
   <v>       0.06567614       0.21305853       0.83358264 </v>
   <v>       0.55925065       0.03793542       0.61042951 </v>
   <v>       0.68790297       0.45619030       0.21242935 </v>
   <v>       0.18985308       0.79010970       0.74406902 </v>
   <v>       0.19423494       0.62444117       0.30101431 </v>
   <v>       0.44061852       0.78661693       0.38920378 </v>
   <v>       0.43389554       0.28997960       0.25663964 </v>
   <v>       0.06391378       0.53870014       0.87579588 </v>
   <v>       0.56614240       0.04058424       0.74398366 </v>
   <v>       0.18635285       0.79384591       0.87589811 </v>
   <v>       0.93719153       0.45497972       0.47805489 </v>
   <v>       0.56605664       0.53991942       0.74398480 </v>
   <v>       0.81031351       0.20657920       0.56506418 </v>
   <v>       0.18623738       0.61948087       0.78804049 </v>
   <v>       0.06852730       0.53660399       0.38900759 </v>
   <v>       0.05971047       0.70767722       0.69971029 </v>
   <v>       0.30931455       0.53853408       0.25609067 </v>
   <v>       0.31466627       0.70471722       0.21287276 </v>
   <v>       0.30598860       0.86583273       0.16609697 </v>
   <v>       0.31571152       0.20526976       0.21251199 </v>
   <v>       0.68292315       0.45254667       0.34546352 </v>
   <v>       0.93517463       0.29483921       0.87562027 </v>
   <v>       0.93763489       0.79278127       0.87561167 </v>
   <v>       0.06416677       0.03749713       0.87564268 </v>
   <v>       0.56246450       0.53075921       0.12460627 </v>
   <v>       0.80514603       0.36714716       0.16627353 </v>
   <v>       0.44276187       0.12504167       0.65476211 </v>
   <v>       0.93604354       0.12113248       0.52071838 </v>
   <v>       0.06311245       0.20654911       0.56526101 </v>
   <v>       0.31508105       0.53923969       0.74459874 </v>
  </varray>
 </structure>
</modeling>
