 288 288   0   0
  0.1280206E+02  0.9726678E-09  0.8423550E-09  0.4500000E-08  0.2500000E-15
  1.000000000000000E-004
  CAR 
 unknown system                          
      6.76259489     -6.05716747  301      4.30356414      1.00000000
     -6.057  0.0000E+00  0.0000E+00
     -6.014  0.0000E+00  0.0000E+00
     -5.972  0.0000E+00  0.0000E+00
     -5.929  0.0000E+00  0.0000E+00
     -5.886  0.0000E+00  0.0000E+00
     -5.844  0.0000E+00  0.0000E+00
     -5.801  0.0000E+00  0.0000E+00
     -5.758  0.0000E+00  0.0000E+00
     -5.715  0.0000E+00  0.0000E+00
     -5.673  0.0000E+00  0.0000E+00
     -5.630  0.0000E+00  0.0000E+00
     -5.587  0.0000E+00  0.0000E+00
     -5.544  0.0000E+00  0.0000E+00
     -5.502  0.0000E+00  0.0000E+00
     -5.459  0.0000E+00  0.0000E+00
     -5.416  0.1624E-15  0.6939E-17
     -5.373  0.3930E-14  0.1749E-15
     -5.331  0.8460E-13  0.3790E-14
     -5.288  0.1543E-11  0.6971E-13
     -5.245  0.2397E-10  0.1094E-11
     -5.203  0.3171E-09  0.1464E-10
     -5.160  0.3575E-08  0.1674E-09
     -5.117  0.3434E-07  0.1635E-08
     -5.074  0.2812E-06  0.1365E-07
     -5.032  0.1964E-05  0.9757E-07
     -4.989  0.1171E-04  0.5980E-06
     -4.946  0.5971E-04  0.3149E-05
     -4.903  0.2608E-03  0.1429E-04
     -4.861  0.9787E-03  0.5612E-04
     -4.818  0.3171E-02  0.1916E-03
     -4.775  0.8931E-02  0.5733E-03
     -4.732  0.2205E-01  0.1516E-02
     -4.690  0.4832E-01  0.3580E-02
     -4.647  0.9514E-01  0.7646E-02
     -4.604  0.1706E+00  0.1494E-01
     -4.562  0.2819E+00  0.2698E-01
     -4.519  0.4323E+00  0.4546E-01
     -4.476  0.6196E+00  0.7193E-01
     -4.433  0.8336E+00  0.1076E+00
     -4.391  0.1058E+01  0.1528E+00
     -4.348  0.1273E+01  0.2072E+00
     -4.305  0.1459E+01  0.2695E+00
     -4.262  0.1605E+01  0.3381E+00
     -4.220  0.1711E+01  0.4112E+00
     -4.177  0.1791E+01  0.4878E+00
     -4.134  0.1869E+01  0.5676E+00
     -4.091  0.1972E+01  0.6519E+00
     -4.049  0.2119E+01  0.7425E+00
     -4.006  0.2314E+01  0.8414E+00
     -3.963  0.2541E+01  0.9499E+00
     -3.921  0.2768E+01  0.1068E+01
     -3.878  0.2960E+01  0.1195E+01
     -3.835  0.3088E+01  0.1327E+01
     -3.792  0.3141E+01  0.1461E+01
     -3.750  0.3132E+01  0.1595E+01
     -3.707  0.3096E+01  0.1727E+01
     -3.664  0.3079E+01  0.1859E+01
     -3.621  0.3117E+01  0.1992E+01
     -3.579  0.3227E+01  0.2130E+01
     -3.536  0.3402E+01  0.2275E+01
     -3.493  0.3615E+01  0.2430E+01
     -3.450  0.3828E+01  0.2593E+01
     -3.408  0.4005E+01  0.2764E+01
     -3.365  0.4124E+01  0.2941E+01
     -3.322  0.4180E+01  0.3119E+01
     -3.280  0.4188E+01  0.3298E+01
     -3.237  0.4181E+01  0.3477E+01
     -3.194  0.4197E+01  0.3656E+01
     -3.151  0.4272E+01  0.3839E+01
     -3.109  0.4420E+01  0.4028E+01
     -3.066  0.4628E+01  0.4225E+01
     -3.023  0.4864E+01  0.4433E+01
     -2.980  0.5084E+01  0.4650E+01
     -2.938  0.5248E+01  0.4875E+01
     -2.895  0.5334E+01  0.5103E+01
     -2.852  0.5355E+01  0.5331E+01
     -2.809  0.5354E+01  0.5560E+01
     -2.767  0.5384E+01  0.5790E+01
     -2.724  0.5471E+01  0.6024E+01
     -2.681  0.5594E+01  0.6263E+01
     -2.639  0.5690E+01  0.6506E+01
     -2.596  0.5699E+01  0.6750E+01
     -2.553  0.5618E+01  0.6990E+01
     -2.510  0.5520E+01  0.7226E+01
     -2.468  0.5522E+01  0.7462E+01
     -2.425  0.5726E+01  0.7706E+01
     -2.382  0.6156E+01  0.7969E+01
     -2.339  0.6725E+01  0.8257E+01
     -2.297  0.7259E+01  0.8567E+01
     -2.254  0.7570E+01  0.8891E+01
     -2.211  0.7560E+01  0.9214E+01
     -2.169  0.7292E+01  0.9525E+01
     -2.126  0.6959E+01  0.9823E+01
     -2.083  0.6786E+01  0.1011E+02
     -2.040  0.6913E+01  0.1041E+02
     -1.998  0.7334E+01  0.1072E+02
     -1.955  0.7914E+01  0.1106E+02
     -1.912  0.8458E+01  0.1142E+02
     -1.869  0.8802E+01  0.1180E+02
     -1.827  0.8893E+01  0.1218E+02
     -1.784  0.8807E+01  0.1255E+02
     -1.741  0.8693E+01  0.1292E+02
     -1.698  0.8674E+01  0.1330E+02
     -1.656  0.8791E+01  0.1367E+02
     -1.613  0.9010E+01  0.1406E+02
     -1.570  0.9279E+01  0.1445E+02
     -1.528  0.9563E+01  0.1486E+02
     -1.485  0.9848E+01  0.1528E+02
     -1.442  0.1012E+02  0.1571E+02
     -1.399  0.1035E+02  0.1616E+02
     -1.357  0.1051E+02  0.1661E+02
     -1.314  0.1065E+02  0.1706E+02
     -1.271  0.1088E+02  0.1753E+02
     -1.228  0.1139E+02  0.1801E+02
     -1.186  0.1226E+02  0.1854E+02
     -1.143  0.1337E+02  0.1911E+02
     -1.100  0.1445E+02  0.1973E+02
     -1.057  0.1519E+02  0.2037E+02
     -1.015  0.1546E+02  0.2104E+02
     -0.972  0.1545E+02  0.2170E+02
     -0.929  0.1554E+02  0.2236E+02
     -0.887  0.1611E+02  0.2305E+02
     -0.844  0.1733E+02  0.2379E+02
     -0.801  0.1910E+02  0.2460E+02
     -0.758  0.2129E+02  0.2551E+02
     -0.716  0.2390E+02  0.2654E+02
     -0.673  0.2709E+02  0.2769E+02
     -0.630  0.3103E+02  0.2902E+02
     -0.587  0.3558E+02  0.3054E+02
     -0.545  0.4025E+02  0.3226E+02
     -0.502  0.4447E+02  0.3416E+02
     -0.459  0.4783E+02  0.3620E+02
     -0.416  0.5036E+02  0.3836E+02
     -0.374  0.5230E+02  0.4059E+02
     -0.331  0.5394E+02  0.4290E+02
     -0.288  0.5537E+02  0.4526E+02
     -0.246  0.5653E+02  0.4768E+02
     -0.203  0.5729E+02  0.5013E+02
     -0.160  0.5764E+02  0.5259E+02
     -0.117  0.5770E+02  0.5505E+02
     -0.075  0.5773E+02  0.5752E+02
     -0.032  0.5797E+02  0.6000E+02
      0.011  0.5860E+02  0.6250E+02
      0.054  0.5977E+02  0.6506E+02
      0.096  0.6166E+02  0.6769E+02
      0.139  0.6433E+02  0.7044E+02
      0.182  0.6765E+02  0.7333E+02
      0.225  0.7127E+02  0.7638E+02
      0.267  0.7481E+02  0.7957E+02
      0.310  0.7798E+02  0.8291E+02
      0.353  0.8066E+02  0.8635E+02
      0.395  0.8286E+02  0.8989E+02
      0.438  0.8459E+02  0.9351E+02
      0.481  0.8584E+02  0.9718E+02
      0.524  0.8653E+02  0.1009E+03
      0.566  0.8667E+02  0.1046E+03
      0.609  0.8636E+02  0.1083E+03
      0.652  0.8573E+02  0.1119E+03
      0.695  0.8483E+02  0.1156E+03
      0.737  0.8357E+02  0.1191E+03
      0.780  0.8191E+02  0.1226E+03
      0.823  0.8003E+02  0.1260E+03
      0.866  0.7831E+02  0.1294E+03
      0.908  0.7712E+02  0.1327E+03
      0.951  0.7656E+02  0.1360E+03
      0.994  0.7641E+02  0.1392E+03
      1.036  0.7625E+02  0.1425E+03
      1.079  0.7576E+02  0.1457E+03
      1.122  0.7488E+02  0.1489E+03
      1.165  0.7389E+02  0.1521E+03
      1.207  0.7325E+02  0.1552E+03
      1.250  0.7321E+02  0.1583E+03
      1.293  0.7363E+02  0.1615E+03
      1.336  0.7393E+02  0.1646E+03
      1.378  0.7351E+02  0.1678E+03
      1.421  0.7219E+02  0.1709E+03
      1.464  0.7035E+02  0.1739E+03
      1.506  0.6867E+02  0.1768E+03
      1.549  0.6775E+02  0.1797E+03
      1.592  0.6790E+02  0.1826E+03
      1.635  0.6904E+02  0.1856E+03
      1.677  0.7093E+02  0.1886E+03
      1.720  0.7326E+02  0.1917E+03
      1.763  0.7575E+02  0.1950E+03
      1.806  0.7819E+02  0.1983E+03
      1.848  0.8047E+02  0.2017E+03
      1.891  0.8253E+02  0.2053E+03
      1.934  0.8436E+02  0.2089E+03
      1.977  0.8603E+02  0.2125E+03
      2.019  0.8761E+02  0.2163E+03
      2.062  0.8918E+02  0.2201E+03
      2.105  0.9076E+02  0.2240E+03
      2.147  0.9236E+02  0.2279E+03
      2.190  0.9400E+02  0.2319E+03
      2.233  0.9577E+02  0.2360E+03
      2.276  0.9786E+02  0.2402E+03
      2.318  0.1005E+03  0.2445E+03
      2.361  0.1040E+03  0.2490E+03
      2.404  0.1081E+03  0.2536E+03
      2.447  0.1126E+03  0.2584E+03
      2.489  0.1170E+03  0.2634E+03
      2.532  0.1210E+03  0.2686E+03
      2.575  0.1243E+03  0.2739E+03
      2.618  0.1267E+03  0.2793E+03
      2.660  0.1282E+03  0.2848E+03
      2.703  0.1291E+03  0.2903E+03
      2.746  0.1298E+03  0.2958E+03
      2.788  0.1310E+03  0.3014E+03
      2.831  0.1332E+03  0.3071E+03
      2.874  0.1364E+03  0.3129E+03
      2.917  0.1400E+03  0.3189E+03
      2.959  0.1426E+03  0.3250E+03
      3.002  0.1426E+03  0.3311E+03
      3.045  0.1388E+03  0.3370E+03
      3.088  0.1315E+03  0.3427E+03
      3.130  0.1220E+03  0.3479E+03
      3.173  0.1122E+03  0.3527E+03
      3.216  0.1037E+03  0.3571E+03
      3.259  0.9747E+02  0.3613E+03
      3.301  0.9349E+02  0.3653E+03
      3.344  0.9142E+02  0.3692E+03
      3.387  0.9060E+02  0.3730E+03
      3.429  0.9023E+02  0.3769E+03
      3.472  0.8957E+02  0.3807E+03
      3.515  0.8819E+02  0.3845E+03
      3.558  0.8619E+02  0.3882E+03
      3.600  0.8423E+02  0.3918E+03
      3.643  0.8314E+02  0.3953E+03
      3.686  0.8353E+02  0.3989E+03
      3.729  0.8545E+02  0.4026E+03
      3.771  0.8839E+02  0.4063E+03
      3.814  0.9163E+02  0.4102E+03
      3.857  0.9463E+02  0.4143E+03
      3.900  0.9716E+02  0.4184E+03
      3.942  0.9925E+02  0.4227E+03
      3.985  0.1010E+03  0.4270E+03
      4.028  0.1023E+03  0.4314E+03
      4.070  0.1031E+03  0.4358E+03
      4.113  0.1033E+03  0.4402E+03
      4.156  0.1028E+03  0.4446E+03
      4.199  0.1017E+03  0.4489E+03
      4.241  0.1005E+03  0.4532E+03
      4.284  0.9953E+02  0.4575E+03
      4.327  0.9913E+02  0.4617E+03
      4.370  0.9938E+02  0.4660E+03
      4.412  0.1001E+03  0.4702E+03
      4.455  0.1009E+03  0.4745E+03
      4.498  0.1013E+03  0.4789E+03
      4.541  0.1010E+03  0.4832E+03
      4.583  0.1001E+03  0.4875E+03
      4.626  0.9905E+02  0.4917E+03
      4.669  0.9845E+02  0.4959E+03
      4.711  0.9885E+02  0.5001E+03
      4.754  0.1005E+03  0.5044E+03
      4.797  0.1031E+03  0.5088E+03
      4.840  0.1064E+03  0.5134E+03
      4.882  0.1096E+03  0.5181E+03
      4.925  0.1123E+03  0.5229E+03
      4.968  0.1138E+03  0.5277E+03
      5.011  0.1131E+03  0.5326E+03
      5.053  0.1093E+03  0.5372E+03
      5.096  0.1014E+03  0.5416E+03
      5.139  0.8901E+02  0.5454E+03
      5.181  0.7289E+02  0.5485E+03
      5.224  0.5491E+02  0.5508E+03
      5.267  0.3760E+02  0.5524E+03
      5.310  0.2316E+02  0.5534E+03
      5.352  0.1272E+02  0.5540E+03
      5.395  0.6189E+01  0.5542E+03
      5.438  0.2652E+01  0.5543E+03
      5.481  0.9972E+00  0.5544E+03
      5.523  0.3278E+00  0.5544E+03
      5.566  0.9393E-01  0.5544E+03
      5.609  0.2342E-01  0.5544E+03
      5.652  0.5069E-02  0.5544E+03
      5.694  0.9515E-03  0.5544E+03
      5.737  0.1546E-03  0.5544E+03
      5.780  0.2173E-04  0.5544E+03
      5.822  0.2637E-05  0.5544E+03
      5.865  0.2761E-06  0.5544E+03
      5.908  0.2491E-07  0.5544E+03
      5.951  0.1936E-08  0.5544E+03
      5.993  0.1294E-09  0.5544E+03
      6.036  0.7431E-11  0.5544E+03
      6.079  0.3659E-12  0.5544E+03
      6.122  0.1429E-13  0.5544E+03
      6.164  0.1949E-15  0.5544E+03
      6.207  0.0000E+00  0.5544E+03
      6.250  0.0000E+00  0.5544E+03
      6.293  0.0000E+00  0.5544E+03
      6.335  0.0000E+00  0.5544E+03
      6.378  0.0000E+00  0.5544E+03
      6.421  0.0000E+00  0.5544E+03
      6.463  0.0000E+00  0.5544E+03
      6.506  0.0000E+00  0.5544E+03
      6.549  0.0000E+00  0.5544E+03
      6.592  0.0000E+00  0.5544E+03
      6.634  0.0000E+00  0.5544E+03
      6.677  0.0000E+00  0.5544E+03
      6.720  0.0000E+00  0.5544E+03
      6.763  0.0000E+00  0.5544E+03
