<?xml version="1.0" encoding="ISO-8859-1"?>
<modeling>
 <generator>
  <i name="program" type="string">vasp </i>
  <i name="version" type="string">5.4.4.18Apr17-6-g9f103f2a35  </i>
  <i name="subversion" type="string">(build Sep 27 2018 12:46:37) complex + VL-xray_ parallel </i>
  <i name="platform" type="string">LLNL_Quartz_ifc </i>
  <i name="date" type="string">2021 09 26 </i>
  <i name="time" type="string">21:39:34 </i>
 </generator>
 <incar>
  <i type="int" name="ISTART">     2</i>
  <i type="string" name="PREC">accurate</i>
  <i type="string" name="ALGO"> Fast</i>
  <i type="int" name="ICHARG">     2</i>
  <i type="int" name="INIWAV">     1</i>
  <i type="int" name="NELM">   100</i>
  <i type="int" name="NELMIN">     4</i>
  <i type="int" name="IBRION">     2</i>
  <i name="EDIFF">      0.00000100</i>
  <i type="int" name="NSW">     5</i>
  <i type="int" name="ISIF">     2</i>
  <i type="int" name="ISYM">     2</i>
  <i name="ENCUT">    450.00000000</i>
  <i name="POTIM">      0.25000000</i>
  <i type="string" name="LREAL"> Auto</i>
  <i type="int" name="ISMEAR">     0</i>
  <i name="SIGMA">      0.15000000</i>
  <i type="logical" name="LWAVE"> F  </i>
  <i type="logical" name="LCHARG"> F  </i>
  <i type="int" name="ICORELEVEL">     0</i>
  <i type="int" name="CLNT">     1</i>
  <i type="int" name="CLN">     1</i>
  <i type="int" name="INCAR     ">     0</i>
  <i name="CLZ">      0.00000000</i>
  <v type="int" name="KPOINT_BSE">    -1     0     0     0</v>
  <i type="int" name="NELM">   100</i>
 </incar>
 <structure name="primitive_cell" >
  <crystal>
   <varray name="basis" >
    <v>       9.72667804       0.00000000       0.00000000 </v>
    <v>       0.00000000       8.42355028       0.00000000 </v>
    <v>       0.00000000       0.00000000      45.00000000 </v>
   </varray>
   <i name="volume">   3686.99226691 </i>
   <varray name="rec_basis" >
    <v>       0.10281002       0.00000000       0.00000000 </v>
    <v>       0.00000000       0.11871479       0.00000000 </v>
    <v>       0.00000000       0.00000000       0.02222222 </v>
   </varray>
  </crystal>
  <varray name="positions" >
   <v>       0.06171556       0.03521322       0.12447722 </v>
   <v>      -0.05706473       0.11337589       0.16696782 </v>
   <v>       0.19200769       0.11159870       0.16598650 </v>
   <v>       0.18633145       0.28060231       0.12437131 </v>
   <v>      -0.06543909       0.27922120       0.12457102 </v>
   <v>       0.06754213      -0.13830004       0.16679312 </v>
   <v>      -0.18807758       0.03295823       0.12448313 </v>
   <v>       0.31341602       0.03370706       0.12450984 </v>
   <v>      -0.06446220      -0.21984648       0.12446373 </v>
   <v>       0.18796743      -0.22074067       0.12431867 </v>
   <v>       0.06735960       0.36192689       0.16677342 </v>
   <v>      -0.18341450      -0.13763745       0.16685863 </v>
   <v>       0.31872364      -0.13861277       0.16587605 </v>
   <v>      -0.18330693       0.36225267       0.16707944 </v>
   <v>      -0.30789081       0.11110025       0.16696994 </v>
   <v>       0.31594239       0.36093391       0.16670599 </v>
   <v>       0.17992913      -0.04746391       0.21190406 </v>
   <v>       0.05485495       0.20272596       0.21188130 </v>
   <v>      -0.06910764      -0.04693520       0.21192180 </v>
   <v>      -0.31302134       0.28206187       0.12429880 </v>
   <v>       0.06234451      -0.46646906       0.12459778 </v>
   <v>      -0.05792589      -0.38687296       0.16697375 </v>
   <v>      -0.31149113      -0.21832774       0.12434685 </v>
   <v>       0.44258814       0.11088710       0.16670303 </v>
   <v>       0.43882289       0.28154718       0.12443149 </v>
   <v>       0.19329495      -0.38821483       0.16599939 </v>
   <v>       0.43659981      -0.21944113       0.12414107 </v>
   <v>       0.30527312       0.20282925       0.21195897 </v>
   <v>       0.05527395      -0.29695174       0.21187597 </v>
   <v>      -0.43550050       0.03406955       0.12470998 </v>
   <v>      -0.18887303      -0.46636651       0.12440024 </v>
   <v>       0.31236225      -0.46485497       0.12415013 </v>
   <v>      -0.19418081       0.20313919       0.21192509 </v>
   <v>       0.43063580      -0.04733268       0.21183767 </v>
   <v>      -0.43297566      -0.13691498       0.16667976 </v>
   <v>       0.30566942      -0.29804787       0.21192597 </v>
   <v>       0.18111493       0.45170003       0.21158421 </v>
   <v>      -0.30767632      -0.38912159       0.16700998 </v>
   <v>      -0.06978921       0.45307883       0.21187966 </v>
   <v>      -0.19472384      -0.29702262       0.21183441 </v>
   <v>      -0.31999881      -0.04741514       0.21165320 </v>
   <v>       0.44171689      -0.38746397       0.16683320 </v>
   <v>      -0.43274939       0.36209277       0.16677556 </v>
   <v>       0.06524510       0.03521882       0.25599826 </v>
   <v>      -0.44470606       0.20201370       0.21161889 </v>
   <v>       0.42977815       0.45202800       0.21171544 </v>
   <v>      -0.18445425       0.03509356       0.25606224 </v>
   <v>      -0.05967617       0.28518357       0.25601108 </v>
   <v>      -0.05966650      -0.21466686       0.25602929 </v>
   <v>      -0.43554857      -0.46710780       0.12453184 </v>
   <v>       0.19008148      -0.21428296       0.25600001 </v>
   <v>       0.19005077       0.28558153       0.25597418 </v>
   <v>       0.31521462       0.03546676       0.25603395 </v>
   <v>      -0.31961849       0.45311192       0.21188371 </v>
   <v>      -0.44527615      -0.29855509       0.21183767 </v>
   <v>      -0.30991339      -0.21454959       0.25604968 </v>
   <v>      -0.31007537       0.28546414       0.25603910 </v>
   <v>       0.06545744      -0.46463286       0.25601091 </v>
   <v>       0.43994541      -0.21431309       0.25598666 </v>
   <v>       0.44058384       0.28542641       0.25597519 </v>
   <v>      -0.43496445       0.03548557       0.25602130 </v>
   <v>      -0.18466092      -0.46466242       0.25602221 </v>
   <v>       0.31496981      -0.46431511       0.25603096 </v>
   <v>       0.17870634       0.12224251       0.30032679 </v>
   <v>       0.05376000      -0.12771839       0.30028670 </v>
   <v>      -0.07144112       0.12200274       0.30035192 </v>
   <v>       0.30368308      -0.12771059       0.30032421 </v>
   <v>       0.05364740       0.37227579       0.30036454 </v>
   <v>      -0.19641661      -0.12810368       0.30033668 </v>
   <v>       0.42870310       0.12197242       0.30032627 </v>
   <v>      -0.43498028      -0.46426939       0.25594809 </v>
   <v>       0.17872891      -0.37802622       0.30034677 </v>
   <v>       0.30368815       0.37217132       0.30031863 </v>
   <v>      -0.07145677      -0.37810647       0.30034636 </v>
   <v>      -0.19638989       0.37206407       0.30032802 </v>
   <v>      -0.32143447       0.12200173       0.30035215 </v>
   <v>      -0.44634797      -0.12796586       0.30034114 </v>
   <v>       0.42857756      -0.37799889       0.30035529 </v>
   <v>      -0.32130527      -0.37814527       0.30034655 </v>
   <v>      -0.44632014       0.37204107       0.30034131 </v>
   <v>      -0.05859104      -0.04821959       0.34494792 </v>
   <v>       0.06644589       0.20190083       0.34497013 </v>
   <v>       0.19133261      -0.04808613       0.34497595 </v>
   <v>      -0.18360340       0.20185286       0.34495802 </v>
   <v>       0.06633301      -0.29807303       0.34497883 </v>
   <v>       0.31630448       0.20189992       0.34497210 </v>
   <v>      -0.30860511      -0.04817751       0.34495690 </v>
   <v>      -0.18361475      -0.29788741       0.34496797 </v>
   <v>      -0.05855351       0.45190651       0.34496003 </v>
   <v>       0.19120934       0.45171496       0.34494315 </v>
   <v>       0.31620883      -0.29817109       0.34494310 </v>
   <v>       0.44144116      -0.04813213       0.34497427 </v>
   <v>      -0.43370391       0.20192911       0.34498164 </v>
   <v>      -0.30870493       0.45184735       0.34496083 </v>
   <v>       0.44137257       0.45175462       0.34495494 </v>
   <v>       0.06419276       0.04288234      -0.12434147 </v>
   <v>      -0.43362002      -0.29797998       0.34497680 </v>
   <v>      -0.05872699      -0.20314373      -0.12427511 </v>
   <v>       0.19382407      -0.20289424      -0.12409330 </v>
   <v>      -0.18552701       0.04298855      -0.12426434 </v>
   <v>       0.31498007       0.04178959      -0.12423082 </v>
   <v>      -0.05919827       0.29693925      -0.12414508 </v>
   <v>       0.19105912       0.29547668      -0.12418901 </v>
   <v>       0.05864101       0.03746665       0.38906234 </v>
   <v>      -0.30677509      -0.20310861      -0.12426732 </v>
   <v>       0.06439866      -0.45732597      -0.12426724 </v>
   <v>      -0.30590929       0.29770152      -0.12416720 </v>
   <v>       0.44189759      -0.20256954      -0.12434403 </v>
   <v>       0.44341730       0.29664844      -0.12427303 </v>
   <v>       0.18363264      -0.21249099       0.38907498 </v>
   <v>       0.30862395       0.03751296       0.38907020 </v>
   <v>      -0.06635033      -0.21253997       0.38906456 </v>
   <v>       0.18357121       0.28751135       0.38906411 </v>
   <v>      -0.06633631       0.28748759       0.38904536 </v>
   <v>      -0.19142453       0.03746629       0.38906685 </v>
   <v>      -0.18545660      -0.45776126      -0.12436525 </v>
   <v>       0.31402895      -0.45745046      -0.12440845 </v>
   <v>      -0.43483844       0.04316593      -0.12440720 </v>
   <v>       0.43363767      -0.21256335       0.38906412 </v>
   <v>       0.43368158       0.28747728       0.38904495 </v>
   <v>       0.05856869      -0.46258741       0.38906853 </v>
   <v>      -0.31639528      -0.21253027       0.38906684 </v>
   <v>      -0.31644488       0.28750353       0.38906959 </v>
   <v>       0.30855214      -0.46248924       0.38906813 </v>
   <v>      -0.44138985       0.03758825       0.38908341 </v>
   <v>      -0.19144164      -0.46252758       0.38907567 </v>
   <v>      -0.43417172      -0.45862304      -0.12446225 </v>
   <v>       0.18400666      -0.03654713      -0.16679854 </v>
   <v>      -0.06655373      -0.03702065      -0.16680319 </v>
   <v>       0.05872511       0.21363204      -0.16667096 </v>
   <v>       0.05890179      -0.28674927      -0.16655501 </v>
   <v>       0.30863850       0.21375617      -0.16666269 </v>
   <v>      -0.19125965       0.21303667      -0.16687083 </v>
   <v>      -0.44144797      -0.46245349       0.38906373 </v>
   <v>       0.30833668      -0.28525896      -0.16575166 </v>
   <v>       0.43302380      -0.03698962      -0.16683437 </v>
   <v>      -0.19154577      -0.28640722      -0.16697778 </v>
   <v>      -0.31602759      -0.03642763      -0.16695418 </v>
   <v>       0.18414114       0.46548133      -0.16663248 </v>
   <v>      -0.06639926       0.46326500      -0.16695914 </v>
   <v>       0.06308266      -0.12955090       0.43442870 </v>
   <v>       0.18814515       0.12048811       0.43437743 </v>
   <v>      -0.06188284       0.12036698       0.43444135 </v>
   <v>      -0.44098108       0.21337567      -0.16677291 </v>
   <v>       0.43349086       0.46417541      -0.16681214 </v>
   <v>      -0.31647117       0.46302761      -0.16693145 </v>
   <v>      -0.18703628      -0.12951871       0.43443644 </v>
   <v>       0.31307288      -0.12948588       0.43440426 </v>
   <v>       0.06302390       0.37044947       0.43442324 </v>
   <v>      -0.44109595      -0.28693404      -0.16680268 </v>
   <v>      -0.31185924       0.12031856       0.43437737 </v>
   <v>      -0.06188003      -0.37960772       0.43442940 </v>
   <v>       0.18800291      -0.37958608       0.43443129 </v>
   <v>      -0.18688052       0.37060996       0.43437659 </v>
   <v>       0.43808917       0.12037155       0.43441607 </v>
   <v>       0.31306170       0.37058633       0.43442027 </v>
   <v>      -0.31198193      -0.37950777       0.43441644 </v>
   <v>      -0.43708358      -0.12946981       0.43443463 </v>
   <v>       0.43809295      -0.37964762       0.43443546 </v>
   <v>      -0.43699832       0.37055245       0.43443000 </v>
   <v>       0.07094822      -0.12551724      -0.21154749 </v>
   <v>      -0.05441290       0.12536398      -0.21155607 </v>
   <v>       0.19530731       0.12520778      -0.21146047 </v>
   <v>      -0.17924778      -0.12536606      -0.21159080 </v>
   <v>       0.07111164       0.37439750      -0.21159840 </v>
   <v>       0.32029047      -0.12554461      -0.21163568 </v>
   <v>      -0.05445371      -0.37501420      -0.21144735 </v>
   <v>      -0.30445821       0.12518363      -0.21150357 </v>
   <v>      -0.17924539       0.37427329      -0.21161992 </v>
   <v>       0.44549068       0.12526399      -0.21137742 </v>
   <v>       0.19476520      -0.37490591      -0.21215358 </v>
   <v>       0.32061399       0.37431912      -0.21164147 </v>
   <v>      -0.30482212      -0.37499176      -0.21140554 </v>
   <v>      -0.42994613      -0.12560082      -0.21161027 </v>
   <v>       0.44585789      -0.37495500      -0.21167177 </v>
   <v>      -0.06215409      -0.04418499       0.47860423 </v>
   <v>       0.18785433      -0.04424688       0.47862229 </v>
   <v>       0.06282318       0.20583494       0.47859503 </v>
   <v>      -0.43000885       0.37422236      -0.21166097 </v>
   <v>       0.06280243      -0.29420144       0.47860663 </v>
   <v>      -0.18717537       0.20578262       0.47861379 </v>
   <v>       0.31279203       0.20579128       0.47863570 </v>
   <v>      -0.18722843      -0.29421719       0.47861136 </v>
   <v>       0.31281076      -0.29417217       0.47861123 </v>
   <v>      -0.31217836      -0.04416279       0.47862039 </v>
   <v>       0.43780404      -0.04414492       0.47859673 </v>
   <v>      -0.06219372       0.45579718       0.47860573 </v>
   <v>       0.18781664       0.45577894       0.47861299 </v>
   <v>      -0.43716237       0.20583016       0.47861774 </v>
   <v>      -0.31218759       0.45588555       0.47861029 </v>
   <v>       0.43779923       0.45586460       0.47859359 </v>
   <v>      -0.43714710      -0.29420420       0.47861890 </v>
   <v>       0.06034656       0.04229515      -0.25585015 </v>
   <v>       0.18641432      -0.20891638      -0.25565426 </v>
   <v>      -0.06390469      -0.20836479      -0.25585097 </v>
   <v>       0.18569661       0.29212182      -0.25579858 </v>
   <v>      -0.18918796       0.04250720      -0.25596102 </v>
   <v>       0.31058072       0.04188426      -0.25603604 </v>
   <v>      -0.06377804       0.29215934      -0.25593555 </v>
   <v>       0.06051173      -0.45772357      -0.25572800 </v>
   <v>       0.43582876      -0.20821824      -0.25584724 </v>
   <v>      -0.31437549      -0.20792163      -0.25584483 </v>
   <v>       0.43591589       0.29183263      -0.25586074 </v>
   <v>      -0.31426441       0.29202183      -0.25590757 </v>
   <v>       0.31101997      -0.45720751      -0.25571329 </v>
   <v>      -0.18917550      -0.45761808      -0.25585928 </v>
   <v>      -0.43931450       0.04215113      -0.25593361 </v>
   <v>       0.06345372      -0.12796946      -0.47868172 </v>
   <v>      -0.06151167       0.12202001      -0.47868782 </v>
   <v>       0.18845862       0.12197527      -0.47869820 </v>
   <v>      -0.18651032      -0.12797088      -0.47869182 </v>
   <v>       0.31351552      -0.12799688      -0.47868743 </v>
   <v>       0.06349455       0.37190715      -0.47869579 </v>
   <v>      -0.06152718      -0.37802749      -0.47868593 </v>
   <v>       0.18846457      -0.37802360      -0.47869606 </v>
   <v>      -0.31147992       0.12196760      -0.47869395 </v>
   <v>      -0.18648460       0.37202571      -0.47871149 </v>
   <v>       0.43848369       0.12198288      -0.47867914 </v>
   <v>       0.31348137       0.37196649      -0.47870383 </v>
   <v>      -0.43907847      -0.45731332      -0.25583110 </v>
   <v>      -0.31153067      -0.37800120      -0.47868337 </v>
   <v>      -0.43653182      -0.12796128      -0.47867330 </v>
   <v>       0.43844431      -0.37805192      -0.47868180 </v>
   <v>      -0.43652203       0.37198527      -0.47869525 </v>
   <v>      -0.05961198      -0.04148566      -0.30024661 </v>
   <v>       0.19069782      -0.04116058      -0.30041784 </v>
   <v>       0.06545550       0.20855975      -0.30039500 </v>
   <v>       0.06526410      -0.29166904      -0.30033747 </v>
   <v>      -0.18472293       0.20834759      -0.30033911 </v>
   <v>       0.31534408       0.20858480      -0.30034828 </v>
   <v>      -0.18438093      -0.29139527      -0.30032297 </v>
   <v>      -0.30950340      -0.04164876      -0.30028441 </v>
   <v>       0.31524368      -0.29175396      -0.30039837 </v>
   <v>       0.44016852      -0.04173650      -0.30031289 </v>
   <v>       0.19016424       0.45807920      -0.30035188 </v>
   <v>      -0.06022568       0.45815306      -0.30044649 </v>
   <v>      -0.43453977       0.20839558      -0.30028143 </v>
   <v>      -0.30907308       0.45815597      -0.30028447 </v>
   <v>       0.44050604       0.45814650      -0.30042473 </v>
   <v>      -0.06115177      -0.04226381      -0.43458195 </v>
   <v>       0.18876539      -0.04232073      -0.43455850 </v>
   <v>       0.06381590       0.20772608      -0.43456702 </v>
   <v>      -0.43456635      -0.29149712      -0.30038717 </v>
   <v>       0.06384139      -0.29224784      -0.43457347 </v>
   <v>      -0.18626569       0.20776054      -0.43455903 </v>
   <v>       0.31381422       0.20765707      -0.43456721 </v>
   <v>      -0.18617474      -0.29227805      -0.43458000 </v>
   <v>      -0.31123146      -0.04235365      -0.43456584 </v>
   <v>       0.31379621      -0.29227401      -0.43456239 </v>
   <v>       0.43878705      -0.04229012      -0.43458640 </v>
   <v>      -0.06128666       0.45781737      -0.43455829 </v>
   <v>       0.18876063       0.45775458      -0.43454071 </v>
   <v>      -0.43619449       0.20766597      -0.43456291 </v>
   <v>      -0.31120341       0.45771599      -0.43456777 </v>
   <v>       0.43882417       0.45775201      -0.43456687 </v>
   <v>      -0.43617361      -0.29224181      -0.43457805 </v>
   <v>       0.05880523      -0.12436470      -0.34511186 </v>
   <v>       0.18387014       0.12563361      -0.34507299 </v>
   <v>      -0.06612174       0.12579075      -0.34507433 </v>
   <v>       0.30884120      -0.12429476      -0.34509146 </v>
   <v>      -0.19115968      -0.12430866      -0.34511172 </v>
   <v>       0.05891686       0.37561007      -0.34508524 </v>
   <v>       0.18384596      -0.37427922      -0.34509070 </v>
   <v>      -0.06609737      -0.37403574      -0.34512403 </v>
   <v>       0.43386201       0.12567036      -0.34507894 </v>
   <v>       0.30879487       0.37573019      -0.34508409 </v>
   <v>      -0.31622742       0.12574052      -0.34511332 </v>
   <v>      -0.19108054       0.37574452      -0.34505130 </v>
   <v>       0.43404836      -0.37396342      -0.34504536 </v>
   <v>      -0.44110229      -0.12423489      -0.34509729 </v>
   <v>      -0.31596651      -0.37394678      -0.34505010 </v>
   <v>      -0.44116482       0.37563299      -0.34504801 </v>
   <v>       0.06266198       0.04186701      -0.38914798 </v>
   <v>       0.18784806      -0.20820066      -0.38920404 </v>
   <v>      -0.18724241       0.04183817      -0.38918160 </v>
   <v>      -0.06230043      -0.20816812      -0.38904621 </v>
   <v>       0.31258709       0.04198921      -0.38914619 </v>
   <v>      -0.06218268       0.29169852      -0.38921896 </v>
   <v>       0.18790456       0.29182174      -0.38923567 </v>
   <v>       0.06301007      -0.45838679      -0.38930280 </v>
   <v>      -0.31223038      -0.20812000      -0.38917416 </v>
   <v>       0.43786329      -0.20821251      -0.38920727 </v>
   <v>      -0.31207749       0.29166395      -0.38931979 </v>
   <v>       0.43773721       0.29183870      -0.38914771 </v>
   <v>      -0.18716660      -0.45818860      -0.38921679 </v>
   <v>       0.31285894      -0.45817430      -0.38924336 </v>
   <v>      -0.43730380       0.04195543      -0.38913581 </v>
   <v>      -0.43718309      -0.45818348      -0.38919898 </v>
  </varray>
 </structure>
 <varray name="primitive_index" >
  <v type="int" >        1 </v>
  <v type="int" >       26 </v>
  <v type="int" >      282 </v>
  <v type="int" >      208 </v>
  <v type="int" >      155 </v>
  <v type="int" >       60 </v>
  <v type="int" >      251 </v>
  <v type="int" >      256 </v>
  <v type="int" >      212 </v>
  <v type="int" >       83 </v>
  <v type="int" >       51 </v>
  <v type="int" >      102 </v>
  <v type="int" >      284 </v>
  <v type="int" >      252 </v>
  <v type="int" >      166 </v>
  <v type="int" >        5 </v>
  <v type="int" >      146 </v>
  <v type="int" >       50 </v>
  <v type="int" >      273 </v>
  <v type="int" >      145 </v>
  <v type="int" >      176 </v>
  <v type="int" >      104 </v>
  <v type="int" >      163 </v>
  <v type="int" >      182 </v>
  <v type="int" >      117 </v>
  <v type="int" >      287 </v>
  <v type="int" >       48 </v>
  <v type="int" >      123 </v>
  <v type="int" >      250 </v>
  <v type="int" >      286 </v>
  <v type="int" >      205 </v>
  <v type="int" >       91 </v>
  <v type="int" >      167 </v>
  <v type="int" >      229 </v>
  <v type="int" >      277 </v>
  <v type="int" >      276 </v>
  <v type="int" >      189 </v>
  <v type="int" >       97 </v>
  <v type="int" >      175 </v>
  <v type="int" >      213 </v>
  <v type="int" >       92 </v>
  <v type="int" >      174 </v>
  <v type="int" >       30 </v>
  <v type="int" >      185 </v>
  <v type="int" >      103 </v>
  <v type="int" >      139 </v>
  <v type="int" >       24 </v>
  <v type="int" >      127 </v>
  <v type="int" >       52 </v>
  <v type="int" >      164 </v>
  <v type="int" >      200 </v>
  <v type="int" >       35 </v>
  <v type="int" >      179 </v>
  <v type="int" >      261 </v>
  <v type="int" >      243 </v>
  <v type="int" >      118 </v>
  <v type="int" >       58 </v>
  <v type="int" >      168 </v>
  <v type="int" >      137 </v>
  <v type="int" >      265 </v>
  <v type="int" >      281 </v>
  <v type="int" >       81 </v>
  <v type="int" >      275 </v>
  <v type="int" >      215 </v>
  <v type="int" >      214 </v>
  <v type="int" >      135 </v>
  <v type="int" >       98 </v>
  <v type="int" >      226 </v>
  <v type="int" >       72 </v>
  <v type="int" >      159 </v>
  <v type="int" >       28 </v>
  <v type="int" >      187 </v>
  <v type="int" >      242 </v>
  <v type="int" >      178 </v>
  <v type="int" >      220 </v>
  <v type="int" >      109 </v>
  <v type="int" >      210 </v>
  <v type="int" >      101 </v>
  <v type="int" >      130 </v>
  <v type="int" >      171 </v>
  <v type="int" >       20 </v>
  <v type="int" >       47 </v>
  <v type="int" >      258 </v>
  <v type="int" >      207 </v>
  <v type="int" >      216 </v>
  <v type="int" >       86 </v>
  <v type="int" >       25 </v>
  <v type="int" >       73 </v>
  <v type="int" >       12 </v>
  <v type="int" >      116 </v>
  <v type="int" >      272 </v>
  <v type="int" >      172 </v>
  <v type="int" >      219 </v>
  <v type="int" >      279 </v>
  <v type="int" >      206 </v>
  <v type="int" >       84 </v>
  <v type="int" >       62 </v>
  <v type="int" >      105 </v>
  <v type="int" >      268 </v>
  <v type="int" >        2 </v>
  <v type="int" >      245 </v>
  <v type="int" >      280 </v>
  <v type="int" >      120 </v>
  <v type="int" >      124 </v>
  <v type="int" >       29 </v>
  <v type="int" >      266 </v>
  <v type="int" >      191 </v>
  <v type="int" >      150 </v>
  <v type="int" >      255 </v>
  <v type="int" >        7 </v>
  <v type="int" >      165 </v>
  <v type="int" >      190 </v>
  <v type="int" >      248 </v>
  <v type="int" >       13 </v>
  <v type="int" >       38 </v>
  <v type="int" >      247 </v>
  <v type="int" >       18 </v>
  <v type="int" >      161 </v>
  <v type="int" >      264 </v>
  <v type="int" >        4 </v>
  <v type="int" >      202 </v>
  <v type="int" >       45 </v>
  <v type="int" >       55 </v>
  <v type="int" >       67 </v>
  <v type="int" >       16 </v>
  <v type="int" >      270 </v>
  <v type="int" >       64 </v>
  <v type="int" >      173 </v>
  <v type="int" >       17 </v>
  <v type="int" >      259 </v>
  <v type="int" >      134 </v>
  <v type="int" >       39 </v>
  <v type="int" >        6 </v>
  <v type="int" >      222 </v>
  <v type="int" >      283 </v>
  <v type="int" >      110 </v>
  <v type="int" >      253 </v>
  <v type="int" >       88 </v>
  <v type="int" >      181 </v>
  <v type="int" >       36 </v>
  <v type="int" >      204 </v>
  <v type="int" >      160 </v>
  <v type="int" >      158 </v>
  <v type="int" >      143 </v>
  <v type="int" >       74 </v>
  <v type="int" >       82 </v>
  <v type="int" >      263 </v>
  <v type="int" >       23 </v>
  <v type="int" >      218 </v>
  <v type="int" >      241 </v>
  <v type="int" >      257 </v>
  <v type="int" >      131 </v>
  <v type="int" >      238 </v>
  <v type="int" >       80 </v>
  <v type="int" >      201 </v>
  <v type="int" >      113 </v>
  <v type="int" >      232 </v>
  <v type="int" >       69 </v>
  <v type="int" >      249 </v>
  <v type="int" >      235 </v>
  <v type="int" >      197 </v>
  <v type="int" >      149 </v>
  <v type="int" >        3 </v>
  <v type="int" >      112 </v>
  <v type="int" >      254 </v>
  <v type="int" >      224 </v>
  <v type="int" >      132 </v>
  <v type="int" >      188 </v>
  <v type="int" >       57 </v>
  <v type="int" >       49 </v>
  <v type="int" >      288 </v>
  <v type="int" >      138 </v>
  <v type="int" >       66 </v>
  <v type="int" >       33 </v>
  <v type="int" >      184 </v>
  <v type="int" >      236 </v>
  <v type="int" >      111 </v>
  <v type="int" >      223 </v>
  <v type="int" >      106 </v>
  <v type="int" >      157 </v>
  <v type="int" >       21 </v>
  <v type="int" >      230 </v>
  <v type="int" >      234 </v>
  <v type="int" >       99 </v>
  <v type="int" >       75 </v>
  <v type="int" >      221 </v>
  <v type="int" >      269 </v>
  <v type="int" >      244 </v>
  <v type="int" >      237 </v>
  <v type="int" >      199 </v>
  <v type="int" >      156 </v>
  <v type="int" >      169 </v>
  <v type="int" >        9 </v>
  <v type="int" >      262 </v>
  <v type="int" >       46 </v>
  <v type="int" >       11 </v>
  <v type="int" >      151 </v>
  <v type="int" >      239 </v>
  <v type="int" >      285 </v>
  <v type="int" >      211 </v>
  <v type="int" >       31 </v>
  <v type="int" >       43 </v>
  <v type="int" >       71 </v>
  <v type="int" >       19 </v>
  <v type="int" >       94 </v>
  <v type="int" >       87 </v>
  <v type="int" >      267 </v>
  <v type="int" >      180 </v>
  <v type="int" >       27 </v>
  <v type="int" >      140 </v>
  <v type="int" >       10 </v>
  <v type="int" >      144 </v>
  <v type="int" >      107 </v>
  <v type="int" >      203 </v>
  <v type="int" >       68 </v>
  <v type="int" >       34 </v>
  <v type="int" >      177 </v>
  <v type="int" >      152 </v>
  <v type="int" >      183 </v>
  <v type="int" >      278 </v>
  <v type="int" >      195 </v>
  <v type="int" >       77 </v>
  <v type="int" >       14 </v>
  <v type="int" >      108 </v>
  <v type="int" >      225 </v>
  <v type="int" >      119 </v>
  <v type="int" >       37 </v>
  <v type="int" >      274 </v>
  <v type="int" >      233 </v>
  <v type="int" >       63 </v>
  <v type="int" >      141 </v>
  <v type="int" >       54 </v>
  <v type="int" >      154 </v>
  <v type="int" >      125 </v>
  <v type="int" >      246 </v>
  <v type="int" >      136 </v>
  <v type="int" >       53 </v>
  <v type="int" >       76 </v>
  <v type="int" >      193 </v>
  <v type="int" >      129 </v>
  <v type="int" >      162 </v>
  <v type="int" >      170 </v>
  <v type="int" >      133 </v>
  <v type="int" >       65 </v>
  <v type="int" >      271 </v>
  <v type="int" >       93 </v>
  <v type="int" >       32 </v>
  <v type="int" >       95 </v>
  <v type="int" >       90 </v>
  <v type="int" >       56 </v>
  <v type="int" >       42 </v>
  <v type="int" >       59 </v>
  <v type="int" >        8 </v>
  <v type="int" >      228 </v>
  <v type="int" >       70 </v>
  <v type="int" >      186 </v>
  <v type="int" >      196 </v>
  <v type="int" >      121 </v>
  <v type="int" >      122 </v>
  <v type="int" >       44 </v>
  <v type="int" >       79 </v>
  <v type="int" >      198 </v>
  <v type="int" >      153 </v>
  <v type="int" >      240 </v>
  <v type="int" >      231 </v>
  <v type="int" >       85 </v>
  <v type="int" >      209 </v>
  <v type="int" >      194 </v>
  <v type="int" >       40 </v>
  <v type="int" >       89 </v>
  <v type="int" >      227 </v>
  <v type="int" >       78 </v>
  <v type="int" >      142 </v>
  <v type="int" >       15 </v>
  <v type="int" >      217 </v>
  <v type="int" >      114 </v>
  <v type="int" >      148 </v>
  <v type="int" >      100 </v>
  <v type="int" >       61 </v>
  <v type="int" >      126 </v>
  <v type="int" >      192 </v>
  <v type="int" >       96 </v>
  <v type="int" >      147 </v>
  <v type="int" >      115 </v>
  <v type="int" >       22 </v>
  <v type="int" >       41 </v>
  <v type="int" >      260 </v>
  <v type="int" >      128 </v>
 </varray>
 <kpoints>
  <generation param="Gamma">
   <v type="int" name="divisions">       4        4        1 </v>
   <v name="usershift">      0.00000000       0.00000000       0.00000000 </v>
   <v name="genvec1">      0.25000000       0.00000000       0.00000000 </v>
   <v name="genvec2">      0.00000000       0.25000000       0.00000000 </v>
   <v name="genvec3">      0.00000000       0.00000000       1.00000000 </v>
   <v name="shift">      0.00000000       0.00000000       0.00000000 </v>
  </generation>
  <varray name="kpointlist" >
   <v>       0.00000000       0.00000000       0.00000000 </v>
   <v>       0.25000000       0.00000000       0.00000000 </v>
   <v>       0.50000000       0.00000000       0.00000000 </v>
   <v>       0.00000000       0.25000000       0.00000000 </v>
   <v>       0.25000000       0.25000000       0.00000000 </v>
   <v>       0.50000000       0.25000000       0.00000000 </v>
   <v>      -0.25000000       0.25000000       0.00000000 </v>
   <v>       0.00000000       0.50000000       0.00000000 </v>
   <v>       0.25000000       0.50000000       0.00000000 </v>
   <v>       0.50000000       0.50000000       0.00000000 </v>
  </varray>
  <varray name="weights" >
   <v>       0.06250000 </v>
   <v>       0.12500000 </v>
   <v>       0.06250000 </v>
   <v>       0.12500000 </v>
   <v>       0.12500000 </v>
   <v>       0.12500000 </v>
   <v>       0.12500000 </v>
   <v>       0.06250000 </v>
   <v>       0.12500000 </v>
   <v>       0.06250000 </v>
  </varray>
 </kpoints>
 <parameters>
  <separator name="general" >
   <i type="string" name="SYSTEM">unknown system</i>
   <i type="logical" name="LCOMPAT"> F  </i>
  </separator>
  <separator name="electronic" >
   <i type="string" name="PREC">accura</i>
   <i name="ENMAX">    450.00000000</i>
   <i name="ENAUG">    838.43500000</i>
   <i name="EDIFF">      0.00000100</i>
   <i type="int" name="IALGO">    68</i>
   <i type="int" name="IWAVPR">    11</i>
   <i type="int" name="NBANDS">  1386</i>
   <i name="NELECT">   2297.00000000</i>
   <i type="int" name="TURBO">     0</i>
   <i type="int" name="IRESTART">     0</i>
   <i type="int" name="NREBOOT">     0</i>
   <i type="int" name="NMIN">     0</i>
   <i name="EREF">      0.00000000</i>
   <separator name="electronic smearing" >
    <i type="int" name="ISMEAR">     0</i>
    <i name="SIGMA">      0.15000000</i>
    <i name="KSPACING">      0.50000000</i>
    <i type="logical" name="KGAMMA"> T  </i>
   </separator>
   <separator name="electronic projectors" >
    <i type="logical" name="LREAL"> T  </i>
    <v name="ROPT">     -0.00025000     -0.00025000</v>
    <i type="int" name="LMAXPAW">  -100</i>
    <i type="int" name="LMAXMIX">     2</i>
    <i type="logical" name="NLSPLINE"> F  </i>
   </separator>
   <separator name="electronic startup" >
    <i type="int" name="ISTART">     0</i>
    <i type="int" name="ICHARG">     2</i>
    <i type="int" name="INIWAV">     1</i>
   </separator>
   <separator name="electronic spin" >
    <i type="int" name="ISPIN">     1</i>
    <i type="logical" name="LNONCOLLINEAR"> F  </i>
    <v name="MAGMOM">      1.00000000      1.00000000      1.00000000      1.00000000      1.00000000      1.00000000      1.00000000      1.00000000      1.00000000      1.00000000      1.00000000      1.00000000      1.00000000      1.00000000      1.00000000      1.00000000      1.00000000      1.00000000      1.00000000      1.00000000
      1.00000000      1.00000000      1.00000000      1.00000000      1.00000000      1.00000000      1.00000000      1.00000000      1.00000000      1.00000000      1.00000000      1.00000000      1.00000000      1.00000000      1.00000000      1.00000000      1.00000000      1.00000000      1.00000000      1.00000000
      1.00000000      1.00000000      1.00000000      1.00000000      1.00000000      1.00000000      1.00000000      1.00000000      1.00000000      1.00000000      1.00000000      1.00000000      1.00000000      1.00000000      1.00000000      1.00000000      1.00000000      1.00000000      1.00000000      1.00000000
      1.00000000      1.00000000      1.00000000      1.00000000      1.00000000      1.00000000      1.00000000      1.00000000      1.00000000      1.00000000      1.00000000      1.00000000      1.00000000      1.00000000      1.00000000      1.00000000      1.00000000      1.00000000      1.00000000      1.00000000
      1.00000000      1.00000000      1.00000000      1.00000000      1.00000000      1.00000000      1.00000000      1.00000000      1.00000000      1.00000000      1.00000000      1.00000000      1.00000000      1.00000000      1.00000000      1.00000000      1.00000000      1.00000000      1.00000000      1.00000000
      1.00000000      1.00000000      1.00000000      1.00000000      1.00000000      1.00000000      1.00000000      1.00000000      1.00000000      1.00000000      1.00000000      1.00000000      1.00000000      1.00000000      1.00000000      1.00000000      1.00000000      1.00000000      1.00000000      1.00000000
      1.00000000      1.00000000      1.00000000      1.00000000      1.00000000      1.00000000      1.00000000      1.00000000      1.00000000      1.00000000      1.00000000      1.00000000      1.00000000      1.00000000      1.00000000      1.00000000      1.00000000      1.00000000      1.00000000      1.00000000
      1.00000000      1.00000000      1.00000000      1.00000000      1.00000000      1.00000000      1.00000000      1.00000000      1.00000000      1.00000000      1.00000000      1.00000000      1.00000000      1.00000000      1.00000000      1.00000000      1.00000000      1.00000000      1.00000000      1.00000000
      1.00000000      1.00000000      1.00000000      1.00000000      1.00000000      1.00000000      1.00000000      1.00000000      1.00000000      1.00000000      1.00000000      1.00000000      1.00000000      1.00000000      1.00000000      1.00000000      1.00000000      1.00000000      1.00000000      1.00000000
      1.00000000      1.00000000      1.00000000      1.00000000      1.00000000      1.00000000      1.00000000      1.00000000      1.00000000      1.00000000      1.00000000      1.00000000      1.00000000      1.00000000      1.00000000      1.00000000      1.00000000      1.00000000      1.00000000      1.00000000
      1.00000000      1.00000000      1.00000000      1.00000000      1.00000000      1.00000000      1.00000000      1.00000000      1.00000000      1.00000000      1.00000000      1.00000000      1.00000000      1.00000000      1.00000000      1.00000000      1.00000000      1.00000000      1.00000000      1.00000000
      1.00000000      1.00000000      1.00000000      1.00000000      1.00000000      1.00000000      1.00000000      1.00000000      1.00000000      1.00000000      1.00000000      1.00000000      1.00000000      1.00000000      1.00000000      1.00000000      1.00000000      1.00000000      1.00000000      1.00000000
      1.00000000      1.00000000      1.00000000      1.00000000      1.00000000      1.00000000      1.00000000      1.00000000      1.00000000      1.00000000      1.00000000      1.00000000      1.00000000      1.00000000      1.00000000      1.00000000      1.00000000      1.00000000      1.00000000      1.00000000
      1.00000000      1.00000000      1.00000000      1.00000000      1.00000000      1.00000000      1.00000000      1.00000000      1.00000000      1.00000000      1.00000000      1.00000000      1.00000000      1.00000000      1.00000000      1.00000000      1.00000000      1.00000000      1.00000000      1.00000000
      1.00000000      1.00000000      1.00000000      1.00000000      1.00000000      1.00000000      1.00000000      1.00000000</v>
    <i name="NUPDOWN">     -1.00000000</i>
    <i type="logical" name="LSORBIT"> F  </i>
    <v name="SAXIS">      0.00000000      0.00000000      1.00000000</v>
    <i type="logical" name="LSPIRAL"> F  </i>
    <v name="QSPIRAL">      0.00000000      0.00000000      0.00000000</v>
    <i type="logical" name="LZEROZ"> F  </i>
   </separator>
   <separator name="electronic exchange-correlation" >
    <i type="logical" name="LASPH"> F  </i>
    <i type="logical" name="LMETAGGA"> F  </i>
   </separator>
   <separator name="electronic convergence" >
    <i type="int" name="NELM">   100</i>
    <i type="int" name="NELMDL">     0</i>
    <i type="int" name="NELMIN">     4</i>
    <i name="ENINI">    450.00000000</i>
    <separator name="electronic convergence detail" >
     <i type="logical" name="LDIAG"> T  </i>
     <i type="logical" name="LSUBROT"> F  </i>
     <i name="WEIMIN">      0.00100000</i>
     <i name="EBREAK">      0.00000000</i>
     <i name="DEPER">      0.30000000</i>
     <i type="int" name="NRMM">     4</i>
     <i name="TIME">      0.40000000</i>
    </separator>
   </separator>
   <separator name="electronic mixer" >
    <i name="AMIX">      0.40000000</i>
    <i name="BMIX">      1.00000000</i>
    <i name="AMIN">      0.10000000</i>
    <i name="AMIX_MAG">      1.60000000</i>
    <i name="BMIX_MAG">      1.00000000</i>
    <separator name="electronic mixer details" >
     <i type="int" name="IMIX">     4</i>
     <i type="logical" name="MIXFIRST"> F  </i>
     <i type="int" name="MAXMIX">   -45</i>
     <i name="WC">    100.00000000</i>
     <i type="int" name="INIMIX">     1</i>
     <i type="int" name="MIXPRE">     1</i>
     <i type="int" name="MREMOVE">     5</i>
    </separator>
   </separator>
   <separator name="electronic dipolcorrection" >
    <i type="logical" name="LDIPOL"> F  </i>
    <i type="logical" name="LMONO"> F  </i>
    <i type="int" name="IDIPOL">     0</i>
    <i name="EPSILON">      1.00000000</i>
    <v name="DIPOL">   -100.00000000   -100.00000000   -100.00000000</v>
    <i name="EFIELD">      0.00000000</i>
   </separator>
  </separator>
  <separator name="grids" >
   <i type="int" name="NGX">    70</i>
   <i type="int" name="NGY">    60</i>
   <i type="int" name="NGZ">   320</i>
   <i type="int" name="NGXF">   140</i>
   <i type="int" name="NGYF">   120</i>
   <i type="int" name="NGZF">   640</i>
   <i type="logical" name="ADDGRID"> F  </i>
  </separator>
  <separator name="ionic" >
   <i type="int" name="NSW">     5</i>
   <i type="int" name="IBRION">     2</i>
   <i type="int" name="MDALGO">     0</i>
   <i type="int" name="ISIF">     2</i>
   <i name="PSTRESS">      0.00000000</i>
   <i name="EDIFFG">      0.00001000</i>
   <i type="int" name="NFREE">     1</i>
   <i name="POTIM">      0.25000000</i>
   <i name="SMASS">     -3.00000000</i>
   <i name="SCALEE">      1.00000000</i>
  </separator>
  <separator name="ionic md" >
   <i name="TEBEG">      0.00010000</i>
   <i name="TEEND">      0.00010000</i>
   <i type="int" name="NBLOCK">     1</i>
   <i type="int" name="KBLOCK">     5</i>
   <i type="int" name="NPACO">   256</i>
   <i name="APACO">     16.00000000</i>
  </separator>
  <separator name="symmetry" >
   <i type="int" name="ISYM">     2</i>
   <i name="SYMPREC">      0.00001000</i>
  </separator>
  <separator name="dos" >
   <i type="int" name="LORBIT">     0</i>
   <v name="RWIGS">     -1.00000000     -1.00000000</v>
   <i type="int" name="NEDOS">   301</i>
   <i name="EMIN">     10.00000000</i>
   <i name="EMAX">    -10.00000000</i>
   <i name="EFERMI">      0.00000000</i>
  </separator>
  <separator name="writing" >
   <i type="int" name="NWRITE">     2</i>
   <i type="logical" name="LWAVE"> F  </i>
   <i type="logical" name="LDOWNSAMPLE"> F  </i>
   <i type="logical" name="LCHARG"> F  </i>
   <i type="logical" name="LPARD"> F  </i>
   <i type="logical" name="LVTOT"> F  </i>
   <i type="logical" name="LVHAR"> F  </i>
   <i type="logical" name="LELF"> F  </i>
   <i type="logical" name="LOPTICS"> F  </i>
   <v name="STM">      0.00000000      0.00000000      0.00000000      0.00000000      0.00000000      0.00000000      0.00000000</v>
  </separator>
  <separator name="performance" >
   <i type="int" name="NPAR">    14</i>
   <i type="int" name="NSIM">     4</i>
   <i type="int" name="NBLK">    -1</i>
   <i type="logical" name="LPLANE"> T  </i>
   <i type="logical" name="LSCALAPACK"> T  </i>
   <i type="logical" name="LSCAAWARE"> T  </i>
   <i type="logical" name="LSCALU"> F  </i>
   <i type="logical" name="LASYNC"> F  </i>
   <i type="logical" name="LORBITALREAL"> F  </i>
  </separator>
  <separator name="miscellaneous" >
   <i type="int" name="IDIOT">     3</i>
   <i type="int" name="ISPECIAL">     0</i>
   <i type="logical" name="LMUSIC"> F  </i>
   <v name="POMASS">     55.84700000     54.93800000</v>
   <v name="DARWINR">      0.00000000      0.00000000</v>
   <v name="DARWINV">      1.00000000      1.00000000</v>
   <i type="logical" name="LCORR"> T  </i>
  </separator>
  <i type="logical" name="GGA_COMPAT"> T  </i>
  <i type="logical" name="LBERRY"> F  </i>
  <i type="int" name="ICORELEVEL">     0</i>
  <i type="logical" name="LDAU"> F  </i>
  <i type="int" name="I_CONSTRAINED_M">     0</i>
  <separator name="electronic exchange-correlation" >
   <i type="string" name="GGA">--</i>
   <i type="int" name="VOSKOWN">     0</i>
   <i type="logical" name="LHFCALC"> F  </i>
   <i type="string" name="PRECFOCK"></i>
   <i type="logical" name="LSYMGRAD"> F  </i>
   <i type="logical" name="LHFONE"> F  </i>
   <i type="logical" name="LRHFCALC"> F  </i>
   <i type="logical" name="LTHOMAS"> F  </i>
   <i type="logical" name="LMODELHF"> F  </i>
   <i name="ENCUT4O">     -1.00000000</i>
   <i type="int" name="EXXOEP">     0</i>
   <i type="int" name="FOURORBIT">     0</i>
   <i name="AEXX">      0.00000000</i>
   <i name="HFALPHA">      0.00000000</i>
   <i name="MCALPHA">      0.00000000</i>
   <i name="ALDAX">      1.00000000</i>
   <i name="AGGAX">      1.00000000</i>
   <i name="ALDAC">      1.00000000</i>
   <i name="AGGAC">      1.00000000</i>
   <i type="int" name="NKREDX">     1</i>
   <i type="int" name="NKREDY">     1</i>
   <i type="int" name="NKREDZ">     1</i>
   <i type="logical" name="SHIFTRED"> F  </i>
   <i type="logical" name="ODDONLY"> F  </i>
   <i type="logical" name="EVENONLY"> F  </i>
   <i type="int" name="LMAXFOCK">     0</i>
   <i type="int" name="NMAXFOCKAE">     0</i>
   <i type="logical" name="LFOCKAEDFT"> F  </i>
   <i name="HFSCREEN">      0.00000000</i>
   <i name="HFSCREENC">      0.00000000</i>
   <i type="int" name="NBANDSGWLOW">     0</i>
  </separator>
  <separator name="vdW DFT" >
   <i type="logical" name="LUSE_VDW"> F  </i>
   <i name="Zab_VDW">     -0.84910000</i>
   <i name="PARAM1">      0.12340000</i>
   <i name="PARAM2">      1.00000000</i>
   <i name="PARAM3">      0.00000000</i>
  </separator>
  <separator name="model GW" >
   <i type="int" name="MODEL_GW">     0</i>
   <i name="MODEL_EPS0">      7.68123389</i>
   <i name="MODEL_ALPHA">      1.00000000</i>
  </separator>
  <separator name="linear response parameters" >
   <i type="logical" name="LEPSILON"> F  </i>
   <i type="logical" name="LRPA"> F  </i>
   <i type="logical" name="LNABLA"> F  </i>
   <i type="logical" name="LVEL"> F  </i>
   <i type="int" name="KINTER">     0</i>
   <i name="CSHIFT">      0.10000000</i>
   <i name="OMEGAMAX">     -1.00000000</i>
   <i name="DEG_THRESHOLD">      0.00200000</i>
   <i name="RTIME">     -0.10000000</i>
   <i name="WPLASMAI">      0.00000000</i>
   <v name="DFIELD">      0.00000000      0.00000000      0.00000000</v>
   <v name="WPLASMA">      0.00000000      0.00000000      0.00000000      0.00000000      0.00000000      0.00000000      0.00000000      0.00000000      0.00000000</v>
  </separator>
  <separator name="orbital magnetization" >
   <i type="logical" name="NUCIND"> F  </i>
   <v name="MAGPOS">      0.00000000      0.00000000      0.00000000</v>
   <i type="logical" name="LNICSALL"> T  </i>
   <i type="logical" name="ORBITALMAG"> F  </i>
   <i type="logical" name="LMAGBLOCH"> F  </i>
   <i type="logical" name="LCHIMAG"> F  </i>
   <i type="logical" name="LGAUGE"> T  </i>
   <i type="int" name="MAGATOM">     0</i>
   <v name="MAGDIPOL">      0.00000000      0.00000000      0.00000000</v>
   <v name="AVECCONST">      0.00000000      0.00000000      0.00000000</v>
  </separator>
  <separator name="response functions" >
   <i type="logical" name="LADDER"> F  </i>
   <i type="logical" name="LRPAFORCE"> F  </i>
   <i type="logical" name="LFXC"> F  </i>
   <i type="logical" name="LHARTREE"> T  </i>
   <i type="int" name="IBSE">     0</i>
   <v type="int" name="KPOINT">    -1     0     0     0</v>
   <i type="logical" name="LTCTE"> F  </i>
   <i type="logical" name="LTETE"> F  </i>
   <i type="logical" name="LTRIPLET"> F  </i>
   <i type="logical" name="LFXCEPS"> F  </i>
   <i type="logical" name="LFXHEG"> F  </i>
   <i type="int" name="NATURALO">     2</i>
   <i type="logical" name="L2ORDER"> F  </i>
   <i type="logical" name="LMP2LT"> F  </i>
   <i type="logical" name="LUSEW"> F  </i>
   <i name="ENCUTGW">     -2.00000000</i>
   <i name="ENCUTGWSOFT">     -2.00000000</i>
   <i name="ENCUTLF">     -1.00000000</i>
   <i type="int" name="LMAXMP2">    -1</i>
   <i name="SCISSOR">      0.00000000</i>
   <i type="int" name="NOMEGA">     0</i>
   <i type="int" name="NOMEGAR">     0</i>
   <i type="int" name="NBANDSGW">    -1</i>
   <i type="int" name="NBANDSO">    -1</i>
   <i type="int" name="NBANDSV">    -1</i>
   <i type="int" name="NELM">   100</i>
   <i type="int" name="NELMHF">     1</i>
   <i type="int" name="DIM">     3</i>
   <i type="int" name="ANTIRES">     0</i>
   <i name="OMEGAMAX">    -30.00000000</i>
   <i name="OMEGAMIN">    -30.00000000</i>
   <i name="OMEGATL">   -200.00000000</i>
   <i type="int" name="OMEGAGRID">   140</i>
   <i name="CSHIFT">     -0.10000000</i>
   <i type="logical" name="SELFENERGY"> F  </i>
   <i type="logical" name="LSPECTRAL"> F  </i>
   <i type="logical" name="LSPECTRALGW"> F  </i>
   <i type="logical" name="LSINGLES"> F  </i>
   <i type="logical" name="LFERMIGW"> F  </i>
   <i type="logical" name="ODDONLYGW"> F  </i>
   <i type="logical" name="EVENONLYGW"> F  </i>
   <i type="int" name="NKREDLFX">     1</i>
   <i type="int" name="NKREDLFY">     1</i>
   <i type="int" name="NKREDLFZ">     1</i>
   <i type="int" name="MAXMEM">  2800</i>
   <i type="int" name="TELESCOPE">     0</i>
   <i type="int" name="TAUPAR">     1</i>
   <i type="int" name="OMEGAPAR">    -1</i>
   <i name="LAMBDA">      1.00000000</i>
  </separator>
  <separator name="External order field" >
   <i name="OFIELD_KAPPA">      0.00000000</i>
   <v name="OFIELD_K">      0.00000000      0.00000000      0.00000000</v>
   <i name="OFIELD_Q6_NEAR">      0.00000000</i>
   <i name="OFIELD_Q6_FAR">      0.00000000</i>
   <i name="OFIELD_A">      0.00000000</i>
  </separator>
 </parameters>
 <atominfo>
  <atoms>     288 </atoms>
  <types>       2 </types>
  <array name="atoms" >
   <dimension dim="1">ion</dimension>
   <field type="string">element</field>
   <field type="int">atomtype</field>
   <set>
    <rc><c>Fe</c><c>   1</c></rc>
    <rc><c>Fe</c><c>   1</c></rc>
    <rc><c>Fe</c><c>   1</c></rc>
    <rc><c>Fe</c><c>   1</c></rc>
    <rc><c>Fe</c><c>   1</c></rc>
    <rc><c>Fe</c><c>   1</c></rc>
    <rc><c>Fe</c><c>   1</c></rc>
    <rc><c>Fe</c><c>   1</c></rc>
    <rc><c>Fe</c><c>   1</c></rc>
    <rc><c>Fe</c><c>   1</c></rc>
    <rc><c>Fe</c><c>   1</c></rc>
    <rc><c>Fe</c><c>   1</c></rc>
    <rc><c>Fe</c><c>   1</c></rc>
    <rc><c>Fe</c><c>   1</c></rc>
    <rc><c>Fe</c><c>   1</c></rc>
    <rc><c>Fe</c><c>   1</c></rc>
    <rc><c>Fe</c><c>   1</c></rc>
    <rc><c>Fe</c><c>   1</c></rc>
    <rc><c>Fe</c><c>   1</c></rc>
    <rc><c>Fe</c><c>   1</c></rc>
    <rc><c>Fe</c><c>   1</c></rc>
    <rc><c>Fe</c><c>   1</c></rc>
    <rc><c>Fe</c><c>   1</c></rc>
    <rc><c>Fe</c><c>   1</c></rc>
    <rc><c>Fe</c><c>   1</c></rc>
    <rc><c>Fe</c><c>   1</c></rc>
    <rc><c>Fe</c><c>   1</c></rc>
    <rc><c>Fe</c><c>   1</c></rc>
    <rc><c>Fe</c><c>   1</c></rc>
    <rc><c>Fe</c><c>   1</c></rc>
    <rc><c>Fe</c><c>   1</c></rc>
    <rc><c>Fe</c><c>   1</c></rc>
    <rc><c>Fe</c><c>   1</c></rc>
    <rc><c>Fe</c><c>   1</c></rc>
    <rc><c>Fe</c><c>   1</c></rc>
    <rc><c>Fe</c><c>   1</c></rc>
    <rc><c>Fe</c><c>   1</c></rc>
    <rc><c>Fe</c><c>   1</c></rc>
    <rc><c>Fe</c><c>   1</c></rc>
    <rc><c>Fe</c><c>   1</c></rc>
    <rc><c>Fe</c><c>   1</c></rc>
    <rc><c>Fe</c><c>   1</c></rc>
    <rc><c>Fe</c><c>   1</c></rc>
    <rc><c>Fe</c><c>   1</c></rc>
    <rc><c>Fe</c><c>   1</c></rc>
    <rc><c>Fe</c><c>   1</c></rc>
    <rc><c>Fe</c><c>   1</c></rc>
    <rc><c>Fe</c><c>   1</c></rc>
    <rc><c>Fe</c><c>   1</c></rc>
    <rc><c>Fe</c><c>   1</c></rc>
    <rc><c>Fe</c><c>   1</c></rc>
    <rc><c>Fe</c><c>   1</c></rc>
    <rc><c>Fe</c><c>   1</c></rc>
    <rc><c>Fe</c><c>   1</c></rc>
    <rc><c>Fe</c><c>   1</c></rc>
    <rc><c>Fe</c><c>   1</c></rc>
    <rc><c>Fe</c><c>   1</c></rc>
    <rc><c>Fe</c><c>   1</c></rc>
    <rc><c>Fe</c><c>   1</c></rc>
    <rc><c>Fe</c><c>   1</c></rc>
    <rc><c>Fe</c><c>   1</c></rc>
    <rc><c>Fe</c><c>   1</c></rc>
    <rc><c>Fe</c><c>   1</c></rc>
    <rc><c>Fe</c><c>   1</c></rc>
    <rc><c>Fe</c><c>   1</c></rc>
    <rc><c>Fe</c><c>   1</c></rc>
    <rc><c>Fe</c><c>   1</c></rc>
    <rc><c>Fe</c><c>   1</c></rc>
    <rc><c>Fe</c><c>   1</c></rc>
    <rc><c>Fe</c><c>   1</c></rc>
    <rc><c>Fe</c><c>   1</c></rc>
    <rc><c>Fe</c><c>   1</c></rc>
    <rc><c>Fe</c><c>   1</c></rc>
    <rc><c>Fe</c><c>   1</c></rc>
    <rc><c>Fe</c><c>   1</c></rc>
    <rc><c>Fe</c><c>   1</c></rc>
    <rc><c>Fe</c><c>   1</c></rc>
    <rc><c>Fe</c><c>   1</c></rc>
    <rc><c>Fe</c><c>   1</c></rc>
    <rc><c>Fe</c><c>   1</c></rc>
    <rc><c>Fe</c><c>   1</c></rc>
    <rc><c>Fe</c><c>   1</c></rc>
    <rc><c>Fe</c><c>   1</c></rc>
    <rc><c>Fe</c><c>   1</c></rc>
    <rc><c>Fe</c><c>   1</c></rc>
    <rc><c>Fe</c><c>   1</c></rc>
    <rc><c>Fe</c><c>   1</c></rc>
    <rc><c>Fe</c><c>   1</c></rc>
    <rc><c>Fe</c><c>   1</c></rc>
    <rc><c>Fe</c><c>   1</c></rc>
    <rc><c>Fe</c><c>   1</c></rc>
    <rc><c>Fe</c><c>   1</c></rc>
    <rc><c>Fe</c><c>   1</c></rc>
    <rc><c>Fe</c><c>   1</c></rc>
    <rc><c>Fe</c><c>   1</c></rc>
    <rc><c>Fe</c><c>   1</c></rc>
    <rc><c>Fe</c><c>   1</c></rc>
    <rc><c>Fe</c><c>   1</c></rc>
    <rc><c>Fe</c><c>   1</c></rc>
    <rc><c>Fe</c><c>   1</c></rc>
    <rc><c>Fe</c><c>   1</c></rc>
    <rc><c>Fe</c><c>   1</c></rc>
    <rc><c>Fe</c><c>   1</c></rc>
    <rc><c>Fe</c><c>   1</c></rc>
    <rc><c>Fe</c><c>   1</c></rc>
    <rc><c>Fe</c><c>   1</c></rc>
    <rc><c>Fe</c><c>   1</c></rc>
    <rc><c>Fe</c><c>   1</c></rc>
    <rc><c>Fe</c><c>   1</c></rc>
    <rc><c>Fe</c><c>   1</c></rc>
    <rc><c>Fe</c><c>   1</c></rc>
    <rc><c>Fe</c><c>   1</c></rc>
    <rc><c>Fe</c><c>   1</c></rc>
    <rc><c>Fe</c><c>   1</c></rc>
    <rc><c>Fe</c><c>   1</c></rc>
    <rc><c>Fe</c><c>   1</c></rc>
    <rc><c>Fe</c><c>   1</c></rc>
    <rc><c>Fe</c><c>   1</c></rc>
    <rc><c>Fe</c><c>   1</c></rc>
    <rc><c>Fe</c><c>   1</c></rc>
    <rc><c>Fe</c><c>   1</c></rc>
    <rc><c>Fe</c><c>   1</c></rc>
    <rc><c>Fe</c><c>   1</c></rc>
    <rc><c>Fe</c><c>   1</c></rc>
    <rc><c>Fe</c><c>   1</c></rc>
    <rc><c>Fe</c><c>   1</c></rc>
    <rc><c>Fe</c><c>   1</c></rc>
    <rc><c>Fe</c><c>   1</c></rc>
    <rc><c>Fe</c><c>   1</c></rc>
    <rc><c>Fe</c><c>   1</c></rc>
    <rc><c>Fe</c><c>   1</c></rc>
    <rc><c>Fe</c><c>   1</c></rc>
    <rc><c>Fe</c><c>   1</c></rc>
    <rc><c>Fe</c><c>   1</c></rc>
    <rc><c>Fe</c><c>   1</c></rc>
    <rc><c>Fe</c><c>   1</c></rc>
    <rc><c>Fe</c><c>   1</c></rc>
    <rc><c>Fe</c><c>   1</c></rc>
    <rc><c>Fe</c><c>   1</c></rc>
    <rc><c>Fe</c><c>   1</c></rc>
    <rc><c>Fe</c><c>   1</c></rc>
    <rc><c>Fe</c><c>   1</c></rc>
    <rc><c>Fe</c><c>   1</c></rc>
    <rc><c>Fe</c><c>   1</c></rc>
    <rc><c>Fe</c><c>   1</c></rc>
    <rc><c>Fe</c><c>   1</c></rc>
    <rc><c>Fe</c><c>   1</c></rc>
    <rc><c>Fe</c><c>   1</c></rc>
    <rc><c>Fe</c><c>   1</c></rc>
    <rc><c>Fe</c><c>   1</c></rc>
    <rc><c>Fe</c><c>   1</c></rc>
    <rc><c>Fe</c><c>   1</c></rc>
    <rc><c>Fe</c><c>   1</c></rc>
    <rc><c>Fe</c><c>   1</c></rc>
    <rc><c>Fe</c><c>   1</c></rc>
    <rc><c>Fe</c><c>   1</c></rc>
    <rc><c>Fe</c><c>   1</c></rc>
    <rc><c>Fe</c><c>   1</c></rc>
    <rc><c>Fe</c><c>   1</c></rc>
    <rc><c>Fe</c><c>   1</c></rc>
    <rc><c>Fe</c><c>   1</c></rc>
    <rc><c>Fe</c><c>   1</c></rc>
    <rc><c>Fe</c><c>   1</c></rc>
    <rc><c>Fe</c><c>   1</c></rc>
    <rc><c>Fe</c><c>   1</c></rc>
    <rc><c>Fe</c><c>   1</c></rc>
    <rc><c>Fe</c><c>   1</c></rc>
    <rc><c>Fe</c><c>   1</c></rc>
    <rc><c>Fe</c><c>   1</c></rc>
    <rc><c>Fe</c><c>   1</c></rc>
    <rc><c>Fe</c><c>   1</c></rc>
    <rc><c>Fe</c><c>   1</c></rc>
    <rc><c>Fe</c><c>   1</c></rc>
    <rc><c>Fe</c><c>   1</c></rc>
    <rc><c>Fe</c><c>   1</c></rc>
    <rc><c>Fe</c><c>   1</c></rc>
    <rc><c>Fe</c><c>   1</c></rc>
    <rc><c>Fe</c><c>   1</c></rc>
    <rc><c>Fe</c><c>   1</c></rc>
    <rc><c>Fe</c><c>   1</c></rc>
    <rc><c>Fe</c><c>   1</c></rc>
    <rc><c>Fe</c><c>   1</c></rc>
    <rc><c>Fe</c><c>   1</c></rc>
    <rc><c>Fe</c><c>   1</c></rc>
    <rc><c>Fe</c><c>   1</c></rc>
    <rc><c>Fe</c><c>   1</c></rc>
    <rc><c>Fe</c><c>   1</c></rc>
    <rc><c>Fe</c><c>   1</c></rc>
    <rc><c>Fe</c><c>   1</c></rc>
    <rc><c>Fe</c><c>   1</c></rc>
    <rc><c>Fe</c><c>   1</c></rc>
    <rc><c>Fe</c><c>   1</c></rc>
    <rc><c>Fe</c><c>   1</c></rc>
    <rc><c>Fe</c><c>   1</c></rc>
    <rc><c>Fe</c><c>   1</c></rc>
    <rc><c>Fe</c><c>   1</c></rc>
    <rc><c>Fe</c><c>   1</c></rc>
    <rc><c>Fe</c><c>   1</c></rc>
    <rc><c>Fe</c><c>   1</c></rc>
    <rc><c>Fe</c><c>   1</c></rc>
    <rc><c>Fe</c><c>   1</c></rc>
    <rc><c>Fe</c><c>   1</c></rc>
    <rc><c>Fe</c><c>   1</c></rc>
    <rc><c>Fe</c><c>   1</c></rc>
    <rc><c>Fe</c><c>   1</c></rc>
    <rc><c>Fe</c><c>   1</c></rc>
    <rc><c>Fe</c><c>   1</c></rc>
    <rc><c>Fe</c><c>   1</c></rc>
    <rc><c>Fe</c><c>   1</c></rc>
    <rc><c>Fe</c><c>   1</c></rc>
    <rc><c>Fe</c><c>   1</c></rc>
    <rc><c>Fe</c><c>   1</c></rc>
    <rc><c>Fe</c><c>   1</c></rc>
    <rc><c>Fe</c><c>   1</c></rc>
    <rc><c>Fe</c><c>   1</c></rc>
    <rc><c>Fe</c><c>   1</c></rc>
    <rc><c>Fe</c><c>   1</c></rc>
    <rc><c>Fe</c><c>   1</c></rc>
    <rc><c>Fe</c><c>   1</c></rc>
    <rc><c>Fe</c><c>   1</c></rc>
    <rc><c>Fe</c><c>   1</c></rc>
    <rc><c>Fe</c><c>   1</c></rc>
    <rc><c>Fe</c><c>   1</c></rc>
    <rc><c>Fe</c><c>   1</c></rc>
    <rc><c>Fe</c><c>   1</c></rc>
    <rc><c>Fe</c><c>   1</c></rc>
    <rc><c>Fe</c><c>   1</c></rc>
    <rc><c>Fe</c><c>   1</c></rc>
    <rc><c>Fe</c><c>   1</c></rc>
    <rc><c>Fe</c><c>   1</c></rc>
    <rc><c>Fe</c><c>   1</c></rc>
    <rc><c>Fe</c><c>   1</c></rc>
    <rc><c>Fe</c><c>   1</c></rc>
    <rc><c>Fe</c><c>   1</c></rc>
    <rc><c>Fe</c><c>   1</c></rc>
    <rc><c>Fe</c><c>   1</c></rc>
    <rc><c>Fe</c><c>   1</c></rc>
    <rc><c>Fe</c><c>   1</c></rc>
    <rc><c>Fe</c><c>   1</c></rc>
    <rc><c>Fe</c><c>   1</c></rc>
    <rc><c>Fe</c><c>   1</c></rc>
    <rc><c>Fe</c><c>   1</c></rc>
    <rc><c>Fe</c><c>   1</c></rc>
    <rc><c>Fe</c><c>   1</c></rc>
    <rc><c>Fe</c><c>   1</c></rc>
    <rc><c>Fe</c><c>   1</c></rc>
    <rc><c>Fe</c><c>   1</c></rc>
    <rc><c>Fe</c><c>   1</c></rc>
    <rc><c>Fe</c><c>   1</c></rc>
    <rc><c>Fe</c><c>   1</c></rc>
    <rc><c>Fe</c><c>   1</c></rc>
    <rc><c>Fe</c><c>   1</c></rc>
    <rc><c>Fe</c><c>   1</c></rc>
    <rc><c>Fe</c><c>   1</c></rc>
    <rc><c>Fe</c><c>   1</c></rc>
    <rc><c>Fe</c><c>   1</c></rc>
    <rc><c>Fe</c><c>   1</c></rc>
    <rc><c>Fe</c><c>   1</c></rc>
    <rc><c>Fe</c><c>   1</c></rc>
    <rc><c>Fe</c><c>   1</c></rc>
    <rc><c>Fe</c><c>   1</c></rc>
    <rc><c>Fe</c><c>   1</c></rc>
    <rc><c>Fe</c><c>   1</c></rc>
    <rc><c>Fe</c><c>   1</c></rc>
    <rc><c>Fe</c><c>   1</c></rc>
    <rc><c>Fe</c><c>   1</c></rc>
    <rc><c>Fe</c><c>   1</c></rc>
    <rc><c>Fe</c><c>   1</c></rc>
    <rc><c>Fe</c><c>   1</c></rc>
    <rc><c>Fe</c><c>   1</c></rc>
    <rc><c>Fe</c><c>   1</c></rc>
    <rc><c>Fe</c><c>   1</c></rc>
    <rc><c>Fe</c><c>   1</c></rc>
    <rc><c>Fe</c><c>   1</c></rc>
    <rc><c>Fe</c><c>   1</c></rc>
    <rc><c>Fe</c><c>   1</c></rc>
    <rc><c>Fe</c><c>   1</c></rc>
    <rc><c>Fe</c><c>   1</c></rc>
    <rc><c>Fe</c><c>   1</c></rc>
    <rc><c>Fe</c><c>   1</c></rc>
    <rc><c>Fe</c><c>   1</c></rc>
    <rc><c>Mn</c><c>   2</c></rc>
    <rc><c>Mn</c><c>   2</c></rc>
    <rc><c>Mn</c><c>   2</c></rc>
    <rc><c>Mn</c><c>   2</c></rc>
    <rc><c>Mn</c><c>   2</c></rc>
    <rc><c>Mn</c><c>   2</c></rc>
    <rc><c>Mn</c><c>   2</c></rc>
   </set>
  </array>
  <array name="atomtypes" >
   <dimension dim="1">type</dimension>
   <field type="int">atomspertype</field>
   <field type="string">element</field>
   <field>mass</field>
   <field>valence</field>
   <field type="string">pseudopotential</field>
   <set>
    <rc><c> 281</c><c>Fe</c><c>     55.84700000</c><c>      8.00000000</c><c>  PAW_PBE Fe_GW 31Mar2010               </c></rc>
    <rc><c>   7</c><c>Mn</c><c>     54.93800000</c><c>      7.00000000</c><c>  PAW_PBE Mn_GW 31Mar2010               </c></rc>
   </set>
  </array>
 </atominfo>
 <structure name="initialpos" >
  <crystal>
   <varray name="basis" >
    <v>       9.72667804       0.00000000       0.00000000 </v>
    <v>       0.00000000       8.42355028       0.00000000 </v>
    <v>       0.00000000       0.00000000      45.00000000 </v>
   </varray>
   <i name="volume">   3686.99226691 </i>
   <varray name="rec_basis" >
    <v>       0.10281002       0.00000000       0.00000000 </v>
    <v>       0.00000000       0.11871479       0.00000000 </v>
    <v>       0.00000000       0.00000000       0.02222222 </v>
   </varray>
  </crystal>
  <varray name="positions" >
   <v>       0.06171556       0.03521322       0.12447722 </v>
   <v>       0.81447299       0.04298855       0.87573566 </v>
   <v>       0.19530731       0.12520778       0.78853953 </v>
   <v>       0.43368158       0.28747728       0.38904495 </v>
   <v>       0.31594239       0.36093391       0.16670599 </v>
   <v>       0.80874035       0.21303667       0.83312917 </v>
   <v>       0.18363264       0.78750901       0.38907498 </v>
   <v>       0.56380551       0.20766597       0.56543709 </v>
   <v>       0.06034656       0.04229515       0.74414985 </v>
   <v>       0.81348968       0.87202912       0.52130818 </v>
   <v>       0.18569661       0.29212182       0.74420142 </v>
   <v>       0.94144649       0.45190651       0.34496003 </v>
   <v>       0.93366369       0.28748759       0.38904536 </v>
   <v>       0.43844431       0.62194808       0.52131820 </v>
   <v>       0.18784806       0.79179934       0.61079596 </v>
   <v>       0.55861015       0.03758825       0.38908341 </v>
   <v>       0.93344627       0.96297935       0.83319681 </v>
   <v>       0.31402895       0.54254954       0.87559155 </v>
   <v>       0.68573559       0.29202183       0.74409243 </v>
   <v>       0.94140896       0.95178041       0.34494792 </v>
   <v>       0.81282463       0.20578262       0.47861379 </v>
   <v>       0.81283340       0.54181140       0.61078321 </v>
   <v>       0.31307288       0.87051412       0.43440426 </v>
   <v>       0.81554575       0.03509356       0.25606224 </v>
   <v>       0.69139489       0.95182249       0.34495690 </v>
   <v>       0.94293527       0.11337589       0.16696782 </v>
   <v>       0.93848833       0.12202001       0.52131218 </v>
   <v>       0.56501972       0.53573061       0.25594809 </v>
   <v>       0.69322491       0.79689139       0.87573268 </v>
   <v>       0.56725061       0.36209277       0.16677556 </v>
   <v>       0.43582876       0.79178176       0.74415276 </v>
   <v>       0.81382526       0.70772195       0.56542000 </v>
   <v>       0.57005387       0.87439918       0.78838973 </v>
   <v>       0.68852008       0.12196760       0.52130605 </v>
   <v>       0.19005077       0.28558153       0.25597418 </v>
   <v>       0.93360074       0.46326500       0.83304086 </v>
   <v>       0.06545550       0.20855975       0.69960500 </v>
   <v>       0.80857547       0.03746629       0.38906685 </v>
   <v>       0.30863850       0.21375617       0.83333731 </v>
   <v>       0.43404836       0.62603658       0.65495464 </v>
   <v>       0.31285894       0.54182570       0.61075664 </v>
   <v>       0.93871334       0.45781737       0.56544171 </v>
   <v>       0.68562451       0.79207837       0.74415517 </v>
   <v>       0.30884120       0.87570524       0.65490854 </v>
   <v>       0.68360472       0.78746973       0.38906684 </v>
   <v>       0.93609531       0.79163521       0.74414903 </v>
   <v>       0.06644589       0.20190083       0.34497013 </v>
   <v>       0.43659981       0.78055887       0.12414107 </v>
   <v>       0.44549068       0.12526399       0.78862258 </v>
   <v>       0.05485495       0.20272596       0.21188130 </v>
   <v>       0.06735960       0.36192689       0.16677342 </v>
   <v>       0.94033350       0.78533314       0.25602929 </v>
   <v>       0.56546023       0.20839558       0.69971857 </v>
   <v>       0.69049660       0.95835124       0.69971559 </v>
   <v>       0.68355512       0.28750353       0.38906959 </v>
   <v>       0.43878705       0.95770988       0.56541360 </v>
   <v>       0.82075461       0.37427329       0.78838008 </v>
   <v>       0.68992463       0.28546414       0.25603910 </v>
   <v>       0.18876063       0.45775458       0.56545929 </v>
   <v>       0.06754213       0.86169996       0.16679312 </v>
   <v>       0.18790456       0.29182174       0.61076433 </v>
   <v>       0.56637998       0.70202002       0.34497680 </v>
   <v>       0.31534408       0.20858480       0.69965172 </v>
   <v>       0.56582828       0.54137696       0.87553775 </v>
   <v>       0.06384139       0.70775216       0.56542653 </v>
   <v>       0.69517788       0.62500824       0.78859446 </v>
   <v>       0.30855214       0.53751076       0.38906813 </v>
   <v>       0.18846457       0.62197640       0.52130394 </v>
   <v>       0.56291642       0.87053019       0.43443463 </v>
   <v>       0.43882417       0.45775201       0.56543313 </v>
   <v>       0.43591589       0.29183263       0.74413926 </v>
   <v>       0.80358339       0.87189632       0.30033668 </v>
   <v>       0.81638525       0.70211259       0.34496797 </v>
   <v>       0.43349086       0.46417541       0.83318786 </v>
   <v>       0.68782164       0.95583721       0.47862039 </v>
   <v>       0.69092692       0.45815597       0.69971553 </v>
   <v>       0.56346818       0.87203872       0.52132670 </v>
   <v>       0.55883518       0.37563299       0.65495199 </v>
   <v>       0.80884032       0.87569134       0.65488828 </v>
   <v>       0.81311948       0.37060996       0.43437659 </v>
   <v>       0.81533908       0.53533758       0.25602221 </v>
   <v>       0.68352883       0.46302761       0.83306855 </v>
   <v>       0.18796743       0.77925933       0.12431867 </v>
   <v>       0.06419276       0.04288234       0.87565853 </v>
   <v>       0.30879487       0.37573019       0.65491591 </v>
   <v>       0.31630448       0.20189992       0.34497210 </v>
   <v>       0.81082450       0.54238192       0.74414072 </v>
   <v>       0.68397241       0.96357237       0.83304582 </v>
   <v>       0.55889771       0.87576511       0.65490271 </v>
   <v>       0.31379621       0.70772599       0.56543761 </v>
   <v>       0.31236225       0.53514503       0.12415013 </v>
   <v>       0.68000119       0.95258486       0.21165320 </v>
   <v>       0.31381422       0.20765707       0.56543279 </v>
   <v>       0.31101997       0.54279249       0.74428671 </v>
   <v>       0.68876854       0.95764635       0.56543416 </v>
   <v>       0.43786329       0.79178749       0.61079273 </v>
   <v>       0.69232368       0.61087841       0.16700998 </v>
   <v>       0.30368308       0.87228941       0.30032421 </v>
   <v>       0.31281076       0.70582783       0.47861123 </v>
   <v>       0.93781732       0.29169852       0.61078104 </v>
   <v>       0.42857756       0.62200111       0.30035529 </v>
   <v>       0.81658550       0.86236255       0.16685863 </v>
   <v>       0.55529394       0.20201370       0.21161889 </v>
   <v>       0.94207411       0.61312704       0.16697375 </v>
   <v>       0.94127301       0.79685627       0.87572489 </v>
   <v>       0.56999115       0.37422236       0.78833903 </v>
   <v>       0.06349455       0.37190715       0.52130421 </v>
   <v>       0.56347797       0.37198527       0.52130475 </v>
   <v>       0.67856553       0.12200173       0.30035215 </v>
   <v>       0.43302380       0.96301038       0.83316563 </v>
   <v>       0.18785433       0.95575312       0.47862229 </v>
   <v>       0.82075222       0.87463394       0.78840920 </v>
   <v>       0.31306170       0.37058633       0.43442027 </v>
   <v>       0.93769957       0.79183188       0.61095379 </v>
   <v>       0.43773721       0.29183870       0.61085229 </v>
   <v>       0.19120934       0.45171496       0.34494315 </v>
   <v>       0.43882289       0.28154718       0.12443149 </v>
   <v>       0.69008661       0.78545041       0.25604968 </v>
   <v>       0.19069782       0.95883942       0.69958216 </v>
   <v>       0.19105912       0.29547668       0.87581099 </v>
   <v>       0.18387014       0.12563361       0.65492701 </v>
   <v>       0.93387826       0.12579075       0.65492567 </v>
   <v>       0.30527312       0.20282925       0.21195897 </v>
   <v>       0.05864101       0.03746665       0.38906234 </v>
   <v>       0.44016852       0.95826350       0.69968711 </v>
   <v>       0.06301007       0.54161321       0.61069720 </v>
   <v>       0.94032383       0.28518357       0.25601108 </v>
   <v>       0.56281691       0.54181652       0.61080102 </v>
   <v>       0.93884823       0.95773619       0.56541805 </v>
   <v>       0.67869473       0.62185473       0.30034655 </v>
   <v>       0.93811997       0.62039228       0.43442940 </v>
   <v>       0.94554629       0.62498580       0.78855265 </v>
   <v>       0.56543365       0.70850288       0.69961283 </v>
   <v>       0.05890179       0.71325073       0.83344499 </v>
   <v>       0.92855888       0.12200274       0.30035192 </v>
   <v>       0.93977432       0.45815306       0.69955351 </v>
   <v>       0.43994541       0.78568691       0.25598666 </v>
   <v>       0.32061399       0.37431912       0.78835853 </v>
   <v>       0.42977815       0.45202800       0.21171544 </v>
   <v>       0.18845862       0.12197527       0.52130180 </v>
   <v>       0.81561907       0.70860473       0.69967703 </v>
   <v>       0.06266198       0.04186701       0.61085202 </v>
   <v>       0.55901892       0.21337567       0.83322709 </v>
   <v>       0.31351552       0.87200312       0.52131257 </v>
   <v>       0.68697866       0.28206187       0.12429880 </v>
   <v>       0.17992913       0.95253609       0.21190406 </v>
   <v>       0.68792251       0.29166395       0.61068021 </v>
   <v>       0.31258709       0.04198921       0.61085381 </v>
   <v>       0.94558710       0.12536398       0.78844393 </v>
   <v>       0.44189759       0.79743046       0.87565597 </v>
   <v>       0.81081204       0.04250720       0.74403898 </v>
   <v>       0.43848369       0.12198288       0.52132086 </v>
   <v>       0.18384596       0.62572078       0.65490930 </v>
   <v>       0.31524368       0.70824604       0.69960163 </v>
   <v>       0.93456091       0.27922120       0.12457102 </v>
   <v>       0.43779923       0.45586460       0.47859359 </v>
   <v>       0.06280243       0.70579856       0.47860663 </v>
   <v>       0.93811716       0.12036698       0.43444135 </v>
   <v>       0.42870310       0.12197242       0.30032627 </v>
   <v>       0.18814515       0.12048811       0.43437743 </v>
   <v>       0.56516156       0.04316593       0.87559280 </v>
   <v>       0.18876539       0.95767927       0.56544150 </v>
   <v>       0.68850887       0.78167226       0.12434685 </v>
   <v>       0.56445143       0.53289220       0.12453184 </v>
   <v>       0.30862395       0.03751296       0.38907020 </v>
   <v>       0.69210919       0.11110025       0.16696994 </v>
   <v>       0.80581919       0.20313919       0.21192509 </v>
   <v>       0.06545744       0.53536714       0.25601091 </v>
   <v>       0.56285290       0.70579580       0.47861890 </v>
   <v>       0.06381590       0.20772608       0.56543298 </v>
   <v>       0.55367986       0.37204107       0.30034131 </v>
   <v>       0.44144116       0.95186787       0.34497427 </v>
   <v>       0.18400666       0.96345287       0.83320146 </v>
   <v>       0.44171689       0.61253603       0.16683320 </v>
   <v>       0.93021079       0.45307883       0.21187966 </v>
   <v>       0.06234451       0.53353094       0.12459778 </v>
   <v>       0.81351540       0.37202571       0.52128851 </v>
   <v>       0.92854323       0.62189353       0.30034636 </v>
   <v>       0.31521462       0.03546676       0.25603395 </v>
   <v>       0.06345372       0.87203054       0.52131828 </v>
   <v>       0.18414114       0.46548133       0.83336752 </v>
   <v>       0.44258814       0.11088710       0.16670303 </v>
   <v>       0.31348137       0.37196649       0.52129617 </v>
   <v>       0.44585789       0.62504500       0.78832823 </v>
   <v>       0.06524510       0.03521882       0.25599826 </v>
   <v>       0.56382639       0.70775819       0.56542195 </v>
   <v>       0.17872891       0.62197378       0.30034677 </v>
   <v>       0.69554179       0.12518363       0.78849643 </v>
   <v>       0.18111493       0.45170003       0.21158421 </v>
   <v>       0.93364967       0.78746003       0.38906456 </v>
   <v>       0.69409071       0.29770152       0.87583280 </v>
   <v>       0.68776962       0.79188000       0.61082584 </v>
   <v>       0.44050604       0.45814650       0.69957527 </v>
   <v>       0.80891946       0.37574452       0.65494870 </v>
   <v>       0.68846933       0.62199880       0.52131663 </v>
   <v>       0.05880523       0.87563530       0.65488814 </v>
   <v>       0.07094822       0.87448276       0.78845251 </v>
   <v>       0.05891686       0.37561007       0.65491476 </v>
   <v>       0.68781241       0.45588555       0.47861029 </v>
   <v>       0.19008148       0.78571704       0.25600001 </v>
   <v>       0.43808917       0.12037155       0.43441607 </v>
   <v>       0.05856869       0.53741259       0.38906853 </v>
   <v>       0.93847282       0.62197251       0.52131407 </v>
   <v>       0.06308266       0.87044910       0.43442870 </v>
   <v>       0.81112697       0.53363349       0.12440024 </v>
   <v>       0.44137257       0.45175462       0.34495494 </v>
   <v>       0.81639660       0.20185286       0.34495802 </v>
   <v>       0.18633145       0.28060231       0.12437131 </v>
   <v>       0.68377258       0.12574052       0.65488668 </v>
   <v>       0.55365203       0.87203414       0.30034114 </v>
   <v>       0.06051173       0.54227643       0.74427200 </v>
   <v>       0.93553780       0.78015352       0.12446373 </v>
   <v>       0.80527616       0.70297738       0.21183441 </v>
   <v>       0.05376000       0.87228161       0.30028670 </v>
   <v>       0.17870634       0.12224251       0.30032679 </v>
   <v>       0.06633301       0.70192697       0.34497883 </v>
   <v>       0.81275759       0.04183817       0.61081840 </v>
   <v>       0.06302390       0.37044947       0.43442324 </v>
   <v>       0.56629609       0.20192911       0.34498164 </v>
   <v>       0.80361011       0.37206407       0.30032802 </v>
   <v>       0.43780404       0.95585508       0.47859673 </v>
   <v>       0.55855203       0.53754651       0.38906373 </v>
   <v>       0.06282318       0.20583494       0.47859503 </v>
   <v>       0.32029047       0.87445539       0.78836432 </v>
   <v>       0.94038802       0.95851434       0.69975339 </v>
   <v>       0.05364740       0.37227579       0.30036454 </v>
   <v>       0.68403349       0.62605322       0.65494990 </v>
   <v>       0.68879659       0.45771599       0.56543223 </v>
   <v>       0.43063580       0.95266732       0.21183767 </v>
   <v>       0.31279203       0.20579128       0.47863570 </v>
   <v>       0.43386201       0.12567036       0.65492106 </v>
   <v>       0.68801807       0.62049223       0.43441644 </v>
   <v>       0.81527707       0.20834759       0.69966089 </v>
   <v>       0.81277157       0.70578281       0.47861136 </v>
   <v>       0.56300168       0.37055245       0.43443000 </v>
   <v>       0.93784591       0.95581501       0.47860423 </v>
   <v>       0.56283763       0.20583016       0.47861774 </v>
   <v>       0.18800291       0.62041392       0.43443129 </v>
   <v>       0.31058072       0.04188426       0.74396396 </v>
   <v>       0.93390263       0.62596426       0.65487597 </v>
   <v>       0.55890405       0.71306596       0.83319732 </v>
   <v>       0.30368815       0.37217132       0.30031863 </v>
   <v>       0.55472385       0.70144491       0.21183767 </v>
   <v>       0.18781664       0.45577894       0.47861299 </v>
   <v>       0.31498007       0.04178959       0.87576918 </v>
   <v>       0.19016424       0.45807920       0.69964812 </v>
   <v>       0.81454340       0.54223874       0.87563475 </v>
   <v>       0.18357121       0.28751135       0.38906411 </v>
   <v>       0.43809295       0.62035238       0.43443546 </v>
   <v>       0.05527395       0.70304826       0.21187597 </v>
   <v>       0.81192242       0.03295823       0.12448313 </v>
   <v>       0.81669307       0.36225267       0.16707944 </v>
   <v>       0.80845423       0.71359278       0.83302222 </v>
   <v>       0.07111164       0.37439750       0.78840160 </v>
   <v>       0.44341730       0.29664844       0.87572697 </v>
   <v>       0.31341602       0.03370706       0.12450984 </v>
   <v>       0.68814076       0.12031856       0.43437737 </v>
   <v>       0.19133261       0.95191387       0.34497595 </v>
   <v>       0.05872511       0.21363204       0.83332904 </v>
   <v>       0.56269620       0.04195543       0.61086419 </v>
   <v>       0.68038151       0.45311192       0.21188371 </v>
   <v>       0.18641432       0.79108362       0.74434574 </v>
   <v>       0.81296372       0.87048129       0.43443644 </v>
   <v>       0.43363767       0.78743665       0.38906412 </v>
   <v>       0.44058384       0.28542641       0.25597519 </v>
   <v>       0.06439866       0.54267403       0.87573276 </v>
   <v>       0.56068550       0.04215113       0.74406639 </v>
   <v>       0.19382407       0.79710576       0.87590670 </v>
   <v>       0.93780628       0.45579718       0.47860573 </v>
   <v>       0.80855836       0.53747242       0.38907567 </v>
   <v>       0.81373431       0.20776054       0.56544097 </v>
   <v>       0.31620883       0.70182891       0.34494310 </v>
   <v>       0.93089236       0.95306480       0.21192180 </v>
   <v>       0.06526410       0.70833096       0.69966253 </v>
   <v>       0.31496981       0.53568489       0.25603096 </v>
   <v>       0.30566942       0.70195213       0.21192597 </v>
   <v>       0.56702434       0.86308502       0.16667976 </v>
   <v>       0.56092153       0.54268668       0.74416890 </v>
   <v>       0.69129507       0.45184735       0.34496083 </v>
   <v>       0.94080173       0.29693925       0.87585492 </v>
   <v>       0.56503555       0.03548557       0.25602130 </v>
   <v>       0.19200769       0.11159870       0.16598650 </v>
   <v>       0.30833668       0.71474104       0.83424834 </v>
   <v>       0.31872364       0.86138723       0.16587605 </v>
   <v>       0.93622196       0.29215934       0.74406445 </v>
   <v>       0.56449950       0.03406955       0.12470998 </v>
   <v>       0.19329495       0.61178517       0.16599939 </v>
   <v>       0.19476520       0.62509409       0.78784642 </v>
  </varray>
 </structure>
 <calculation>
  <scstep>
   <time name="dav">   54.32   54.33</time>
   <time name="total">   54.47   54.51</time>
   <energy>
    <i name="alphaZ">  16403.00255340 </i>
    <i name="ewald"> 739915.79499991 </i>
    <i name="hartreedc">-931566.61186552 </i>
    <i name="XCdc">  -6388.79480610 </i>
    <i name="pawpsdc"> 163151.95320885 </i>
    <i name="pawaedc">-160818.84594568 </i>
    <i name="eentropy">     -1.04634323 </i>
    <i name="bandstr">  38624.04674599 </i>
    <i name="atom"> 169914.59583762 </i>
    <i name="e_fr_energy">  29234.09438524 </i>
    <i name="e_wo_entrp">  29235.14072848 </i>
    <i name="e_0_energy">  29234.61755686 </i>
   </energy>
  </scstep>
  <scstep>
   <time name="dav">   53.75   53.80</time>
   <time name="total">   53.76   53.80</time>
   <energy>
    <i name="e_fr_energy">   1197.84214177 </i>
    <i name="e_wo_entrp">   1199.31380410 </i>
    <i name="e_0_energy">   1198.57797293 </i>
   </energy>
  </scstep>
  <scstep>
   <time name="dav">   70.71   70.75</time>
   <time name="total">   70.72   70.76</time>
   <energy>
    <i name="e_fr_energy">  -1939.90257819 </i>
    <i name="e_wo_entrp">  -1936.32210776 </i>
    <i name="e_0_energy">  -1938.11234297 </i>
   </energy>
  </scstep>
  <scstep>
   <time name="dav">   88.71   88.75</time>
   <time name="total">   88.72   88.76</time>
   <energy>
    <i name="e_fr_energy">  -2610.10835405 </i>
    <i name="e_wo_entrp">  -2606.55713305 </i>
    <i name="e_0_energy">  -2608.33274355 </i>
   </energy>
  </scstep>
  <scstep>
   <time name="dav">   84.75   84.79</time>
   <time name="total">   86.86   86.89</time>
   <energy>
    <i name="e_fr_energy">  -2730.46301468 </i>
    <i name="e_wo_entrp">  -2726.78724749 </i>
    <i name="e_0_energy">  -2728.62513108 </i>
   </energy>
  </scstep>
  <scstep>
   <time name="diag">    8.27    8.28</time>
   <time name="diis">   37.19   37.19</time>
   <time name="orth">    2.27    2.27</time>
   <time name="total">   49.88   49.92</time>
   <energy>
    <i name="e_fr_energy">  -4666.47380852 </i>
    <i name="e_wo_entrp">  -4662.81213927 </i>
    <i name="e_0_energy">  -4664.64297389 </i>
   </energy>
  </scstep>
  <scstep>
   <time name="diag">    8.28    8.29</time>
   <time name="diis">   26.67   26.67</time>
   <time name="orth">    2.29    2.29</time>
   <time name="total">   39.49   39.53</time>
[...]
       <r>     5.8225     0.0000  2772.0000 </r>
       <r>     5.8652     0.0000  2772.0000 </r>
       <r>     5.9079     0.0000  2772.0000 </r>
       <r>     5.9507     0.0000  2772.0000 </r>
       <r>     5.9934     0.0000  2772.0000 </r>
       <r>     6.0361     0.0000  2772.0000 </r>
       <r>     6.0789     0.0000  2772.0000 </r>
       <r>     6.1216     0.0000  2772.0000 </r>
       <r>     6.1643     0.0000  2772.0000 </r>
       <r>     6.2071     0.0000  2772.0000 </r>
       <r>     6.2498     0.0000  2772.0000 </r>
       <r>     6.2925     0.0000  2772.0000 </r>
       <r>     6.3353     0.0000  2772.0000 </r>
       <r>     6.3780     0.0000  2772.0000 </r>
       <r>     6.4207     0.0000  2772.0000 </r>
       <r>     6.4635     0.0000  2772.0000 </r>
       <r>     6.5062     0.0000  2772.0000 </r>
       <r>     6.5489     0.0000  2772.0000 </r>
       <r>     6.5917     0.0000  2772.0000 </r>
       <r>     6.6344     0.0000  2772.0000 </r>
       <r>     6.6771     0.0000  2772.0000 </r>
       <r>     6.7199     0.0000  2772.0000 </r>
       <r>     6.7626     0.0000  2772.0000 </r>
      </set>
     </set>
    </array>
   </total>
  </dos>
 </calculation>
 <structure name="finalpos" >
  <crystal>
   <varray name="basis" >
    <v>       9.72667804       0.00000000       0.00000000 </v>
    <v>       0.00000000       8.42355028       0.00000000 </v>
    <v>       0.00000000       0.00000000      45.00000000 </v>
   </varray>
   <i name="volume">   3686.99226691 </i>
   <varray name="rec_basis" >
    <v>       0.10281002       0.00000000       0.00000000 </v>
    <v>       0.00000000       0.11871479       0.00000000 </v>
    <v>       0.00000000       0.00000000       0.02222222 </v>
   </varray>
  </crystal>
  <varray name="positions" >
   <v>       0.06317553       0.03148845       0.12465567 </v>
   <v>       0.81367396       0.04491268       0.87520217 </v>
   <v>       0.19187503       0.12551029       0.78838864 </v>
   <v>       0.43506325       0.28730783       0.38945158 </v>
   <v>       0.31424622       0.36265414       0.16674356 </v>
   <v>       0.81199990       0.21221095       0.83339499 </v>
   <v>       0.18547541       0.78732605       0.38941770 </v>
   <v>       0.56328675       0.20716748       0.56570040 </v>
   <v>       0.06298112       0.04203165       0.74389775 </v>
   <v>       0.81321186       0.87318641       0.52173463 </v>
   <v>       0.18831286       0.29215893       0.74386648 </v>
   <v>       0.93795435       0.45312341       0.34505397 </v>
   <v>       0.93558784       0.28723235       0.38943083 </v>
   <v>       0.43824958       0.62318189       0.52169021 </v>
   <v>       0.18720409       0.79170517       0.61044800 </v>
   <v>       0.56020966       0.03724715       0.38943958 </v>
   <v>       0.93609048       0.96246818       0.83365825 </v>
   <v>       0.31381246       0.54522017       0.87553610 </v>
   <v>       0.68758490       0.29229608       0.74382932 </v>
   <v>       0.93810977       0.95308209       0.34505027 </v>
   <v>       0.81291686       0.20488048       0.47810029 </v>
   <v>       0.81248927       0.54140519       0.61045796 </v>
   <v>       0.31258620       0.87099051       0.43416892 </v>
   <v>       0.81177503       0.03535807       0.25619100 </v>
   <v>       0.68776671       0.95313934       0.34506997 </v>
   <v>       0.93996927       0.11446725       0.16673658 </v>
   <v>       0.93828622       0.12318587       0.52173896 </v>
   <v>       0.56205425       0.53593055       0.25605884 </v>
   <v>       0.69087671       0.79439019       0.87530148 </v>
   <v>       0.56569830       0.36327779       0.16649863 </v>
   <v>       0.43767454       0.79231997       0.74387183 </v>
   <v>       0.81324663       0.70721053       0.56571211 </v>
   <v>       0.56701155       0.87584125       0.78828421 </v>
   <v>       0.68811831       0.12328443       0.52171976 </v>
   <v>       0.18684976       0.28522927       0.25606970 </v>
   <v>       0.93643485       0.46181211       0.83356399 </v>
   <v>       0.06393330       0.20852218       0.69966021 </v>
   <v>       0.81058463       0.03722072       0.38941946 </v>
   <v>       0.31174091       0.21283350       0.83352459 </v>
   <v>       0.43581884       0.62538845       0.65488877 </v>
   <v>       0.31240558       0.54148270       0.61049577 </v>
   <v>       0.93833290       0.45702747       0.56569001 </v>
   <v>       0.68764035       0.79243890       0.74393629 </v>
   <v>       0.31078068       0.87524006       0.65491482 </v>
   <v>       0.68537958       0.78736989       0.38944375 </v>
   <v>       0.93819180       0.79256455       0.74393412 </v>
   <v>       0.06287944       0.20304885       0.34504221 </v>
   <v>       0.43628011       0.78123260       0.12439237 </v>
   <v>       0.44272562       0.12540303       0.78838544 </v>
   <v>       0.05806648       0.20219262       0.21189131 </v>
   <v>       0.06452295       0.36355160       0.16668049 </v>
   <v>       0.93677118       0.78522426       0.25609371 </v>
   <v>       0.56416267       0.20812790       0.69965861 </v>
   <v>       0.68883968       0.95857345       0.69972605 </v>
   <v>       0.68541536       0.28728621       0.38943194 </v>
   <v>       0.43822127       0.95723418       0.56563734 </v>
   <v>       0.81738769       0.37518273       0.78819557 </v>
   <v>       0.68688178       0.28543457       0.25618412 </v>
   <v>       0.18817716       0.45695122       0.56567132 </v>
   <v>       0.06492364       0.86383594       0.16679314 </v>
   <v>       0.18731193       0.29155601       0.61039656 </v>
   <v>       0.56258242       0.70303758       0.34505346 </v>
   <v>       0.31409601       0.20838555       0.69973657 </v>
   <v>       0.56413377       0.54522915       0.87516476 </v>
   <v>       0.06325110       0.70717423       0.56569192 </v>
   <v>       0.69205490       0.62590856       0.78834755 </v>
   <v>       0.31024081       0.53737105       0.38944549 </v>
   <v>       0.18824535       0.62322127       0.52171413 </v>
   <v>       0.56255540       0.87093588       0.43419269 </v>
   <v>       0.43828661       0.45697622       0.56565843 </v>
   <v>       0.43793111       0.29212990       0.74385804 </v>
   <v>       0.80773095       0.87080584       0.30028986 </v>
   <v>       0.81288620       0.70302535       0.34505105 </v>
   <v>       0.43659101       0.46270595       0.83355514 </v>
   <v>       0.68777477       0.95479529       0.47811406 </v>
   <v>       0.68911804       0.45840979       0.69973869 </v>
   <v>       0.56316678       0.87321096       0.52170490 </v>
   <v>       0.56081355       0.37551375       0.65498827 </v>
   <v>       0.81083313       0.87580515       0.65492586 </v>
   <v>       0.81276248       0.37100486       0.43418485 </v>
   <v>       0.81186839       0.53558310       0.25611338 </v>
   <v>       0.68626664       0.46200011       0.83354700 </v>
   <v>       0.18859827       0.78241986       0.12430788 </v>
   <v>       0.06411945       0.04580661       0.87518453 </v>
   <v>       0.31076612       0.37552276       0.65488805 </v>
   <v>       0.31260119       0.20296182       0.34507898 </v>
   <v>       0.81265971       0.54220371       0.74385854 </v>
   <v>       0.68648920       0.96248168       0.83359916 </v>
   <v>       0.56094572       0.87545403       0.65492532 </v>
   <v>       0.31321097       0.70726945       0.56565385 </v>
   <v>       0.31296382       0.53193456       0.12445637 </v>
   <v>       0.68331205       0.95132357       0.21176454 </v>
   <v>       0.31322434       0.20714695       0.56571040 </v>
   <v>       0.31276183       0.54223667       0.74385957 </v>
   <v>       0.68832689       0.95722173       0.56571298 </v>
   <v>       0.43746826       0.79174891       0.61047074 </v>
   <v>       0.69046170       0.61348456       0.16671046 </v>
   <v>       0.30767168       0.87079489       0.30041261 </v>
   <v>       0.31297080       0.70482876       0.47807636 </v>
   <v>       0.93742411       0.29140444       0.61049030 </v>
   <v>       0.43259242       0.62075982       0.30033311 </v>
   <v>       0.81479124       0.86376198       0.16656132 </v>
   <v>       0.55831665       0.20186772       0.21193482 </v>
   <v>       0.93949127       0.61424810       0.16671165 </v>
   <v>       0.93920120       0.79504610       0.87530662 </v>
   <v>       0.56707727       0.37564531       0.78821479 </v>
   <v>       0.06322913       0.37323992       0.52173318 </v>
   <v>       0.56318277       0.37322682       0.52170670 </v>
   <v>       0.68278980       0.12070942       0.30027862 </v>
   <v>       0.43597538       0.96225994       0.83364144 </v>
   <v>       0.18796867       0.95491940       0.47805732 </v>
   <v>       0.81713762       0.87570631       0.78825680 </v>
   <v>       0.31260831       0.37104127       0.43416172 </v>
   <v>       0.93752113       0.79150522       0.61048963 </v>
   <v>       0.43755472       0.29151363       0.61046053 </v>
   <v>       0.18777784       0.45310269       0.34508124 </v>
   <v>       0.43773057       0.28201517       0.12494020 </v>
   <v>       0.68693381       0.78535003       0.25615298 </v>
   <v>       0.18878311       0.95889528       0.69961301 </v>
   <v>       0.19021312       0.29388747       0.87536170 </v>
   <v>       0.18580414       0.12510965       0.65492630 </v>
   <v>       0.93575760       0.12549220       0.65489877 </v>
   <v>       0.30840010       0.20173278       0.21187175 </v>
   <v>       0.06060672       0.03727623       0.38941945 </v>
   <v>       0.43899989       0.95860488       0.69973696 </v>
   <v>       0.06222756       0.54154153       0.61045157 </v>
   <v>       0.93679499       0.28554967       0.25609142 </v>
   <v>       0.56272602       0.54136423       0.61049598 </v>
   <v>       0.93828098       0.95739416       0.56570780 </v>
   <v>       0.68263172       0.62083858       0.30026490 </v>
   <v>       0.93790177       0.62112321       0.43416371 </v>
   <v>       0.94226015       0.62598823       0.78844281 </v>
   <v>       0.56409234       0.70830801       0.69971292 </v>
   <v>       0.06169804       0.71182370       0.83353920 </v>
   <v>       0.93280968       0.12086168       0.30032500 </v>
   <v>       0.93885740       0.45837036       0.69959457 </v>
   <v>       0.43666741       0.78557468       0.25608581 </v>
   <v>       0.31710736       0.37578303       0.78833577 </v>
   <v>       0.43295461       0.45155881       0.21179617 </v>
   <v>       0.18828675       0.12322624       0.52172099 </v>
   <v>       0.81417594       0.70857642       0.69973791 </v>
   <v>       0.06224506       0.04161738       0.61044417 </v>
   <v>       0.56237199       0.21245488       0.83355218 </v>
   <v>       0.31326391       0.87319566       0.52172222 </v>
   <v>       0.68816755       0.28274345       0.12479971 </v>
   <v>       0.18310249       0.95107962       0.21185359 </v>
   <v>       0.68756978       0.29148712       0.61040053 </v>
   <v>       0.31233332       0.04175670       0.61047798 </v>
   <v>       0.94172191       0.12554105       0.78836381 </v>
   <v>       0.44041485       0.79481992       0.87557483 </v>
   <v>       0.81296277       0.04202660       0.74395304 </v>
   <v>       0.43822354       0.12319930       0.52169751 </v>
   <v>       0.18576301       0.62536394       0.65493398 </v>
   <v>       0.31391966       0.70845352       0.69971259 </v>
   <v>       0.93778960       0.28098837       0.12492212 </v>
   <v>       0.43784274       0.45477028       0.47810459 </v>
   <v>       0.06299541       0.70484110       0.47808684 </v>
   <v>       0.93790201       0.12102777       0.43416321 </v>
   <v>       0.43272274       0.12089545       0.30035260 </v>
   <v>       0.18780696       0.12103484       0.43416901 </v>
   <v>       0.56420413       0.04616868       0.87517838 </v>
   <v>       0.18813455       0.95730224       0.56572289 </v>
   <v>       0.68971703       0.78204391       0.12490400 </v>
   <v>       0.56427113       0.53136313       0.12495868 </v>
   <v>       0.31026844       0.03725158       0.38941829 </v>
   <v>       0.68964222       0.11401190       0.16662679 </v>
   <v>       0.80894314       0.20229514       0.21209370 </v>
   <v>       0.06206452       0.53541880       0.25607532 </v>
   <v>       0.56272466       0.70489129       0.47810752 </v>
   <v>       0.06326946       0.20707023       0.56569596 </v>
   <v>       0.55761197       0.37074033       0.30032806 </v>
   <v>       0.43741418       0.95296163       0.34508438 </v>
   <v>       0.18661245       0.96281499       0.83356055 </v>
   <v>       0.43999166       0.61406795       0.16652777 </v>
   <v>       0.93370733       0.45184674       0.21181914 </v>
   <v>       0.06270626       0.53043712       0.12475221 </v>
   <v>       0.81316987       0.37315410       0.52172615 </v>
   <v>       0.93290298       0.62086169       0.30030125 </v>
   <v>       0.31182634       0.03541660       0.25610859 </v>
   <v>       0.06329621       0.87314152       0.52171713 </v>
   <v>       0.18632263       0.46336747       0.83363662 </v>
   <v>       0.44134981       0.11302374       0.16663173 </v>
   <v>       0.31332062       0.37321180       0.52171708 </v>
   <v>       0.44268263       0.62579476       0.78830067 </v>
   <v>       0.06207711       0.03571747       0.25606986 </v>
   <v>       0.56330653       0.70720206       0.56566206 </v>
   <v>       0.18265058       0.62088531       0.30033258 </v>
   <v>       0.69238899       0.12553105       0.78831910 </v>
   <v>       0.18297422       0.45128643       0.21177074 </v>
   <v>       0.93566409       0.78730610       0.38944456 </v>
   <v>       0.69012448       0.29488926       0.87540327 </v>
   <v>       0.68759160       0.79165750       0.61048154 </v>
   <v>       0.43942814       0.45813275       0.69967600 </v>
   <v>       0.81111934       0.37539638       0.65489513 </v>
   <v>       0.68819214       0.62325438       0.52170883 </v>
   <v>       0.06074454       0.87559504       0.65493477 </v>
   <v>       0.06673282       0.87528757       0.78828648 </v>
   <v>       0.06076969       0.37526318       0.65488232 </v>
   <v>       0.68786755       0.45477146       0.47811530 </v>
   <v>       0.18691261       0.78525956       0.25613655 </v>
   <v>       0.43746977       0.12107960       0.43418465 </v>
   <v>       0.06063252       0.53752976       0.38943064 </v>
   <v>       0.93827060       0.62320333       0.52170831 </v>
   <v>       0.06287785       0.87101564       0.43415431 </v>
   <v>       0.81271826       0.53201199       0.12491994 </v>
   <v>       0.43751217       0.45320227       0.34507152 </v>
   <v>       0.81293012       0.20309784       0.34506215 </v>
   <v>       0.18707007       0.28244109       0.12451789 </v>
   <v>       0.68583075       0.12534188       0.65485118 </v>
   <v>       0.55773761       0.87075823       0.30032449 </v>
   <v>       0.06314354       0.54202593       0.74394284 </v>
   <v>       0.93744346       0.78068271       0.12490374 </v>
   <v>       0.80842627       0.70201035       0.21194216 </v>
   <v>       0.05768667       0.87070674       0.30039201 </v>
   <v>       0.18253427       0.12108881       0.30033298 </v>
   <v>       0.06293123       0.70322587       0.34508699 </v>
   <v>       0.81250590       0.04167645       0.61047107 </v>
   <v>       0.06292551       0.37103190       0.43416148 </v>
   <v>       0.56260417       0.20310671       0.34503714 </v>
   <v>       0.80779395       0.37074721       0.30027669 </v>
   <v>       0.43787266       0.95481031       0.47809943 </v>
   <v>       0.56017274       0.53743238       0.38943463 </v>
   <v>       0.06307734       0.20468693       0.47808187 </v>
   <v>       0.31710384       0.87579953       0.78820650 </v>
   <v>       0.93924833       0.95866380       0.69977092 </v>
   <v>       0.05764361       0.37083695       0.30039345 </v>
   <v>       0.68596053       0.62542941       0.65491621 </v>
   <v>       0.68828261       0.45701185       0.56568883 </v>
   <v>       0.43329055       0.95148782       0.21182738 </v>
   <v>       0.31299983       0.20483577       0.47805268 </v>
   <v>       0.43598989       0.12546243       0.65492804 </v>
   <v>       0.68763650       0.62107036       0.43419040 </v>
   <v>       0.81400704       0.20839691       0.69961833 </v>
   <v>       0.81299420       0.70483289       0.47811545 </v>
   <v>       0.56253809       0.37099384       0.43420024 </v>
   <v>       0.93799996       0.95475918       0.47809607 </v>
   <v>       0.56280970       0.20477684       0.47810549 </v>
   <v>       0.18783907       0.62107537       0.43414717 </v>
   <v>       0.31271514       0.04188083       0.74392075 </v>
   <v>       0.93595041       0.62576044       0.65483362 </v>
   <v>       0.56203111       0.71198785       0.83345378 </v>
   <v>       0.30776856       0.37087494       0.30033825 </v>
   <v>       0.55825431       0.70148474       0.21205129 </v>
   <v>       0.18800009       0.45485836       0.47807743 </v>
   <v>       0.31438691       0.04505173       0.87532714 </v>
   <v>       0.18859916       0.45843377       0.69976251 </v>
   <v>       0.81365838       0.54569917       0.87511816 </v>
   <v>       0.18554190       0.28731185       0.38944059 </v>
   <v>       0.43745401       0.62109513       0.43417301 </v>
   <v>       0.05818761       0.70247528       0.21180126 </v>
   <v>       0.81343931       0.03071263       0.12491104 </v>
   <v>       0.81470333       0.36404950       0.16693031 </v>
   <v>       0.81156658       0.71264710       0.83351028 </v>
   <v>       0.06688142       0.37562354       0.78836925 </v>
   <v>       0.44094395       0.29460249       0.87539806 </v>
   <v>       0.31246555       0.03068602       0.12419662 </v>
   <v>       0.68767967       0.12104023       0.43419345 </v>
   <v>       0.18778418       0.95295339       0.34512042 </v>
   <v>       0.06113351       0.21256784       0.83358962 </v>
   <v>       0.56258367       0.04192177       0.61050168 </v>
   <v>       0.68367851       0.45158017       0.21185257 </v>
   <v>       0.18827943       0.79271363       0.74385085 </v>
   <v>       0.81286432       0.87101697       0.43418930 </v>
   <v>       0.43509668       0.78728078       0.38943881 </v>
   <v>       0.43688318       0.28548909       0.25605477 </v>
   <v>       0.06466891       0.54529063       0.87531696 </v>
   <v>       0.56258356       0.04161890       0.74391556 </v>
   <v>       0.19114220       0.79439731       0.87589999 </v>
   <v>       0.93799101       0.45483567       0.47810236 </v>
   <v>       0.81052404       0.53739869       0.38942967 </v>
   <v>       0.81330051       0.20711784       0.56572290 </v>
   <v>       0.31264417       0.70318842       0.34508550 </v>
   <v>       0.93382763       0.95157190       0.21185394 </v>
   <v>       0.06393106       0.70869638       0.69969487 </v>
   <v>       0.31193124       0.53556843       0.25608392 </v>
   <v>       0.30859817       0.70181189       0.21181178 </v>
   <v>       0.56536632       0.86483855       0.16659168 </v>
   <v>       0.56284859       0.54212070       0.74383253 </v>
   <v>       0.68779482       0.45317763       0.34507597 </v>
   <v>       0.94038100       0.29512863       0.87532778 </v>
   <v>       0.56213317       0.03561058       0.25603233 </v>
   <v>       0.18936889       0.11392911       0.16632205 </v>
   <v>       0.31133928       0.71302594       0.83418747 </v>
   <v>       0.31632208       0.86285400       0.16615522 </v>
   <v>       0.93764026       0.29202542       0.74394389 </v>
   <v>       0.56406397       0.03219091       0.12513268 </v>
   <v>       0.19038459       0.61273869       0.16617829 </v>
   <v>       0.19203689       0.62539166       0.78807994 </v>
  </varray>
 </structure>
</modeling>
