unknown system                          
           1
     9.726678    0.000000    0.000000
     0.000000    8.423550    0.000000
     0.000000    0.000000   45.000000
   Fe   Mn
 281   7
Direct configuration=     1
   0.06171556  0.03521322  0.12447722
   0.81447299  0.04298855  0.87573566
   0.19530731  0.12520778  0.78853953
   0.43368158  0.28747728  0.38904495
   0.31594239  0.36093391  0.16670599
   0.80874035  0.21303667  0.83312917
   0.18363264  0.78750901  0.38907498
   0.56380551  0.20766597  0.56543709
   0.06034656  0.04229515  0.74414985
   0.81348968  0.87202912  0.52130818
   0.18569661  0.29212182  0.74420142
   0.94144649  0.45190651  0.34496003
   0.93366369  0.28748759  0.38904536
   0.43844431  0.62194808  0.52131820
   0.18784806  0.79179934  0.61079596
   0.55861015  0.03758825  0.38908341
   0.93344627  0.96297935  0.83319681
   0.31402895  0.54254954  0.87559155
   0.68573559  0.29202183  0.74409243
   0.94140896  0.95178041  0.34494792
   0.81282463  0.20578262  0.47861379
   0.81283340  0.54181140  0.61078321
   0.31307288  0.87051412  0.43440426
   0.81554575  0.03509356  0.25606224
   0.69139489  0.95182249  0.34495690
   0.94293527  0.11337589  0.16696782
   0.93848833  0.12202001  0.52131218
   0.56501972  0.53573061  0.25594809
   0.69322491  0.79689139  0.87573268
   0.56725061  0.36209277  0.16677556
   0.43582876  0.79178176  0.74415276
   0.81382526  0.70772195  0.56542000
   0.57005387  0.87439918  0.78838973
   0.68852008  0.12196760  0.52130605
   0.19005077  0.28558153  0.25597418
   0.93360074  0.46326500  0.83304086
   0.06545550  0.20855975  0.69960500
   0.80857547  0.03746629  0.38906685
   0.30863850  0.21375617  0.83333731
   0.43404836  0.62603658  0.65495464
   0.31285894  0.54182570  0.61075664
   0.93871334  0.45781737  0.56544171
   0.68562451  0.79207837  0.74415517
   0.30884120  0.87570524  0.65490854
   0.68360472  0.78746973  0.38906684
   0.93609531  0.79163521  0.74414903
   0.06644589  0.20190083  0.34497013
   0.43659981  0.78055887  0.12414107
   0.44549068  0.12526399  0.78862258
   0.05485495  0.20272596  0.21188130
   0.06735960  0.36192689  0.16677342
   0.94033350  0.78533314  0.25602929
   0.56546023  0.20839558  0.69971857
   0.69049660  0.95835124  0.69971559
   0.68355512  0.28750353  0.38906959
   0.43878705  0.95770988  0.56541360
   0.82075461  0.37427329  0.78838008
   0.68992463  0.28546414  0.25603910
   0.18876063  0.45775458  0.56545929
   0.06754213  0.86169996  0.16679312
   0.18790456  0.29182174  0.61076433
   0.56637998  0.70202002  0.34497680
   0.31534408  0.20858480  0.69965172
   0.56582828  0.54137696  0.87553775
   0.06384139  0.70775216  0.56542653
   0.69517788  0.62500824  0.78859446
   0.30855214  0.53751076  0.38906813
   0.18846457  0.62197640  0.52130394
   0.56291642  0.87053019  0.43443463
   0.43882417  0.45775201  0.56543313
   0.43591589  0.29183263  0.74413926
   0.80358339  0.87189632  0.30033668
   0.81638525  0.70211259  0.34496797
   0.43349086  0.46417541  0.83318786
   0.68782164  0.95583721  0.47862039
   0.69092692  0.45815597  0.69971553
   0.56346818  0.87203872  0.52132670
   0.55883518  0.37563299  0.65495199
   0.80884032  0.87569134  0.65488828
   0.81311948  0.37060996  0.43437659
   0.81533908  0.53533758  0.25602221
   0.68352883  0.46302761  0.83306855
   0.18796743  0.77925933  0.12431867
   0.06419276  0.04288234  0.87565853
   0.30879487  0.37573019  0.65491591
   0.31630448  0.20189992  0.34497210
   0.81082450  0.54238192  0.74414072
   0.68397241  0.96357237  0.83304582
   0.55889771  0.87576511  0.65490271
   0.31379621  0.70772599  0.56543761
   0.31236225  0.53514503  0.12415013
   0.68000119  0.95258486  0.21165320
   0.31381422  0.20765707  0.56543279
   0.31101997  0.54279249  0.74428671
   0.68876854  0.95764635  0.56543416
   0.43786329  0.79178749  0.61079273
   0.69232368  0.61087841  0.16700998
   0.30368308  0.87228941  0.30032421
   0.31281076  0.70582783  0.47861123
   0.93781732  0.29169852  0.61078104
   0.42857756  0.62200111  0.30035529
   0.81658550  0.86236255  0.16685863
   0.55529394  0.20201370  0.21161889
   0.94207411  0.61312704  0.16697375
   0.94127301  0.79685627  0.87572489
   0.56999115  0.37422236  0.78833903
   0.06349455  0.37190715  0.52130421
   0.56347797  0.37198527  0.52130475
   0.67856553  0.12200173  0.30035215
   0.43302380  0.96301038  0.83316563
   0.18785433  0.95575312  0.47862229
   0.82075222  0.87463394  0.78840920
   0.31306170  0.37058633  0.43442027
   0.93769957  0.79183188  0.61095379
   0.43773721  0.29183870  0.61085229
   0.19120934  0.45171496  0.34494315
   0.43882289  0.28154718  0.12443149
   0.69008661  0.78545041  0.25604968
   0.19069782  0.95883942  0.69958216
   0.19105912  0.29547668  0.87581099
   0.18387014  0.12563361  0.65492701
   0.93387826  0.12579075  0.65492567
   0.30527312  0.20282925  0.21195897
   0.05864101  0.03746665  0.38906234
   0.44016852  0.95826350  0.69968711
   0.06301007  0.54161321  0.61069720
   0.94032383  0.28518357  0.25601108
   0.56281691  0.54181652  0.61080102
   0.93884823  0.95773619  0.56541805
   0.67869473  0.62185473  0.30034655
   0.93811997  0.62039228  0.43442940
   0.94554629  0.62498580  0.78855265
   0.56543365  0.70850288  0.69961283
   0.05890179  0.71325073  0.83344499
   0.92855888  0.12200274  0.30035192
   0.93977432  0.45815306  0.69955351
   0.43994541  0.78568691  0.25598666
   0.32061399  0.37431912  0.78835853
   0.42977815  0.45202800  0.21171544
   0.18845862  0.12197527  0.52130180
   0.81561907  0.70860473  0.69967703
   0.06266198  0.04186701  0.61085202
   0.55901892  0.21337567  0.83322709
   0.31351552  0.87200312  0.52131257
   0.68697866  0.28206187  0.12429880
   0.17992913  0.95253609  0.21190406
   0.68792251  0.29166395  0.61068021
   0.31258709  0.04198921  0.61085381
   0.94558710  0.12536398  0.78844393
   0.44189759  0.79743046  0.87565597
   0.81081204  0.04250720  0.74403898
   0.43848369  0.12198288  0.52132086
   0.18384596  0.62572078  0.65490930
   0.31524368  0.70824604  0.69960163
   0.93456091  0.27922120  0.12457102
   0.43779923  0.45586460  0.47859359
   0.06280243  0.70579856  0.47860663
   0.93811716  0.12036698  0.43444135
   0.42870310  0.12197242  0.30032627
   0.18814515  0.12048811  0.43437743
   0.56516156  0.04316593  0.87559280
   0.18876539  0.95767927  0.56544150
   0.68850887  0.78167226  0.12434685
   0.56445143  0.53289220  0.12453184
   0.30862395  0.03751296  0.38907020
   0.69210919  0.11110025  0.16696994
   0.80581919  0.20313919  0.21192509
   0.06545744  0.53536714  0.25601091
   0.56285290  0.70579580  0.47861890
   0.06381590  0.20772608  0.56543298
   0.55367986  0.37204107  0.30034131
   0.44144116  0.95186787  0.34497427
   0.18400666  0.96345287  0.83320146
   0.44171689  0.61253603  0.16683320
   0.93021079  0.45307883  0.21187966
   0.06234451  0.53353094  0.12459778
   0.81351540  0.37202571  0.52128851
   0.92854323  0.62189353  0.30034636
   0.31521462  0.03546676  0.25603395
   0.06345372  0.87203054  0.52131828
   0.18414114  0.46548133  0.83336752
   0.44258814  0.11088710  0.16670303
   0.31348137  0.37196649  0.52129617
   0.44585789  0.62504500  0.78832823
   0.06524510  0.03521882  0.25599826
   0.56382639  0.70775819  0.56542195
   0.17872891  0.62197378  0.30034677
   0.69554179  0.12518363  0.78849643
   0.18111493  0.45170003  0.21158421
   0.93364967  0.78746003  0.38906456
   0.69409071  0.29770152  0.87583280
   0.68776962  0.79188000  0.61082584
   0.44050604  0.45814650  0.69957527
   0.80891946  0.37574452  0.65494870
   0.68846933  0.62199880  0.52131663
   0.05880523  0.87563530  0.65488814
   0.07094822  0.87448276  0.78845251
   0.05891686  0.37561007  0.65491476
   0.68781241  0.45588555  0.47861029
   0.19008148  0.78571704  0.25600001
   0.43808917  0.12037155  0.43441607
   0.05856869  0.53741259  0.38906853
   0.93847282  0.62197251  0.52131407
   0.06308266  0.87044910  0.43442870
   0.81112697  0.53363349  0.12440024
   0.44137257  0.45175462  0.34495494
   0.81639660  0.20185286  0.34495802
   0.18633145  0.28060231  0.12437131
   0.68377258  0.12574052  0.65488668
   0.55365203  0.87203414  0.30034114
   0.06051173  0.54227643  0.74427200
   0.93553780  0.78015352  0.12446373
   0.80527616  0.70297738  0.21183441
   0.05376000  0.87228161  0.30028670
   0.17870634  0.12224251  0.30032679
   0.06633301  0.70192697  0.34497883
   0.81275759  0.04183817  0.61081840
   0.06302390  0.37044947  0.43442324
   0.56629609  0.20192911  0.34498164
   0.80361011  0.37206407  0.30032802
   0.43780404  0.95585508  0.47859673
   0.55855203  0.53754651  0.38906373
   0.06282318  0.20583494  0.47859503
   0.32029047  0.87445539  0.78836432
   0.94038802  0.95851434  0.69975339
   0.05364740  0.37227579  0.30036454
   0.68403349  0.62605322  0.65494990
   0.68879659  0.45771599  0.56543223
   0.43063580  0.95266732  0.21183767
   0.31279203  0.20579128  0.47863570
   0.43386201  0.12567036  0.65492106
   0.68801807  0.62049223  0.43441644
   0.81527707  0.20834759  0.69966089
   0.81277157  0.70578281  0.47861136
   0.56300168  0.37055245  0.43443000
   0.93784591  0.95581501  0.47860423
   0.56283763  0.20583016  0.47861774
   0.18800291  0.62041392  0.43443129
   0.31058072  0.04188426  0.74396396
   0.93390263  0.62596426  0.65487597
   0.55890405  0.71306596  0.83319732
   0.30368815  0.37217132  0.30031863
   0.55472385  0.70144491  0.21183767
   0.18781664  0.45577894  0.47861299
   0.31498007  0.04178959  0.87576918
   0.19016424  0.45807920  0.69964812
   0.81454340  0.54223874  0.87563475
   0.18357121  0.28751135  0.38906411
   0.43809295  0.62035238  0.43443546
   0.05527395  0.70304826  0.21187597
   0.81192242  0.03295823  0.12448313
   0.81669307  0.36225267  0.16707944
   0.80845423  0.71359278  0.83302222
   0.07111164  0.37439750  0.78840160
   0.44341730  0.29664844  0.87572697
   0.31341602  0.03370706  0.12450984
   0.68814076  0.12031856  0.43437737
   0.19133261  0.95191387  0.34497595
   0.05872511  0.21363204  0.83332904
   0.56269620  0.04195543  0.61086419
   0.68038151  0.45311192  0.21188371
   0.18641432  0.79108362  0.74434574
   0.81296372  0.87048129  0.43443644
   0.43363767  0.78743665  0.38906412
   0.44058384  0.28542641  0.25597519
   0.06439866  0.54267403  0.87573276
   0.56068550  0.04215113  0.74406639
   0.19382407  0.79710576  0.87590670
   0.93780628  0.45579718  0.47860573
   0.80855836  0.53747242  0.38907567
   0.81373431  0.20776054  0.56544097
   0.31620883  0.70182891  0.34494310
   0.93089236  0.95306480  0.21192180
   0.06526410  0.70833096  0.69966253
   0.31496981  0.53568489  0.25603096
   0.30566942  0.70195213  0.21192597
   0.56702434  0.86308502  0.16667976
   0.56092153  0.54268668  0.74416890
   0.69129507  0.45184735  0.34496083
   0.94080173  0.29693925  0.87585492
   0.56503555  0.03548557  0.25602130
   0.19200769  0.11159870  0.16598650
   0.30833668  0.71474104  0.83424834
   0.31872364  0.86138723  0.16587605
   0.93622196  0.29215934  0.74406445
   0.56449950  0.03406955  0.12470998
   0.19329495  0.61178517  0.16599939
   0.19476520  0.62509409  0.78784642
Direct configuration=     2
   0.06194778  0.03462076  0.12450560
   0.81434590  0.04329460  0.87565081
   0.19476137  0.12525590  0.78851553
   0.43390135  0.28745033  0.38910963
   0.31567260  0.36120753  0.16671196
   0.80925881  0.21290533  0.83317145
   0.18392575  0.78747991  0.38912949
   0.56372300  0.20758668  0.56547897
   0.06076561  0.04225324  0.74410975
   0.81344549  0.87221319  0.52137601
   0.18611274  0.29212773  0.74414814
   0.94089103  0.45210007  0.34497497
   0.93396974  0.28744699  0.38910667
   0.43841333  0.62214433  0.52137738
   0.18774563  0.79178436  0.61074061
   0.55886456  0.03753400  0.38914006
   0.93386685  0.96289804  0.83327020
   0.31399451  0.54297433  0.87558273
   0.68602973  0.29206545  0.74405058
   0.94088420  0.95198746  0.34496420
   0.81283930  0.20563913  0.47853211
   0.81277866  0.54174679  0.61073147
   0.31299547  0.87058989  0.43436683
   0.81494599  0.03513564  0.25608272
   0.69081780  0.95203195  0.34497488
   0.94246350  0.11354948  0.16693104
   0.93845619  0.12220545  0.52138006
   0.56454804  0.53576241  0.25596571
   0.69285141  0.79649355  0.87566409
   0.56700370  0.36228126  0.16673152
   0.43612234  0.79186736  0.74410808
   0.81373322  0.70764060  0.56546646
   0.56956996  0.87462856  0.78837295
   0.68845617  0.12217705  0.52137185
   0.18954162  0.28552550  0.25598937
   0.93405153  0.46303390  0.83312407
   0.06521338  0.20855378  0.69961378
   0.80889504  0.03742723  0.38912294
   0.30913197  0.21360941  0.83336710
   0.43432997  0.62593349  0.65494416
   0.31278683  0.54177115  0.61071514
   0.93865283  0.45769173  0.56548120
   0.68594514  0.79213572  0.74412036
   0.30914969  0.87563125  0.65490954
   0.68388703  0.78745385  0.38912679
   0.93642877  0.79178303  0.74411485
   0.06587861  0.20208344  0.34498159
   0.43654896  0.78066603  0.12418104
   0.44505088  0.12528611  0.78858486
   0.05536577  0.20264113  0.21188290
   0.06690840  0.36218532  0.16675864
   0.93976688  0.78531582  0.25603954
   0.56525384  0.20835300  0.69970903
   0.69023305  0.95838659  0.69971725
   0.68385101  0.28746896  0.38912723
   0.43869705  0.95763422  0.56544919
   0.82021907  0.37441795  0.78835073
   0.68944064  0.28545944  0.25606216
   0.18866782  0.45762680  0.56549302
   0.06712564  0.86203971  0.16679312
   0.18781030  0.29177948  0.61070583
   0.56577595  0.70218187  0.34498900
   0.31514556  0.20855311  0.69966521
   0.56555875  0.54198969  0.87547843
   0.06374750  0.70766023  0.56546875
   0.69468114  0.62515144  0.78855518
   0.30882074  0.53748854  0.38912815
   0.18842970  0.62217441  0.52136919
   0.56285900  0.87059472  0.43439615
   0.43873867  0.45762861  0.56546896
   0.43623642  0.29187991  0.74409453
   0.80424309  0.87172287  0.30032923
   0.81582869  0.70225778  0.34498118
   0.43398397  0.46394168  0.83324628
   0.68781419  0.95567149  0.47853985
   0.69063920  0.45819634  0.69971922
   0.56342024  0.87222517  0.52138686
   0.55914985  0.37561402  0.65495777
   0.80915730  0.87570944  0.65489426
   0.81306270  0.37067277  0.43434609
   0.81478703  0.53537663  0.25603671
   0.68396431  0.46286417  0.83314465
   0.18806777  0.77976204  0.12431695
   0.06418110  0.04334748  0.87558314
   0.30910841  0.37569720  0.65491148
   0.31571544  0.20206882  0.34498910
   0.81111641  0.54235358  0.74409584
   0.68437273  0.96339889  0.83313384
   0.55922346  0.87571563  0.65490631
   0.31370312  0.70765337  0.56547200
   0.31245794  0.53463438  0.12419884
   0.68052781  0.95238424  0.21167091
   0.31372039  0.20757593  0.56547694
   0.31129703  0.54270408  0.74421877
   0.68869830  0.95757881  0.56547851
   0.43780046  0.79178135  0.61074151
   0.69202751  0.61129294  0.16696234
   0.30431751  0.87205169  0.30033828
   0.31283621  0.70566892  0.47852616
   0.93775478  0.29165174  0.61073480
   0.42921616  0.62180367  0.30035176
   0.81630010  0.86258515  0.16681134
   0.55577473  0.20199048  0.21166914
   0.94166328  0.61330536  0.16693206
   0.94094347  0.79656835  0.87565836
   0.56952767  0.37444869  0.78831927
   0.06345234  0.37211914  0.52137244
   0.56343101  0.37218275  0.52136869
   0.67923744  0.12179617  0.30034046
   0.43349328  0.96289102  0.83324131
   0.18787252  0.95562051  0.47853242
   0.82017728  0.87480451  0.78838496
   0.31298958  0.37065869  0.43437915
   0.93767119  0.79177992  0.61087996
   0.43770818  0.29178700  0.61078997
   0.19066353  0.45193569  0.34496512
   0.43864915  0.28162161  0.12451241
   0.68958513  0.78543444  0.25606611
   0.19039327  0.95884831  0.69958707
   0.19092456  0.29522390  0.87573953
   0.18417776  0.12555027  0.65492690
   0.93417719  0.12574326  0.65492139
   0.30577049  0.20265485  0.21194510
   0.05895368  0.03743636  0.38911914
   0.43998264  0.95831780  0.69969504
   0.06288560  0.54160181  0.61065813
   0.93976254  0.28524180  0.25602386
   0.56280245  0.54174458  0.61075250
   0.93875800  0.95768179  0.56546414
   0.67932094  0.62169310  0.30033356
   0.93808526  0.62050855  0.43438714
   0.94502360  0.62514525  0.78853518
   0.56522030  0.70847188  0.69962875
   0.05934655  0.71302375  0.83345998
   0.92923501  0.12182125  0.30034764
   0.93962847  0.45818762  0.69956004
   0.43942402  0.78566906  0.25600243
   0.32005623  0.37455197  0.78835491
   0.43028339  0.45195337  0.21172828
   0.18843128  0.12217425  0.52136848
   0.81538953  0.70860023  0.69968671
   0.06259566  0.04182731  0.61078715
   0.55955225  0.21322921  0.83327880
   0.31347550  0.87219281  0.52137772
   0.68716776  0.28217028  0.12437847
   0.18043388  0.95230443  0.21189603
   0.68786640  0.29163583  0.61063572
   0.31254672  0.04195223  0.61079403
   0.94497230  0.12539214  0.78843118
   0.44166175  0.79701523  0.87564306
   0.81115413  0.04243076  0.74402531
   0.43844231  0.12217636  0.52138077
   0.18415088  0.62566402  0.65491322
   0.31503308  0.70827904  0.69961928
   0.93507446  0.27950228  0.12462687
   0.43780615  0.45569054  0.47851581
   0.06283313  0.70564627  0.47852395
   0.93808294  0.12047209  0.43439711
   0.42934246  0.12180112  0.30033045
   0.18809136  0.12057507  0.43434428
   0.56500928  0.04364354  0.87552689
   0.18866505  0.95761930  0.56548626
   0.68870104  0.78173137  0.12443547
   0.56442275  0.53264898  0.12459973
   0.30888552  0.03747138  0.38912557
   0.69171680  0.11156337  0.16691536
   0.80631608  0.20300494  0.21195191
   0.06491777  0.53537536  0.25602116
   0.56283250  0.70565193  0.47853756
   0.06372898  0.20762176  0.56547481
   0.55430530  0.37183417  0.30033920
   0.44080063  0.95204184  0.34499178
   0.18442114  0.96335141  0.83325858
   0.44144248  0.61277970  0.16678462
   0.93076695  0.45288286  0.21187004
   0.06240205  0.53303884  0.12462235
   0.81346044  0.37220519  0.52135812
   0.92923668  0.62172941  0.30033919
   0.31467569  0.03545878  0.25604582
   0.06342866  0.87220725  0.52138172
   0.18448813  0.46514510  0.83341032
   0.44239117  0.11122695  0.16669168
   0.31345580  0.37216457  0.52136312
   0.44535284  0.62516426  0.78832384
   0.06474120  0.03529814  0.25600965
   0.56374371  0.70766973  0.56546014
   0.17935269  0.62180065  0.30034451
   0.69504031  0.12523889  0.78846822
   0.18141067  0.45163424  0.21161388
   0.93397008  0.78743555  0.38912500
   0.69345985  0.29725420  0.87576448
   0.68774130  0.79184461  0.61077108
   0.44033459  0.45814431  0.69959129
   0.80926937  0.37568915  0.65494018
   0.68842524  0.62219851  0.52137901
   0.05911370  0.87562890  0.65489555
   0.07027773  0.87461077  0.78842610
   0.05921157  0.37555490  0.65490960
   0.68782118  0.45570835  0.47853156
   0.18957745  0.78564427  0.25602173
   0.43799065  0.12048417  0.43437926
   0.05889696  0.53743123  0.38912613
   0.93844066  0.62216828  0.52137678
   0.06305009  0.87053921  0.43438506
   0.81138008  0.53337558  0.12448290
   0.44075854  0.45198488  0.34497349
   0.81584523  0.20205089  0.34497458
   0.18644893  0.28089478  0.12439463
   0.68409995  0.12567712  0.65488103
   0.55430188  0.87183119  0.30033849
   0.06093034  0.54223659  0.74421965
   0.93584091  0.78023769  0.12453372
   0.80577721  0.70282357  0.21185155
   0.05438457  0.87203111  0.30030345
   0.17931521  0.12205900  0.30032777
   0.06579192  0.70213357  0.34499603
   0.81271756  0.04181245  0.61076315
   0.06300825  0.37054211  0.43438161
   0.56570886  0.20211642  0.34499047
   0.80427559  0.37185461  0.30031985
   0.43781495  0.95568890  0.47851763
   0.55880982  0.53752836  0.38912273
   0.06286361  0.20565234  0.47851341
   0.31978361  0.87466919  0.78833922
   0.94020674  0.95853811  0.69975618
   0.05428303  0.37204693  0.30036914
   0.68434000  0.62595399  0.65494454
   0.68871484  0.45760399  0.56547304
   0.43105806  0.95247971  0.21183604
   0.31282509  0.20563930  0.47854296
   0.43420046  0.12563729  0.65492217
   0.68795738  0.62058419  0.43438049
   0.81507506  0.20835543  0.69965412
   0.81280698  0.70563172  0.47853248
   0.56292794  0.37062266  0.43439345
   0.93787041  0.95564707  0.47852341
   0.56283318  0.20566262  0.47853626
   0.18797685  0.62051913  0.43438610
   0.31092021  0.04188371  0.74395709
   0.93422835  0.62593184  0.65486923
   0.55940144  0.71289448  0.83323811
   0.30433718  0.37196512  0.30032175
   0.55528540  0.70145125  0.21187165
   0.18784582  0.45563251  0.47852780
   0.31488572  0.04230847  0.87569887
   0.18991530  0.45813560  0.69966631
   0.81440263  0.54278915  0.87555258
   0.18388466  0.28747962  0.38912399
   0.43799132  0.62047052  0.43439371
   0.05573740  0.70295712  0.21186409
   0.81216370  0.03260105  0.12455119
   0.81637658  0.36253847  0.16705572
   0.80894928  0.71344236  0.83309985
   0.07043879  0.37459251  0.78839645
   0.44302389  0.29632301  0.87567465
   0.31326484  0.03322653  0.12446002
   0.68806742  0.12043335  0.43434812
   0.19076820  0.95207921  0.34499893
   0.05910819  0.21346277  0.83337048
   0.56267830  0.04195008  0.61080653
   0.68090592  0.45286828  0.21187876
   0.18671098  0.79134289  0.74426702
   0.81294791  0.87056649  0.43439713
   0.43386974  0.78741186  0.38912372
   0.43999522  0.28543638  0.25598784
   0.06444165  0.54309022  0.87566662
   0.56098740  0.04206647  0.74404240
   0.19339750  0.79667496  0.87590563
   0.93783566  0.45564425  0.47852567
   0.80887102  0.53746069  0.38913198
   0.81366531  0.20765831  0.56548581
   0.31564184  0.70204515  0.34496575
   0.93135924  0.95282734  0.21191101
   0.06505206  0.70838908  0.69966768
   0.31448650  0.53566637  0.25603939
   0.30613527  0.70192982  0.21190780
   0.56676061  0.86336394  0.16666575
   0.56122804  0.54259665  0.74411539
   0.69073833  0.45205894  0.34497914
   0.94073481  0.29665125  0.87577107
   0.56457390  0.03550546  0.25602306
   0.19158796  0.11196938  0.16603987
   0.30881427  0.71446824  0.83423866
   0.31834165  0.86162053  0.16592046
   0.93644755  0.29213803  0.74404528
   0.56443022  0.03377073  0.12477722
   0.19283203  0.61193684  0.16602785
   0.19433124  0.62514142  0.78788356
Direct configuration=     3
   0.06264445  0.03284339  0.12459076
   0.81396462  0.04421275  0.87539623
   0.19312357  0.12540025  0.78844353
   0.43456065  0.28736947  0.38930366
   0.31486323  0.36202838  0.16672990
   0.81081419  0.21251132  0.83329830
   0.18480507  0.78739260  0.38929303
   0.56347546  0.20734881  0.56560462
   0.06202276  0.04212750  0.74398945
   0.81331292  0.87276543  0.52157951
   0.18736116  0.29214543  0.74398832
   0.93922467  0.45268075  0.34501980
   0.93488790  0.28732520  0.38929061
   0.43832041  0.62273308  0.52155489
   0.18743834  0.79173942  0.61057457
   0.55962781  0.03737123  0.38931002
   0.93512861  0.96265412  0.83349039
   0.31389121  0.54424869  0.87555627
   0.68691218  0.29219632  0.74392503
   0.93930990  0.95260859  0.34501304
   0.81288331  0.20520865  0.47828708
   0.81261445  0.54155296  0.61057627
   0.31276324  0.87081722  0.43425453
   0.81314668  0.03526185  0.25614417
   0.68908651  0.95266032  0.34502884
   0.94104820  0.11407025  0.16682069
   0.93835974  0.12276177  0.52158371
   0.56313298  0.53585782  0.25601855
   0.69173090  0.79530004  0.87545833
   0.56626298  0.36284673  0.16659937
   0.43700311  0.79212419  0.74397403
   0.81345712  0.70739657  0.56560585
   0.56811824  0.87531668  0.78832260
   0.68826446  0.12280541  0.52156926
   0.18801417  0.28535741  0.25603495
   0.93540390  0.46234062  0.83337369
   0.06448702  0.20853585  0.69964012
   0.80985377  0.03731005  0.38929120
   0.31061236  0.21316913  0.83345646
   0.43517480  0.62562422  0.65491273
   0.31257050  0.54160747  0.61059067
   0.93847129  0.45731481  0.56559969
   0.68690706  0.79230775  0.74401591
   0.31007517  0.87540928  0.65491254
   0.68473395  0.78740621  0.38930664
   0.93742917  0.79222649  0.74401230
   0.06417679  0.20263124  0.34501599
   0.43639640  0.78098752  0.12430096
   0.44373145  0.12535245  0.78847171
   0.05689824  0.20238663  0.21188767
   0.06555482  0.36296059  0.16671430
   0.93806703  0.78526386  0.25607028
   0.56463468  0.20822527  0.69968042
   0.68944241  0.95849262  0.69972224
   0.68473867  0.28736526  0.38930013
   0.43842708  0.95740722  0.56555595
   0.81861246  0.37485191  0.78826268
   0.68798866  0.28544532  0.25613137
   0.18838941  0.45724345  0.56559419
   0.06587615  0.86305895  0.16679313
   0.18752751  0.29165268  0.61053034
   0.56396384  0.70266743  0.34502558
   0.31455001  0.20845803  0.69970570
   0.56475017  0.54382786  0.87530044
   0.06346582  0.70738446  0.56559538
   0.69319093  0.62558105  0.78843736
   0.30962653  0.53742187  0.38930822
   0.18832509  0.62276843  0.52156492
   0.56268673  0.87078830  0.43428070
   0.43848216  0.45725843  0.56557647
   0.43719804  0.29202176  0.74396034
   0.80622221  0.87120252  0.30030689
   0.81415903  0.70269332  0.34502083
   0.43546329  0.46324049  0.83342154
   0.68779182  0.95517431  0.47829824
   0.68977605  0.45831746  0.69973027
   0.56327642  0.87278454  0.52156732
   0.56009388  0.37555712  0.65497508
   0.81010822  0.87576375  0.65491219
   0.81289235  0.37086121  0.43425459
   0.81313090  0.53549379  0.25608022
   0.68527072  0.46237387  0.83337296
   0.18836879  0.78127017  0.12431180
   0.06414612  0.04474287  0.87535695
   0.31004905  0.37559822  0.65489818
   0.31394832  0.20257554  0.34504010
   0.81199213  0.54226854  0.74396119
   0.68557368  0.96287843  0.83339788
   0.56020072  0.87556719  0.65491710
   0.31342386  0.70743552  0.56557519
   0.31274499  0.53310242  0.12434497
   0.68210768  0.95178239  0.21172404
   0.31343892  0.20733251  0.56560941
   0.31212820  0.54243886  0.74401495
   0.68848755  0.95737619  0.56561155
   0.43761196  0.79176294  0.61058787
   0.69113902  0.61253653  0.16681941
   0.30622077  0.87133855  0.30038046
   0.31291258  0.70519219  0.47827093
   0.93756714  0.29151142  0.61059606
   0.43113196  0.62121136  0.30034118
   0.81544392  0.86325292  0.16666947
   0.55721709  0.20192082  0.21181990
   0.94043081  0.61384030  0.16680699
   0.93995485  0.79570458  0.87545877
   0.56813724  0.37512769  0.78825999
   0.06332568  0.37275510  0.52157714
   0.56329015  0.37277519  0.52156049
   0.68125316  0.12117951  0.30030537
   0.43490170  0.96253292  0.83346836
   0.18792708  0.95522268  0.47826283
   0.81845248  0.87531622  0.78831224
   0.31277324  0.37087578  0.43425577
   0.93758604  0.79162405  0.61065848
   0.43762110  0.29163188  0.61060304
   0.18902610  0.45259789  0.34503101
   0.43812792  0.28184493  0.12475515
   0.68808069  0.78538654  0.25611540
   0.18947961  0.95887496  0.69960179
   0.19052087  0.29446557  0.87552514
   0.18510062  0.12530025  0.65492656
   0.93507396  0.12560080  0.65490856
   0.30726262  0.20213164  0.21190348
   0.05989167  0.03734550  0.38928955
   0.43942500  0.95848069  0.69971883
   0.06251221  0.54156760  0.61054092
   0.93807866  0.28541650  0.25606219
   0.56275908  0.54152876  0.61060694
   0.93848732  0.95751858  0.56560240
   0.68119958  0.62120821  0.30029460
   0.93798115  0.62085733  0.43426036
   0.94345553  0.62562358  0.78848277
   0.56458026  0.70837889  0.69967651
   0.06068086  0.71234280  0.83350493
   0.93126339  0.12127676  0.30033479
   0.93919094  0.45829132  0.69957964
   0.43785983  0.78561551  0.25604974
   0.31838295  0.37525051  0.78834405
   0.43179913  0.45172949  0.21176681
   0.18834927  0.12277118  0.52156851
   0.81470090  0.70858672  0.69971576
   0.06239672  0.04170819  0.61059253
   0.56115226  0.21278983  0.83343393
   0.31335544  0.87276186  0.52157320
   0.68773507  0.28249551  0.12461750
   0.18194813  0.95160944  0.21187195
   0.68769809  0.29155144  0.61050227
   0.31242563  0.04184128  0.61061469
   0.94312793  0.12547664  0.78839295
   0.44095422  0.79576955  0.87560434
   0.81218041  0.04220143  0.74398430
   0.43831818  0.12275681  0.52156049
   0.18506566  0.62549374  0.65492500
   0.31440129  0.70837804  0.69967223
   0.93661512  0.28034554  0.12479440
   0.43782692  0.45516835  0.47828247
   0.06292521  0.70518939  0.47827592
   0.93798027  0.12078740  0.43426439
   0.43126054  0.12128721  0.30034302
   0.18792998  0.12083596  0.43424483
   0.56455241  0.04507638  0.87532913
   0.18836403  0.95743939  0.56562053
   0.68927755  0.78190872  0.12470133
   0.56433672  0.53191935  0.12480341
   0.30967023  0.03734666  0.38929167
   0.69053962  0.11295274  0.16675161
   0.80780676  0.20260217  0.21203237
   0.06329875  0.53540000  0.25605189
   0.56277131  0.70522032  0.47829355
   0.06346823  0.20730880  0.56560030
   0.55618161  0.37121349  0.30033288
   0.43887905  0.95256376  0.34504433
   0.18566455  0.96304703  0.83342993
   0.44061924  0.61351069  0.16663887
   0.93243541  0.45229493  0.21184116
   0.06257467  0.53156254  0.12469604
   0.81329556  0.37274363  0.52156695
   0.93131706  0.62123704  0.30031766
   0.31305888  0.03543485  0.25608143
   0.06335350  0.87273739  0.52157204
   0.18552908  0.46413642  0.83353873
   0.44180027  0.11224651  0.16665766
   0.31337909  0.37275880  0.52156397
   0.44383768  0.62552203  0.78831070
   0.06322951  0.03553608  0.25604381
   0.56349564  0.70740436  0.56557472
   0.18122402  0.62128126  0.30033774
   0.69353587  0.12540467  0.78838360
   0.18229788  0.45143688  0.21170288
   0.93493131  0.78736209  0.38930633
   0.69156725  0.29591226  0.87555952
   0.68765636  0.79173844  0.61060679
   0.43982024  0.45813775  0.69963936
   0.81031910  0.37552302  0.65491462
   0.68829297  0.62279764  0.52156616
   0.06003909  0.87560968  0.65491781
   0.06826624  0.87499481  0.78834688
   0.06009570  0.37538937  0.65489412
   0.68784749  0.45517673  0.47829536
   0.18806533  0.78542597  0.25608688
   0.43769509  0.12082203  0.43426883
   0.05988177  0.53748714  0.38929891
   0.93834416  0.62275560  0.52156490
   0.06295235  0.87080955  0.43425412
   0.81213940  0.53260184  0.12473089
   0.43891645  0.45267567  0.34502911