unknown system                          
           1
     9.726678    0.000000    0.000000
     0.000000    8.423550    0.000000
     0.000000    0.000000   45.000000
   Fe   Mn
 281   7
Direct configuration=     1
   0.06109434  0.03123784  0.12441729
   0.06322376  0.87154829  0.52123197
   0.19364036  0.12319192  0.78846232
   0.43358788  0.28774144  0.38905320
   0.30843248  0.71270077  0.83316651
   0.80848410  0.21267654  0.83315952
   0.18361349  0.78773907  0.38905442
   0.56278965  0.20739216  0.56535929
   0.06006560  0.04105668  0.74407457
   0.81333293  0.87173417  0.52132423
   0.18505643  0.29075783  0.74407076
   0.94117953  0.45198037  0.34489566
   0.93368047  0.28763417  0.38905042
   0.81340022  0.04191887  0.87559125
   0.18825785  0.79120045  0.61075439
   0.55868469  0.03736308  0.38902755
   0.93341781  0.96271449  0.83313823
   0.31338001  0.54191246  0.87558089
   0.68514345  0.29118875  0.74412309
   0.19170268  0.61246184  0.16683637
   0.81285427  0.20575554  0.47863059
   0.81288246  0.54141135  0.61085668
   0.31317867  0.87071173  0.43435404
   0.81575806  0.03622418  0.25603435
   0.69105158  0.95260806  0.34509064
   0.94263577  0.11259907  0.16671405
   0.93846899  0.12186932  0.52128245
   0.56585425  0.53657485  0.25597541
   0.68893381  0.79387223  0.87565414
   0.56792997  0.36347647  0.16670752
   0.43514923  0.79085137  0.74406825
   0.81332403  0.70787628  0.56532807
   0.56861922  0.87309051  0.78844275
   0.68855745  0.12188668  0.52127183
   0.19124204  0.28720085  0.25581958
   0.93344257  0.46272358  0.83314093
   0.06426806  0.20758955  0.69969075
   0.43952951  0.95758379  0.69967591
   0.30845668  0.21269562  0.83315018
   0.43382249  0.62564373  0.65490322
   0.31334447  0.54116549  0.61071503
   0.93875526  0.45741816  0.56543571
   0.68506044  0.79108559  0.74409455
   0.30865344  0.87519125  0.65493091
   0.68380086  0.78746435  0.38903125
   0.93523991  0.79097747  0.74411990
   0.06634052  0.20179660  0.34497985
   0.80830809  0.03755567  0.38905298
   0.44365553  0.12303974  0.78846155
   0.05884936  0.20494392  0.21190695
   0.06816178  0.36382424  0.16683410
   0.94126533  0.78708790  0.25624335
   0.56435995  0.20768083  0.69962987
   0.68930654  0.95776900  0.69967644
   0.43970980  0.78787839  0.12443557
   0.43874295  0.95739263  0.56549589
   0.81862507  0.37315688  0.78844228
   0.69091802  0.28657527  0.25598455
   0.18871067  0.45770041  0.56544225
   0.06743421  0.86320856  0.16686861
   0.18862084  0.29065908  0.61072985
   0.56626308  0.70242461  0.34500844
   0.31444980  0.20773861  0.69967333
   0.56336061  0.54196680  0.87559261
   0.06364537  0.70709494  0.56547299
   0.69387267  0.62326234  0.78846170
   0.30862725  0.53779863  0.38905176
   0.18806638  0.62170551  0.52133928
   0.56278519  0.87063267  0.43439271
   0.43834376  0.45771899  0.56534431
   0.43515689  0.29086605  0.74410532
   0.80462296  0.87305264  0.30021245
   0.81650247  0.70229918  0.34507768
   0.43343380  0.46269108  0.83315193
   0.68779687  0.95567386  0.47863876
   0.68976528  0.45770624  0.69967107
   0.56327049  0.87212553  0.52131104
   0.55876361  0.37540713  0.65491179
   0.80852304  0.87503233  0.65483073
   0.81274202  0.37022385  0.43446062
   0.81535612  0.53679772  0.25606173
   0.68343754  0.46272244  0.83315076
   0.19044779  0.78653612  0.12464543
   0.06337267  0.04191849  0.87557713
   0.30865086  0.37511924  0.65494482
   0.31618334  0.20204994  0.34490924
   0.81015032  0.54099056  0.74405795
   0.68345062  0.96272041  0.83315531
   0.55859602  0.87517849  0.65493784
   0.31303626  0.70730894  0.56550628
   0.31293815  0.53056656  0.12441048
   0.68322642  0.95512668  0.21195512
   0.31380610  0.20707872  0.56553027
   0.31005239  0.54106778  0.74407500
   0.68842681  0.95779627  0.56537077
   0.43832784  0.79081286  0.61066223
   0.69318092  0.61370070  0.16696863
   0.30449464  0.87315781  0.30028980
   0.31224503  0.70560958  0.47863484
   0.93835201  0.29110644  0.61067406
   0.42949841  0.62310218  0.30034391
   0.81774128  0.86344700  0.16674302
   0.55844098  0.20423614  0.21162703
   0.94279555  0.61402853  0.16685391
   0.93903693  0.79373129  0.87565821
   0.56870254  0.37294279  0.78844011
   0.06340085  0.37206026  0.52130528
   0.56345881  0.37162315  0.52127046
   0.67948100  0.12310698  0.30031978
   0.43344045  0.96266744  0.83315465
   0.19047286  0.28751337  0.12459059
   0.81867414  0.87316976  0.78843424
   0.31195807  0.37071625  0.43426849
   0.93782462  0.79161184  0.61083806
   0.43822901  0.29037367  0.61075781
   0.19133980  0.45160706  0.34492385
   0.44041892  0.28779641  0.12457370
   0.69095567  0.78674815  0.25609174
   0.18943554  0.95765396  0.69964786
   0.18897080  0.29384764  0.87564544
   0.18358351  0.12508987  0.65490387
   0.93347209  0.12532154  0.65488780
   0.30801036  0.20475801  0.21191381
   0.05856813  0.03747049  0.38902564
   0.19325863  0.11402231  0.16724434
   0.06263080  0.54167258  0.61090491
   0.94122041  0.28712668  0.25582113
   0.56323697  0.54114006  0.61078257
   0.93853155  0.95761791  0.56542626
   0.67935913  0.62329471  0.30018005
   0.93786054  0.62041493  0.43443661
   0.94378102  0.62329135  0.78845748
   0.56409471  0.70770495  0.69969245
   0.05847620  0.71272836  0.83314586
   0.92941477  0.12323860  0.30031080
   0.93973336  0.45784202  0.69967985
   0.44076771  0.78676163  0.25602966
   0.31865599  0.37308034  0.78842816
   0.43397297  0.45479913  0.21201786
   0.18829736  0.12197107  0.52123908
   0.81419588  0.70730026  0.69967001
   0.06344687  0.04103614  0.61073216
   0.55842473  0.21269281  0.83314912
   0.31374394  0.87206830  0.52129097
   0.69031876  0.28780417  0.12459999
   0.18410500  0.95485900  0.21189363
   0.68847898  0.29120932  0.61072591
   0.31349470  0.04072994  0.61075060
   0.94368718  0.12307269  0.78845531
   0.43901257  0.79394908  0.87565271
   0.81025186  0.04103018  0.74411260
   0.43833935  0.12179905  0.52131297
   0.18367186  0.62547034  0.65493838
   0.31412996  0.70771627  0.69967491
   0.93918280  0.28687367  0.12461416
   0.43789495  0.45544379  0.47870887
   0.06301861  0.70550190  0.47860772
   0.93803179  0.12031711  0.43446567
   0.42909465  0.12259770  0.30035261
   0.18799347  0.12020020  0.43451333
   0.56342870  0.04197979  0.87559270
   0.18844727  0.95690272  0.56523052
   0.69044678  0.78563229  0.12473464
   0.56258966  0.53096251  0.12444917
   0.30862812  0.03737026  0.38906625
   0.69142798  0.11216748  0.16685684
   0.80843836  0.20547735  0.21193334
   0.06556576  0.53673459  0.25610845
   0.56290227  0.70571501  0.47866973
   0.06349528  0.20759260  0.56543681
   0.55433753  0.37301383  0.30036010
   0.44132912  0.95192531  0.34493953
   0.18344653  0.96270957  0.83314507
   0.44237023  0.61156328  0.16696460
   0.93380170  0.45440661  0.21194302
   0.06262436  0.53236225  0.12452442
   0.81319393  0.37185150  0.52133012
   0.92920939  0.62289624  0.30037432
   0.31561247  0.03650730  0.25604519
   0.68825174  0.79127885  0.61073493
   0.18343676  0.46266903  0.83315155
   0.44250809  0.11206255  0.16678871
   0.31324931  0.37200127  0.52135726
   0.44373482  0.62313811  0.78844022
   0.06602750  0.03710251  0.25584259
   0.56346858  0.70768647  0.56538233
   0.93509820  0.29110891  0.74409859
   0.69355108  0.12311086  0.78848136
   0.18288276  0.45500776  0.21195793
   0.93378164  0.78743693  0.38903174
   0.68899612  0.29389986  0.87566555
   0.31892678  0.86457542  0.16689095
   0.43943802  0.45760555  0.69961217
   0.94141321  0.95208161  0.34496265
   0.68843980  0.62166530  0.52127874
   0.05884154  0.87522454  0.65492073
   0.06866193  0.87316734  0.78843775
   0.05859419  0.37519724  0.65491729
   0.68770115  0.45570222  0.47864592
   0.19108856  0.78643333  0.25615879
   0.43738839  0.12028894  0.43446439
   0.81461760  0.03225734  0.12452793
   0.93836383  0.62157159  0.52128286
   0.06297513  0.87022346  0.43448554
   0.81221486  0.53222004  0.12445996
   0.44137958  0.45191399  0.34496442
   0.81641714  0.20174540  0.34493223
   0.31644819  0.70190237  0.34494492
   0.68392737  0.12558811  0.65496705
   0.55433718  0.87322968  0.30026350
   0.06019421  0.54104194  0.74409032
   0.93382679  0.95457933  0.21197798
   0.80903098  0.70430145  0.21166964
   0.05429307  0.87291414  0.30027162
   0.17928036  0.12335386  0.30025439
   0.06641360  0.70211230  0.34496398
   0.81339880  0.04108721  0.61073384
   0.06329367  0.37060049  0.43431866
   0.56634174  0.20167524  0.34490417
   0.80429425  0.37311951  0.30034956
   0.43783807  0.95582479  0.47861719
   0.55865506  0.53716289  0.38902638
   0.06271847  0.20588532  0.47860009
   0.31864305  0.87308699  0.78844792
   0.93929508  0.95777123  0.69969682
   0.05432083  0.37295658  0.30037533
   0.68359506  0.62491001  0.65490968
   0.68814299  0.45783038  0.56540335
   0.43379734  0.95442182  0.21189389
   0.31278117  0.20583962  0.47860628
   0.43357542  0.12527075  0.65487440
   0.68819451  0.62050840  0.43436525
   0.81426530  0.20766052  0.69963786
   0.81275157  0.70573236  0.47863923
   0.81281416  0.87046653  0.43446050
   0.93770313  0.95586150  0.47859590
   0.56265922  0.20549409  0.47855165
   0.18796047  0.62063427  0.43430895
   0.31012796  0.04108505  0.74407568
   0.93350666  0.62477755  0.65488918
   0.55850918  0.71271756  0.83316565
   0.30435391  0.37306122  0.30035530
   0.55828161  0.70365627  0.21189026
   0.18789361  0.45569855  0.47863503
   0.31347169  0.04199111  0.87558766
   0.18965066  0.45764144  0.69957916
   0.81337685  0.54195145  0.87558258
   0.18350099  0.28771128  0.38907268
   0.43788111  0.62069508  0.43453246
   0.05810087  0.70496112  0.21165071
   0.56333901  0.36974626  0.43431247
   0.81834394  0.36306828  0.16714340
   0.80837677  0.71274560  0.83317915
   0.06864996  0.37308212  0.78844470
   0.43901260  0.29382362  0.87565696
   0.31198943  0.03095231  0.12466928
   0.68772249  0.12041693  0.43444578
   0.19124620  0.95187567  0.34498694
   0.05847939  0.21270148  0.83315756
   0.56305524  0.04110315  0.61072448
   0.68363826  0.45426126  0.21187467
   0.18514673  0.79084622  0.74406936
   0.17935040  0.62313765  0.30031453
   0.43368530  0.78730975  0.38903311
   0.44116986  0.28675353  0.25604432
   0.06342949  0.54189260  0.87558860
   0.56010113  0.04095111  0.74404856
   0.18904731  0.79392352  0.87565024
   0.93766343  0.45565706  0.47866347
   0.80846463  0.53735496  0.38907856
   0.81367631  0.20758198  0.56541582
   0.19372861  0.62306066  0.78844880
   0.05858971  0.53765851  0.38907914
   0.06425199  0.70782579  0.69969633
   0.31558055  0.53642803  0.25603587
   0.30904753  0.70424532  0.21177900
   0.56787707  0.86441219  0.16689671
   0.55998863  0.54105293  0.74408629
   0.69140143  0.45183664  0.34497481
   0.93903335  0.29392046  0.87564748
   0.56614310  0.03669042  0.25587891
   0.68247997  0.28803601  0.38904290
   0.31871023  0.36414332  0.16646552
   0.43815136  0.62165099  0.52122284
   0.56253856  0.02994434  0.12498825
   0.93904643  0.78788308  0.12461204
   0.80825158  0.37511549  0.65461239
   0.18796852  0.95573201  0.47857535
Direct configuration=     2
   0.06151857  0.03164781  0.12446934
   0.06321669  0.87178379  0.52130255
   0.19317722  0.12337426  0.78842558
   0.43380941  0.28770994  0.38911560
   0.30878756  0.71248144  0.83321606
   0.80882821  0.21246041  0.83320562
   0.18392021  0.78774176  0.38912323
   0.56281928  0.20727242  0.56538085
   0.06035218  0.04105689  0.74404195
   0.81329833  0.87194557  0.52139163
   0.18536723  0.29083352  0.74404238
   0.94061353  0.45215517  0.34493370
   0.93397687  0.28760422  0.38911287
   0.81329909  0.04215852  0.87553808
   0.18809799  0.79118877  0.61071867
   0.55896547  0.03732352  0.38910303
   0.93376281  0.96247176  0.83319129
   0.31327777  0.54215848  0.87552935
   0.68544413  0.29118234  0.74409020
   0.19149073  0.61288432  0.16680437
   0.81290451  0.20562306  0.47855271
   0.81283876  0.54135669  0.61078438
   0.31314455  0.87076358  0.43430906
   0.81533839  0.03628920  0.25604346
   0.69055909  0.95273869  0.34509195
   0.94238855  0.11292467  0.16670953
   0.93846247  0.12204368  0.52134829
   0.56538951  0.53662786  0.25598564
   0.68879305  0.79378990  0.87560035
   0.56773002  0.36381667  0.16668983
   0.43543223  0.79093160  0.74404211
   0.81327900  0.70779374  0.56536571
   0.56815458  0.87327642  0.78840435
   0.68853173  0.12208030  0.52133893
   0.19078015  0.28716349  0.25586134
   0.93378056  0.46248644  0.83319417
   0.06405202  0.20760060  0.69968219
   0.43931124  0.95757908  0.69967906
   0.30881530  0.21247328  0.83319627
   0.43408795  0.62555094  0.65489607
   0.31323377  0.54113089  0.61067434
   0.93862301  0.45733475  0.56547588
   0.68536768  0.79108805  0.74406396
   0.30896122  0.87516306  0.65492295
   0.68405708  0.78744256  0.38910310
   0.93550201  0.79101167  0.74408163
   0.06578465  0.20202828  0.34499541
   0.80865155  0.03756820  0.38911890
   0.44319046  0.12325129  0.78842748
   0.05917979  0.20466842  0.21187968
   0.06784895  0.36410847  0.16680715
   0.94075409  0.78704324  0.25621155
   0.56419991  0.20768542  0.69963783
   0.68912492  0.95773596  0.69967230
   0.43966022  0.78713842  0.12451664
   0.43867407  0.95727326  0.56554086
   0.81815164  0.37331901  0.78840559
   0.69046030  0.28661253  0.25600303
   0.18864315  0.45753837  0.56548944
   0.06709812  0.86356211  0.16682543
   0.18847315  0.29069434  0.61068396
   0.56572010  0.70259845  0.34502229
   0.31424551  0.20773672  0.69966947
   0.56325536  0.54219423  0.87553904
   0.06351312  0.70703279  0.56552013
   0.69336516  0.62342365  0.78842720
   0.30894293  0.53781749  0.38910592
   0.18801290  0.62192807  0.52139576
   0.56275000  0.87068847  0.43435008
   0.43833650  0.45748306  0.56540273
   0.43544269  0.29093286  0.74407131
   0.80522331  0.87286834  0.30024606
   0.81592520  0.70248005  0.34509495
   0.43376648  0.46245332  0.83320099
   0.68780647  0.95548616  0.47856046
   0.68951218  0.45769257  0.69966938
   0.56321611  0.87230369  0.52137427
   0.55899611  0.37531506  0.65490577
   0.80883031  0.87499591  0.65483253
   0.81273595  0.37035245  0.43443395
   0.81497650  0.53682943  0.25606164
   0.68377150  0.46247990  0.83320165
   0.19044721  0.78574913  0.12469538
   0.06326967  0.04215415  0.87552616
   0.30894947  0.37509690  0.65493126
   0.31562914  0.20221330  0.34493029
   0.81043713  0.54100005  0.74403812
   0.68378234  0.96247874  0.83320478
   0.55886869  0.87514722  0.65492950
   0.31300855  0.70724588  0.56555856
   0.31301140  0.53101883  0.12442469
   0.68361156  0.95494083  0.21196119
   0.31370045  0.20708236  0.56556260
   0.31035985  0.54105083  0.74404735
   0.68837906  0.95767811  0.56542015
   0.43819074  0.79079335  0.61062060
   0.69287457  0.61398027  0.16693433
   0.30511594  0.87293972  0.30029944
   0.31231247  0.70541028  0.47854837
   0.93827033  0.29110310  0.61062304
   0.43013513  0.62289039  0.30034926
   0.81763712  0.86374277  0.16671453
   0.55878321  0.20410753  0.21166444
   0.94241228  0.61445589  0.16684104
   0.93889267  0.79367188  0.87559957
   0.56822319  0.37314951  0.78840503
   0.06339065  0.37213613  0.52136962
   0.56352305  0.37183692  0.52134704
   0.68012676  0.12291916  0.30032559
   0.43377219  0.96243005  0.83320473
   0.19044587  0.28685363  0.12461918
   0.81819109  0.87334438  0.78839344
   0.31209312  0.37074981  0.43425110
   0.93781483  0.79154713  0.61077388
   0.43810404  0.29044399  0.61071683
   0.19078807  0.45183640  0.34496708
   0.44025603  0.28706683  0.12459127
   0.69052449  0.78672565  0.25609384
   0.18924258  0.95766267  0.69965371
   0.18882789  0.29376341  0.87558986
   0.18390767  0.12500127  0.65489115
   0.93380595  0.12522102  0.65488000
   0.30835592  0.20454437  0.21192183
   0.05886134  0.03740058  0.38909504
   0.19286588  0.11432870  0.16719868
   0.06258064  0.54153835  0.61083251
   0.94066959  0.28706091  0.25585614
   0.56309307  0.54109622  0.61072211
   0.93845114  0.95754732  0.56548236
   0.67998867  0.62310466  0.30019837
   0.93781852  0.62048571  0.43440345
   0.94329986  0.62345038  0.78842642
   0.56394056  0.70769686  0.69969189
   0.05882772  0.71249299  0.83319169
   0.93009208  0.12298677  0.30030941
   0.93950304  0.45778983  0.69968211
   0.44035351  0.78674292  0.25603806
   0.31818335  0.37324439  0.78839141
   0.43425779  0.45464219  0.21200371
   0.18819749  0.12219529  0.52131271
   0.81403021  0.70736905  0.69966960
   0.06333012  0.04103094  0.61068708
   0.55878974  0.21246533  0.83319658
   0.31369196  0.87224121  0.52136237
   0.69042246  0.28721607  0.12465335
   0.18438227  0.95468723  0.21191217
   0.68832510  0.29118229  0.61067599
   0.31329563  0.04074071  0.61070962
   0.94321160  0.12328925  0.78842470
   0.43886397  0.79385329  0.87559555
   0.81051803  0.04100410  0.74408551
   0.43826577  0.12196884  0.52137824
   0.18396764  0.62541720  0.65493614
   0.31398988  0.70770938  0.69967771
   0.93920218  0.28637403  0.12467848
   0.43790889  0.45528538  0.47862502
   0.06297523  0.70527966  0.47852377
   0.93797679  0.12043716  0.43441922
   0.42976212  0.12247064  0.30035595
   0.18793362  0.12041533  0.43445350
   0.56331667  0.04221351  0.87553974
   0.18836709  0.95688685  0.56525963
   0.69043838  0.78491048  0.12476477
   0.56280046  0.53143121  0.12449016
   0.30888438  0.03728208  0.38913268
   0.69128657  0.11260471  0.16686114
   0.80879212  0.20512671  0.21193350
   0.06516755  0.53675425  0.25611392
   0.56285976  0.70556418  0.47858433
   0.06343028  0.20746434  0.56547806
   0.55500161  0.37278955  0.30036348
   0.44075029  0.95212343  0.34495645
   0.18378823  0.96246439  0.83319697
   0.44217494  0.61209066  0.16695031
   0.93408786  0.45427087  0.21195139
   0.06301135  0.53263580  0.12455830
   0.81315438  0.37197917  0.52139860
   0.92987493  0.62271630  0.30038326
   0.31521172  0.03651611  0.25605551
   0.68815747  0.79128442  0.61069778
   0.18378058  0.46243467  0.83320037
   0.44226201  0.11250850  0.16679673
   0.31311285  0.37209017  0.52141976
   0.44327270  0.62330686  0.78840391
   0.06551337  0.03698090  0.25588321
   0.56347735  0.70755603  0.56542421
   0.93539485  0.29113112  0.74407104
   0.69309904  0.12331137  0.78844602
   0.18327745  0.45489096  0.21197164
   0.93408124  0.78742703  0.38909424
   0.68884608  0.29381097  0.87560505
   0.31863166  0.86468272  0.16683882
   0.43924975  0.45763952  0.69962638
   0.94085079  0.95229204  0.34497402
   0.68845480  0.62181637  0.52135944
   0.05918908  0.87514726  0.65490687
   0.06820487  0.87334135  0.78840224
   0.05897368  0.37514346  0.65491253
   0.68765691  0.45557969  0.47856253
   0.19060865  0.78645019  0.25614494
   0.43738642  0.12042479  0.43442216
   0.81461009  0.03270768  0.12456623
   0.93830871  0.62188253  0.52135575
   0.06285940  0.87032381  0.43443930
   0.81234360  0.53249269  0.12450833
   0.44083427  0.45213841  0.34498447
   0.81588365  0.20200022  0.34494619
   0.31588776  0.70208908  0.34496845
   0.68419792  0.12543771  0.65494978
   0.55500516  0.87302378  0.30027379
   0.06048797  0.54106238  0.74406779
   0.93411806  0.95447142  0.21197837
   0.80926088  0.70413049  0.21169847
   0.05498468  0.87277303  0.30028897
   0.17993595  0.12309735  0.30027005
   0.06584021  0.70229659  0.34497794
   0.81327253  0.04114123  0.61069275
   0.06315693  0.37068560  0.43431216
   0.56578380  0.20196207  0.34493072
   0.80493741  0.37287751  0.30034406
   0.43793855  0.95562909  0.47853613
   0.55890563  0.53720485  0.38909049
   0.06261509  0.20572986  0.47851917
   0.31816980  0.87326214  0.78841006
   0.93912525  0.95773564  0.69969828
   0.05497826  0.37279168  0.30037927
   0.68390130  0.62493221  0.65490649
   0.68808664  0.45770374  0.56544952
   0.43411785  0.95426059  0.21190662
   0.31289706  0.20573081  0.47852277
   0.43390517  0.12516685  0.65486107
   0.68812446  0.62052485  0.43432460
   0.81411264  0.20765704  0.69964519
   0.81281182  0.70554238  0.47854840
   0.81281128  0.87051253  0.43442734
   0.93762251  0.95571077  0.47851302
   0.56262891  0.20540692  0.47849128
   0.18785981  0.62070762  0.43428026
   0.31042169  0.04108574  0.74404689
   0.93387048  0.62479001  0.65489252
   0.55885121  0.71247828  0.83320690
   0.30502762  0.37282900  0.30034772
   0.55861991  0.70349537  0.21191694
   0.18791413  0.45562672  0.47855363
   0.31335462  0.04222672  0.87553549
   0.18943254  0.45766225  0.69959259
   0.81327392  0.54218985  0.87553032
   0.18376950  0.28770313  0.38911986
   0.43784885  0.62072351  0.43452681
   0.05853722  0.70473857  0.21167923
   0.56321683  0.36994488  0.43428545
   0.81809311  0.36332921  0.16708392
   0.80874732  0.71249618  0.83322434
   0.06818209  0.37326364  0.78840707
   0.43886849  0.29375393  0.87559865
   0.31210760  0.03150682  0.12469968
   0.68772515  0.12047219  0.43441337
   0.19070525  0.95214341  0.34500034
   0.05881711  0.21247599  0.83320166
   0.56298442  0.04105189  0.61068272
   0.68398654  0.45413661  0.21189099
   0.18542940  0.79091721  0.74404355
   0.17997800  0.62293154  0.30032883
   0.43391281  0.78729308  0.38908300
   0.44069254  0.28671498  0.25606248
   0.06331913  0.54213706  0.87553505
   0.56039837  0.04098450  0.74402285
   0.18889528  0.79383379  0.87559357
   0.93764753  0.45549901  0.47857920
   0.80881069  0.53735498  0.38914415
   0.81359650  0.20749372  0.56544978
   0.19325440  0.62324479  0.78841180
   0.05884164  0.53770197  0.38913821
   0.06407882  0.70780386  0.69969180
   0.31515004  0.53647036  0.25604330
   0.30929096  0.70404906  0.21179763
   0.56767776  0.86464479  0.16686758
   0.56028888  0.54106666  0.74406298
   0.69084875  0.45209911  0.34499071
   0.93888584  0.29383550  0.87559041
   0.56564385  0.03666832  0.25589755
   0.68288629  0.28792357  0.38909213
   0.31837026  0.36431197  0.16643530
   0.43817597  0.62191101  0.52127731
   0.56266621  0.03050022  0.12497533
   0.93912817  0.78723619  0.12467016
   0.80859193  0.37506375  0.65463874
   0.18790232  0.95554225  0.47852893
Direct configuration=     3
   0.06279128  0.03287772  0.12462550
   0.06319548  0.87249030  0.52151429
   0.19178779  0.12392126  0.78831536
   0.43447398  0.28761546  0.38930279
   0.30985279  0.71182346  0.83336470
   0.80986054  0.21181202  0.83334393
   0.18484035  0.78774982  0.38932966
   0.56290816  0.20691320  0.56544555
   0.06121192  0.04105754  0.74394407
   0.81319453  0.87257976  0.52159384
   0.18629965  0.29106060  0.74395725
   0.93891553  0.45267954  0.34504783
   0.93486608  0.28751435  0.38930023
   0.81299570  0.04287748  0.87537854
   0.18761840  0.79115375  0.61061154
   0.55980779  0.03720482  0.38932947
   0.93479782  0.96174357  0.83335048
   0.31297106  0.54289654  0.87537475
   0.68634617  0.29116311  0.74399154
   0.19085490  0.61415175  0.16670838
   0.81305524  0.20522559  0.47831907
   0.81270767  0.54119272  0.61056747
   0.31304221  0.87091913  0.43417414
   0.81407940  0.03648426  0.25607081
   0.68908162  0.95313059  0.34509590
   0.94164690  0.11390144  0.16669597
   0.93844291  0.12256679  0.52154580
   0.56399530  0.53678689  0.25601632
   0.68837076  0.79354289  0.87543897
   0.56713017  0.36483726  0.16663674
   0.43628122  0.79117228  0.74396366
   0.81314392  0.70754611  0.56547865
   0.56676066  0.87383414  0.78828916
   0.68845456  0.12266118  0.52154026
   0.18939450  0.28705140  0.25598662
   0.93479454  0.46177502  0.83335387
   0.06340389  0.20763373  0.69965652
   0.43865644  0.95756496  0.69968850
   0.30989115  0.21180625  0.83333456
   0.43488431  0.62527255  0.65487463
   0.31290165  0.54102707  0.61055228
   0.93822628  0.45708455  0.56559637
   0.68628939  0.79109541  0.74397220
   0.30988457  0.87507848  0.65489908
   0.68482574  0.78737720  0.38931865
   0.93628829  0.79111426  0.74396681
   0.06411706  0.20272333  0.34504211
   0.80968191  0.03760578  0.38931664
   0.44179528  0.12388594  0.78832530
   0.06017106  0.20384192  0.21179787
   0.06691047  0.36496113  0.16672631
   0.93922036  0.78690926  0.25611616
   0.56371980  0.20769921  0.69966171
   0.68858005  0.95763683  0.69965988
   0.43951148  0.78491850  0.12475987
   0.43846745  0.95691514  0.56567576
   0.81673135  0.37380540  0.78829553
   0.68908714  0.28672430  0.25605847
   0.18844060  0.45705225  0.56563103
   0.06608984  0.86462274  0.16669589
   0.18803010  0.29080014  0.61054630
   0.56409116  0.70311996  0.34506384
   0.31363263  0.20773103  0.69965787
   0.56293961  0.54287653  0.87537834
   0.06311636  0.70684634  0.56566156
   0.69184262  0.62390758  0.78832371
   0.30988997  0.53787406  0.38926842
   0.18785246  0.62259573  0.52156521
   0.56264442  0.87085587  0.43422220
   0.43831474  0.45677525  0.56557800
   0.43630007  0.29113328  0.74396925
   0.80702437  0.87231545  0.30034687
   0.81419338  0.70302268  0.34514677
   0.43476453  0.46174003  0.83334817
   0.68783528  0.95492309  0.47832556
   0.68875286  0.45765158  0.69966430
   0.56305300  0.87283819  0.52156395
   0.55969360  0.37503886  0.65488768
   0.80975212  0.87488667  0.65483793
   0.81271775  0.37073825  0.43435394
   0.81383764  0.53692455  0.25606138
   0.68477339  0.46175230  0.83335431
   0.19044549  0.78338816  0.12484522
   0.06296066  0.04286111  0.87537325
   0.30984531  0.37502990  0.65489060
   0.31396654  0.20270338  0.34499343
   0.81129758  0.54102853  0.74397863
   0.68477750  0.96175372  0.83335317
   0.55968668  0.87505343  0.65490448
   0.31292545  0.70705671  0.56571540
   0.31323116  0.53237565  0.12446733
   0.68476697  0.95438329  0.21197939
   0.31338353  0.20709329  0.56565961
   0.31128223  0.54099998  0.74396440
   0.68823582  0.95732361  0.56556827
   0.43777946  0.79073483  0.61049570
   0.69195551  0.61481900  0.16683142
   0.30697982  0.87228544  0.30032837
   0.31251482  0.70481241  0.47828895
   0.93802529  0.29109308  0.61046998
   0.43204530  0.62225503  0.30036530
   0.81732464  0.86463011  0.16662908
   0.55980990  0.20372170  0.21177665
   0.94126246  0.61573796  0.16680243
   0.93845989  0.79349364  0.87542365
   0.56678513  0.37376965  0.78829982
   0.06336004  0.37236373  0.52156262
   0.56371576  0.37247822  0.52157681
   0.68206404  0.12235570  0.30034302
   0.43476740  0.96171787  0.83335496
   0.19036491  0.28487440  0.12470497
   0.81674192  0.87386822  0.78827102
   0.31249827  0.37085049  0.43419894
   0.93778548  0.79135300  0.61058135
   0.43772915  0.29065492  0.61059392
   0.18913289  0.45252441  0.34509679
   0.43976735  0.28487809  0.12464398
   0.68923094  0.78665813  0.25610012
   0.18866370  0.95768882  0.69967126
   0.18839915  0.29351071  0.87542314
   0.18488017  0.12473549  0.65485302
   0.93480755  0.12491947  0.65485662
   0.30939260  0.20390342  0.21194590
   0.05974096  0.03719084  0.38930326
   0.19168762  0.11524788  0.16706168
   0.06243015  0.54113566  0.61061530
   0.93901711  0.28686361  0.25596119
   0.56266137  0.54096472  0.61054075
   0.93820990  0.95733555  0.56565067
   0.68187730  0.62253449  0.30025334
   0.93769244  0.62069805  0.43430397
   0.94185639  0.62392745  0.78833322
   0.56347811  0.70767258  0.69969019
   0.05988228  0.71178688  0.83332920
   0.93212400  0.12223127  0.30030524
   0.93881209  0.45763325  0.69968888
   0.43911089  0.78668682  0.25606327
   0.31676541  0.37373654  0.78828117
   0.43511228  0.45417138  0.21196125
   0.18789786  0.12286796  0.52153362
   0.81353320  0.70757539  0.69966838
   0.06297986  0.04101535  0.61055185
   0.55988479  0.21178289  0.83333895
   0.31353599  0.87275993  0.52157657
   0.69073357  0.28545176  0.12481343
   0.18521411  0.95417192  0.21196781
   0.68786345  0.29110118  0.61052622
   0.31269841  0.04077303  0.61058670
   0.94178486  0.12393894  0.78833286
   0.43841817  0.79356590  0.87542408
   0.81131657  0.04092584  0.74400425
   0.43804503  0.12247820  0.52157405
   0.18485496  0.62525776  0.65492942
   0.31356964  0.70768873  0.69968613
   0.93926033  0.28487511  0.12487146
   0.43795069  0.45481015  0.47837348
   0.06284511  0.70461291  0.47827191
   0.93781181  0.12079730  0.43427986
   0.43176453  0.12208947  0.30036599
   0.18775405  0.12106073  0.43427401
   0.56298060  0.04291465  0.87538085
   0.18812657  0.95683925  0.56534696
   0.69041319  0.78274507  0.12485518
   0.56343286  0.53283733  0.12461311
   0.30965314  0.03701755  0.38933198
   0.69086234  0.11391641  0.16687403
   0.80985343  0.20407477  0.21193398
   0.06397292  0.53681324  0.25613033
   0.56273224  0.70511170  0.47832812
   0.06323528  0.20707958  0.56560183
   0.55699383  0.37211672  0.30037362
   0.43901379  0.95271782  0.34500722
   0.18481333  0.96172884  0.83335267
   0.44158907  0.61367277  0.16690745
   0.93494634  0.45386363  0.21197649
   0.06417232  0.53345644  0.12465992
   0.81303571  0.37236219  0.52160404
   0.93187157  0.62217646  0.30041008
   0.31400946  0.03654254  0.25608648
   0.68787465  0.79130115  0.61058631
   0.18481204  0.46173162  0.83334684
   0.44152377  0.11384634  0.16682077
   0.31270346  0.37235685  0.52160723
   0.44188634  0.62381311  0.78829499
   0.06397098  0.03661607  0.25600508
   0.56350368  0.70716472  0.56554985
   0.93628481  0.29119774  0.74398840
   0.69174294  0.12391292  0.78834000
   0.18446155  0.45454058  0.21201278
   0.93498005  0.78739732  0.38928174
   0.68839596  0.29354430  0.87542354
   0.31774629  0.86500463  0.16668244
   0.43868493  0.45774141  0.69966899
   0.93916353  0.95292334  0.34500813
   0.68849980  0.62226957  0.52160154
   0.06023170  0.87491539  0.65486528
   0.06683371  0.87386339  0.78829573
   0.06011214  0.37498214  0.65489826
   0.68752422  0.45521209  0.47831235
   0.18916891  0.78650076  0.25610339
   0.43738049  0.12083234  0.43429545
   0.81458755  0.03405870  0.12468116
   0.93814335  0.62281536  0.52157441
   0.06251223  0.87062486  0.43430058
   0.81272981  0.53331064  0.12465343
   0.43919833  0.45281165  0.34504462