 288 288   0   0
  0.1280206E+02  0.9726678E-09  0.8423550E-09  0.4500000E-08  0.2500000E-15
  1.000000000000000E-004
  CAR 
 unknown system                          
      6.81179321     -6.06693469  301      4.31296239      1.00000000
     -6.067  0.0000E+00  0.0000E+00
     -6.024  0.0000E+00  0.0000E+00
     -5.981  0.0000E+00  0.0000E+00
     -5.938  0.0000E+00  0.0000E+00
     -5.895  0.0000E+00  0.0000E+00
     -5.852  0.0000E+00  0.0000E+00
     -5.809  0.0000E+00  0.0000E+00
     -5.766  0.0000E+00  0.0000E+00
     -5.724  0.0000E+00  0.0000E+00
     -5.681  0.0000E+00  0.0000E+00
     -5.638  0.0000E+00  0.0000E+00
     -5.595  0.0000E+00  0.0000E+00
     -5.552  0.0000E+00  0.0000E+00
     -5.509  0.0000E+00  0.0000E+00
     -5.466  0.0000E+00  0.0000E+00
     -5.423  0.1940E-15  0.8327E-17
     -5.380  0.4946E-14  0.2207E-15
     -5.337  0.1063E-12  0.4785E-14
     -5.294  0.1940E-11  0.8808E-13
     -5.251  0.3011E-10  0.1381E-11
     -5.208  0.3974E-09  0.1844E-10
     -5.165  0.4462E-08  0.2100E-09
     -5.122  0.4262E-07  0.2040E-08
     -5.080  0.3466E-06  0.1692E-07
     -5.037  0.2400E-05  0.1200E-06
     -4.994  0.1417E-04  0.7283E-06
     -4.951  0.7142E-04  0.3794E-05
     -4.908  0.3079E-03  0.1701E-04
     -4.865  0.1139E-02  0.6589E-04
     -4.822  0.3631E-02  0.2218E-03
     -4.779  0.1005E-01  0.6533E-03
     -4.736  0.2438E-01  0.1700E-02
     -4.693  0.5242E-01  0.3950E-02
     -4.650  0.1014E+00  0.8301E-02
     -4.607  0.1786E+00  0.1597E-01
     -4.564  0.2900E+00  0.2842E-01
     -4.521  0.4377E+00  0.4721E-01
     -4.479  0.6178E+00  0.7373E-01
     -4.436  0.8199E+00  0.1089E+00
     -4.393  0.1029E+01  0.1531E+00
     -4.350  0.1227E+01  0.2058E+00
     -4.307  0.1400E+01  0.2659E+00
     -4.264  0.1540E+01  0.3320E+00
     -4.221  0.1651E+01  0.4029E+00
     -4.178  0.1748E+01  0.4780E+00
     -4.135  0.1850E+01  0.5574E+00
     -4.092  0.1977E+01  0.6423E+00
     -4.049  0.2139E+01  0.7341E+00
     -4.006  0.2334E+01  0.8343E+00
     -3.963  0.2544E+01  0.9435E+00
     -3.920  0.2743E+01  0.1061E+01
     -3.878  0.2908E+01  0.1186E+01
     -3.835  0.3019E+01  0.1316E+01
     -3.792  0.3076E+01  0.1448E+01
     -3.749  0.3091E+01  0.1580E+01
     -3.706  0.3092E+01  0.1713E+01
     -3.663  0.3109E+01  0.1847E+01
     -3.620  0.3163E+01  0.1982E+01
     -3.577  0.3264E+01  0.2123E+01
     -3.534  0.3408E+01  0.2269E+01
     -3.491  0.3582E+01  0.2423E+01
     -3.448  0.3764E+01  0.2584E+01
     -3.405  0.3932E+01  0.2753E+01
     -3.362  0.4067E+01  0.2928E+01
     -3.319  0.4154E+01  0.3106E+01
     -3.277  0.4191E+01  0.3286E+01
     -3.234  0.4196E+01  0.3466E+01
     -3.191  0.4202E+01  0.3646E+01
     -3.148  0.4251E+01  0.3829E+01
     -3.105  0.4373E+01  0.4017E+01
     -3.062  0.4572E+01  0.4213E+01
     -3.019  0.4822E+01  0.4420E+01
     -2.976  0.5075E+01  0.4638E+01
     -2.933  0.5273E+01  0.4864E+01
     -2.890  0.5372E+01  0.5095E+01
     -2.847  0.5373E+01  0.5325E+01
     -2.804  0.5320E+01  0.5554E+01
     -2.761  0.5289E+01  0.5781E+01
     -2.718  0.5336E+01  0.6010E+01
     -2.676  0.5463E+01  0.6244E+01
     -2.633  0.5615E+01  0.6485E+01
     -2.590  0.5717E+01  0.6731E+01
     -2.547  0.5733E+01  0.6977E+01
     -2.504  0.5693E+01  0.7221E+01
     -2.461  0.5685E+01  0.7465E+01
     -2.418  0.5810E+01  0.7715E+01
     -2.375  0.6123E+01  0.7978E+01
     -2.332  0.6589E+01  0.8261E+01
     -2.289  0.7073E+01  0.8564E+01
     -2.246  0.7406E+01  0.8882E+01
     -2.203  0.7475E+01  0.9203E+01
     -2.160  0.7304E+01  0.9517E+01
     -2.117  0.7047E+01  0.9819E+01
     -2.075  0.6901E+01  0.1012E+02
     -2.032  0.7004E+01  0.1042E+02
     -1.989  0.7371E+01  0.1073E+02
     -1.946  0.7895E+01  0.1107E+02
     -1.903  0.8401E+01  0.1143E+02
     -1.860  0.8735E+01  0.1181E+02
     -1.817  0.8841E+01  0.1219E+02
     -1.774  0.8789E+01  0.1256E+02
     -1.731  0.8712E+01  0.1294E+02
     -1.688  0.8718E+01  0.1331E+02
     -1.645  0.8838E+01  0.1369E+02
     -1.602  0.9040E+01  0.1408E+02
     -1.559  0.9285E+01  0.1448E+02
     -1.516  0.9552E+01  0.1489E+02
     -1.474  0.9841E+01  0.1531E+02
     -1.431  0.1014E+02  0.1575E+02
     -1.388  0.1042E+02  0.1619E+02
     -1.345  0.1064E+02  0.1665E+02
     -1.302  0.1082E+02  0.1711E+02
     -1.259  0.1108E+02  0.1759E+02
     -1.216  0.1158E+02  0.1809E+02
     -1.173  0.1239E+02  0.1862E+02
     -1.130  0.1344E+02  0.1920E+02
     -1.087  0.1446E+02  0.1982E+02
     -1.044  0.1518E+02  0.2047E+02
     -1.001  0.1551E+02  0.2113E+02
     -0.958  0.1563E+02  0.2181E+02
     -0.915  0.1592E+02  0.2249E+02
     -0.873  0.1672E+02  0.2321E+02
     -0.830  0.1819E+02  0.2399E+02
     -0.787  0.2024E+02  0.2486E+02
     -0.744  0.2274E+02  0.2583E+02
     -0.701  0.2567E+02  0.2693E+02
     -0.658  0.2911E+02  0.2818E+02
     -0.615  0.3308E+02  0.2960E+02
     -0.572  0.3743E+02  0.3121E+02
     -0.529  0.4175E+02  0.3300E+02
     -0.486  0.4560E+02  0.3496E+02
     -0.443  0.4869E+02  0.3705E+02
     -0.400  0.5102E+02  0.3924E+02
     -0.357  0.5280E+02  0.4151E+02
     -0.314  0.5429E+02  0.4384E+02
     -0.272  0.5560E+02  0.4622E+02
     -0.229  0.5667E+02  0.4866E+02
     -0.186  0.5738E+02  0.5112E+02
     -0.143  0.5767E+02  0.5360E+02
     -0.100  0.5770E+02  0.5607E+02
     -0.057  0.5775E+02  0.5855E+02
     -0.014  0.5811E+02  0.6105E+02
      0.029  0.5899E+02  0.6358E+02
      0.072  0.6054E+02  0.6618E+02
      0.115  0.6285E+02  0.6888E+02
      0.158  0.6583E+02  0.7170E+02
      0.201  0.6924E+02  0.7467E+02
      0.244  0.7270E+02  0.7780E+02
      0.287  0.7590E+02  0.8105E+02
      0.330  0.7867E+02  0.8443E+02
      0.372  0.8100E+02  0.8791E+02
      0.415  0.8291E+02  0.9147E+02
      0.458  0.8444E+02  0.9509E+02
      0.501  0.8555E+02  0.9877E+02
      0.544  0.8617E+02  0.1025E+03
      0.587  0.8628E+02  0.1062E+03
      0.630  0.8593E+02  0.1099E+03
      0.673  0.8519E+02  0.1135E+03
      0.716  0.8407E+02  0.1171E+03
      0.759  0.8258E+02  0.1207E+03
      0.802  0.8082E+02  0.1241E+03
      0.845  0.7903E+02  0.1275E+03
      0.888  0.7755E+02  0.1309E+03
      0.931  0.7658E+02  0.1341E+03
      0.973  0.7610E+02  0.1374E+03
      1.016  0.7584E+02  0.1407E+03
      1.059  0.7545E+02  0.1439E+03
      1.102  0.7471E+02  0.1471E+03
      1.145  0.7369E+02  0.1503E+03
      1.188  0.7275E+02  0.1534E+03
      1.231  0.7234E+02  0.1565E+03
      1.274  0.7261E+02  0.1596E+03
      1.317  0.7321E+02  0.1628E+03
      1.360  0.7349E+02  0.1659E+03
      1.403  0.7293E+02  0.1691E+03
      1.446  0.7149E+02  0.1721E+03
      1.489  0.6968E+02  0.1751E+03
      1.532  0.6822E+02  0.1780E+03
      1.574  0.6763E+02  0.1809E+03
      1.617  0.6812E+02  0.1839E+03
      1.660  0.6955E+02  0.1869E+03
      1.703  0.7162E+02  0.1899E+03
      1.746  0.7399E+02  0.1931E+03
      1.789  0.7640E+02  0.1964E+03
      1.832  0.7868E+02  0.1998E+03
      1.875  0.8075E+02  0.2032E+03
      1.918  0.8258E+02  0.2068E+03
      1.961  0.8423E+02  0.2104E+03
      2.004  0.8580E+02  0.2141E+03
      2.047  0.8739E+02  0.2178E+03
      2.090  0.8902E+02  0.2216E+03
      2.133  0.9067E+02  0.2255E+03
      2.175  0.9231E+02  0.2295E+03
      2.218  0.9397E+02  0.2335E+03
      2.261  0.9578E+02  0.2376E+03
      2.304  0.9798E+02  0.2419E+03
      2.347  0.1009E+03  0.2462E+03
      2.390  0.1045E+03  0.2507E+03
      2.433  0.1087E+03  0.2553E+03
      2.476  0.1132E+03  0.2602E+03
      2.519  0.1175E+03  0.2652E+03
      2.562  0.1214E+03  0.2705E+03
      2.605  0.1244E+03  0.2758E+03
      2.648  0.1265E+03  0.2812E+03
      2.691  0.1278E+03  0.2867E+03
      2.734  0.1287E+03  0.2922E+03
      2.776  0.1296E+03  0.2978E+03
      2.819  0.1312E+03  0.3034E+03
      2.862  0.1338E+03  0.3092E+03
      2.905  0.1373E+03  0.3151E+03
      2.948  0.1407E+03  0.3211E+03
      2.991  0.1424E+03  0.3272E+03
      3.034  0.1408E+03  0.3333E+03
      3.077  0.1355E+03  0.3391E+03
      3.120  0.1270E+03  0.3445E+03
      3.163  0.1172E+03  0.3496E+03
      3.206  0.1078E+03  0.3542E+03
      3.249  0.1002E+03  0.3585E+03
      3.292  0.9486E+02  0.3626E+03
      3.335  0.9172E+02  0.3665E+03
      3.377  0.9029E+02  0.3704E+03
      3.420  0.8990E+02  0.3742E+03
      3.463  0.8979E+02  0.3781E+03
      3.506  0.8924E+02  0.3819E+03
      3.549  0.8786E+02  0.3857E+03
      3.592  0.8590E+02  0.3894E+03
      3.635  0.8411E+02  0.3930E+03
      3.678  0.8338E+02  0.3966E+03
      3.721  0.8416E+02  0.4002E+03
      3.764  0.8628E+02  0.4039E+03
      3.807  0.8910E+02  0.4077E+03
      3.850  0.9198E+02  0.4117E+03
      3.893  0.9458E+02  0.4157E+03
      3.936  0.9683E+02  0.4199E+03
      3.978  0.9880E+02  0.4241E+03
      4.021  0.1005E+03  0.4284E+03
      4.064  0.1019E+03  0.4328E+03
      4.107  0.1028E+03  0.4372E+03
      4.150  0.1029E+03  0.4416E+03
      4.193  0.1022E+03  0.4460E+03
      4.236  0.1010E+03  0.4504E+03
      4.279  0.9968E+02  0.4546E+03
      4.322  0.9856E+02  0.4589E+03
      4.365  0.9797E+02  0.4631E+03
      4.408  0.9800E+02  0.4673E+03
      4.451  0.9846E+02  0.4715E+03
      4.494  0.9903E+02  0.4758E+03
      4.537  0.9930E+02  0.4800E+03
      4.579  0.9906E+02  0.4843E+03
      4.622  0.9839E+02  0.4885E+03
      4.665  0.9767E+02  0.4927E+03
      4.708  0.9745E+02  0.4969E+03
      4.751  0.9817E+02  0.5011E+03
      4.794  0.9997E+02  0.5054E+03
      4.837  0.1026E+03  0.5098E+03
      4.880  0.1058E+03  0.5143E+03
      4.923  0.1089E+03  0.5190E+03
      4.966  0.1115E+03  0.5238E+03
      5.009  0.1129E+03  0.5286E+03
      5.052  0.1122E+03  0.5335E+03
      5.095  0.1082E+03  0.5381E+03
      5.138  0.9965E+02  0.5424E+03
      5.180  0.8639E+02  0.5461E+03
      5.223  0.6944E+02  0.5491E+03
      5.266  0.5106E+02  0.5513E+03
      5.309  0.3394E+02  0.5527E+03
      5.352  0.2021E+02  0.5536E+03
      5.395  0.1070E+02  0.5541E+03
      5.438  0.5008E+01  0.5543E+03
      5.481  0.2063E+01  0.5544E+03
      5.524  0.7453E+00  0.5544E+03
      5.567  0.2357E+00  0.5544E+03
      5.610  0.6513E-01  0.5544E+03
      5.653  0.1570E-01  0.5544E+03
      5.696  0.3300E-02  0.5544E+03
      5.739  0.6041E-03  0.5544E+03
      5.781  0.9625E-04  0.5544E+03
      5.824  0.1333E-04  0.5544E+03
      5.867  0.1604E-05  0.5544E+03
      5.910  0.1675E-06  0.5544E+03
      5.953  0.1515E-07  0.5544E+03
      5.996  0.1185E-08  0.5544E+03
      6.039  0.8009E-10  0.5544E+03
      6.082  0.4667E-11  0.5544E+03
      6.125  0.2331E-12  0.5544E+03
      6.168  0.9440E-14  0.5544E+03
      6.211  0.2586E-15  0.5544E+03
      6.254  0.0000E+00  0.5544E+03
      6.297  0.0000E+00  0.5544E+03
      6.340  0.0000E+00  0.5544E+03
      6.383  0.0000E+00  0.5544E+03
      6.425  0.0000E+00  0.5544E+03
      6.468  0.0000E+00  0.5544E+03
      6.511  0.0000E+00  0.5544E+03
      6.554  0.0000E+00  0.5544E+03
      6.597  0.0000E+00  0.5544E+03
      6.640  0.0000E+00  0.5544E+03
      6.683  0.0000E+00  0.5544E+03
      6.726  0.0000E+00  0.5544E+03
      6.769  0.0000E+00  0.5544E+03
      6.812  0.0000E+00  0.5544E+03
