 288 288   0   0
  0.1280206E+02  0.9726678E-09  0.8423550E-09  0.4500000E-08  0.2500000E-15
  1.000000000000000E-004
  CAR 
 unknown system                          
      6.82011481     -6.02232539  301      4.29443917      1.00000000
     -6.022  0.0000E+00  0.0000E+00
     -5.980  0.0000E+00  0.0000E+00
     -5.937  0.0000E+00  0.0000E+00
     -5.894  0.0000E+00  0.0000E+00
     -5.851  0.0000E+00  0.0000E+00
     -5.808  0.0000E+00  0.0000E+00
     -5.765  0.0000E+00  0.0000E+00
     -5.723  0.0000E+00  0.0000E+00
     -5.680  0.0000E+00  0.0000E+00
     -5.637  0.0000E+00  0.0000E+00
     -5.594  0.0000E+00  0.0000E+00
     -5.551  0.0000E+00  0.0000E+00
     -5.509  0.0000E+00  0.0000E+00
     -5.466  0.0000E+00  0.0000E+00
     -5.423  0.0000E+00  0.0000E+00
     -5.380  0.1621E-15  0.6939E-17
     -5.337  0.4312E-14  0.1915E-15
     -5.295  0.9262E-13  0.4156E-14
     -5.252  0.1691E-11  0.7653E-13
     -5.209  0.2629E-10  0.1202E-11
     -5.166  0.3481E-09  0.1610E-10
     -5.123  0.3926E-08  0.1842E-09
     -5.081  0.3774E-07  0.1800E-08
     -5.038  0.3094E-06  0.1504E-07
     -4.995  0.2165E-05  0.1077E-06
     -4.952  0.1295E-04  0.6619E-06
     -4.909  0.6627E-04  0.3499E-05
     -4.867  0.2911E-03  0.1596E-04
     -4.824  0.1101E-02  0.6311E-04
     -4.781  0.3605E-02  0.2174E-03
     -4.738  0.1028E-01  0.6574E-03
     -4.695  0.2572E-01  0.1759E-02
     -4.652  0.5711E-01  0.4203E-02
     -4.610  0.1137E+00  0.9071E-02
     -4.567  0.2054E+00  0.1786E-01
     -4.524  0.3400E+00  0.3242E-01
     -4.481  0.5201E+00  0.5468E-01
     -4.438  0.7395E+00  0.8634E-01
     -4.396  0.9823E+00  0.1284E+00
     -4.353  0.1224E+01  0.1808E+00
     -4.310  0.1440E+01  0.2424E+00
     -4.267  0.1607E+01  0.3113E+00
     -4.224  0.1720E+01  0.3849E+00
     -4.182  0.1789E+01  0.4615E+00
     -4.139  0.1842E+01  0.5403E+00
     -4.096  0.1919E+01  0.6225E+00
     -4.053  0.2051E+01  0.7103E+00
     -4.010  0.2253E+01  0.8067E+00
     -3.968  0.2508E+01  0.9141E+00
     -3.925  0.2777E+01  0.1033E+01
     -3.882  0.3009E+01  0.1162E+01
     -3.839  0.3157E+01  0.1297E+01
     -3.796  0.3202E+01  0.1434E+01
     -3.753  0.3161E+01  0.1569E+01
     -3.711  0.3084E+01  0.1701E+01
     -3.668  0.3032E+01  0.1831E+01
     -3.625  0.3057E+01  0.1962E+01
     -3.582  0.3180E+01  0.2098E+01
     -3.539  0.3386E+01  0.2243E+01
     -3.497  0.3627E+01  0.2398E+01
     -3.454  0.3848E+01  0.2563E+01
     -3.411  0.4012E+01  0.2735E+01
     -3.368  0.4105E+01  0.2911E+01
     -3.325  0.4141E+01  0.3088E+01
     -3.283  0.4149E+01  0.3266E+01
     -3.240  0.4161E+01  0.3444E+01
     -3.197  0.4205E+01  0.3624E+01
     -3.154  0.4298E+01  0.3808E+01
     -3.111  0.4442E+01  0.3998E+01
     -3.069  0.4626E+01  0.4196E+01
     -3.026  0.4829E+01  0.4403E+01
     -2.983  0.5023E+01  0.4618E+01
     -2.940  0.5179E+01  0.4839E+01
     -2.897  0.5284E+01  0.5066E+01
     -2.855  0.5346E+01  0.5294E+01
     -2.812  0.5390E+01  0.5525E+01
     -2.769  0.5453E+01  0.5759E+01
     -2.726  0.5550E+01  0.5996E+01
     -2.683  0.5663E+01  0.6239E+01
     -2.640  0.5730E+01  0.6484E+01
     -2.598  0.5697E+01  0.6728E+01
     -2.555  0.5561E+01  0.6966E+01
     -2.512  0.5408E+01  0.7197E+01
     -2.469  0.5378E+01  0.7428E+01
     -2.426  0.5591E+01  0.7667E+01
     -2.384  0.6070E+01  0.7927E+01
     -2.341  0.6704E+01  0.8214E+01
     -2.298  0.7289E+01  0.8526E+01
     -2.255  0.7625E+01  0.8852E+01
     -2.212  0.7618E+01  0.9178E+01
     -2.170  0.7333E+01  0.9492E+01
     -2.127  0.6971E+01  0.9791E+01
     -2.084  0.6764E+01  0.1008E+02
     -2.041  0.6863E+01  0.1037E+02
     -1.998  0.7272E+01  0.1069E+02
     -1.956  0.7858E+01  0.1102E+02
     -1.913  0.8420E+01  0.1138E+02
     -1.870  0.8787E+01  0.1176E+02
     -1.827  0.8899E+01  0.1214E+02
     -1.784  0.8821E+01  0.1252E+02
     -1.742  0.8700E+01  0.1289E+02
     -1.699  0.8670E+01  0.1326E+02
     -1.656  0.8781E+01  0.1364E+02
     -1.613  0.9004E+01  0.1402E+02
     -1.570  0.9275E+01  0.1442E+02
     -1.527  0.9552E+01  0.1483E+02
     -1.485  0.9825E+01  0.1525E+02
     -1.442  0.1009E+02  0.1568E+02
     -1.399  0.1031E+02  0.1612E+02
     -1.356  0.1045E+02  0.1657E+02
     -1.313  0.1053E+02  0.1702E+02
     -1.271  0.1071E+02  0.1748E+02
     -1.228  0.1117E+02  0.1796E+02
     -1.185  0.1205E+02  0.1847E+02
     -1.142  0.1325E+02  0.1904E+02
     -1.099  0.1446E+02  0.1966E+02
     -1.057  0.1531E+02  0.2031E+02
     -1.014  0.1563E+02  0.2098E+02
     -0.971  0.1558E+02  0.2165E+02
     -0.928  0.1554E+02  0.2231E+02
     -0.885  0.1593E+02  0.2300E+02
     -0.843  0.1695E+02  0.2372E+02
     -0.800  0.1856E+02  0.2452E+02
     -0.757  0.2065E+02  0.2540E+02
     -0.714  0.2325E+02  0.2640E+02
     -0.671  0.2655E+02  0.2753E+02
     -0.629  0.3069E+02  0.2885E+02
     -0.586  0.3551E+02  0.3037E+02
     -0.543  0.4047E+02  0.3210E+02
     -0.500  0.4489E+02  0.3402E+02
     -0.457  0.4835E+02  0.3609E+02
     -0.414  0.5084E+02  0.3827E+02
     -0.372  0.5270E+02  0.4052E+02
     -0.329  0.5421E+02  0.4284E+02
     -0.286  0.5548E+02  0.4522E+02
     -0.243  0.5642E+02  0.4763E+02
     -0.200  0.5692E+02  0.5007E+02
     -0.158  0.5702E+02  0.5251E+02
     -0.115  0.5689E+02  0.5495E+02
     -0.072  0.5680E+02  0.5738E+02
     -0.029  0.5704E+02  0.5982E+02
      0.014  0.5785E+02  0.6230E+02
      0.056  0.5937E+02  0.6484E+02
      0.099  0.6165E+02  0.6748E+02
      0.142  0.6461E+02  0.7024E+02
      0.185  0.6809E+02  0.7316E+02
      0.228  0.7183E+02  0.7623E+02
      0.270  0.7558E+02  0.7947E+02
      0.313  0.7901E+02  0.8285E+02
      0.356  0.8186E+02  0.8635E+02
      0.399  0.8403E+02  0.8995E+02
      0.442  0.8558E+02  0.9361E+02
      0.485  0.8663E+02  0.9732E+02
      0.527  0.8722E+02  0.1011E+03
      0.570  0.8732E+02  0.1048E+03
      0.613  0.8695E+02  0.1085E+03
      0.656  0.8617E+02  0.1122E+03
      0.699  0.8504E+02  0.1158E+03
      0.741  0.8357E+02  0.1194E+03
      0.784  0.8173E+02  0.1229E+03
      0.827  0.7968E+02  0.1263E+03
      0.870  0.7774E+02  0.1297E+03
      0.913  0.7632E+02  0.1329E+03
      0.955  0.7567E+02  0.1362E+03
      0.998  0.7572E+02  0.1394E+03
      1.041  0.7608E+02  0.1427E+03
      1.084  0.7631E+02  0.1459E+03
      1.127  0.7614E+02  0.1492E+03
      1.169  0.7554E+02  0.1524E+03
      1.212  0.7470E+02  0.1556E+03
      1.255  0.7385E+02  0.1588E+03
      1.298  0.7313E+02  0.1619E+03
      1.341  0.7247E+02  0.1650E+03
      1.383  0.7167E+02  0.1681E+03
      1.426  0.7053E+02  0.1711E+03
      1.469  0.6898E+02  0.1741E+03
      1.512  0.6730E+02  0.1769E+03
      1.555  0.6605E+02  0.1798E+03
      1.598  0.6582E+02  0.1826E+03
      1.640  0.6690E+02  0.1854E+03
      1.683  0.6916E+02  0.1884E+03
      1.726  0.7214E+02  0.1915E+03
      1.769  0.7534E+02  0.1947E+03
      1.812  0.7844E+02  0.1981E+03
      1.854  0.8131E+02  0.2016E+03
      1.897  0.8389E+02  0.2052E+03
      1.940  0.8618E+02  0.2088E+03
      1.983  0.8820E+02  0.2126E+03
      2.026  0.9003E+02  0.2165E+03
      2.068  0.9169E+02  0.2204E+03
      2.111  0.9313E+02  0.2244E+03
      2.154  0.9429E+02  0.2284E+03
      2.197  0.9533E+02  0.2325E+03
      2.240  0.9659E+02  0.2366E+03
      2.282  0.9850E+02  0.2409E+03
      2.325  0.1014E+03  0.2452E+03
      2.368  0.1052E+03  0.2497E+03
      2.411  0.1097E+03  0.2544E+03
      2.454  0.1141E+03  0.2593E+03
      2.496  0.1180E+03  0.2643E+03
      2.539  0.1211E+03  0.2695E+03
      2.582  0.1235E+03  0.2748E+03
      2.625  0.1256E+03  0.2802E+03
      2.668  0.1275E+03  0.2856E+03
      2.711  0.1295E+03  0.2912E+03
      2.753  0.1316E+03  0.2968E+03
      2.796  0.1341E+03  0.3025E+03
      2.839  0.1369E+03  0.3084E+03
      2.882  0.1397E+03  0.3144E+03
      2.925  0.1417E+03  0.3205E+03
      2.967  0.1419E+03  0.3265E+03
      3.010  0.1394E+03  0.3325E+03
      3.053  0.1341E+03  0.3382E+03
      3.096  0.1264E+03  0.3437E+03
      3.139  0.1175E+03  0.3487E+03
      3.181  0.1086E+03  0.3533E+03
      3.224  0.1007E+03  0.3576E+03
      3.267  0.9449E+02  0.3617E+03
      3.310  0.9013E+02  0.3655E+03
      3.353  0.8732E+02  0.3693E+03
      3.395  0.8568E+02  0.3730E+03
      3.438  0.8477E+02  0.3766E+03
      3.481  0.8423E+02  0.3802E+03
      3.524  0.8370E+02  0.3838E+03
      3.567  0.8306E+02  0.3873E+03
      3.610  0.8249E+02  0.3909E+03
      3.652  0.8250E+02  0.3944E+03
      3.695  0.8364E+02  0.3980E+03
      3.738  0.8622E+02  0.4017E+03
      3.781  0.9006E+02  0.4055E+03
      3.824  0.9457E+02  0.4096E+03
      3.866  0.9905E+02  0.4138E+03
      3.909  0.1029E+03  0.4182E+03
      3.952  0.1060E+03  0.4227E+03
      3.995  0.1080E+03  0.4274E+03
      4.038  0.1090E+03  0.4320E+03
      4.080  0.1091E+03  0.4367E+03
      4.123  0.1084E+03  0.4413E+03
      4.166  0.1073E+03  0.4459E+03
      4.209  0.1061E+03  0.4505E+03
      4.252  0.1048E+03  0.4550E+03
      4.294  0.1035E+03  0.4594E+03
      4.337  0.1024E+03  0.4638E+03
      4.380  0.1017E+03  0.4681E+03
      4.423  0.1013E+03  0.4725E+03
      4.466  0.1010E+03  0.4768E+03
      4.508  0.1004E+03  0.4811E+03
      4.551  0.9933E+02  0.4853E+03
      4.594  0.9812E+02  0.4895E+03
      4.637  0.9723E+02  0.4937E+03
      4.680  0.9717E+02  0.4979E+03
      4.723  0.9817E+02  0.5021E+03
      4.765  0.1001E+03  0.5064E+03
      4.808  0.1027E+03  0.5107E+03
      4.851  0.1053E+03  0.5153E+03
      4.894  0.1076E+03  0.5199E+03
      4.937  0.1091E+03  0.5245E+03
      4.979  0.1094E+03  0.5292E+03
      5.022  0.1078E+03  0.5338E+03
      5.065  0.1036E+03  0.5383E+03
      5.108  0.9567E+02  0.5424E+03
      5.151  0.8365E+02  0.5459E+03
      5.193  0.6820E+02  0.5489E+03
      5.236  0.5115E+02  0.5510E+03
      5.279  0.3491E+02  0.5525E+03
      5.322  0.2150E+02  0.5535E+03
      5.365  0.1189E+02  0.5540E+03
      5.407  0.5873E+01  0.5542E+03
      5.450  0.2587E+01  0.5543E+03
      5.493  0.1015E+01  0.5544E+03
      5.536  0.3544E+00  0.5544E+03
      5.579  0.1101E+00  0.5544E+03
      5.621  0.3045E-01  0.5544E+03
      5.664  0.7479E-02  0.5544E+03
      5.707  0.1629E-02  0.5544E+03
      5.750  0.3134E-03  0.5544E+03
      5.793  0.5306E-04  0.5544E+03
      5.836  0.7867E-05  0.5544E+03
      5.878  0.1017E-05  0.5544E+03
      5.921  0.1140E-06  0.5544E+03
      5.964  0.1106E-07  0.5544E+03
      6.007  0.9240E-09  0.5544E+03
      6.050  0.6636E-10  0.5544E+03
      6.092  0.4086E-11  0.5544E+03
      6.135  0.2146E-12  0.5544E+03
      6.178  0.9531E-14  0.5544E+03
      6.221  0.3242E-15  0.5544E+03
      6.264  0.0000E+00  0.5544E+03
      6.306  0.0000E+00  0.5544E+03
      6.349  0.0000E+00  0.5544E+03
      6.392  0.0000E+00  0.5544E+03
      6.435  0.0000E+00  0.5544E+03
      6.478  0.0000E+00  0.5544E+03
      6.520  0.0000E+00  0.5544E+03
      6.563  0.0000E+00  0.5544E+03
      6.606  0.0000E+00  0.5544E+03
      6.649  0.0000E+00  0.5544E+03
      6.692  0.0000E+00  0.5544E+03
      6.734  0.0000E+00  0.5544E+03
      6.777  0.0000E+00  0.5544E+03
      6.820  0.0000E+00  0.5544E+03
