<?xml version="1.0" encoding="ISO-8859-1"?>
<modeling>
 <generator>
  <i name="program" type="string">vasp </i>
  <i name="version" type="string">5.4.4.18Apr17-6-g9f103f2a35  </i>
  <i name="subversion" type="string">(build Sep 27 2018 12:46:37) complex + VL-xray_ parallel </i>
  <i name="platform" type="string">LLNL_Quartz_ifc </i>
  <i name="date" type="string">2021 09 26 </i>
  <i name="time" type="string">17:55:17 </i>
 </generator>
 <incar>
  <i type="int" name="ISTART">     2</i>
  <i type="string" name="PREC">accurate</i>
  <i type="string" name="ALGO"> Fast</i>
  <i type="int" name="ICHARG">     2</i>
  <i type="int" name="INIWAV">     1</i>
  <i type="int" name="NELM">   200</i>
  <i type="int" name="NELMIN">     4</i>
  <i type="int" name="IBRION">     2</i>
  <i name="EDIFF">      0.00000100</i>
  <i type="int" name="NSW">     5</i>
  <i type="int" name="ISIF">     2</i>
  <i type="int" name="ISYM">     2</i>
  <i name="ENCUT">    450.00000000</i>
  <i name="POTIM">      0.25000000</i>
  <i type="string" name="LREAL"> Auto</i>
  <i type="int" name="ISMEAR">     0</i>
  <i name="SIGMA">      0.15000000</i>
  <i type="logical" name="LWAVE"> F  </i>
  <i type="logical" name="LCHARG"> F  </i>
  <i type="int" name="ICORELEVEL">     0</i>
  <i type="int" name="CLNT">     1</i>
  <i type="int" name="CLN">     1</i>
  <i type="int" name="INCAR     ">     0</i>
  <i name="CLZ">      0.00000000</i>
  <v type="int" name="KPOINT_BSE">    -1     0     0     0</v>
  <i type="int" name="NELM">   200</i>
 </incar>
 <structure name="primitive_cell" >
  <crystal>
   <varray name="basis" >
    <v>       9.72667804       0.00000000       0.00000000 </v>
    <v>       0.00000000       8.42355028       0.00000000 </v>
    <v>       0.00000000       0.00000000      45.00000000 </v>
   </varray>
   <i name="volume">   3686.99226691 </i>
   <varray name="rec_basis" >
    <v>       0.10281002       0.00000000       0.00000000 </v>
    <v>       0.00000000       0.11871479       0.00000000 </v>
    <v>       0.00000000       0.00000000       0.02222222 </v>
   </varray>
  </crystal>
  <varray name="positions" >
   <v>       0.05340511      -0.29812986       0.21142553 </v>
   <v>      -0.06008083      -0.21180489       0.25545889 </v>
   <v>      -0.05868395      -0.38771812       0.16661975 </v>
   <v>       0.06579896      -0.46226732       0.25543844 </v>
   <v>      -0.07112005      -0.04895217       0.21132120 </v>
   <v>       0.17873330      -0.04870911       0.21126762 </v>
   <v>       0.30340982      -0.29808196       0.21148132 </v>
   <v>       0.06626391      -0.13750108       0.16659149 </v>
   <v>      -0.19669173      -0.29816131       0.21146916 </v>
   <v>       0.17850600       0.45109564       0.21132155 </v>
   <v>      -0.07146279       0.45093978       0.21132772 </v>
   <v>       0.18992037      -0.21177181       0.25546925 </v>
   <v>       0.19142211      -0.38807100       0.16670774 </v>
   <v>      -0.18419679      -0.46242615       0.25544233 </v>
   <v>      -0.18258228      -0.13802801       0.16586807 </v>
   <v>       0.06567882       0.03750194       0.25545443 </v>
   <v>       0.06648631       0.36246582       0.16652403 </v>
   <v>       0.31533640      -0.46211256       0.25546562 </v>
   <v>       0.31643781      -0.13748016       0.16672252 </v>
   <v>      -0.30999102      -0.21173070       0.25545356 </v>
   <v>      -0.30815343      -0.38704921       0.16659309 </v>
   <v>      -0.05879842       0.11182670       0.16668755 </v>
   <v>      -0.18410809       0.03746074       0.25538281 </v>
   <v>      -0.06848036      -0.22149775       0.12408970 </v>
   <v>      -0.06009499       0.28827066       0.25547067 </v>
   <v>       0.18219239      -0.22101387       0.12429035 </v>
   <v>       0.06085589      -0.46885669       0.12425411 </v>
   <v>      -0.18360526       0.36210293       0.16651631 </v>
   <v>       0.17783756      -0.37625561       0.29967438 </v>
   <v>       0.42810703      -0.04860647       0.21144298 </v>
   <v>      -0.07222590      -0.37612497       0.29971649 </v>
   <v>      -0.32163957      -0.04861591       0.21154769 </v>
   <v>       0.05343359       0.20181940       0.21141246 </v>
   <v>      -0.32148655       0.45084449       0.21133546 </v>
   <v>       0.42855597       0.45104020       0.21130258 </v>
   <v>       0.19145778       0.11252854       0.16685547 </v>
   <v>       0.18996120       0.28829618       0.25547748 </v>
   <v>       0.05265201      -0.12618368       0.29982794 </v>
   <v>       0.31562943       0.03755651       0.25548926 </v>
   <v>       0.44014151      -0.21184872       0.25545536 </v>
   <v>       0.31625959       0.36253000       0.16672449 </v>
   <v>       0.44203753      -0.38733603       0.16675838 </v>
   <v>      -0.18959720      -0.46792426       0.12427888 </v>
   <v>       0.06040424       0.03190442       0.12414539 </v>
   <v>       0.05265035       0.37384950       0.29979233 </v>
   <v>      -0.19653758       0.20158324       0.21139796 </v>
   <v>      -0.44637729      -0.29810587       0.21150387 </v>
   <v>       0.30336702       0.20186689       0.21142876 </v>
   <v>       0.30943538      -0.46919562       0.12424067 </v>
   <v>       0.30266667      -0.12607944       0.29975952 </v>
   <v>      -0.19728496      -0.12605067       0.29986219 </v>
   <v>      -0.43422433      -0.46240593       0.25547832 </v>
   <v>      -0.30880818       0.11158608       0.16658005 </v>
   <v>      -0.43405446      -0.13828298       0.16586479 </v>
   <v>      -0.31006650       0.28818762       0.25546998 </v>
   <v>      -0.18904195       0.03188097       0.12431331 </v>
   <v>      -0.31859283      -0.22219983       0.12407483 </v>
   <v>       0.30266561       0.37392561       0.29974397 </v>
   <v>       0.31013281       0.03192604       0.12427140 </v>
   <v>       0.43176508      -0.22187955       0.12420785 </v>
   <v>      -0.19723491       0.37386530       0.29972310 </v>
   <v>       0.42777519      -0.37608815       0.29972116 </v>
   <v>      -0.06612121       0.27870373       0.12407466 </v>
   <v>      -0.32225030      -0.37603400       0.29974885 </v>
   <v>       0.18168250       0.27756676       0.12405171 </v>
   <v>       0.17776096       0.12382972       0.29969640 </v>
   <v>      -0.07229000       0.12407542       0.29974800 </v>
   <v>       0.44006441       0.28816400       0.25549135 </v>
   <v>       0.44145314       0.11230505       0.16684139 </v>
   <v>      -0.43438690       0.03742672       0.25543762 </v>
   <v>      -0.43382642       0.36215407       0.16664805 </v>
   <v>       0.06536541      -0.29058684       0.34418925 </v>
   <v>      -0.44066132      -0.46797980       0.12424142 </v>
   <v>      -0.18468736      -0.29054132       0.34416974 </v>
   <v>      -0.05970331       0.45932151       0.34418365 </v>
   <v>      -0.31814206       0.27862820       0.12417380 </v>
   <v>      -0.44649024       0.20168964       0.21144492 </v>
   <v>      -0.44730486      -0.12608985       0.29987993 </v>
   <v>      -0.05964780      -0.04066637       0.34417289 </v>
   <v>       0.43060515       0.27800739       0.12417522 </v>
   <v>       0.19029450       0.45935179       0.34419949 </v>
   <v>       0.42780728       0.12414212       0.29979402 </v>
   <v>      -0.32209729       0.12425669       0.29980707 </v>
   <v>       0.19029552      -0.04068816       0.34416717 </v>
   <v>       0.31530672      -0.29058472       0.34418643 </v>
   <v>      -0.43993653       0.03196719       0.12441262 </v>
   <v>      -0.44725790       0.37393542       0.29972380 </v>
   <v>      -0.30964796       0.45931484       0.34419493 </v>
   <v>      -0.30969420      -0.04066298       0.34418531 </v>
   <v>       0.06528976       0.20936811       0.34417231 </v>
   <v>       0.44029963       0.45930814       0.34418340 </v>
   <v>       0.44032124      -0.04064446       0.34418360 </v>
   <v>      -0.43468472      -0.29061185       0.34418053 </v>
   <v>      -0.18475031       0.20935622       0.34420127 </v>
   <v>       0.31540423       0.20952123       0.34413050 </v>
   <v>       0.06211262      -0.45820396       0.38852222 </v>
   <v>      -0.06291753      -0.20824419       0.38853168 </v>
   <v>       0.18701126      -0.20819787       0.38851751 </v>
   <v>      -0.18791320      -0.45820531       0.38854292 </v>
   <v>       0.31210026      -0.45816994       0.38854331 </v>
   <v>       0.06216336       0.04182963       0.38858011 </v>
   <v>      -0.43462475       0.20947232       0.34414745 </v>
   <v>      -0.06280765       0.29178972       0.38856215 </v>
   <v>      -0.31295364      -0.20821605       0.38852268 </v>
   <v>       0.18711570       0.29183161       0.38856618 </v>
   <v>      -0.18773089       0.04182667       0.38863092 </v>
   <v>       0.43715394      -0.20815333       0.38856499 </v>
   <v>       0.31216539       0.04185518       0.38856303 </v>
   <v>      -0.31289466       0.29184254       0.38856227 </v>
   <v>      -0.43796162      -0.45818474       0.38853179 </v>
   <v>       0.43722346       0.29184289       0.38859145 </v>
   <v>      -0.43780848       0.04183469       0.38859170 </v>
   <v>      -0.06660559      -0.37495490       0.43310143 </v>
   <v>       0.18345651      -0.37496231       0.43310862 </v>
   <v>       0.05844959      -0.12502115       0.43310843 </v>
   <v>       0.05844557       0.37499031       0.43309424 </v>
   <v>      -0.19158919      -0.12502780       0.43312253 </v>
   <v>       0.30843428      -0.12504454       0.43310639 </v>
   <v>      -0.19166604       0.37502861       0.43312838 </v>
   <v>      -0.31657868      -0.37497031       0.43310845 </v>
   <v>       0.30841723       0.37499703       0.43310992 </v>
   <v>      -0.06657131       0.12496775       0.43310581 </v>
   <v>       0.43342240      -0.37500910       0.43310483 </v>
   <v>       0.18340244       0.12501241       0.43311657 </v>
   <v>      -0.44160186      -0.12500379       0.43308251 </v>
   <v>      -0.31658436       0.12505209       0.43308977 </v>
   <v>       0.43340781       0.12500950       0.43309123 </v>
   <v>      -0.44159389       0.37498871       0.43311910 </v>
   <v>       0.06784513      -0.28933846       0.47745926 </v>
   <v>      -0.18205773      -0.28926690       0.47744915 </v>
   <v>      -0.05721834       0.46074067       0.47745021 </v>
   <v>      -0.05720788      -0.03923503       0.47745549 </v>
   <v>       0.19284269       0.46076813       0.47746604 </v>
   <v>       0.31789704      -0.28930261       0.47743689 </v>
   <v>       0.19298663      -0.03920421       0.47746589 </v>
   <v>      -0.30707401       0.46072032       0.47744623 </v>
   <v>      -0.30709703      -0.03940300       0.47746383 </v>
   <v>       0.06792404       0.21074275       0.47747011 </v>
   <v>       0.44282185       0.46073733       0.47746790 </v>
   <v>       0.44303318      -0.03929117       0.47745870 </v>
   <v>      -0.43208468      -0.28942699       0.47750153 </v>
   <v>      -0.18196775       0.21081568       0.47746428 </v>
   <v>       0.31798449       0.21078361       0.47746137 </v>
   <v>      -0.43220975       0.21078940       0.47745833 </v>
   <v>       0.05740289      -0.46177680      -0.47767029 </v>
   <v>      -0.06760086      -0.21175461      -0.47765138 </v>
   <v>       0.18238885      -0.21177302      -0.47764448 </v>
   <v>      -0.19272799      -0.46179802      -0.47765126 </v>
   <v>       0.05740266       0.03821641      -0.47767311 </v>
   <v>       0.30738219      -0.46175296      -0.47765216 </v>
   <v>      -0.31750565      -0.21147482      -0.47777004 </v>
   <v>      -0.06762545       0.28831250      -0.47767289 </v>
   <v>       0.18240451       0.28822110      -0.47767796 </v>
   <v>      -0.19245026       0.03825942      -0.47769310 </v>
   <v>       0.43224107      -0.21169272      -0.47772900 </v>
   <v>       0.30720587       0.03827451      -0.47768066 </v>
   <v>      -0.31763049       0.28818825      -0.47767824 </v>
   <v>      -0.44272974      -0.46162188      -0.47767211 </v>
   <v>       0.43236438       0.28820220      -0.47769406 </v>
   <v>      -0.44259758       0.03827867      -0.47763656 </v>
   <v>       0.06759629      -0.27690791      -0.12389112 </v>
   <v>      -0.18241694      -0.27629033      -0.12387856 </v>
   <v>      -0.06048197       0.46749595      -0.12403026 </v>
   <v>       0.18945085       0.46746216      -0.12408776 </v>
   <v>      -0.06060050      -0.03238077      -0.12407249 </v>
   <v>       0.31851100      -0.27631930      -0.12386564 </v>
   <v>       0.18937303      -0.03234653      -0.12399995 </v>
   <v>       0.06796788       0.22264049      -0.12387733 </v>
   <v>      -0.31062190       0.46763073      -0.12410929 </v>
   <v>      -0.31042707      -0.03155928      -0.12406729 </v>
   <v>       0.43966906       0.46756983      -0.12412225 </v>
   <v>       0.43963852      -0.03241327      -0.12395678 </v>
   <v>      -0.18238159       0.22335800      -0.12389454 </v>
   <v>      -0.43233101      -0.27584694      -0.12393001 </v>
   <v>       0.31828605       0.22367797      -0.12392611 </v>
   <v>      -0.05835134      -0.37492443      -0.43312634 </v>
   <v>       0.06676773      -0.12513777      -0.43323406 </v>
   <v>       0.19172846      -0.37496681      -0.43320467 </v>
   <v>      -0.18296996      -0.12530412      -0.43328239 </v>
   <v>       0.06669123       0.37461656      -0.43317073 </v>
   <v>       0.31675620      -0.12531897      -0.43322861 </v>
   <v>      -0.43221636       0.22384891      -0.12388881 </v>
   <v>      -0.30829296      -0.37503369      -0.43324424 </v>
   <v>      -0.18330773       0.37476205      -0.43319384 </v>
   <v>      -0.05828091       0.12500328      -0.43311741 </v>
   <v>       0.31667751       0.37480560      -0.43320720 </v>
   <v>       0.44201471      -0.37503900      -0.43326164 </v>
   <v>       0.19159873       0.12499749      -0.43311347 </v>
   <v>      -0.43333140      -0.12502037      -0.43316710 </v>
   <v>      -0.30812292       0.12513141      -0.43329802 </v>
   <v>       0.44174082       0.12494494      -0.43322462 </v>
   <v>      -0.43335125       0.37492411      -0.43311307 </v>
   <v>      -0.06638091      -0.36237100      -0.16644762 </v>
   <v>       0.18326338      -0.36250246      -0.16649287 </v>
   <v>       0.05858634      -0.11245293      -0.16661250 </v>
   <v>       0.05857165       0.38792996      -0.16652015 </v>
   <v>      -0.19145128      -0.11231265      -0.16647413 </v>
   <v>       0.30860899      -0.11236417      -0.16650209 </v>
   <v>      -0.19157884       0.38788523      -0.16651823 </v>
   <v>       0.30851023       0.38764301      -0.16649425 </v>
   <v>      -0.31637640      -0.36226515      -0.16651168 </v>
   <v>       0.43357923      -0.36217425      -0.16649051 </v>
   <v>      -0.06633850       0.13756871      -0.16648954 </v>
   <v>       0.18362218       0.13762142      -0.16648115 </v>
   <v>      -0.44147269      -0.11259840      -0.16650781 </v>
   <v>      -0.31657791       0.13750389      -0.16648953 </v>
   <v>       0.43365794       0.13786092      -0.16651940 </v>
   <v>      -0.44139094       0.38776946      -0.16676104 </v>
   <v>       0.06284777      -0.29215502      -0.38873376 </v>
   <v>      -0.18686851      -0.29229400      -0.38876764 </v>
   <v>      -0.06227887       0.45822186      -0.38863487 </v>
   <v>      -0.06234514      -0.04201625      -0.38869288 </v>
   <v>       0.18785297       0.45833563      -0.38861041 </v>
   <v>       0.18783417      -0.04198773      -0.38868904 </v>
   <v>       0.31249337      -0.29198121      -0.38862505 </v>
   <v>      -0.31241969       0.45812682      -0.38876763 </v>
   <v>       0.06259582       0.20812175      -0.38871708 </v>
   <v>      -0.31250230      -0.04187071      -0.38864398 </v>
   <v>       0.43813382       0.45754901      -0.38879718 </v>
   <v>       0.43793597      -0.04208362      -0.38872075 </v>
   <v>      -0.18732254       0.20790285      -0.38865579 </v>
   <v>      -0.43732115      -0.29195094      -0.38864446 </v>
   <v>       0.31277772       0.20816555      -0.38863595 </v>
   <v>      -0.05404395      -0.20105174      -0.21124183 </v>
   <v>       0.07202526      -0.45078759      -0.21141923 </v>
   <v>      -0.43727934       0.20695765      -0.38877493 </v>
   <v>       0.19565051      -0.20096761      -0.21127187 </v>
   <v>      -0.17871700      -0.45114878      -0.21120701 </v>
   <v>       0.32027742      -0.45052270      -0.21128758 </v>
   <v>       0.07120486       0.04884722      -0.21119459 </v>
   <v>      -0.05338254       0.29908570      -0.21136819 </v>
   <v>      -0.30470070      -0.20125667      -0.21129744 </v>
   <v>      -0.17918012       0.04908974      -0.21117714 </v>
   <v>       0.19615815       0.29804457      -0.21142211 </v>
   <v>       0.32056972       0.04931728      -0.21114110 </v>
   <v>       0.44513491      -0.20092380      -0.21123346 </v>
   <v>      -0.42980761      -0.45057754      -0.21111715 </v>
   <v>      -0.30360263       0.29887030      -0.21130882 </v>
   <v>       0.44492718       0.29900252      -0.21121645 </v>
   <v>      -0.42931160       0.04939385      -0.21123467 </v>
   <v>       0.05977831      -0.45933262      -0.34416885 </v>
   <v>      -0.06532282      -0.20938131      -0.34417292 </v>
   <v>       0.18467277      -0.20944307      -0.34418695 </v>
   <v>      -0.19021892      -0.45909857      -0.34426927 </v>
   <v>       0.30962527      -0.45920253      -0.34419009 </v>
   <v>       0.05960675       0.04052960      -0.34411764 </v>
   <v>      -0.06504553       0.29086205      -0.34427251 </v>
   <v>      -0.31524705      -0.20907884      -0.34428056 </v>
   <v>       0.18462954       0.29053728      -0.34420196 </v>
   <v>      -0.19015343       0.04085408      -0.34425396 </v>
   <v>       0.43432062      -0.20910820      -0.34433810 </v>
   <v>       0.30975164       0.04073255      -0.34423524 </v>
   <v>      -0.44009321      -0.45848035      -0.34431960 </v>
   <v>      -0.31525189       0.29076083      -0.34418645 </v>
   <v>       0.43476347       0.29070146      -0.34414474 </v>
   <v>      -0.44027639       0.04101267      -0.34426916 </v>
   <v>       0.06007205      -0.28797563      -0.25510570 </v>
   <v>      -0.06520391       0.46258453      -0.25521002 </v>
   <v>      -0.18899271      -0.28900442      -0.25541132 </v>
   <v>       0.18524061       0.46209082      -0.25536749 </v>
   <v>       0.31090379      -0.28800758      -0.25542678 </v>
   <v>      -0.06458466      -0.03781445      -0.25552829 </v>
   <v>       0.18550983      -0.03775719      -0.25567959 </v>
   <v>       0.06042740       0.21199293      -0.25517589 </v>
   <v>      -0.31597985       0.46261636      -0.25522961 </v>
   <v>      -0.31502537      -0.03718337      -0.25542145 </v>
   <v>       0.43580546       0.46269537      -0.25546922 </v>
   <v>       0.43496796      -0.03793857      -0.25543522 </v>
   <v>      -0.18988229       0.21253878      -0.25542802 </v>
   <v>       0.31110705       0.21114091      -0.25532759 </v>
   <v>      -0.43911088      -0.28805386      -0.25556111 </v>
   <v>      -0.43970724       0.21030545      -0.25552813 </v>
   <v>      -0.05364847      -0.37416560      -0.29966180 </v>
   <v>       0.19708059      -0.37395962      -0.29992972 </v>
   <v>       0.07238917      -0.12366856      -0.29984056 </v>
   <v>      -0.17818163      -0.12411297      -0.29980115 </v>
   <v>       0.07213021       0.37628303      -0.29962752 </v>
   <v>       0.32226831      -0.12379854      -0.29978072 </v>
   <v>      -0.17753906       0.37596115      -0.29994005 </v>
   <v>      -0.30310548      -0.37343958      -0.29958379 </v>
   <v>      -0.05325948       0.12668844      -0.29974311 </v>
   <v>       0.32185853       0.37608283      -0.29979683 </v>
   <v>       0.19707369       0.12633142      -0.29973142 </v>
   <v>       0.44732482      -0.37381494      -0.29980641 </v>
   <v>      -0.42641539      -0.12290901      -0.29959047 </v>
   <v>      -0.30270789       0.12683041      -0.29967591 </v>
   <v>       0.44727152       0.12613337      -0.29978812 </v>
   <v>      -0.42772751       0.37607754      -0.29982427 </v>
  </varray>
 </structure>
 <varray name="primitive_index" >
  <v type="int" >        1 </v>
  <v type="int" >      238 </v>
  <v type="int" >      193 </v>
  <v type="int" >      220 </v>
  <v type="int" >       71 </v>
  <v type="int" >      109 </v>
  <v type="int" >      192 </v>
  <v type="int" >      208 </v>
  <v type="int" >       81 </v>
  <v type="int" >       10 </v>
  <v type="int" >      242 </v>
  <v type="int" >       89 </v>
  <v type="int" >       35 </v>
  <v type="int" >      227 </v>
  <v type="int" >      285 </v>
  <v type="int" >      263 </v>
  <v type="int" >       55 </v>
  <v type="int" >      243 </v>
  <v type="int" >      191 </v>
  <v type="int" >      128 </v>
  <v type="int" >      117 </v>
  <v type="int" >      158 </v>
  <v type="int" >      222 </v>
  <v type="int" >      155 </v>
  <v type="int" >      252 </v>
  <v type="int" >      262 </v>
  <v type="int" >       22 </v>
  <v type="int" >      183 </v>
  <v type="int" >      162 </v>
  <v type="int" >       15 </v>
  <v type="int" >       38 </v>
  <v type="int" >      161 </v>
  <v type="int" >      160 </v>
  <v type="int" >      205 </v>
  <v type="int" >       28 </v>
  <v type="int" >      126 </v>
  <v type="int" >       45 </v>
  <v type="int" >      147 </v>
  <v type="int" >      278 </v>
  <v type="int" >      226 </v>
  <v type="int" >      138 </v>
  <v type="int" >      265 </v>
  <v type="int" >       14 </v>
  <v type="int" >       48 </v>
  <v type="int" >       26 </v>
  <v type="int" >       70 </v>
  <v type="int" >      251 </v>
  <v type="int" >       61 </v>
  <v type="int" >      197 </v>
  <v type="int" >      108 </v>
  <v type="int" >      277 </v>
  <v type="int" >       33 </v>
  <v type="int" >       90 </v>
  <v type="int" >      283 </v>
  <v type="int" >      203 </v>
  <v type="int" >       99 </v>
  <v type="int" >       25 </v>
  <v type="int" >       52 </v>
  <v type="int" >       23 </v>
  <v type="int" >       83 </v>
  <v type="int" >      104 </v>
  <v type="int" >      100 </v>
  <v type="int" >      133 </v>
  <v type="int" >      144 </v>
  <v type="int" >      189 </v>
  <v type="int" >      142 </v>
  <v type="int" >      145 </v>
  <v type="int" >        5 </v>
  <v type="int" >      143 </v>
  <v type="int" >      261 </v>
  <v type="int" >      122 </v>
  <v type="int" >      112 </v>
  <v type="int" >       43 </v>
  <v type="int" >      118 </v>
  <v type="int" >      190 </v>
  <v type="int" >      267 </v>
  <v type="int" >       63 </v>
  <v type="int" >      255 </v>
  <v type="int" >       92 </v>
  <v type="int" >      279 </v>
  <v type="int" >      120 </v>
  <v type="int" >      169 </v>
  <v type="int" >      170 </v>
  <v type="int" >      254 </v>
  <v type="int" >      257 </v>
  <v type="int" >      214 </v>
  <v type="int" >      124 </v>
  <v type="int" >       34 </v>
  <v type="int" >       24 </v>
  <v type="int" >      153 </v>
  <v type="int" >       95 </v>
  <v type="int" >      236 </v>
  <v type="int" >      123 </v>
  <v type="int" >      172 </v>
  <v type="int" >      258 </v>
  <v type="int" >      247 </v>
  <v type="int" >      198 </v>
  <v type="int" >      229 </v>
  <v type="int" >       86 </v>
  <v type="int" >       57 </v>
  <v type="int" >      246 </v>
  <v type="int" >       50 </v>
  <v type="int" >      273 </v>
  <v type="int" >      156 </v>
  <v type="int" >      105 </v>
  <v type="int" >       17 </v>
  <v type="int" >       79 </v>
  <v type="int" >      134 </v>
  <v type="int" >      232 </v>
  <v type="int" >      171 </v>
  <v type="int" >      248 </v>
  <v type="int" >      244 </v>
  <v type="int" >      137 </v>
  <v type="int" >      168 </v>
  <v type="int" >      211 </v>
  <v type="int" >      256 </v>
  <v type="int" >       46 </v>
  <v type="int" >      240 </v>
  <v type="int" >       29 </v>
  <v type="int" >       94 </v>
  <v type="int" >      215 </v>
  <v type="int" >       32 </v>
  <v type="int" >      281 </v>
  <v type="int" >      223 </v>
  <v type="int" >      239 </v>
  <v type="int" >      115 </v>
  <v type="int" >      184 </v>
  <v type="int" >      136 </v>
  <v type="int" >       62 </v>
  <v type="int" >      268 </v>
  <v type="int" >      166 </v>
  <v type="int" >      179 </v>
  <v type="int" >      132 </v>
  <v type="int" >      217 </v>
  <v type="int" >      176 </v>
  <v type="int" >      249 </v>
  <v type="int" >       91 </v>
  <v type="int" >      185 </v>
  <v type="int" >       19 </v>
  <v type="int" >      130 </v>
  <v type="int" >      207 </v>
  <v type="int" >      206 </v>
  <v type="int" >      175 </v>
  <v type="int" >       11 </v>
  <v type="int" >      178 </v>
  <v type="int" >      116 </v>
  <v type="int" >      107 </v>
  <v type="int" >      241 </v>
  <v type="int" >      218 </v>
  <v type="int" >      230 </v>
  <v type="int" >       18 </v>
  <v type="int" >      209 </v>
  <v type="int" >      225 </v>
  <v type="int" >       93 </v>
  <v type="int" >      187 </v>
  <v type="int" >      266 </v>
  <v type="int" >       87 </v>
  <v type="int" >      141 </v>
  <v type="int" >      111 </v>
  <v type="int" >      181 </v>
  <v type="int" >       58 </v>
  <v type="int" >      101 </v>
  <v type="int" >      151 </v>
  <v type="int" >      125 </v>
  <v type="int" >      274 </v>
  <v type="int" >        2 </v>
  <v type="int" >      154 </v>
  <v type="int" >      212 </v>
  <v type="int" >       27 </v>
  <v type="int" >      234 </v>
  <v type="int" >      173 </v>
  <v type="int" >       97 </v>
  <v type="int" >       41 </v>
  <v type="int" >      131 </v>
  <v type="int" >       39 </v>
  <v type="int" >       72 </v>
  <v type="int" >       12 </v>
  <v type="int" >      148 </v>
  <v type="int" >      276 </v>
  <v type="int" >      250 </v>
  <v type="int" >       40 </v>
  <v type="int" >       13 </v>
  <v type="int" >      264 </v>
  <v type="int" >      146 </v>
  <v type="int" >      259 </v>
  <v type="int" >      216 </v>
  <v type="int" >       21 </v>
  <v type="int" >      233 </v>
  <v type="int" >       98 </v>
  <v type="int" >      235 </v>
  <v type="int" >       68 </v>
  <v type="int" >       16 </v>
  <v type="int" >       59 </v>
  <v type="int" >       66 </v>
  <v type="int" >      177 </v>
  <v type="int" >        6 </v>
  <v type="int" >       75 </v>
  <v type="int" >        7 </v>
  <v type="int" >       73 </v>
  <v type="int" >      150 </v>
  <v type="int" >      271 </v>
  <v type="int" >      152 </v>
  <v type="int" >      129 </v>
  <v type="int" >      188 </v>
  <v type="int" >      174 </v>
  <v type="int" >      221 </v>
  <v type="int" >      269 </v>
  <v type="int" >      103 </v>
  <v type="int" >      180 </v>
  <v type="int" >       82 </v>
  <v type="int" >      245 </v>
  <v type="int" >      201 </v>
  <v type="int" >      194 </v>
  <v type="int" >       51 </v>
  <v type="int" >      280 </v>
  <v type="int" >      102 </v>
  <v type="int" >      228 </v>
  <v type="int" >        3 </v>
  <v type="int" >        4 </v>
  <v type="int" >      260 </v>
  <v type="int" >      167 </v>
  <v type="int" >       30 </v>
  <v type="int" >       77 </v>
  <v type="int" >      149 </v>
  <v type="int" >      284 </v>
  <v type="int" >      287 </v>
  <v type="int" >       36 </v>
  <v type="int" >      106 </v>
  <v type="int" >       60 </v>
  <v type="int" >       67 </v>
  <v type="int" >      199 </v>
  <v type="int" >       88 </v>
  <v type="int" >      253 </v>
  <v type="int" >       54 </v>
  <v type="int" >       85 </v>
  <v type="int" >      114 </v>
  <v type="int" >      121 </v>
  <v type="int" >      182 </v>
  <v type="int" >      127 </v>
  <v type="int" >       44 </v>
  <v type="int" >      196 </v>
  <v type="int" >      157 </v>
  <v type="int" >      113 </v>
  <v type="int" >       42 </v>
  <v type="int" >       49 </v>
  <v type="int" >      135 </v>
  <v type="int" >       69 </v>
  <v type="int" >      210 </v>
  <v type="int" >      200 </v>
  <v type="int" >      213 </v>
  <v type="int" >       53 </v>
  <v type="int" >      186 </v>
  <v type="int" >       31 </v>
  <v type="int" >       76 </v>
  <v type="int" >      159 </v>
  <v type="int" >      140 </v>
  <v type="int" >      204 </v>
  <v type="int" >      119 </v>
  <v type="int" >      202 </v>
  <v type="int" >      110 </v>
  <v type="int" >       84 </v>
  <v type="int" >      275 </v>
  <v type="int" >      237 </v>
  <v type="int" >        9 </v>
  <v type="int" >      282 </v>
  <v type="int" >       80 </v>
  <v type="int" >       78 </v>
  <v type="int" >       20 </v>
  <v type="int" >       96 </v>
  <v type="int" >       64 </v>
  <v type="int" >      272 </v>
  <v type="int" >      286 </v>
  <v type="int" >      164 </v>
  <v type="int" >       74 </v>
  <v type="int" >      195 </v>
  <v type="int" >      163 </v>
  <v type="int" >       65 </v>
  <v type="int" >      219 </v>
  <v type="int" >      231 </v>
  <v type="int" >       56 </v>
  <v type="int" >      139 </v>
  <v type="int" >      270 </v>
  <v type="int" >      165 </v>
  <v type="int" >        8 </v>
  <v type="int" >      288 </v>
  <v type="int" >      224 </v>
  <v type="int" >       37 </v>
  <v type="int" >       47 </v>
 </varray>
 <kpoints>
  <generation param="Gamma">
   <v type="int" name="divisions">       4        4        1 </v>
   <v name="usershift">      0.00000000       0.00000000       0.00000000 </v>
   <v name="genvec1">      0.25000000       0.00000000       0.00000000 </v>
   <v name="genvec2">      0.00000000       0.25000000       0.00000000 </v>
   <v name="genvec3">      0.00000000       0.00000000       1.00000000 </v>
   <v name="shift">      0.00000000       0.00000000       0.00000000 </v>
  </generation>
  <varray name="kpointlist" >
   <v>       0.00000000       0.00000000       0.00000000 </v>
   <v>       0.25000000       0.00000000       0.00000000 </v>
   <v>       0.50000000       0.00000000       0.00000000 </v>
   <v>       0.00000000       0.25000000       0.00000000 </v>
   <v>       0.25000000       0.25000000       0.00000000 </v>
   <v>       0.50000000       0.25000000       0.00000000 </v>
   <v>      -0.25000000       0.25000000       0.00000000 </v>
   <v>       0.00000000       0.50000000       0.00000000 </v>
   <v>       0.25000000       0.50000000       0.00000000 </v>
   <v>       0.50000000       0.50000000       0.00000000 </v>
  </varray>
  <varray name="weights" >
   <v>       0.06250000 </v>
   <v>       0.12500000 </v>
   <v>       0.06250000 </v>
   <v>       0.12500000 </v>
   <v>       0.12500000 </v>
   <v>       0.12500000 </v>
   <v>       0.12500000 </v>
   <v>       0.06250000 </v>
   <v>       0.12500000 </v>
   <v>       0.06250000 </v>
  </varray>
 </kpoints>
 <parameters>
  <separator name="general" >
   <i type="string" name="SYSTEM">unknown system</i>
   <i type="logical" name="LCOMPAT"> F  </i>
  </separator>
  <separator name="electronic" >
   <i type="string" name="PREC">accura</i>
   <i name="ENMAX">    450.00000000</i>
   <i name="ENAUG">    838.43500000</i>
   <i name="EDIFF">      0.00000100</i>
   <i type="int" name="IALGO">    68</i>
   <i type="int" name="IWAVPR">    11</i>
   <i type="int" name="NBANDS">  1386</i>
   <i name="NELECT">   2297.00000000</i>
   <i type="int" name="TURBO">     0</i>
   <i type="int" name="IRESTART">     0</i>
   <i type="int" name="NREBOOT">     0</i>
   <i type="int" name="NMIN">     0</i>
   <i name="EREF">      0.00000000</i>
   <separator name="electronic smearing" >
    <i type="int" name="ISMEAR">     0</i>
    <i name="SIGMA">      0.15000000</i>
    <i name="KSPACING">      0.50000000</i>
    <i type="logical" name="KGAMMA"> T  </i>
   </separator>
   <separator name="electronic projectors" >
    <i type="logical" name="LREAL"> T  </i>
    <v name="ROPT">     -0.00025000     -0.00025000</v>
    <i type="int" name="LMAXPAW">  -100</i>
    <i type="int" name="LMAXMIX">     2</i>
    <i type="logical" name="NLSPLINE"> F  </i>
   </separator>
   <separator name="electronic startup" >
    <i type="int" name="ISTART">     0</i>
    <i type="int" name="ICHARG">     2</i>
    <i type="int" name="INIWAV">     1</i>
   </separator>
   <separator name="electronic spin" >
    <i type="int" name="ISPIN">     1</i>
    <i type="logical" name="LNONCOLLINEAR"> F  </i>
    <v name="MAGMOM">      1.00000000      1.00000000      1.00000000      1.00000000      1.00000000      1.00000000      1.00000000      1.00000000      1.00000000      1.00000000      1.00000000      1.00000000      1.00000000      1.00000000      1.00000000      1.00000000      1.00000000      1.00000000      1.00000000      1.00000000
      1.00000000      1.00000000      1.00000000      1.00000000      1.00000000      1.00000000      1.00000000      1.00000000      1.00000000      1.00000000      1.00000000      1.00000000      1.00000000      1.00000000      1.00000000      1.00000000      1.00000000      1.00000000      1.00000000      1.00000000
      1.00000000      1.00000000      1.00000000      1.00000000      1.00000000      1.00000000      1.00000000      1.00000000      1.00000000      1.00000000      1.00000000      1.00000000      1.00000000      1.00000000      1.00000000      1.00000000      1.00000000      1.00000000      1.00000000      1.00000000
      1.00000000      1.00000000      1.00000000      1.00000000      1.00000000      1.00000000      1.00000000      1.00000000      1.00000000      1.00000000      1.00000000      1.00000000      1.00000000      1.00000000      1.00000000      1.00000000      1.00000000      1.00000000      1.00000000      1.00000000
      1.00000000      1.00000000      1.00000000      1.00000000      1.00000000      1.00000000      1.00000000      1.00000000      1.00000000      1.00000000      1.00000000      1.00000000      1.00000000      1.00000000      1.00000000      1.00000000      1.00000000      1.00000000      1.00000000      1.00000000
      1.00000000      1.00000000      1.00000000      1.00000000      1.00000000      1.00000000      1.00000000      1.00000000      1.00000000      1.00000000      1.00000000      1.00000000      1.00000000      1.00000000      1.00000000      1.00000000      1.00000000      1.00000000      1.00000000      1.00000000
      1.00000000      1.00000000      1.00000000      1.00000000      1.00000000      1.00000000      1.00000000      1.00000000      1.00000000      1.00000000      1.00000000      1.00000000      1.00000000      1.00000000      1.00000000      1.00000000      1.00000000      1.00000000      1.00000000      1.00000000
      1.00000000      1.00000000      1.00000000      1.00000000      1.00000000      1.00000000      1.00000000      1.00000000      1.00000000      1.00000000      1.00000000      1.00000000      1.00000000      1.00000000      1.00000000      1.00000000      1.00000000      1.00000000      1.00000000      1.00000000
      1.00000000      1.00000000      1.00000000      1.00000000      1.00000000      1.00000000      1.00000000      1.00000000      1.00000000      1.00000000      1.00000000      1.00000000      1.00000000      1.00000000      1.00000000      1.00000000      1.00000000      1.00000000      1.00000000      1.00000000
      1.00000000      1.00000000      1.00000000      1.00000000      1.00000000      1.00000000      1.00000000      1.00000000      1.00000000      1.00000000      1.00000000      1.00000000      1.00000000      1.00000000      1.00000000      1.00000000      1.00000000      1.00000000      1.00000000      1.00000000
      1.00000000      1.00000000      1.00000000      1.00000000      1.00000000      1.00000000      1.00000000      1.00000000      1.00000000      1.00000000      1.00000000      1.00000000      1.00000000      1.00000000      1.00000000      1.00000000      1.00000000      1.00000000      1.00000000      1.00000000
      1.00000000      1.00000000      1.00000000      1.00000000      1.00000000      1.00000000      1.00000000      1.00000000      1.00000000      1.00000000      1.00000000      1.00000000      1.00000000      1.00000000      1.00000000      1.00000000      1.00000000      1.00000000      1.00000000      1.00000000
      1.00000000      1.00000000      1.00000000      1.00000000      1.00000000      1.00000000      1.00000000      1.00000000      1.00000000      1.00000000      1.00000000      1.00000000      1.00000000      1.00000000      1.00000000      1.00000000      1.00000000      1.00000000      1.00000000      1.00000000
      1.00000000      1.00000000      1.00000000      1.00000000      1.00000000      1.00000000      1.00000000      1.00000000      1.00000000      1.00000000      1.00000000      1.00000000      1.00000000      1.00000000      1.00000000      1.00000000      1.00000000      1.00000000      1.00000000      1.00000000
      1.00000000      1.00000000      1.00000000      1.00000000      1.00000000      1.00000000      1.00000000      1.00000000</v>
    <i name="NUPDOWN">     -1.00000000</i>
    <i type="logical" name="LSORBIT"> F  </i>
    <v name="SAXIS">      0.00000000      0.00000000      1.00000000</v>
    <i type="logical" name="LSPIRAL"> F  </i>
    <v name="QSPIRAL">      0.00000000      0.00000000      0.00000000</v>
    <i type="logical" name="LZEROZ"> F  </i>
   </separator>
   <separator name="electronic exchange-correlation" >
    <i type="logical" name="LASPH"> F  </i>
    <i type="logical" name="LMETAGGA"> F  </i>
   </separator>
   <separator name="electronic convergence" >
    <i type="int" name="NELM">   200</i>
    <i type="int" name="NELMDL">     0</i>
    <i type="int" name="NELMIN">     4</i>
    <i name="ENINI">    450.00000000</i>
    <separator name="electronic convergence detail" >
     <i type="logical" name="LDIAG"> T  </i>
     <i type="logical" name="LSUBROT"> F  </i>
     <i name="WEIMIN">      0.00100000</i>
     <i name="EBREAK">      0.00000000</i>
     <i name="DEPER">      0.30000000</i>
     <i type="int" name="NRMM">     4</i>
     <i name="TIME">      0.40000000</i>
    </separator>
   </separator>
   <separator name="electronic mixer" >
    <i name="AMIX">      0.40000000</i>
    <i name="BMIX">      1.00000000</i>
    <i name="AMIN">      0.10000000</i>
    <i name="AMIX_MAG">      1.60000000</i>
    <i name="BMIX_MAG">      1.00000000</i>
    <separator name="electronic mixer details" >
     <i type="int" name="IMIX">     4</i>
     <i type="logical" name="MIXFIRST"> F  </i>
     <i type="int" name="MAXMIX">   -45</i>
     <i name="WC">    100.00000000</i>
     <i type="int" name="INIMIX">     1</i>
     <i type="int" name="MIXPRE">     1</i>
     <i type="int" name="MREMOVE">     5</i>
    </separator>
   </separator>
   <separator name="electronic dipolcorrection" >
    <i type="logical" name="LDIPOL"> F  </i>
    <i type="logical" name="LMONO"> F  </i>
    <i type="int" name="IDIPOL">     0</i>
    <i name="EPSILON">      1.00000000</i>
    <v name="DIPOL">   -100.00000000   -100.00000000   -100.00000000</v>
    <i name="EFIELD">      0.00000000</i>
   </separator>
  </separator>
  <separator name="grids" >
   <i type="int" name="NGX">    70</i>
   <i type="int" name="NGY">    60</i>
   <i type="int" name="NGZ">   320</i>
   <i type="int" name="NGXF">   140</i>
   <i type="int" name="NGYF">   120</i>
   <i type="int" name="NGZF">   640</i>
   <i type="logical" name="ADDGRID"> F  </i>
  </separator>
  <separator name="ionic" >
   <i type="int" name="NSW">     5</i>
   <i type="int" name="IBRION">     2</i>
   <i type="int" name="MDALGO">     0</i>
   <i type="int" name="ISIF">     2</i>
   <i name="PSTRESS">      0.00000000</i>
   <i name="EDIFFG">      0.00001000</i>
   <i type="int" name="NFREE">     1</i>
   <i name="POTIM">      0.25000000</i>
   <i name="SMASS">     -3.00000000</i>
   <i name="SCALEE">      1.00000000</i>
  </separator>
  <separator name="ionic md" >
   <i name="TEBEG">      0.00010000</i>
   <i name="TEEND">      0.00010000</i>
   <i type="int" name="NBLOCK">     1</i>
   <i type="int" name="KBLOCK">     5</i>
   <i type="int" name="NPACO">   256</i>
   <i name="APACO">     16.00000000</i>
  </separator>
  <separator name="symmetry" >
   <i type="int" name="ISYM">     2</i>
   <i name="SYMPREC">      0.00001000</i>
  </separator>
  <separator name="dos" >
   <i type="int" name="LORBIT">     0</i>
   <v name="RWIGS">     -1.00000000     -1.00000000</v>
   <i type="int" name="NEDOS">   301</i>
   <i name="EMIN">     10.00000000</i>
   <i name="EMAX">    -10.00000000</i>
   <i name="EFERMI">      0.00000000</i>
  </separator>
  <separator name="writing" >
   <i type="int" name="NWRITE">     2</i>
   <i type="logical" name="LWAVE"> F  </i>
   <i type="logical" name="LDOWNSAMPLE"> F  </i>
   <i type="logical" name="LCHARG"> F  </i>
   <i type="logical" name="LPARD"> F  </i>
   <i type="logical" name="LVTOT"> F  </i>
   <i type="logical" name="LVHAR"> F  </i>
   <i type="logical" name="LELF"> F  </i>
   <i type="logical" name="LOPTICS"> F  </i>
   <v name="STM">      0.00000000      0.00000000      0.00000000      0.00000000      0.00000000      0.00000000      0.00000000</v>
  </separator>
  <separator name="performance" >
   <i type="int" name="NPAR">    14</i>
   <i type="int" name="NSIM">     4</i>
   <i type="int" name="NBLK">    -1</i>
   <i type="logical" name="LPLANE"> T  </i>
   <i type="logical" name="LSCALAPACK"> T  </i>
   <i type="logical" name="LSCAAWARE"> T  </i>
   <i type="logical" name="LSCALU"> F  </i>
   <i type="logical" name="LASYNC"> F  </i>
   <i type="logical" name="LORBITALREAL"> F  </i>
  </separator>
  <separator name="miscellaneous" >
   <i type="int" name="IDIOT">     3</i>
   <i type="int" name="ISPECIAL">     0</i>
   <i type="logical" name="LMUSIC"> F  </i>
   <v name="POMASS">     55.84700000     54.93800000</v>
   <v name="DARWINR">      0.00000000      0.00000000</v>
   <v name="DARWINV">      1.00000000      1.00000000</v>
   <i type="logical" name="LCORR"> T  </i>
  </separator>
  <i type="logical" name="GGA_COMPAT"> T  </i>
  <i type="logical" name="LBERRY"> F  </i>
  <i type="int" name="ICORELEVEL">     0</i>
  <i type="logical" name="LDAU"> F  </i>
  <i type="int" name="I_CONSTRAINED_M">     0</i>
  <separator name="electronic exchange-correlation" >
   <i type="string" name="GGA">--</i>
   <i type="int" name="VOSKOWN">     0</i>
   <i type="logical" name="LHFCALC"> F  </i>
   <i type="string" name="PRECFOCK"></i>
   <i type="logical" name="LSYMGRAD"> F  </i>
   <i type="logical" name="LHFONE"> F  </i>
   <i type="logical" name="LRHFCALC"> F  </i>
   <i type="logical" name="LTHOMAS"> F  </i>
   <i type="logical" name="LMODELHF"> F  </i>
   <i name="ENCUT4O">     -1.00000000</i>
   <i type="int" name="EXXOEP">     0</i>
   <i type="int" name="FOURORBIT">     0</i>
   <i name="AEXX">      0.00000000</i>
   <i name="HFALPHA">      0.00000000</i>
   <i name="MCALPHA">      0.00000000</i>
   <i name="ALDAX">      1.00000000</i>
   <i name="AGGAX">      1.00000000</i>
   <i name="ALDAC">      1.00000000</i>
   <i name="AGGAC">      1.00000000</i>
   <i type="int" name="NKREDX">     1</i>
   <i type="int" name="NKREDY">     1</i>
   <i type="int" name="NKREDZ">     1</i>
   <i type="logical" name="SHIFTRED"> F  </i>
   <i type="logical" name="ODDONLY"> F  </i>
   <i type="logical" name="EVENONLY"> F  </i>
   <i type="int" name="LMAXFOCK">     0</i>
   <i type="int" name="NMAXFOCKAE">     0</i>
   <i type="logical" name="LFOCKAEDFT"> F  </i>
   <i name="HFSCREEN">      0.00000000</i>
   <i name="HFSCREENC">      0.00000000</i>
   <i type="int" name="NBANDSGWLOW">     0</i>
  </separator>
  <separator name="vdW DFT" >
   <i type="logical" name="LUSE_VDW"> F  </i>
   <i name="Zab_VDW">     -0.84910000</i>
   <i name="PARAM1">      0.12340000</i>
   <i name="PARAM2">      1.00000000</i>
   <i name="PARAM3">      0.00000000</i>
  </separator>
  <separator name="model GW" >
   <i type="int" name="MODEL_GW">     0</i>
   <i name="MODEL_EPS0">      7.68123389</i>
   <i name="MODEL_ALPHA">      1.00000000</i>
  </separator>
  <separator name="linear response parameters" >
   <i type="logical" name="LEPSILON"> F  </i>
   <i type="logical" name="LRPA"> F  </i>
   <i type="logical" name="LNABLA"> F  </i>
   <i type="logical" name="LVEL"> F  </i>
   <i type="int" name="KINTER">     0</i>
   <i name="CSHIFT">      0.10000000</i>
   <i name="OMEGAMAX">     -1.00000000</i>
   <i name="DEG_THRESHOLD">      0.00200000</i>
   <i name="RTIME">     -0.10000000</i>
   <i name="WPLASMAI">      0.00000000</i>
   <v name="DFIELD">      0.00000000      0.00000000      0.00000000</v>
   <v name="WPLASMA">      0.00000000      0.00000000      0.00000000      0.00000000      0.00000000      0.00000000      0.00000000      0.00000000      0.00000000</v>
  </separator>
  <separator name="orbital magnetization" >
   <i type="logical" name="NUCIND"> F  </i>
   <v name="MAGPOS">      0.00000000      0.00000000      0.00000000</v>
   <i type="logical" name="LNICSALL"> T  </i>
   <i type="logical" name="ORBITALMAG"> F  </i>
   <i type="logical" name="LMAGBLOCH"> F  </i>
   <i type="logical" name="LCHIMAG"> F  </i>
   <i type="logical" name="LGAUGE"> T  </i>
   <i type="int" name="MAGATOM">     0</i>
   <v name="MAGDIPOL">      0.00000000      0.00000000      0.00000000</v>
   <v name="AVECCONST">      0.00000000      0.00000000      0.00000000</v>
  </separator>
  <separator name="response functions" >
   <i type="logical" name="LADDER"> F  </i>
   <i type="logical" name="LRPAFORCE"> F  </i>
   <i type="logical" name="LFXC"> F  </i>
   <i type="logical" name="LHARTREE"> T  </i>
   <i type="int" name="IBSE">     0</i>
   <v type="int" name="KPOINT">    -1     0     0     0</v>
   <i type="logical" name="LTCTE"> F  </i>
   <i type="logical" name="LTETE"> F  </i>
   <i type="logical" name="LTRIPLET"> F  </i>
   <i type="logical" name="LFXCEPS"> F  </i>
   <i type="logical" name="LFXHEG"> F  </i>
   <i type="int" name="NATURALO">     2</i>
   <i type="logical" name="L2ORDER"> F  </i>
   <i type="logical" name="LMP2LT"> F  </i>
   <i type="logical" name="LUSEW"> F  </i>
   <i name="ENCUTGW">     -2.00000000</i>
   <i name="ENCUTGWSOFT">     -2.00000000</i>
   <i name="ENCUTLF">     -1.00000000</i>
   <i type="int" name="LMAXMP2">    -1</i>
   <i name="SCISSOR">      0.00000000</i>
   <i type="int" name="NOMEGA">     0</i>
   <i type="int" name="NOMEGAR">     0</i>
   <i type="int" name="NBANDSGW">    -1</i>
   <i type="int" name="NBANDSO">    -1</i>
   <i type="int" name="NBANDSV">    -1</i>
   <i type="int" name="NELM">   200</i>
   <i type="int" name="NELMHF">     1</i>
   <i type="int" name="DIM">     3</i>
   <i type="int" name="ANTIRES">     0</i>
   <i name="OMEGAMAX">    -30.00000000</i>
   <i name="OMEGAMIN">    -30.00000000</i>
   <i name="OMEGATL">   -200.00000000</i>
   <i type="int" name="OMEGAGRID">   140</i>
   <i name="CSHIFT">     -0.10000000</i>
   <i type="logical" name="SELFENERGY"> F  </i>
   <i type="logical" name="LSPECTRAL"> F  </i>
   <i type="logical" name="LSPECTRALGW"> F  </i>
   <i type="logical" name="LSINGLES"> F  </i>
   <i type="logical" name="LFERMIGW"> F  </i>
   <i type="logical" name="ODDONLYGW"> F  </i>
   <i type="logical" name="EVENONLYGW"> F  </i>
   <i type="int" name="NKREDLFX">     1</i>
   <i type="int" name="NKREDLFY">     1</i>
   <i type="int" name="NKREDLFZ">     1</i>
   <i type="int" name="MAXMEM">  2800</i>
   <i type="int" name="TELESCOPE">     0</i>
   <i type="int" name="TAUPAR">     1</i>
   <i type="int" name="OMEGAPAR">    -1</i>
   <i name="LAMBDA">      1.00000000</i>
  </separator>
  <separator name="External order field" >
   <i name="OFIELD_KAPPA">      0.00000000</i>
   <v name="OFIELD_K">      0.00000000      0.00000000      0.00000000</v>
   <i name="OFIELD_Q6_NEAR">      0.00000000</i>
   <i name="OFIELD_Q6_FAR">      0.00000000</i>
   <i name="OFIELD_A">      0.00000000</i>
  </separator>
 </parameters>
 <atominfo>
  <atoms>     288 </atoms>
  <types>       2 </types>
  <array name="atoms" >
   <dimension dim="1">ion</dimension>
   <field type="string">element</field>
   <field type="int">atomtype</field>
   <set>
    <rc><c>Fe</c><c>   1</c></rc>
    <rc><c>Fe</c><c>   1</c></rc>
    <rc><c>Fe</c><c>   1</c></rc>
    <rc><c>Fe</c><c>   1</c></rc>
    <rc><c>Fe</c><c>   1</c></rc>
    <rc><c>Fe</c><c>   1</c></rc>
    <rc><c>Fe</c><c>   1</c></rc>
    <rc><c>Fe</c><c>   1</c></rc>
    <rc><c>Fe</c><c>   1</c></rc>
    <rc><c>Fe</c><c>   1</c></rc>
    <rc><c>Fe</c><c>   1</c></rc>
    <rc><c>Fe</c><c>   1</c></rc>
    <rc><c>Fe</c><c>   1</c></rc>
    <rc><c>Fe</c><c>   1</c></rc>
    <rc><c>Fe</c><c>   1</c></rc>
    <rc><c>Fe</c><c>   1</c></rc>
    <rc><c>Fe</c><c>   1</c></rc>
    <rc><c>Fe</c><c>   1</c></rc>
    <rc><c>Fe</c><c>   1</c></rc>
    <rc><c>Fe</c><c>   1</c></rc>
    <rc><c>Fe</c><c>   1</c></rc>
    <rc><c>Fe</c><c>   1</c></rc>
    <rc><c>Fe</c><c>   1</c></rc>
    <rc><c>Fe</c><c>   1</c></rc>
    <rc><c>Fe</c><c>   1</c></rc>
    <rc><c>Fe</c><c>   1</c></rc>
    <rc><c>Fe</c><c>   1</c></rc>
    <rc><c>Fe</c><c>   1</c></rc>
    <rc><c>Fe</c><c>   1</c></rc>
    <rc><c>Fe</c><c>   1</c></rc>
    <rc><c>Fe</c><c>   1</c></rc>
    <rc><c>Fe</c><c>   1</c></rc>
    <rc><c>Fe</c><c>   1</c></rc>
    <rc><c>Fe</c><c>   1</c></rc>
    <rc><c>Fe</c><c>   1</c></rc>
    <rc><c>Fe</c><c>   1</c></rc>
    <rc><c>Fe</c><c>   1</c></rc>
    <rc><c>Fe</c><c>   1</c></rc>
    <rc><c>Fe</c><c>   1</c></rc>
    <rc><c>Fe</c><c>   1</c></rc>
    <rc><c>Fe</c><c>   1</c></rc>
    <rc><c>Fe</c><c>   1</c></rc>
    <rc><c>Fe</c><c>   1</c></rc>
    <rc><c>Fe</c><c>   1</c></rc>
    <rc><c>Fe</c><c>   1</c></rc>
    <rc><c>Fe</c><c>   1</c></rc>
    <rc><c>Fe</c><c>   1</c></rc>
    <rc><c>Fe</c><c>   1</c></rc>
    <rc><c>Fe</c><c>   1</c></rc>
    <rc><c>Fe</c><c>   1</c></rc>
    <rc><c>Fe</c><c>   1</c></rc>
    <rc><c>Fe</c><c>   1</c></rc>
    <rc><c>Fe</c><c>   1</c></rc>
    <rc><c>Fe</c><c>   1</c></rc>
    <rc><c>Fe</c><c>   1</c></rc>
    <rc><c>Fe</c><c>   1</c></rc>
    <rc><c>Fe</c><c>   1</c></rc>
    <rc><c>Fe</c><c>   1</c></rc>
    <rc><c>Fe</c><c>   1</c></rc>
    <rc><c>Fe</c><c>   1</c></rc>
    <rc><c>Fe</c><c>   1</c></rc>
    <rc><c>Fe</c><c>   1</c></rc>
    <rc><c>Fe</c><c>   1</c></rc>
    <rc><c>Fe</c><c>   1</c></rc>
    <rc><c>Fe</c><c>   1</c></rc>
    <rc><c>Fe</c><c>   1</c></rc>
    <rc><c>Fe</c><c>   1</c></rc>
    <rc><c>Fe</c><c>   1</c></rc>
    <rc><c>Fe</c><c>   1</c></rc>
    <rc><c>Fe</c><c>   1</c></rc>
    <rc><c>Fe</c><c>   1</c></rc>
    <rc><c>Fe</c><c>   1</c></rc>
    <rc><c>Fe</c><c>   1</c></rc>
    <rc><c>Fe</c><c>   1</c></rc>
    <rc><c>Fe</c><c>   1</c></rc>
    <rc><c>Fe</c><c>   1</c></rc>
    <rc><c>Fe</c><c>   1</c></rc>
    <rc><c>Fe</c><c>   1</c></rc>
    <rc><c>Fe</c><c>   1</c></rc>
    <rc><c>Fe</c><c>   1</c></rc>
    <rc><c>Fe</c><c>   1</c></rc>
    <rc><c>Fe</c><c>   1</c></rc>
    <rc><c>Fe</c><c>   1</c></rc>
    <rc><c>Fe</c><c>   1</c></rc>
    <rc><c>Fe</c><c>   1</c></rc>
    <rc><c>Fe</c><c>   1</c></rc>
    <rc><c>Fe</c><c>   1</c></rc>
    <rc><c>Fe</c><c>   1</c></rc>
    <rc><c>Fe</c><c>   1</c></rc>
    <rc><c>Fe</c><c>   1</c></rc>
    <rc><c>Fe</c><c>   1</c></rc>
    <rc><c>Fe</c><c>   1</c></rc>
    <rc><c>Fe</c><c>   1</c></rc>
    <rc><c>Fe</c><c>   1</c></rc>
    <rc><c>Fe</c><c>   1</c></rc>
    <rc><c>Fe</c><c>   1</c></rc>
    <rc><c>Fe</c><c>   1</c></rc>
    <rc><c>Fe</c><c>   1</c></rc>
    <rc><c>Fe</c><c>   1</c></rc>
    <rc><c>Fe</c><c>   1</c></rc>
    <rc><c>Fe</c><c>   1</c></rc>
    <rc><c>Fe</c><c>   1</c></rc>
    <rc><c>Fe</c><c>   1</c></rc>
    <rc><c>Fe</c><c>   1</c></rc>
    <rc><c>Fe</c><c>   1</c></rc>
    <rc><c>Fe</c><c>   1</c></rc>
    <rc><c>Fe</c><c>   1</c></rc>
    <rc><c>Fe</c><c>   1</c></rc>
    <rc><c>Fe</c><c>   1</c></rc>
    <rc><c>Fe</c><c>   1</c></rc>
    <rc><c>Fe</c><c>   1</c></rc>
    <rc><c>Fe</c><c>   1</c></rc>
    <rc><c>Fe</c><c>   1</c></rc>
    <rc><c>Fe</c><c>   1</c></rc>
    <rc><c>Fe</c><c>   1</c></rc>
    <rc><c>Fe</c><c>   1</c></rc>
    <rc><c>Fe</c><c>   1</c></rc>
    <rc><c>Fe</c><c>   1</c></rc>
    <rc><c>Fe</c><c>   1</c></rc>
    <rc><c>Fe</c><c>   1</c></rc>
    <rc><c>Fe</c><c>   1</c></rc>
    <rc><c>Fe</c><c>   1</c></rc>
    <rc><c>Fe</c><c>   1</c></rc>
    <rc><c>Fe</c><c>   1</c></rc>
    <rc><c>Fe</c><c>   1</c></rc>
    <rc><c>Fe</c><c>   1</c></rc>
    <rc><c>Fe</c><c>   1</c></rc>
    <rc><c>Fe</c><c>   1</c></rc>
    <rc><c>Fe</c><c>   1</c></rc>
    <rc><c>Fe</c><c>   1</c></rc>
    <rc><c>Fe</c><c>   1</c></rc>
    <rc><c>Fe</c><c>   1</c></rc>
    <rc><c>Fe</c><c>   1</c></rc>
    <rc><c>Fe</c><c>   1</c></rc>
    <rc><c>Fe</c><c>   1</c></rc>
    <rc><c>Fe</c><c>   1</c></rc>
    <rc><c>Fe</c><c>   1</c></rc>
    <rc><c>Fe</c><c>   1</c></rc>
    <rc><c>Fe</c><c>   1</c></rc>
    <rc><c>Fe</c><c>   1</c></rc>
    <rc><c>Fe</c><c>   1</c></rc>
    <rc><c>Fe</c><c>   1</c></rc>
    <rc><c>Fe</c><c>   1</c></rc>
    <rc><c>Fe</c><c>   1</c></rc>
    <rc><c>Fe</c><c>   1</c></rc>
    <rc><c>Fe</c><c>   1</c></rc>
    <rc><c>Fe</c><c>   1</c></rc>
    <rc><c>Fe</c><c>   1</c></rc>
    <rc><c>Fe</c><c>   1</c></rc>
    <rc><c>Fe</c><c>   1</c></rc>
    <rc><c>Fe</c><c>   1</c></rc>
    <rc><c>Fe</c><c>   1</c></rc>
    <rc><c>Fe</c><c>   1</c></rc>
    <rc><c>Fe</c><c>   1</c></rc>
    <rc><c>Fe</c><c>   1</c></rc>
    <rc><c>Fe</c><c>   1</c></rc>
    <rc><c>Fe</c><c>   1</c></rc>
    <rc><c>Fe</c><c>   1</c></rc>
    <rc><c>Fe</c><c>   1</c></rc>
    <rc><c>Fe</c><c>   1</c></rc>
    <rc><c>Fe</c><c>   1</c></rc>
    <rc><c>Fe</c><c>   1</c></rc>
    <rc><c>Fe</c><c>   1</c></rc>
    <rc><c>Fe</c><c>   1</c></rc>
    <rc><c>Fe</c><c>   1</c></rc>
    <rc><c>Fe</c><c>   1</c></rc>
    <rc><c>Fe</c><c>   1</c></rc>
    <rc><c>Fe</c><c>   1</c></rc>
    <rc><c>Fe</c><c>   1</c></rc>
    <rc><c>Fe</c><c>   1</c></rc>
    <rc><c>Fe</c><c>   1</c></rc>
    <rc><c>Fe</c><c>   1</c></rc>
    <rc><c>Fe</c><c>   1</c></rc>
    <rc><c>Fe</c><c>   1</c></rc>
    <rc><c>Fe</c><c>   1</c></rc>
    <rc><c>Fe</c><c>   1</c></rc>
    <rc><c>Fe</c><c>   1</c></rc>
    <rc><c>Fe</c><c>   1</c></rc>
    <rc><c>Fe</c><c>   1</c></rc>
    <rc><c>Fe</c><c>   1</c></rc>
    <rc><c>Fe</c><c>   1</c></rc>
    <rc><c>Fe</c><c>   1</c></rc>
    <rc><c>Fe</c><c>   1</c></rc>
    <rc><c>Fe</c><c>   1</c></rc>
    <rc><c>Fe</c><c>   1</c></rc>
    <rc><c>Fe</c><c>   1</c></rc>
    <rc><c>Fe</c><c>   1</c></rc>
    <rc><c>Fe</c><c>   1</c></rc>
    <rc><c>Fe</c><c>   1</c></rc>
    <rc><c>Fe</c><c>   1</c></rc>
    <rc><c>Fe</c><c>   1</c></rc>
    <rc><c>Fe</c><c>   1</c></rc>
    <rc><c>Fe</c><c>   1</c></rc>
    <rc><c>Fe</c><c>   1</c></rc>
    <rc><c>Fe</c><c>   1</c></rc>
    <rc><c>Fe</c><c>   1</c></rc>
    <rc><c>Fe</c><c>   1</c></rc>
    <rc><c>Fe</c><c>   1</c></rc>
    <rc><c>Fe</c><c>   1</c></rc>
    <rc><c>Fe</c><c>   1</c></rc>
    <rc><c>Fe</c><c>   1</c></rc>
    <rc><c>Fe</c><c>   1</c></rc>
    <rc><c>Fe</c><c>   1</c></rc>
    <rc><c>Fe</c><c>   1</c></rc>
    <rc><c>Fe</c><c>   1</c></rc>
    <rc><c>Fe</c><c>   1</c></rc>
    <rc><c>Fe</c><c>   1</c></rc>
    <rc><c>Fe</c><c>   1</c></rc>
    <rc><c>Fe</c><c>   1</c></rc>
    <rc><c>Fe</c><c>   1</c></rc>
    <rc><c>Fe</c><c>   1</c></rc>
    <rc><c>Fe</c><c>   1</c></rc>
    <rc><c>Fe</c><c>   1</c></rc>
    <rc><c>Fe</c><c>   1</c></rc>
    <rc><c>Fe</c><c>   1</c></rc>
    <rc><c>Fe</c><c>   1</c></rc>
    <rc><c>Fe</c><c>   1</c></rc>
    <rc><c>Fe</c><c>   1</c></rc>
    <rc><c>Fe</c><c>   1</c></rc>
    <rc><c>Fe</c><c>   1</c></rc>
    <rc><c>Fe</c><c>   1</c></rc>
    <rc><c>Fe</c><c>   1</c></rc>
    <rc><c>Fe</c><c>   1</c></rc>
    <rc><c>Fe</c><c>   1</c></rc>
    <rc><c>Fe</c><c>   1</c></rc>
    <rc><c>Fe</c><c>   1</c></rc>
    <rc><c>Fe</c><c>   1</c></rc>
    <rc><c>Fe</c><c>   1</c></rc>
    <rc><c>Fe</c><c>   1</c></rc>
    <rc><c>Fe</c><c>   1</c></rc>
    <rc><c>Fe</c><c>   1</c></rc>
    <rc><c>Fe</c><c>   1</c></rc>
    <rc><c>Fe</c><c>   1</c></rc>
    <rc><c>Fe</c><c>   1</c></rc>
    <rc><c>Fe</c><c>   1</c></rc>
    <rc><c>Fe</c><c>   1</c></rc>
    <rc><c>Fe</c><c>   1</c></rc>
    <rc><c>Fe</c><c>   1</c></rc>
    <rc><c>Fe</c><c>   1</c></rc>
    <rc><c>Fe</c><c>   1</c></rc>
    <rc><c>Fe</c><c>   1</c></rc>
    <rc><c>Fe</c><c>   1</c></rc>
    <rc><c>Fe</c><c>   1</c></rc>
    <rc><c>Fe</c><c>   1</c></rc>
    <rc><c>Fe</c><c>   1</c></rc>
    <rc><c>Fe</c><c>   1</c></rc>
    <rc><c>Fe</c><c>   1</c></rc>
    <rc><c>Fe</c><c>   1</c></rc>
    <rc><c>Fe</c><c>   1</c></rc>
    <rc><c>Fe</c><c>   1</c></rc>
    <rc><c>Fe</c><c>   1</c></rc>
    <rc><c>Fe</c><c>   1</c></rc>
    <rc><c>Fe</c><c>   1</c></rc>
    <rc><c>Fe</c><c>   1</c></rc>
    <rc><c>Fe</c><c>   1</c></rc>
    <rc><c>Fe</c><c>   1</c></rc>
    <rc><c>Fe</c><c>   1</c></rc>
    <rc><c>Fe</c><c>   1</c></rc>
    <rc><c>Fe</c><c>   1</c></rc>
    <rc><c>Fe</c><c>   1</c></rc>
    <rc><c>Fe</c><c>   1</c></rc>
    <rc><c>Fe</c><c>   1</c></rc>
    <rc><c>Fe</c><c>   1</c></rc>
    <rc><c>Fe</c><c>   1</c></rc>
    <rc><c>Fe</c><c>   1</c></rc>
    <rc><c>Fe</c><c>   1</c></rc>
    <rc><c>Fe</c><c>   1</c></rc>
    <rc><c>Fe</c><c>   1</c></rc>
    <rc><c>Fe</c><c>   1</c></rc>
    <rc><c>Fe</c><c>   1</c></rc>
    <rc><c>Fe</c><c>   1</c></rc>
    <rc><c>Fe</c><c>   1</c></rc>
    <rc><c>Fe</c><c>   1</c></rc>
    <rc><c>Fe</c><c>   1</c></rc>
    <rc><c>Fe</c><c>   1</c></rc>
    <rc><c>Fe</c><c>   1</c></rc>
    <rc><c>Fe</c><c>   1</c></rc>
    <rc><c>Fe</c><c>   1</c></rc>
    <rc><c>Fe</c><c>   1</c></rc>
    <rc><c>Fe</c><c>   1</c></rc>
    <rc><c>Fe</c><c>   1</c></rc>
    <rc><c>Mn</c><c>   2</c></rc>
    <rc><c>Mn</c><c>   2</c></rc>
    <rc><c>Mn</c><c>   2</c></rc>
    <rc><c>Mn</c><c>   2</c></rc>
    <rc><c>Mn</c><c>   2</c></rc>
    <rc><c>Mn</c><c>   2</c></rc>
    <rc><c>Mn</c><c>   2</c></rc>
   </set>
  </array>
  <array name="atomtypes" >
   <dimension dim="1">type</dimension>
   <field type="int">atomspertype</field>
   <field type="string">element</field>
   <field>mass</field>
   <field>valence</field>
   <field type="string">pseudopotential</field>
   <set>
    <rc><c> 281</c><c>Fe</c><c>     55.84700000</c><c>      8.00000000</c><c>  PAW_PBE Fe_GW 31Mar2010               </c></rc>
    <rc><c>   7</c><c>Mn</c><c>     54.93800000</c><c>      7.00000000</c><c>  PAW_PBE Mn_GW 31Mar2010               </c></rc>
   </set>
  </array>
 </atominfo>
 <structure name="initialpos" >
  <crystal>
   <varray name="basis" >
    <v>       9.72667804       0.00000000       0.00000000 </v>
    <v>       0.00000000       8.42355028       0.00000000 </v>
    <v>       0.00000000       0.00000000      45.00000000 </v>
   </varray>
   <i name="volume">   3686.99226691 </i>
   <varray name="rec_basis" >
    <v>       0.10281002       0.00000000       0.00000000 </v>
    <v>       0.00000000       0.11871479       0.00000000 </v>
    <v>       0.00000000       0.00000000       0.02222222 </v>
   </varray>
  </crystal>
  <varray name="positions" >
   <v>       0.05340511       0.70187014       0.21142553 </v>
   <v>       0.31851100       0.72368070       0.87613436 </v>
   <v>       0.68749770       0.95812929       0.61135602 </v>
   <v>       0.43813382       0.45754901       0.61120282 </v>
   <v>       0.44006441       0.28816400       0.25549135 </v>
   <v>       0.05857165       0.38792996       0.83347985 </v>
   <v>       0.30860899       0.88763583       0.83349791 </v>
   <v>       0.44732482       0.62618506       0.70019359 </v>
   <v>       0.06042740       0.21199293       0.74482411 </v>
   <v>       0.17850600       0.45109564       0.21132155 </v>
   <v>       0.56779025       0.21078940       0.47745833 </v>
   <v>       0.06676773       0.87486223       0.56676594 </v>
   <v>       0.56778364       0.22384891       0.87611119 </v>
   <v>       0.81040280       0.53207574       0.12427888 </v>
   <v>       0.42810703       0.95139353       0.21144298 </v>
   <v>       0.56664875       0.37492411       0.56688693 </v>
   <v>       0.81226911       0.04182667       0.38863092 </v>
   <v>       0.68249435       0.78852518       0.52222996 </v>
   <v>       0.44282185       0.46073733       0.47746790 </v>
   <v>       0.43496796       0.96206143       0.74456478 </v>
   <v>       0.44201471       0.62496100       0.56673836 </v>
   <v>       0.06085589       0.53114331       0.12425411 </v>
   <v>       0.31013281       0.03192604       0.12427140 </v>
   <v>       0.69030580       0.95933702       0.34418531 </v>
   <v>       0.68140717       0.77780017       0.12407483 </v>
   <v>       0.05265035       0.37384950       0.29979233 </v>
   <v>       0.68937810       0.46763073       0.87589071 </v>
   <v>       0.42855597       0.45104020       0.21130258 </v>
   <v>       0.80833396       0.37502861       0.43312838 </v>
   <v>       0.56267885       0.70804906       0.61135554 </v>
   <v>       0.55990679       0.54151965       0.65568040 </v>
   <v>       0.93342869       0.12496775       0.43310581 </v>
   <v>       0.56577567       0.53759407       0.25547832 </v>
   <v>       0.69035204       0.45931484       0.34419493 </v>
   <v>       0.19142211       0.61192900       0.16670774 </v>
   <v>       0.19565051       0.79903239       0.78872813 </v>
   <v>       0.44727152       0.12613337       0.70021188 </v>
   <v>       0.92777410       0.62387503       0.29971649 </v>
   <v>       0.31828605       0.22367797       0.87607389 </v>
   <v>       0.31675620       0.87468103       0.56677139 </v>
   <v>       0.81761841       0.22335800       0.87610546 </v>
   <v>       0.80978108       0.54090143       0.65573073 </v>
   <v>       0.55933868       0.53202020       0.12424142 </v>
   <v>       0.57068840       0.04939385       0.78876533 </v>
   <v>       0.18996120       0.28829618       0.25547748 </v>
   <v>       0.80841081       0.87497220       0.43312253 </v>
   <v>       0.57227249       0.37607754       0.70017573 </v>
   <v>       0.06040424       0.03190442       0.12414539 </v>
   <v>       0.30962527       0.54079747       0.65580991 </v>
   <v>       0.56537525       0.20947232       0.34414745 </v>
   <v>       0.18783417       0.95801227       0.61131096 </v>
   <v>       0.30266561       0.37392561       0.29974397 </v>
   <v>       0.43432062       0.79089180       0.65566190 </v>
   <v>       0.19615815       0.29804457       0.78857789 </v>
   <v>       0.06648631       0.36246582       0.16652403 </v>
   <v>       0.69689452       0.62656042       0.70041621 </v>
   <v>       0.31210026       0.54183006       0.38854331 </v>
   <v>       0.06759629       0.72309209       0.87610888 </v>
   <v>       0.93361909       0.63762900       0.83355238 </v>
   <v>       0.32027742       0.54947730       0.78871242 </v>
   <v>       0.30336702       0.20186689       0.21142876 </v>
   <v>       0.06784513       0.71066154       0.47745926 </v>
   <v>       0.55350976       0.20168964       0.21144492 </v>
   <v>       0.31110705       0.21114091       0.74467241 </v>
   <v>       0.07213021       0.37628303       0.70037248 </v>
   <v>       0.18326338       0.63749754       0.83350713 </v>
   <v>       0.07120486       0.04884722       0.78880541 </v>
   <v>       0.44174082       0.12494494       0.56677538 </v>
   <v>       0.93495447       0.29086205       0.65572749 </v>
   <v>       0.80346242       0.20158324       0.21139796 </v>
   <v>       0.92887995       0.95104783       0.21132120 </v>
   <v>       0.94164866       0.62507557       0.56687366 </v>
   <v>       0.80842116       0.38788523       0.83348177 </v>
   <v>       0.19708059       0.62604038       0.70007028 </v>
   <v>       0.80854872       0.88768735       0.83352587 </v>
   <v>       0.68474811       0.29076083       0.65581355 </v>
   <v>       0.31277772       0.20816555       0.61136405 </v>
   <v>       0.43580546       0.46269537       0.74453078 </v>
   <v>       0.43715394       0.79184667       0.38856499 </v>
   <v>       0.68497463       0.96281663       0.74457855 </v>
   <v>       0.80330827       0.70183869       0.21146916 </v>
   <v>       0.81313149       0.70770600       0.61123236 </v>
   <v>       0.43176508       0.77812045       0.12420785 </v>
   <v>       0.31090379       0.71199242       0.74457322 </v>
   <v>       0.32056972       0.04931728       0.78885890 </v>
   <v>       0.81208680       0.54179469       0.38854292 </v>
   <v>       0.68236951       0.28818825       0.52232176 </v>
   <v>       0.69529930       0.79874333       0.78870256 </v>
   <v>       0.18992037       0.78822819       0.25546925 </v>
   <v>       0.69119182       0.11158608       0.16658005 </v>
   <v>       0.69290297       0.96059700       0.47746383 </v>
   <v>       0.94035220       0.95933363       0.34417289 </v>
   <v>       0.80754974       0.03825942       0.52230690 </v>
   <v>       0.68342132       0.62502969       0.43310845 </v>
   <v>       0.44029963       0.45930814       0.34418340 </v>
   <v>       0.81011771       0.21253878       0.74457198 </v>
   <v>       0.43963852       0.96758673       0.87604322 </v>
   <v>       0.56666860       0.87497963       0.56683290 </v>
   <v>       0.81095805       0.03188097       0.12431331 </v>
   <v>       0.42777519       0.62391185       0.29972116 </v>
   <v>       0.81758306       0.72370967       0.87612144 </v>
   <v>       0.68758031       0.45812682       0.61123237 </v>
   <v>       0.55860906       0.38776946       0.83323896 </v>
   <v>       0.80276509       0.37386530       0.29972310 </v>
   <v>       0.18711570       0.29183161       0.38856618 </v>
   <v>       0.82128300       0.54885122       0.78879299 </v>
   <v>       0.18238885       0.78822698       0.52235552 </v>
   <v>       0.30266667       0.87392056       0.29975952 </v>
   <v>       0.17873330       0.95129089       0.21126762 </v>
   <v>       0.18524061       0.46209082       0.74463251 </v>
   <v>       0.43236438       0.28820220       0.52230594 </v>
   <v>       0.06536541       0.70941316       0.34418925 </v>
   <v>       0.18467277       0.79055693       0.65581305 </v>
   <v>       0.44513491       0.79907620       0.78876654 </v>
   <v>       0.68341564       0.12505209       0.43308977 </v>
   <v>       0.93239914       0.78824539       0.52234862 </v>
   <v>       0.69184657       0.61295079       0.16659309 </v>
   <v>       0.81531264       0.70945868       0.34416974 </v>
   <v>       0.93479609       0.46258453       0.74478998 </v>
   <v>       0.19029450       0.45935179       0.34419949 </v>
   <v>       0.57019239       0.54942246       0.78888285 </v>
   <v>       0.56617358       0.36215407       0.16664805 </v>
   <v>       0.56531528       0.70938815       0.34418053 </v>
   <v>       0.55274210       0.37393542       0.29972380 </v>
   <v>       0.18945085       0.46746216       0.87591224 </v>
   <v>       0.19145778       0.11252854       0.16685547 </v>
   <v>       0.44492718       0.29900252       0.78878355 </v>
   <v>       0.69000898       0.78826930       0.25545356 </v>
   <v>       0.93366150       0.13756871       0.83351046 </v>
   <v>       0.44303318       0.96070883       0.47745870 </v>
   <v>       0.56766899       0.72415306       0.87606999 </v>
   <v>       0.19284269       0.46076813       0.47746604 </v>
   <v>       0.93387879       0.27870373       0.12407466 </v>
   <v>       0.31216539       0.04185518       0.38856303 </v>
   <v>       0.05960675       0.04052960       0.65588236 </v>
   <v>       0.55840611       0.37498871       0.43311910 </v>
   <v>       0.93339441       0.62504510       0.43310143 </v>
   <v>       0.31625959       0.36253000       0.16672449 </v>
   <v>       0.94674052       0.12668844       0.70025689 </v>
   <v>       0.55972361       0.04101267       0.65573084 </v>
   <v>       0.55727026       0.53837812       0.52232789 </v>
   <v>       0.17776096       0.12382972       0.29969640 </v>
   <v>       0.44145314       0.11230505       0.16684139 </v>
   <v>       0.67774970       0.62396600       0.29974885 </v>
   <v>       0.92771000       0.12407542       0.29974800 </v>
   <v>       0.81669227       0.37476205       0.56680616 </v>
   <v>       0.05265201       0.87381632       0.29982794 </v>
   <v>       0.19172846       0.62503319       0.56679533 </v>
   <v>       0.94595605       0.79894826       0.78875817 </v>
   <v>       0.30851023       0.38764301       0.83350575 </v>
   <v>       0.93951803       0.46749595       0.87596974 </v>
   <v>       0.43357923       0.63782575       0.83350949 </v>
   <v>       0.06528976       0.20936811       0.34417231 </v>
   <v>       0.18937303       0.96765347       0.87600005 </v>
   <v>       0.93151964       0.77850225       0.12408970 </v>
   <v>       0.68704636       0.79178395       0.38852268 </v>
   <v>       0.93467718       0.79061869       0.65582708 </v>
   <v>       0.94120158       0.11182670       0.16668755 </v>
   <v>       0.43476347       0.29070146       0.65585526 </v>
   <v>       0.05343359       0.20181940       0.21141246 </v>
   <v>       0.67836043       0.95138409       0.21154769 </v>
   <v>       0.17783756       0.62374439       0.29967438 </v>
   <v>       0.82181837       0.87588703       0.70019885 </v>
   <v>       0.94635153       0.62583440       0.70033820 </v>
   <v>       0.19707369       0.12633142       0.70026858 </v>
   <v>       0.94278166       0.46074067       0.47745021 </v>
   <v>       0.81267746       0.20790285       0.61134421 </v>
   <v>       0.18345651       0.62503769       0.43310862 </v>
   <v>       0.42780728       0.12414212       0.29979402 </v>
   <v>       0.67790271       0.12425669       0.29980707 </v>
   <v>       0.56203838       0.54181526       0.38853179 </v>
   <v>       0.81524969       0.20935622       0.34420127 </v>
   <v>       0.43966906       0.46756983       0.87587775 </v>
   <v>       0.55852731       0.88740160       0.83349219 </v>
   <v>       0.31798449       0.21078361       0.47746137 </v>
   <v>       0.19298663       0.96079579       0.47746589 </v>
   <v>       0.05858634       0.88754707       0.83338750 </v>
   <v>       0.05740289       0.53822320       0.52232971 </v>
   <v>       0.94279212       0.96076497       0.47745549 </v>
   <v>       0.06284777       0.70784498       0.61126624 </v>
   <v>       0.55740242       0.03827867       0.52236344 </v>
   <v>       0.69639737       0.29887030       0.78869118 </v>
   <v>       0.81639474       0.36210293       0.16651631 </v>
   <v>       0.43340781       0.12500950       0.43309123 </v>
   <v>       0.06792404       0.21074275       0.47747011 </v>
   <v>       0.30975164       0.04073255       0.65576476 </v>
   <v>       0.43224107       0.78830728       0.52227100 </v>
   <v>       0.18362218       0.13762142       0.83351885 </v>
   <v>       0.18168250       0.27756676       0.12405171 </v>
   <v>       0.94029669       0.45932151       0.34418365 </v>
   <v>       0.31643781       0.86251984       0.16672252 </v>
   <v>       0.30340982       0.70191804       0.21148132 </v>
   <v>       0.94131605       0.61228188       0.16661975 </v>
   <v>       0.18785297       0.45833563       0.61138959 </v>
   <v>       0.07238917       0.87633144       0.70015944 </v>
   <v>       0.05977831       0.54066738       0.65583115 </v>
   <v>       0.30943538       0.53080438       0.12424067 </v>
   <v>       0.93708247       0.79175581       0.38853168 </v>
   <v>       0.94661746       0.29908570       0.78863181 </v>
   <v>       0.18462954       0.29053728       0.65579804 </v>
   <v>       0.93765486       0.95798375       0.61130712 </v>
   <v>       0.81100729       0.71099558       0.74458868 </v>
   <v>       0.68993350       0.28818762       0.25546998 </v>
   <v>       0.06007205       0.71202437       0.74489430 </v>
   <v>       0.67851345       0.45084449       0.21133546 </v>
   <v>       0.81803225       0.21081568       0.47746428 </v>
   <v>       0.56791532       0.71057301       0.47750153 </v>
   <v>       0.06626391       0.86249892       0.16659149 </v>
   <v>       0.93237455       0.28831250       0.52232711 </v>
   <v>       0.68475295       0.79092116       0.65571944 </v>
   <v>       0.05844959       0.87497885       0.43310843 </v>
   <v>       0.06796788       0.22264049       0.87612267 </v>
   <v>       0.80984657       0.04085408       0.65574604 </v>
   <v>       0.56006347       0.03196719       0.12441262 </v>
   <v>       0.30841723       0.37499703       0.43310992 </v>
   <v>       0.31667751       0.37480560       0.56679280 </v>
   <v>       0.31789704       0.71069739       0.47743689 </v>
   <v>       0.05740266       0.03821641       0.52232689 </v>
   <v>       0.32226831       0.87620146       0.70021928 </v>
   <v>       0.06579896       0.53773268       0.25543844 </v>
   <v>       0.68342209       0.13750389       0.83351047 </v>
   <v>       0.81589191       0.03746074       0.25538281 </v>
   <v>       0.18340244       0.12501241       0.43311657 </v>
   <v>       0.69729211       0.12683041       0.70032409 </v>
   <v>       0.18240451       0.28822110       0.52232204 </v>
   <v>       0.44014151       0.78815128       0.25545536 </v>
   <v>       0.81580321       0.53757385       0.25544233 </v>
   <v>       0.06259582       0.20812175       0.61128292 </v>
   <v>       0.18701126       0.79180213       0.38851751 </v>
   <v>       0.30738219       0.53824704       0.52234784 </v>
   <v>       0.82246094       0.37596115       0.70005995 </v>
   <v>       0.68710534       0.29184254       0.38856227 </v>
   <v>       0.19159873       0.12499749       0.56688653 </v>
   <v>       0.68957293       0.96844072       0.87593271 </v>
   <v>       0.69187708       0.12513141       0.56670198 </v>
   <v>       0.44032124       0.95935554       0.34418360 </v>
   <v>       0.18550983       0.96224281       0.74432041 </v>
   <v>       0.93991917       0.78819511       0.25545889 </v>
   <v>       0.55839814       0.87499621       0.43308251 </v>
   <v>       0.30843428       0.87495546       0.43310639 </v>
   <v>       0.80727201       0.53820198       0.52234874 </v>
   <v>       0.92853721       0.45093978       0.21132772 </v>
   <v>       0.31533640       0.53788744       0.25546562 </v>
   <v>       0.56219152       0.04183469       0.38859170 </v>
   <v>       0.93772113       0.45822186       0.61136513 </v>
   <v>       0.06216336       0.04182963       0.38858011 </v>
   <v>       0.06211262       0.54179604       0.38852222 </v>
   <v>       0.43722346       0.29184289       0.38859145 </v>
   <v>       0.69292599       0.46072032       0.47744623 </v>
   <v>       0.06669123       0.37461656       0.56682927 </v>
   <v>       0.55362271       0.70189413       0.21150387 </v>
   <v>       0.93990501       0.28827066       0.25547067 </v>
   <v>       0.82081988       0.04908974       0.78882286 </v>
   <v>       0.19029552       0.95931184       0.34416717 </v>
   <v>       0.55269514       0.87391015       0.29987993 </v>
   <v>       0.05844557       0.37499031       0.43309424 </v>
   <v>       0.31530672       0.70941528       0.34418643 </v>
   <v>       0.31540423       0.20952123       0.34413050 </v>
   <v>       0.94171909       0.12500328       0.56688259 </v>
   <v>       0.43793597       0.95791638       0.61127925 </v>
   <v>       0.56561310       0.03742672       0.25543762 </v>
   <v>       0.18219239       0.77898613       0.12429035 </v>
   <v>       0.06567882       0.03750194       0.25545443 </v>
   <v>       0.69170704       0.62496631       0.56675576 </v>
   <v>       0.44203753       0.61266397       0.16675838 </v>
   <v>       0.30720587       0.03827451       0.52231934 </v>
   <v>       0.68185794       0.27862820       0.12417380 </v>
   <v>       0.81794227       0.71073310       0.47744915 </v>
   <v>       0.43365794       0.13786092       0.83348060 </v>
   <v>       0.32185853       0.37608283       0.70020317 </v>
   <v>       0.68362360       0.63773485       0.83348832 </v>
   <v>       0.56088912       0.71194614       0.74443889 </v>
   <v>       0.93719235       0.29178972       0.38856215 </v>
   <v>       0.93939950       0.96761923       0.87592751 </v>
   <v>       0.93541534       0.96218555       0.74447171 </v>
   <v>       0.81703004       0.87469588       0.56671761 </v>
   <v>       0.80271504       0.87394933       0.29986219 </v>
   <v>       0.31562943       0.03755651       0.25548926 </v>
   <v>       0.43060515       0.27800739       0.12417522 </v>
   <v>       0.31249337       0.70801879       0.61137495 </v>
   <v>       0.43342240       0.62499090       0.43310483 </v>
   <v>       0.68402015       0.46261636       0.74477039 </v>
   <v>       0.56594554       0.86171702       0.16586479 </v>
   <v>       0.07202526       0.54921241       0.78858077 </v>
   <v>       0.81741772       0.86197199       0.16586807 </v>
   <v>       0.56029276       0.21030545       0.74447187 </v>
   <v>       0.56272066       0.20695765       0.61122507 </v>
   <v>       0.57358461       0.87709099       0.70040953 </v>
  </varray>
 </structure>
 <calculation>
  <scstep>
   <time name="dav">   54.34   54.36</time>
   <time name="total">   54.49   54.54</time>
   <energy>
    <i name="alphaZ">  16403.00255340 </i>
    <i name="ewald"> 720777.60978282 </i>
    <i name="hartreedc">-912442.42644343 </i>
    <i name="XCdc">  -6389.45553802 </i>
    <i name="pawpsdc"> 163151.95320885 </i>
    <i name="pawaedc">-160818.84594568 </i>
    <i name="eentropy">     -1.05336298 </i>
    <i name="bandstr">  38624.99149304 </i>
    <i name="atom"> 169914.59583762 </i>
    <i name="e_fr_energy">  29220.37158562 </i>
    <i name="e_wo_entrp">  29221.42494860 </i>
    <i name="e_0_energy">  29220.89826711 </i>
   </energy>
  </scstep>
  <scstep>
   <time name="dav">   53.76   53.79</time>
   <time name="total">   53.77   53.80</time>
   <energy>
    <i name="e_fr_energy">   1194.24004531 </i>
    <i name="e_wo_entrp">   1195.69350827 </i>
    <i name="e_0_energy">   1194.96677679 </i>
   </energy>
  </scstep>
  <scstep>
   <time name="dav">   70.54   70.58</time>
   <time name="total">   70.54   70.59</time>
   <energy>
    <i name="e_fr_energy">  -1939.75593751 </i>
    <i name="e_wo_entrp">  -1936.18407167 </i>
    <i name="e_0_energy">  -1937.97000459 </i>
   </energy>
  </scstep>
  <scstep>
   <time name="dav">   88.42   88.46</time>
   <time name="total">   88.42   88.46</time>
   <energy>
    <i name="e_fr_energy">  -2606.65411587 </i>
    <i name="e_wo_entrp">  -2603.04292638 </i>
    <i name="e_0_energy">  -2604.84852113 </i>
   </energy>
  </scstep>
  <scstep>
   <time name="dav">   84.96   85.00</time>
   <time name="total">   87.01   87.05</time>
   <energy>
    <i name="e_fr_energy">  -2726.89928632 </i>
    <i name="e_wo_entrp">  -2723.11501836 </i>
    <i name="e_0_energy">  -2725.00715234 </i>
   </energy>
  </scstep>
  <scstep>
   <time name="diag">    8.22    8.22</time>
   <time name="diis">   37.59   37.59</time>
   <time name="orth">    2.26    2.26</time>
   <time name="total">   50.31   50.36</time>
   <energy>
    <i name="e_fr_energy">  -5491.39413308 </i>
    <i name="e_wo_entrp">  -5487.52856361 </i>
    <i name="e_0_energy">  -5489.46134835 </i>
   </energy>
  </scstep>
  <scstep>
   <time name="diag">    8.30    8.30</time>
   <time name="diis">   29.84   29.84</time>
   <time name="orth">    2.27    2.27</time>
   <time name="total">   42.54   42.59</time>
[...]
       <r>     5.8783     0.0000  2772.0000 </r>
       <r>     5.9211     0.0000  2772.0000 </r>
       <r>     5.9640     0.0000  2772.0000 </r>
       <r>     6.0068     0.0000  2772.0000 </r>
       <r>     6.0496     0.0000  2772.0000 </r>
       <r>     6.0924     0.0000  2772.0000 </r>
       <r>     6.1352     0.0000  2772.0000 </r>
       <r>     6.1780     0.0000  2772.0000 </r>
       <r>     6.2208     0.0000  2772.0000 </r>
       <r>     6.2636     0.0000  2772.0000 </r>
       <r>     6.3064     0.0000  2772.0000 </r>
       <r>     6.3492     0.0000  2772.0000 </r>
       <r>     6.3920     0.0000  2772.0000 </r>
       <r>     6.4348     0.0000  2772.0000 </r>
       <r>     6.4776     0.0000  2772.0000 </r>
       <r>     6.5205     0.0000  2772.0000 </r>
       <r>     6.5633     0.0000  2772.0000 </r>
       <r>     6.6061     0.0000  2772.0000 </r>
       <r>     6.6489     0.0000  2772.0000 </r>
       <r>     6.6917     0.0000  2772.0000 </r>
       <r>     6.7345     0.0000  2772.0000 </r>
       <r>     6.7773     0.0000  2772.0000 </r>
       <r>     6.8201     0.0000  2772.0000 </r>
      </set>
     </set>
    </array>
   </total>
  </dos>
 </calculation>
 <structure name="finalpos" >
  <crystal>
   <varray name="basis" >
    <v>       9.72667804       0.00000000       0.00000000 </v>
    <v>       0.00000000       8.42355028       0.00000000 </v>
    <v>       0.00000000       0.00000000      45.00000000 </v>
   </varray>
   <i name="volume">   3686.99226691 </i>
   <varray name="rec_basis" >
    <v>       0.10281002       0.00000000       0.00000000 </v>
    <v>       0.00000000       0.11871479       0.00000000 </v>
    <v>       0.00000000       0.00000000       0.02222222 </v>
   </varray>
  </crystal>
  <varray name="positions" >
   <v>       0.05734047       0.70139502       0.21147825 </v>
   <v>       0.31595945       0.71956100       0.87562770 </v>
   <v>       0.68831785       0.95736290       0.61135147 </v>
   <v>       0.43813494       0.45768514       0.61139464 </v>
   <v>       0.43581734       0.28722019       0.25571008 </v>
   <v>       0.06121367       0.38660543       0.83409564 </v>
   <v>       0.31189779       0.88651691       0.83416304 </v>
   <v>       0.44164599       0.62672022       0.70014610 </v>
   <v>       0.06431774       0.21254137       0.74427615 </v>
   <v>       0.18238205       0.45159026       0.21134851 </v>
   <v>       0.56371871       0.20880348       0.47786717 </v>
   <v>       0.06398462       0.87440018       0.56662222 </v>
   <v>       0.56541416       0.21946527       0.87559144 </v>
   <v>       0.81082547       0.52878691       0.12469262 </v>
   <v>       0.43229564       0.95187056       0.21145681 </v>
   <v>       0.56418085       0.37419211       0.56661695 </v>
   <v>       0.81185624       0.04222616       0.38854433 </v>
   <v>       0.68651508       0.79051605       0.52206749 </v>
   <v>       0.43859085       0.45879198       0.47785478 </v>
   <v>       0.43869752       0.96247626       0.74449296 </v>
   <v>       0.43870311       0.62458336       0.56669004 </v>
   <v>       0.06083026       0.52902395       0.12473072 </v>
   <v>       0.31110791       0.02916154       0.12484717 </v>
   <v>       0.68684034       0.95881719       0.34444705 </v>
   <v>       0.68437181       0.78100221       0.12396692 </v>
   <v>       0.05798118       0.37354121       0.29977807 </v>
   <v>       0.68904173       0.47149532       0.87534539 </v>
   <v>       0.43229980       0.45165054       0.21129322 </v>
   <v>       0.81128325       0.37522396       0.43312055 </v>
   <v>       0.56297411       0.70763327       0.61133006 </v>
   <v>       0.56322179       0.54154064       0.65543808 </v>
   <v>       0.93624512       0.12517162       0.43313891 </v>
   <v>       0.56092365       0.53769231       0.25563888 </v>
   <v>       0.68683582       0.45881713       0.34436737 </v>
   <v>       0.18841775       0.61281143       0.16615544 </v>
   <v>       0.19259060       0.79907940       0.78858006 </v>
   <v>       0.44137986       0.12666578       0.70012560 </v>
   <v>       0.93308401       0.62357813       0.29980930 </v>
   <v>       0.31523468       0.21954074       0.87562693 </v>
   <v>       0.31368980       0.87450996       0.56664607 </v>
   <v>       0.81543040       0.21959615       0.87558437 </v>
   <v>       0.81324003       0.54127417       0.65552147 </v>
   <v>       0.56052926       0.52873152       0.12480279 </v>
   <v>       0.56739344       0.04888003       0.78882788 </v>
   <v>       0.18576543       0.28731919       0.25570260 </v>
   <v>       0.81124374       0.87515209       0.43313853 </v>
   <v>       0.56680491       0.37677541       0.70024064 </v>
   <v>       0.06055556       0.02915967       0.12473854 </v>
   <v>       0.31313524       0.54125291       0.65554207 </v>
   <v>       0.56186755       0.20858368       0.34441553 </v>
   <v>       0.18825120       0.95742466       0.61144019 </v>
   <v>       0.30785007       0.37352223       0.29981221 </v>
   <v>       0.43806821       0.79104891       0.65547616 </v>
   <v>       0.19211341       0.29851495       0.78869800 </v>
   <v>       0.06344745       0.36364388       0.16628359 </v>
   <v>       0.69238978       0.62621354       0.70008988 </v>
   <v>       0.31195698       0.54218998       0.38857848 </v>
   <v>       0.06525982       0.71921402       0.87561500 </v>
   <v>       0.93703378       0.63703841       0.83413673 </v>
   <v>       0.31780690       0.54930181       0.78882737 </v>
   <v>       0.30739476       0.20130842       0.21148081 </v>
   <v>       0.06372385       0.70876023       0.47785279 </v>
   <v>       0.55743357       0.20097858       0.21145453 </v>
   <v>       0.31400037       0.21294795       0.74426137 </v>
   <v>       0.06710186       0.37616783       0.70024764 </v>
   <v>       0.18679465       0.63656481       0.83388797 </v>
   <v>       0.06717590       0.04882893       0.78875783 </v>
   <v>       0.43880028       0.12445242       0.56664163 </v>
   <v>       0.93840441       0.29131388       0.65547532 </v>
   <v>       0.80749623       0.20108882       0.21138079 </v>
   <v>       0.93231268       0.95167366       0.21129011 </v>
   <v>       0.93894023       0.62446986       0.56669339 </v>
   <v>       0.81171394       0.38661506       0.83412053 </v>
   <v>       0.19207486       0.62622491       0.70025015 </v>
   <v>       0.81118673       0.88615261       0.83401417 </v>
   <v>       0.68855140       0.29206124       0.65553479 </v>
   <v>       0.31278631       0.20783548       0.61144167 </v>
   <v>       0.43878196       0.46223056       0.74426708 </v>
   <v>       0.43685273       0.79213875       0.38854807 </v>
   <v>       0.69011889       0.96244785       0.74451088 </v>
   <v>       0.80730144       0.70083607       0.21150945 </v>
   <v>       0.81383745       0.70737892       0.61125127 </v>
   <v>       0.43425394       0.78065038       0.12433925 </v>
   <v>       0.31374633       0.71286908       0.74428949 </v>
   <v>       0.31810635       0.04906194       0.78894178 </v>
   <v>       0.81189539       0.54213583       0.38858899 </v>
   <v>       0.68661057       0.29046832       0.52204542 </v>
   <v>       0.69236192       0.79892885       0.78869551 </v>
   <v>       0.18577543       0.78703722       0.25567908 </v>
   <v>       0.68808129       0.11304764       0.16630544 </v>
   <v>       0.68863703       0.95895138       0.47784922 </v>
   <v>       0.93677784       0.95878972       0.34439824 </v>
   <v>       0.81167091       0.04019443       0.52190779 </v>
   <v>       0.68628636       0.62514348       0.43311940 </v>
   <v>       0.43683991       0.45879006       0.34437796 </v>
   <v>       0.81554912       0.21288732       0.74435995 </v>
   <v>       0.43905444       0.97152035       0.87540664 </v>
   <v>       0.56412042       0.87469231       0.56663454 </v>
   <v>       0.81061304       0.02910553       0.12439291 </v>
   <v>       0.43306268       0.62357427       0.29980025 </v>
   <v>       0.81516826       0.71955068       0.87566120 </v>
   <v>       0.68832518       0.45781952       0.61137888 </v>
   <v>       0.56153831       0.38668459       0.83399741 </v>
   <v>       0.80786428       0.37368753       0.29979212 </v>
   <v>       0.18691004       0.29210380       0.38855081 </v>
   <v>       0.81653323       0.54947817       0.78895632 </v>
   <v>       0.18652971       0.79039797       0.52204845 </v>
   <v>       0.30789496       0.87358903       0.29983041 </v>
   <v>       0.18220013       0.95135124       0.21130376 </v>
   <v>       0.18914627       0.46294358       0.74428970 </v>
   <v>       0.43653069       0.29052651       0.52201655 </v>
   <v>       0.06188957       0.70862372       0.34435385 </v>
   <v>       0.18805175       0.79106349       0.65553175 </v>
   <v>       0.44228768       0.79918611       0.78868584 </v>
   <v>       0.68624936       0.12517455       0.43314646 </v>
   <v>       0.93660953       0.79035708       0.52205144 </v>
   <v>       0.68813760       0.61341594       0.16620786 </v>
   <v>       0.81193562       0.70856517       0.34437878 </v>
   <v>       0.93953929       0.46240824       0.74423944 </v>
   <v>       0.18685301       0.45869573       0.34437395 </v>
   <v>       0.56794780       0.54840606       0.78882647 </v>
   <v>       0.56200097       0.36347985       0.16622780 </v>
   <v>       0.56190287       0.70866130       0.34438889 </v>
   <v>       0.55781397       0.37373503       0.29978749 </v>
   <v>       0.18885801       0.47120561       0.87544872 </v>
   <v>       0.18816585       0.11497393       0.16617731 </v>
   <v>       0.44278755       0.29838995       0.78858988 </v>
   <v>       0.68576141       0.78734795       0.25573835 </v>
   <v>       0.93694334       0.13654562       0.83377830 </v>
   <v>       0.43847730       0.95882338       0.47785957 </v>
   <v>       0.56538475       0.71978338       0.87559729 </v>
   <v>       0.18853229       0.45888381       0.47788658 </v>
   <v>       0.93466071       0.28110374       0.12458953 </v>
   <v>       0.31185114       0.04227810       0.38856493 </v>
   <v>       0.06302982       0.04119352       0.65559914 </v>
   <v>       0.56123796       0.37524370       0.43311349 </v>
   <v>       0.93624499       0.62523144       0.43310847 </v>
   <v>       0.31185080       0.36381826       0.16630152 </v>
   <v>       0.94232901       0.12703614       0.70026373 </v>
   <v>       0.56306756       0.04144043       0.65552068 </v>
   <v>       0.56158075       0.54101746       0.52194046 </v>
   <v>       0.18297941       0.12351200       0.29977029 </v>
   <v>       0.43795316       0.11373456       0.16631016 </v>
   <v>       0.68312763       0.62345459       0.29980820 </v>
   <v>       0.93312204       0.12336300       0.29976346 </v>
   <v>       0.81362628       0.37443024       0.56666544 </v>
   <v>       0.05795464       0.87362752       0.29979152 </v>
   <v>       0.18886834       0.62439314       0.56670995 </v>
   <v>       0.94144590       0.79883871       0.78875004 </v>
   <v>       0.31148073       0.38675878       0.83411269 </v>
   <v>       0.93917947       0.47119823       0.87541135 </v>
   <v>       0.43647394       0.63718859       0.83407070 </v>
   <v>       0.06191713       0.20873547       0.34440534 </v>
   <v>       0.18870764       0.97123052       0.87540172 </v>
   <v>       0.93447988       0.78117894       0.12415579 </v>
   <v>       0.68691150       0.79213623       0.38858316 </v>
   <v>       0.93804225       0.79101950       0.65550640 </v>
   <v>       0.93847817       0.11397349       0.16614965 </v>
   <v>       0.43790054       0.29171788       0.65553372 </v>
   <v>       0.05752903       0.20130338       0.21140912 </v>
   <v>       0.68251853       0.95195278       0.21133924 </v>
   <v>       0.18296747       0.62379398       0.29981203 </v>
   <v>       0.81770961       0.87690356       0.70022513 </v>
   <v>       0.94215506       0.62626437       0.70024412 </v>
   <v>       0.19228608       0.12684262       0.70014742 </v>
   <v>       0.93873515       0.45881104       0.47788800 </v>
   <v>       0.81364256       0.20755517       0.61135841 </v>
   <v>       0.18619408       0.62524109       0.43312608 </v>
   <v>       0.43294218       0.12351080       0.29976882 </v>
   <v>       0.68302585       0.12334886       0.29974553 </v>
   <v>       0.56190883       0.54210091       0.38859375 </v>
   <v>       0.81188621       0.20855298       0.34438849 </v>
   <v>       0.43901646       0.47145421       0.87531653 </v>
   <v>       0.56114068       0.88604125       0.83416632 </v>
   <v>       0.31358008       0.20883384       0.47785268 </v>
   <v>       0.18862798       0.95891544       0.47792039 </v>
   <v>       0.06149051       0.88647738       0.83409672 </v>
   <v>       0.06152903       0.54034031       0.52202126 </v>
   <v>       0.93867029       0.95893450       0.47790841 </v>
   <v>       0.06310889       0.70776236       0.61138179 </v>
   <v>       0.56162693       0.04057281       0.52200932 </v>
   <v>       0.69249838       0.29839759       0.78869984 </v>
   <v>       0.81327141       0.36314325       0.16621306 </v>
   <v>       0.43620758       0.12518073       0.43312816 </v>
   <v>       0.06361428       0.20894175       0.47786069 </v>
   <v>       0.31332659       0.04117236       0.65544737 </v>
   <v>       0.43660970       0.79061999       0.52201866 </v>
   <v>       0.18727511       0.13648347       0.83386392 </v>
   <v>       0.18481976       0.28020609       0.12452468 </v>
   <v>       0.93684774       0.45874765       0.34438048 </v>
   <v>       0.31311526       0.86396791       0.16632548 </v>
   <v>       0.30758260       0.70153675       0.21144509 </v>
   <v>       0.93782092       0.61236738       0.16620798 </v>
   <v>       0.18814567       0.45788183       0.61140486 </v>
   <v>       0.06723899       0.87666176       0.70014218 </v>
   <v>       0.06323640       0.54140728       0.65562031 </v>
   <v>       0.31068103       0.52867698       0.12480959 </v>
   <v>       0.93697616       0.79216277       0.38858003 </v>
   <v>       0.94142323       0.29866426       0.78870706 </v>
   <v>       0.18793017       0.29167387       0.65555535 </v>
   <v>       0.93808781       0.95727096       0.61144421 </v>
   <v>       0.81486530       0.71253760       0.74444580 </v>
   <v>       0.68596071       0.28699619       0.25568087 </v>
   <v>       0.06453387       0.71322333       0.74431490 </v>
   <v>       0.68255191       0.45166305       0.21119862 </v>
   <v>       0.81350073       0.20880933       0.47785286 </v>
   <v>       0.56359706       0.70867442       0.47789806 </v>
   <v>       0.06229247       0.86410874       0.16629488 </v>
   <v>       0.93662695       0.29063843       0.52206433 </v>
   <v>       0.68796517       0.79171961       0.65555772 </v>
   <v>       0.06117409       0.87511922       0.43308689 </v>
   <v>       0.06548811       0.21908655       0.87569102 </v>
   <v>       0.81318760       0.04126380       0.65548432 </v>
   <v>       0.56078962       0.02895800       0.12444667 </v>
   <v>       0.31127899       0.37518424       0.43312497 </v>
   <v>       0.31397902       0.37442652       0.56666242 </v>
   <v>       0.31350841       0.70881684       0.47784274 </v>
   <v>       0.06157552       0.04052342       0.52205027 </v>
   <v>       0.31645266       0.87642522       0.70016965 </v>
   <v>       0.06069304       0.53765613       0.25562870 </v>
   <v>       0.68718901       0.13653469       0.83396486 </v>
   <v>       0.81052633       0.03757506       0.25567636 </v>
   <v>       0.18626139       0.12510580       0.43314042 </v>
   <v>       0.69241606       0.12703836       0.70015658 </v>
   <v>       0.18651525       0.29045067       0.52207026 </v>
   <v>       0.43588880       0.78717466       0.25574189 </v>
   <v>       0.81072669       0.53774364       0.25561755 </v>
   <v>       0.06309059       0.20771109       0.61141756 </v>
   <v>       0.18695958       0.79222092       0.38859155 </v>
   <v>       0.31157788       0.54045158       0.52206084 </v>
   <v>       0.81734094       0.37685612       0.70023685 </v>
   <v>       0.68692352       0.29217649       0.38859279 </v>
   <v>       0.18885650       0.12417271       0.56661461 </v>
   <v>       0.68885655       0.97189771       0.87539047 </v>
   <v>       0.68890203       0.12458026       0.56659805 </v>
   <v>       0.43682100       0.95879714       0.34443325 </v>
   <v>       0.18876632       0.96216189       0.74440640 </v>
   <v>       0.93570428       0.78719172       0.25568981 </v>
   <v>       0.56127216       0.87527292       0.43311600 </v>
   <v>       0.31128389       0.87519651       0.43312697 </v>
   <v>       0.81154851       0.54043074       0.52205481 </v>
   <v>       0.93257257       0.45158354       0.21123345 </v>
   <v>       0.31114265       0.53745059       0.25561697 </v>
   <v>       0.56177718       0.04220385       0.38855401 </v>
   <v>       0.93821445       0.45798269       0.61137478 </v>
   <v>       0.06190633       0.04220012       0.38858489 </v>
   <v>       0.06181365       0.54212530       0.38858707 </v>
   <v>       0.43679047       0.29214207       0.38854249 </v>
   <v>       0.68861070       0.45885379       0.47784945 </v>
   <v>       0.06408857       0.37441975       0.56669655 </v>
   <v>       0.55791537       0.70091098       0.21147543 </v>
   <v>       0.93595005       0.28715540       0.25569503 </v>
   <v>       0.81681203       0.04918407       0.78882002 </v>
   <v>       0.18684515       0.95876789       0.34437623 </v>
   <v>       0.55792556       0.87365579       0.29978055 </v>
   <v>       0.06120370       0.37522086       0.43313092 </v>
   <v>       0.31192408       0.70864590       0.34436874 </v>
   <v>       0.31185589       0.20862607       0.34443069 </v>
   <v>       0.93899719       0.12423680       0.56668276 </v>
   <v>       0.43787834       0.95746082       0.61133395 </v>
   <v>       0.56079569       0.03771247       0.25577911 </v>
   <v>       0.18500200       0.78105264       0.12464145 </v>
   <v>       0.06067019       0.03789287       0.25566937 </v>
   <v>       0.68892296       0.62471800       0.56665332 </v>
   <v>       0.43869155       0.61303596       0.16615540 </v>
   <v>       0.31143069       0.04032863       0.52200341 </v>
   <v>       0.68471667       0.28128569       0.12462701 </v>
   <v>       0.81360666       0.70870512       0.47786981 </v>
   <v>       0.43742708       0.13647926       0.83388376 </v>
   <v>       0.31697039       0.37650012       0.70026902 </v>
   <v>       0.68749240       0.63672864       0.83392271 </v>
   <v>       0.56380301       0.71351459       0.74443713 </v>
   <v>       0.93698148       0.29215528       0.38855688 </v>
   <v>       0.93941265       0.97132140       0.87541264 </v>
   <v>       0.93969342       0.96273321       0.74443328 </v>
   <v>       0.81376206       0.87461864       0.56666141 </v>
   <v>       0.80797174       0.87368440       0.29977875 </v>
   <v>       0.31106883       0.03791223       0.25573983 </v>
   <v>       0.43460308       0.28059462       0.12460841 </v>
   <v>       0.31265044       0.70731348       0.61128923 </v>
   <v>       0.43612999       0.62520272       0.43311753 </v>
   <v>       0.68898504       0.46298621       0.74455484 </v>
   <v>       0.56233726       0.86378234       0.16600123 </v>
   <v>       0.06796325       0.54933071       0.78868465 </v>
   <v>       0.81458266       0.86387074       0.16590562 </v>
   <v>       0.56323744       0.21167186       0.74446986 </v>
   <v>       0.56304485       0.20820933       0.61123190 </v>
   <v>       0.56756819       0.87646495       0.70026277 </v>
  </varray>
 </structure>
</modeling>
