unknown system                          
           1
     9.726678    0.000000    0.000000
     0.000000    8.423550    0.000000
     0.000000    0.000000   45.000000
   Fe   Mn
 281   7
Direct configuration=     1
   0.05340511  0.70187014  0.21142553
   0.31851100  0.72368070  0.87613436
   0.68749770  0.95812929  0.61135602
   0.43813382  0.45754901  0.61120282
   0.44006441  0.28816400  0.25549135
   0.05857165  0.38792996  0.83347985
   0.30860899  0.88763583  0.83349791
   0.44732482  0.62618506  0.70019359
   0.06042740  0.21199293  0.74482411
   0.17850600  0.45109564  0.21132155
   0.56779025  0.21078940  0.47745833
   0.06676773  0.87486223  0.56676594
   0.56778364  0.22384891  0.87611119
   0.81040280  0.53207574  0.12427888
   0.42810703  0.95139353  0.21144298
   0.56664875  0.37492411  0.56688693
   0.81226911  0.04182667  0.38863092
   0.68249435  0.78852518  0.52222996
   0.44282185  0.46073733  0.47746790
   0.43496796  0.96206143  0.74456478
   0.44201471  0.62496100  0.56673836
   0.06085589  0.53114331  0.12425411
   0.31013281  0.03192604  0.12427140
   0.69030580  0.95933702  0.34418531
   0.68140717  0.77780017  0.12407483
   0.05265035  0.37384950  0.29979233
   0.68937810  0.46763073  0.87589071
   0.42855597  0.45104020  0.21130258
   0.80833396  0.37502861  0.43312838
   0.56267885  0.70804906  0.61135554
   0.55990679  0.54151965  0.65568040
   0.93342869  0.12496775  0.43310581
   0.56577567  0.53759407  0.25547832
   0.69035204  0.45931484  0.34419493
   0.19142211  0.61192900  0.16670774
   0.19565051  0.79903239  0.78872813
   0.44727152  0.12613337  0.70021188
   0.92777410  0.62387503  0.29971649
   0.31828605  0.22367797  0.87607389
   0.31675620  0.87468103  0.56677139
   0.81761841  0.22335800  0.87610546
   0.80978108  0.54090143  0.65573073
   0.55933868  0.53202020  0.12424142
   0.57068840  0.04939385  0.78876533
   0.18996120  0.28829618  0.25547748
   0.80841081  0.87497220  0.43312253
   0.57227249  0.37607754  0.70017573
   0.06040424  0.03190442  0.12414539
   0.30962527  0.54079747  0.65580991
   0.56537525  0.20947232  0.34414745
   0.18783417  0.95801227  0.61131096
   0.30266561  0.37392561  0.29974397
   0.43432062  0.79089180  0.65566190
   0.19615815  0.29804457  0.78857789
   0.06648631  0.36246582  0.16652403
   0.69689452  0.62656042  0.70041621
   0.31210026  0.54183006  0.38854331
   0.06759629  0.72309209  0.87610888
   0.93361909  0.63762900  0.83355238
   0.32027742  0.54947730  0.78871242
   0.30336702  0.20186689  0.21142876
   0.06784513  0.71066154  0.47745926
   0.55350976  0.20168964  0.21144492
   0.31110705  0.21114091  0.74467241
   0.07213021  0.37628303  0.70037248
   0.18326338  0.63749754  0.83350713
   0.07120486  0.04884722  0.78880541
   0.44174082  0.12494494  0.56677538
   0.93495447  0.29086205  0.65572749
   0.80346242  0.20158324  0.21139796
   0.92887995  0.95104783  0.21132120
   0.94164866  0.62507557  0.56687366
   0.80842116  0.38788523  0.83348177
   0.19708059  0.62604038  0.70007028
   0.80854872  0.88768735  0.83352587
   0.68474811  0.29076083  0.65581355
   0.31277772  0.20816555  0.61136405
   0.43580546  0.46269537  0.74453078
   0.43715394  0.79184667  0.38856499
   0.68497463  0.96281663  0.74457855
   0.80330827  0.70183869  0.21146916
   0.81313149  0.70770600  0.61123236
   0.43176508  0.77812045  0.12420785
   0.31090379  0.71199242  0.74457322
   0.32056972  0.04931728  0.78885890
   0.81208680  0.54179469  0.38854292
   0.68236951  0.28818825  0.52232176
   0.69529930  0.79874333  0.78870256
   0.18992037  0.78822819  0.25546925
   0.69119182  0.11158608  0.16658005
   0.69290297  0.96059700  0.47746383
   0.94035220  0.95933363  0.34417289
   0.80754974  0.03825942  0.52230690
   0.68342132  0.62502969  0.43310845
   0.44029963  0.45930814  0.34418340
   0.81011771  0.21253878  0.74457198
   0.43963852  0.96758673  0.87604322
   0.56666860  0.87497963  0.56683290
   0.81095805  0.03188097  0.12431331
   0.42777519  0.62391185  0.29972116
   0.81758306  0.72370967  0.87612144
   0.68758031  0.45812682  0.61123237
   0.55860906  0.38776946  0.83323896
   0.80276509  0.37386530  0.29972310
   0.18711570  0.29183161  0.38856618
   0.82128300  0.54885122  0.78879299
   0.18238885  0.78822698  0.52235552
   0.30266667  0.87392056  0.29975952
   0.17873330  0.95129089  0.21126762
   0.18524061  0.46209082  0.74463251
   0.43236438  0.28820220  0.52230594
   0.06536541  0.70941316  0.34418925
   0.18467277  0.79055693  0.65581305
   0.44513491  0.79907620  0.78876654
   0.68341564  0.12505209  0.43308977
   0.93239914  0.78824539  0.52234862
   0.69184657  0.61295079  0.16659309
   0.81531264  0.70945868  0.34416974
   0.93479609  0.46258453  0.74478998
   0.19029450  0.45935179  0.34419949
   0.57019239  0.54942246  0.78888285
   0.56617358  0.36215407  0.16664805
   0.56531528  0.70938815  0.34418053
   0.55274210  0.37393542  0.29972380
   0.18945085  0.46746216  0.87591224
   0.19145778  0.11252854  0.16685547
   0.44492718  0.29900252  0.78878355
   0.69000898  0.78826930  0.25545356
   0.93366150  0.13756871  0.83351046
   0.44303318  0.96070883  0.47745870
   0.56766899  0.72415306  0.87606999
   0.19284269  0.46076813  0.47746604
   0.93387879  0.27870373  0.12407466
   0.31216539  0.04185518  0.38856303
   0.05960675  0.04052960  0.65588236
   0.55840611  0.37498871  0.43311910
   0.93339441  0.62504510  0.43310143
   0.31625959  0.36253000  0.16672449
   0.94674052  0.12668844  0.70025689
   0.55972361  0.04101267  0.65573084
   0.55727026  0.53837812  0.52232789
   0.17776096  0.12382972  0.29969640
   0.44145314  0.11230505  0.16684139
   0.67774970  0.62396600  0.29974885
   0.92771000  0.12407542  0.29974800
   0.81669227  0.37476205  0.56680616
   0.05265201  0.87381632  0.29982794
   0.19172846  0.62503319  0.56679533
   0.94595605  0.79894826  0.78875817
   0.30851023  0.38764301  0.83350575
   0.93951803  0.46749595  0.87596974
   0.43357923  0.63782575  0.83350949
   0.06528976  0.20936811  0.34417231
   0.18937303  0.96765347  0.87600005
   0.93151964  0.77850225  0.12408970
   0.68704636  0.79178395  0.38852268
   0.93467718  0.79061869  0.65582708
   0.94120158  0.11182670  0.16668755
   0.43476347  0.29070146  0.65585526
   0.05343359  0.20181940  0.21141246
   0.67836043  0.95138409  0.21154769
   0.17783756  0.62374439  0.29967438
   0.82181837  0.87588703  0.70019885
   0.94635153  0.62583440  0.70033820
   0.19707369  0.12633142  0.70026858
   0.94278166  0.46074067  0.47745021
   0.81267746  0.20790285  0.61134421
   0.18345651  0.62503769  0.43310862
   0.42780728  0.12414212  0.29979402
   0.67790271  0.12425669  0.29980707
   0.56203838  0.54181526  0.38853179
   0.81524969  0.20935622  0.34420127
   0.43966906  0.46756983  0.87587775
   0.55852731  0.88740160  0.83349219
   0.31798449  0.21078361  0.47746137
   0.19298663  0.96079579  0.47746589
   0.05858634  0.88754707  0.83338750
   0.05740289  0.53822320  0.52232971
   0.94279212  0.96076497  0.47745549
   0.06284777  0.70784498  0.61126624
   0.55740242  0.03827867  0.52236344
   0.69639737  0.29887030  0.78869118
   0.81639474  0.36210293  0.16651631
   0.43340781  0.12500950  0.43309123
   0.06792404  0.21074275  0.47747011
   0.30975164  0.04073255  0.65576476
   0.43224107  0.78830728  0.52227100
   0.18362218  0.13762142  0.83351885
   0.18168250  0.27756676  0.12405171
   0.94029669  0.45932151  0.34418365
   0.31643781  0.86251984  0.16672252
   0.30340982  0.70191804  0.21148132
   0.94131605  0.61228188  0.16661975
   0.18785297  0.45833563  0.61138959
   0.07238917  0.87633144  0.70015944
   0.05977831  0.54066738  0.65583115
   0.30943538  0.53080438  0.12424067
   0.93708247  0.79175581  0.38853168
   0.94661746  0.29908570  0.78863181
   0.18462954  0.29053728  0.65579804
   0.93765486  0.95798375  0.61130712
   0.81100729  0.71099558  0.74458868
   0.68993350  0.28818762  0.25546998
   0.06007205  0.71202437  0.74489430
   0.67851345  0.45084449  0.21133546
   0.81803225  0.21081568  0.47746428
   0.56791532  0.71057301  0.47750153
   0.06626391  0.86249892  0.16659149
   0.93237455  0.28831250  0.52232711
   0.68475295  0.79092116  0.65571944
   0.05844959  0.87497885  0.43310843
   0.06796788  0.22264049  0.87612267
   0.80984657  0.04085408  0.65574604
   0.56006347  0.03196719  0.12441262
   0.30841723  0.37499703  0.43310992
   0.31667751  0.37480560  0.56679280
   0.31789704  0.71069739  0.47743689
   0.05740266  0.03821641  0.52232689
   0.32226831  0.87620146  0.70021928
   0.06579896  0.53773268  0.25543844
   0.68342209  0.13750389  0.83351047
   0.81589191  0.03746074  0.25538281
   0.18340244  0.12501241  0.43311657
   0.69729211  0.12683041  0.70032409
   0.18240451  0.28822110  0.52232204
   0.44014151  0.78815128  0.25545536
   0.81580321  0.53757385  0.25544233
   0.06259582  0.20812175  0.61128292
   0.18701126  0.79180213  0.38851751
   0.30738219  0.53824704  0.52234784
   0.82246094  0.37596115  0.70005995
   0.68710534  0.29184254  0.38856227
   0.19159873  0.12499749  0.56688653
   0.68957293  0.96844072  0.87593271
   0.69187708  0.12513141  0.56670198
   0.44032124  0.95935554  0.34418360
   0.18550983  0.96224281  0.74432041
   0.93991917  0.78819511  0.25545889
   0.55839814  0.87499621  0.43308251
   0.30843428  0.87495546  0.43310639
   0.80727201  0.53820198  0.52234874
   0.92853721  0.45093978  0.21132772
   0.31533640  0.53788744  0.25546562
   0.56219152  0.04183469  0.38859170
   0.93772113  0.45822186  0.61136513
   0.06216336  0.04182963  0.38858011
   0.06211262  0.54179604  0.38852222
   0.43722346  0.29184289  0.38859145
   0.69292599  0.46072032  0.47744623
   0.06669123  0.37461656  0.56682927
   0.55362271  0.70189413  0.21150387
   0.93990501  0.28827066  0.25547067
   0.82081988  0.04908974  0.78882286
   0.19029552  0.95931184  0.34416717
   0.55269514  0.87391015  0.29987993
   0.05844557  0.37499031  0.43309424
   0.31530672  0.70941528  0.34418643
   0.31540423  0.20952123  0.34413050
   0.94171909  0.12500328  0.56688259
   0.43793597  0.95791638  0.61127925
   0.56561310  0.03742672  0.25543762
   0.18219239  0.77898613  0.12429035
   0.06567882  0.03750194  0.25545443
   0.69170704  0.62496631  0.56675576
   0.44203753  0.61266397  0.16675838
   0.30720587  0.03827451  0.52231934
   0.68185794  0.27862820  0.12417380
   0.81794227  0.71073310  0.47744915
   0.43365794  0.13786092  0.83348060
   0.32185853  0.37608283  0.70020317
   0.68362360  0.63773485  0.83348832
   0.56088912  0.71194614  0.74443889
   0.93719235  0.29178972  0.38856215
   0.93939950  0.96761923  0.87592751
   0.93541534  0.96218555  0.74447171
   0.81703004  0.87469588  0.56671761
   0.80271504  0.87394933  0.29986219
   0.31562943  0.03755651  0.25548926
   0.43060515  0.27800739  0.12417522
   0.31249337  0.70801879  0.61137495
   0.43342240  0.62499090  0.43310483
   0.68402015  0.46261636  0.74477039
   0.56594554  0.86171702  0.16586479
   0.07202526  0.54921241  0.78858077
   0.81741772  0.86197199  0.16586807
   0.56029276  0.21030545  0.74447187
   0.56272066  0.20695765  0.61122507
   0.57358461  0.87709099  0.70040953
Direct configuration=     2
   0.05392182  0.70180776  0.21143245
   0.31817598  0.72313978  0.87606784
   0.68760538  0.95802867  0.61135542
   0.43813397  0.45756689  0.61122801
   0.43950677  0.28804008  0.25552007
   0.05891855  0.38775605  0.83356070
   0.30904081  0.88748891  0.83358524
   0.44657919  0.62625532  0.70018735
   0.06093820  0.21206494  0.74475216
   0.17901492  0.45116058  0.21132509
   0.56725566  0.21052865  0.47751201
   0.06640231  0.87480157  0.56674707
   0.56747253  0.22327334  0.87604295
   0.81045829  0.53164392  0.12433320
   0.42865699  0.95145617  0.21144480
   0.56632472  0.37482800  0.56685148
   0.81221490  0.04187913  0.38861955
   0.68302227  0.78878658  0.52220863
   0.44226632  0.46048191  0.47751870
   0.43545765  0.96211590  0.74455535
   0.44157990  0.62491141  0.56673202
   0.06085253  0.53086504  0.12431669
   0.31026084  0.03156306  0.12434700
   0.68985078  0.95926877  0.34421968
   0.68179643  0.77822060  0.12406066
   0.05335029  0.37380903  0.29979046
   0.68933393  0.46813815  0.87581910
   0.42904754  0.45112034  0.21130135
   0.80872120  0.37505426  0.43312735
   0.56271762  0.70799447  0.61135219
   0.56034204  0.54152241  0.65564858
   0.93379849  0.12499452  0.43311016
   0.56513860  0.53760697  0.25549940
   0.68989036  0.45924949  0.34421757
   0.19102763  0.61204486  0.16663523
   0.19524874  0.79903856  0.78870869
   0.44649795  0.12620328  0.70020055
   0.92847129  0.62383605  0.29972868
   0.31788541  0.22313476  0.87601521
   0.31635359  0.87465857  0.56675493
   0.81733112  0.22286407  0.87603704
   0.81023524  0.54095037  0.65570326
   0.55949500  0.53158840  0.12431513
   0.57025577  0.04932639  0.78877354
   0.18941030  0.28816790  0.25550703
   0.80878277  0.87499582  0.43312463
   0.57155460  0.37616917  0.70018425
   0.06042411  0.03154403  0.12422327
   0.31008613  0.54085727  0.65577475
   0.56491469  0.20935564  0.34418265
   0.18788893  0.95793512  0.61132793
   0.30334633  0.37387264  0.29975293
   0.43481268  0.79091243  0.65563751
   0.19562707  0.29810633  0.78859366
   0.06608731  0.36262050  0.16649246
   0.69630305  0.62651487  0.70037336
   0.31208145  0.54187732  0.38854793
   0.06728951  0.72258290  0.87604403
   0.93406744  0.63755146  0.83362911
   0.31995304  0.54945426  0.78872752
   0.30389586  0.20179356  0.21143560
   0.06730401  0.71041190  0.47751093
   0.55402496  0.20159628  0.21144618
   0.31148694  0.21137817  0.74461844
   0.07146999  0.37626790  0.70035609
   0.18372703  0.63737508  0.83355714
   0.07067586  0.04884482  0.78879916
   0.44135473  0.12488027  0.56675782
   0.93540745  0.29092138  0.65569438
   0.80399206  0.20151832  0.21139570
   0.92933067  0.95113000  0.21131712
   0.94129305  0.62499604  0.56684999
   0.80885350  0.38771846  0.83356564
   0.19642334  0.62606461  0.70009390
   0.80889509  0.88748584  0.83358999
   0.68524748  0.29093158  0.65577695
   0.31277885  0.20812221  0.61137424
   0.43619627  0.46263434  0.74449615
   0.43711439  0.79188502  0.38856277
   0.68565007  0.96276821  0.74456966
   0.80383257  0.70170704  0.21147445
   0.81322418  0.70766306  0.61123484
   0.43209187  0.77845263  0.12422510
   0.31127701  0.71210753  0.74453596
   0.32024628  0.04928376  0.78886978
   0.81206167  0.54183949  0.38854897
   0.68292636  0.28848763  0.52228548
   0.69491362  0.79876769  0.78870164
   0.18937614  0.78807181  0.25549680
   0.69078341  0.11177799  0.16654399
   0.69234286  0.96038093  0.47751444
   0.93988289  0.95926221  0.34420248
   0.80809085  0.03851349  0.52225450
   0.68379750  0.62504463  0.43310989
   0.43984537  0.45924012  0.34420895
   0.81083085  0.21258455  0.74454414
   0.43956183  0.96810321  0.87595964
   0.56633403  0.87494191  0.56680686
   0.81091275  0.03151655  0.12432376
   0.42846943  0.62386752  0.29973155
   0.81726600  0.72316360  0.87606101
   0.68767811  0.45808647  0.61125161
   0.55899367  0.38762702  0.83333855
   0.80343461  0.37384196  0.29973217
   0.18708870  0.29186735  0.38856417
   0.82065936  0.54893354  0.78881444
   0.18293254  0.78851203  0.52231520
   0.30335315  0.87387703  0.29976883
   0.17918849  0.95129881  0.21127236
   0.18575342  0.46220279  0.74458750
   0.43291141  0.28850738  0.52226794
   0.06490904  0.70930951  0.34421086
   0.18511643  0.79062344  0.65577612
   0.44476107  0.79909063  0.78875594
   0.68378770  0.12506817  0.43309721
   0.93295196  0.78852266  0.52230960
   0.69135959  0.61301187  0.16654251
   0.81486924  0.70934137  0.34419718
   0.93541887  0.46256138  0.74471770
   0.18984263  0.45926565  0.34422239
   0.56989768  0.54928900  0.78887545
   0.56562572  0.36232815  0.16659287
   0.56486724  0.70929271  0.34420789
   0.55340804  0.37390911  0.29973216
   0.18937301  0.46795368  0.87585138
   0.19102555  0.11284962  0.16676642
   0.44464625  0.29892209  0.78875812
   0.68945127  0.78814833  0.25549096
   0.93409240  0.13743438  0.83354563
   0.44243499  0.96046127  0.47751133
   0.56736907  0.72357932  0.87600793
   0.19227674  0.46052072  0.47752126
   0.93398146  0.27901885  0.12414227
   0.31212413  0.04191071  0.38856328
   0.06005620  0.04061677  0.65584517
   0.55877793  0.37502219  0.43311837
   0.93376869  0.62506956  0.43310235
   0.31568071  0.36269915  0.16666895
   0.94616129  0.12673409  0.70025778
   0.56016267  0.04106883  0.65570324
   0.55783622  0.53872466  0.52227702
   0.17844614  0.12378800  0.29970610
   0.44099359  0.11249274  0.16677164
   0.67845582  0.62389885  0.29975665
   0.92842060  0.12398188  0.29975003
   0.81628970  0.37471848  0.56678768
   0.05334824  0.87379153  0.29982316
   0.19135293  0.62494915  0.56678412
   0.94536387  0.79893388  0.78875711
   0.30890026  0.38752691  0.83358544
   0.93947358  0.46798206  0.87589642
   0.43395931  0.63774209  0.83358317
   0.06484693  0.20928504  0.34420290
   0.18928567  0.96812314  0.87592149
   0.93190832  0.77885370  0.12409838
   0.68702865  0.79183020  0.38853062
   0.93511901  0.79067132  0.65578498
   0.94084400  0.11210857  0.16661693
   0.43517537  0.29083492  0.65581305
   0.05397132  0.20175165  0.21141202
   0.67890639  0.95145876  0.21152032
   0.17851111  0.62375090  0.29969246
   0.82127889  0.87602050  0.70020230
   0.94580054  0.62589085  0.70032585
   0.19644508  0.12639854  0.70025267
   0.94225035  0.46048731  0.47750769
   0.81280418  0.20785720  0.61134608
   0.18381595  0.62506440  0.43311091
   0.42848149  0.12405923  0.29979071
   0.67857538  0.12413749  0.29979899
   0.56202137  0.54185277  0.38853992
   0.81480806  0.20925076  0.34422585
   0.43958337  0.46807985  0.87580406
   0.55887045  0.88722298  0.83358070
   0.31740619  0.21052761  0.47751275
   0.19241434  0.96054890  0.47752556
   0.05896766  0.88740662  0.83348062
   0.05794465  0.53850118  0.52228921
   0.94225092  0.96052463  0.47751496
   0.06288205  0.70783414  0.61128142
   0.55795709  0.03857989  0.52231695
   0.69588543  0.29880824  0.78869232
   0.81598465  0.36223952  0.16647650
   0.43377542  0.12503198  0.43309608
   0.06735817  0.21050628  0.47752140
   0.31022103  0.04079030  0.65572308
   0.43281467  0.78861094  0.52223787
   0.18410180  0.13747201  0.83356416
   0.18209442  0.27791331  0.12411381
   0.93984384  0.45924616  0.34420950
   0.31600156  0.86270997  0.16667039
   0.30395770  0.70186798  0.21147656
   0.94085714  0.61229310  0.16656569
   0.18789140  0.45827604  0.61139159
   0.07171295  0.87637481  0.70015717
   0.06023236  0.54076453  0.65580347
   0.30959894  0.53052506  0.12431536
   0.93706851  0.79180924  0.38853803
   0.94593546  0.29903037  0.78864169
   0.18506291  0.29068651  0.65576618
   0.93771171  0.95789016  0.61132512
   0.81151385  0.71119804  0.74456992
   0.68941188  0.28803119  0.25549767
   0.06065789  0.71218179  0.74481822
   0.67904370  0.45095197  0.21131750
   0.81743726  0.21055224  0.47751530
   0.56734834  0.71032373  0.47755360
   0.06574246  0.86271029  0.16655254
   0.93293289  0.28861789  0.52229260
   0.68517471  0.79102599  0.65569821
   0.05880731  0.87499728  0.43310560
   0.06764228  0.22217386  0.87606599
   0.81028524  0.04090787  0.65571168
   0.56015881  0.03157209  0.12441709
   0.30879298  0.37502161  0.43311190
   0.31632320  0.37475582  0.56677568
   0.31732081  0.71045047  0.47749018
   0.05795056  0.03851932  0.52229057
   0.32150472  0.87623084  0.70021276
   0.06512855  0.53772263  0.25546342
   0.68391668  0.13737663  0.83357013
   0.81518741  0.03747575  0.25542136
   0.18377782  0.12502467  0.43311971
   0.69665189  0.12685771  0.70030210
   0.18294425  0.28851384  0.52228898
   0.43958313  0.78802305  0.25549298
   0.81513666  0.53759614  0.25546534
   0.06266078  0.20806783  0.61130060
   0.18700448  0.79185712  0.38852723
   0.30793308  0.53853649  0.52231016
   0.82178868  0.37607866  0.70008318
   0.68708147  0.29188639  0.38856628
   0.19123867  0.12488920  0.56685083
   0.68947887  0.96889462  0.87586152
   0.69148646  0.12505904  0.56668833
   0.43986166  0.95928222  0.34421638
   0.18593741  0.96223219  0.74433170
   0.93936576  0.78806336  0.25548921
   0.55877550  0.87503254  0.43308691
   0.30880844  0.87498711  0.43310909
   0.80783351  0.53849462  0.52231014
   0.92906705  0.45102431  0.21131534
   0.31478576  0.53783008  0.25548549
   0.56213712  0.04188316  0.38858675
   0.93778590  0.45819046  0.61136640
   0.06212961  0.04187828  0.38858074
   0.06207336  0.54183928  0.38853074
   0.43716661  0.29188217  0.38858502
   0.69235939  0.46047525  0.47749917
   0.06634950  0.37459072  0.56681185
   0.55418633  0.70176504  0.21150014
   0.93938572  0.28812423  0.25550013
   0.82029365  0.04910213  0.78882249
   0.18984248  0.95924042  0.34419462
   0.55338189  0.87387675  0.29986688
   0.05880771  0.37502058  0.43309905
   0.31486258  0.70931426  0.34421037
   0.31493833  0.20940369  0.34416992
   0.94136170  0.12490264  0.56685635
   0.43792840  0.95785657  0.61128643
   0.56498058  0.03746424  0.25548245
   0.18256129  0.77925747  0.12433645
   0.06502119  0.03755327  0.25548266
   0.69134149  0.62493371  0.56674231
   0.44159820  0.61271281  0.16667921
   0.30776059  0.03854422  0.52227786
   0.68223329  0.27897713  0.12423331
   0.81737301  0.71046683  0.47750439
   0.43415282  0.13767951  0.83353354
   0.32121671  0.37613762  0.70021182
   0.68413157  0.63760274  0.83354535
   0.56127172  0.71215207  0.74443866
   0.93716466  0.29183772  0.38856146
   0.93940123  0.96810533  0.87585990
   0.93597705  0.96225745  0.74446666
   0.81660096  0.87468574  0.56671023
   0.80340524  0.87391454  0.29985123
   0.31503063  0.03760322  0.25552216
   0.43113008  0.27834710  0.12423210
   0.31251400  0.70792618  0.61136370
   0.43377791  0.62501871  0.43310650
   0.68467204  0.46266492  0.74474209
   0.56547178  0.86198819  0.16588270
   0.07149192  0.54922794  0.78859441
   0.81704548  0.86222129  0.16587300
   0.56067940  0.21048486  0.74447160
   0.56276323  0.20712199  0.61122597
   0.57279466  0.87700879  0.70039026
Direct configuration=     3
   0.05547196  0.70162061  0.21145322
   0.31717093  0.72151704  0.87586827
   0.68792844  0.95772679  0.61135363
   0.43813441  0.45762051  0.61130357
   0.43783385  0.28766831  0.25560623
   0.05995924  0.38723432  0.83380326
   0.31033626  0.88704817  0.83384723
   0.44434230  0.62646612  0.70016865
   0.06247060  0.21228097  0.74453632
   0.18054170  0.45135541  0.21133571
   0.56565188  0.20974640  0.47767305
   0.06530604  0.87461956  0.56669046
   0.56653919  0.22154663  0.87583822
   0.81062479  0.53034845  0.12449618
   0.43030688  0.95164407  0.21145025
   0.56535261  0.37453966  0.56674514
   0.81205227  0.04203648  0.38858544
   0.68460603  0.78957078  0.52214463
   0.44059973  0.45971564  0.47767109
   0.43692672  0.96227930  0.74452706
   0.44027546  0.62476266  0.56671298
   0.06084243  0.53003022  0.12450442
   0.31064493  0.03047413  0.12457379
   0.68848574  0.95906401  0.34432278
   0.68296420  0.77948188  0.12401815
   0.05545010  0.37368759  0.29978484
   0.68920144  0.46966041  0.87560430
   0.43052223  0.45136075  0.21129766
   0.80988292  0.37513121  0.43312427
   0.56283392  0.70783069  0.61134216
   0.56164782  0.54153067  0.65555313
   0.93490788  0.12507482  0.43312320
   0.56322739  0.53764566  0.25556265
   0.68850533  0.45905344  0.34428549
   0.18984422  0.61239245  0.16641768
   0.19404345  0.79905708  0.78865036
   0.44417723  0.12641299  0.70016657
   0.93056286  0.62371910  0.29976524
   0.31668347  0.22150510  0.87583915
   0.31514573  0.87459119  0.56670557
   0.81646927  0.22138228  0.87583178
   0.81159772  0.54109719  0.65562083
   0.55996397  0.53029299  0.12453625
   0.56895789  0.04912400  0.78879818
   0.18775758  0.28778306  0.25559571
   0.80989866  0.87506668  0.43313093
   0.56940092  0.37644406  0.70020982
   0.06048371  0.03046288  0.12445691
   0.31146870  0.54103667  0.65566925
   0.56353301  0.20900561  0.34428825
   0.18805319  0.95770366  0.61137883
   0.30538848  0.37371375  0.29977981
   0.43628885  0.79097431  0.65556435
   0.19403385  0.29829161  0.78864097
   0.06489030  0.36308454  0.16639775
   0.69452864  0.62637824  0.70024482
   0.31202501  0.54201909  0.38856178
   0.06636918  0.72105533  0.87584950
   0.93541248  0.63731882  0.83385928
   0.31897991  0.54938514  0.78877280
   0.30548239  0.20157358  0.21145610
   0.06568063  0.70966298  0.47766594
   0.55557054  0.20131620  0.21144997
   0.31262662  0.21208996  0.74445653
   0.06948932  0.37622252  0.70030691
   0.18511800  0.63700767  0.83370715
   0.06908886  0.04883761  0.78878042
   0.44019645  0.12468627  0.56670513
   0.93676638  0.29109935  0.65559505
   0.80558097  0.20132357  0.21138894
   0.93068282  0.95137652  0.21130487
   0.94022620  0.62475745  0.56677898
   0.81015053  0.38721814  0.83381725
   0.19445159  0.62613730  0.70016475
   0.80993420  0.88688130  0.83378233
   0.68674559  0.29144381  0.65566715
   0.31278223  0.20799220  0.61140482
   0.43736871  0.46245126  0.74439228
   0.43699574  0.79200007  0.38855610
   0.68767639  0.96262295  0.74454301
   0.80540548  0.70131211  0.21149032
   0.81350226  0.70753422  0.61124229
   0.43307223  0.77944916  0.12427686
   0.31239669  0.71245284  0.74442421
   0.31927596  0.04918318  0.78890243
   0.81198627  0.54197386  0.38856711
   0.68459691  0.28938574  0.52217663
   0.69375659  0.79884076  0.78869886
   0.18774345  0.78760269  0.25557945
   0.68955818  0.11235369  0.16643582
   0.69066251  0.95973272  0.47766624
   0.93847495  0.95904797  0.34429124
   0.80971417  0.03927569  0.52209729
   0.68492604  0.62508945  0.43311420
   0.43848259  0.45903605  0.34428558
   0.81297028  0.21272184  0.74446062
   0.43933176  0.96965266  0.87570889
   0.56533030  0.87482873  0.56672873
   0.81077685  0.03042331  0.12435511
   0.43055217  0.62373455  0.29976270
   0.81631481  0.72152537  0.87587972
   0.68797151  0.45796543  0.61130932
   0.56014750  0.38719969  0.83363730
   0.80544318  0.37377193  0.29975935
   0.18700769  0.29197456  0.38855811
   0.81878843  0.54918049  0.78887877
   0.18456363  0.78936718  0.52219424
   0.30541257  0.87374644  0.29979675
   0.18055407  0.95132259  0.21128660
   0.18729186  0.46253869  0.74445247
   0.43455252  0.28942293  0.52215395
   0.06353990  0.70899855  0.34427569
   0.18644740  0.79082297  0.65566531
   0.44363955  0.79913392  0.78872415
   0.68490390  0.12511641  0.43311954
   0.93461043  0.78935445  0.52219254
   0.68989863  0.61319509  0.16639077
   0.81353903  0.70898941  0.34427953
   0.93728721  0.46249194  0.74450084
   0.18848703  0.45900723  0.34429111
   0.56901353  0.54888865  0.78885324
   0.56398213  0.36285037  0.16642734
   0.56352309  0.70900641  0.34428996
   0.55540584  0.37383017  0.29975725
   0.18913949  0.46942822  0.87566880
   0.18972886  0.11381285  0.16649930
   0.44380345  0.29868080  0.78868183
   0.68777816  0.78778541  0.25560313
   0.93538512  0.13703139  0.83365113
   0.44064043  0.95971860  0.47766923
   0.56646931  0.72185811  0.87582173
   0.19057888  0.45977848  0.47768691
   0.93428945  0.27996421  0.12434507
   0.31200035  0.04207730  0.38856403
   0.06140454  0.04087829  0.65573361
   0.55989339  0.37512263  0.43311615
   0.93489153  0.62514296  0.43310513
   0.31394410  0.36320659  0.16650235
   0.94442360  0.12687105  0.70026048
   0.56147985  0.04123733  0.65562046
   0.55953412  0.53976430  0.52212442
   0.18050169  0.12366285  0.29973521
   0.43961495  0.11305583  0.16656239
   0.68057418  0.62369741  0.29978002
   0.93055240  0.12370125  0.29975612
   0.81508201  0.37458779  0.56673225
   0.05543694  0.87371716  0.29980881
   0.19022633  0.62469703  0.56675049
   0.94358733  0.79889073  0.78875390
   0.31007034  0.38717862  0.83382452
   0.93934022  0.46944039  0.87567648
   0.43509953  0.63749112  0.83380424
   0.06351846  0.20903585  0.34429470
   0.18902357  0.96953213  0.87568581
   0.93307436  0.77990804  0.12412441
   0.68697553  0.79196896  0.38855444
   0.93644451  0.79082920  0.65565866
   0.93977125  0.11295419  0.16640504
   0.43641106  0.29123528  0.65568639
   0.05558451  0.20154839  0.21141071
   0.68054426  0.95168277  0.21143821
   0.18053178  0.62377043  0.29974668
   0.81966046  0.87642091  0.70021266
   0.94414755  0.62606022  0.70028879
   0.19455924  0.12659990  0.70020495
   0.94065644  0.45972723  0.47768013
   0.81318433  0.20772025  0.61135167
   0.18489428  0.62514451  0.43311779
   0.43050412  0.12381055  0.29978079
   0.68059338  0.12377990  0.29977475
   0.56197034  0.54196529  0.38856433
   0.81348319  0.20893436  0.34429960
   0.43932631  0.46960990  0.87558300
   0.55989985  0.88668714  0.83384624
   0.31567130  0.20975959  0.47766689
   0.19069747  0.95980823  0.47770459
   0.06011161  0.88698527  0.83375998
   0.05956993  0.53933511  0.52216771
   0.94062734  0.95980361  0.47769336
   0.06298491  0.70780159  0.61132693
   0.55962113  0.03948355  0.52217746
   0.69434963  0.29862204  0.78869573
   0.81475437  0.36264931  0.16635704
   0.43487825  0.12509943  0.43311062
   0.06566056  0.20979687  0.47767524
   0.31162920  0.04096354  0.65559806
   0.43453547  0.78952191  0.52213847
   0.18554069  0.13702377  0.83370008
   0.18333019  0.27895294  0.12430011
   0.93848531  0.45902012  0.34428703
   0.31469281  0.86328036  0.16651400
   0.30560136  0.70171779  0.21146229
   0.93948041  0.61232678  0.16640349
   0.18800670  0.45809729  0.61139761
   0.06968430  0.87650492  0.70015037
   0.06159450  0.54105598  0.65572042
   0.31008960  0.52968708  0.12453946
   0.93702664  0.79196955  0.38855707
   0.94388946  0.29886436  0.78867133
   0.18636302  0.29113422  0.65567058
   0.93788225  0.95760940  0.61137912
   0.81303351  0.71180545  0.74451364
   0.68784700  0.28756188  0.25558074
   0.06241539  0.71265406  0.74459000
   0.68063445  0.45127440  0.21126359
   0.81565230  0.20976194  0.47766836