       N       E                     dE             d eps       ncg     rms          rms(c)
DAV:   1     0.303332756747E+05    0.30333E+05   -0.91517E+05 13790   0.214E+03
DAV:   2     0.156344449237E+04   -0.28770E+05   -0.28191E+05 13700   0.619E+02
DAV:   3    -0.188284906692E+04   -0.34463E+04   -0.30084E+04 19130   0.300E+02
DAV:   4    -0.261060306836E+04   -0.72775E+03   -0.66447E+03 25160   0.105E+02
DAV:   5    -0.274364531964E+04   -0.13304E+03   -0.12451E+03 23940   0.429E+01    0.207E+02
RMM:   6    -0.671678949830E+04   -0.39731E+04   -0.16088E+04 24160   0.281E+02    0.819E+02
RMM:   7    -0.692418267684E+04   -0.20739E+03   -0.10064E+04 24924   0.135E+02    0.657E+02
RMM:   8    -0.701775588251E+04   -0.93573E+02   -0.17257E+04 18996   0.402E+02    0.116E+03
RMM:   9    -0.894631090574E+04   -0.19286E+04   -0.11868E+04 21902   0.255E+02    0.125E+03
RMM:  10    -0.105840971372E+05   -0.16378E+04   -0.10445E+04 23406   0.278E+02    0.146E+03
RMM:  11    -0.122762904182E+05   -0.16922E+04   -0.96460E+03 24007   0.246E+02    0.131E+03
RMM:  12    -0.148706007598E+05   -0.25943E+04   -0.15920E+04 24535   0.277E+02    0.109E+03
RMM:  13    -0.124703229831E+05    0.24003E+04   -0.12269E+04 22075   0.251E+02    0.117E+03
RMM:  14    -0.137407272326E+05   -0.12704E+04   -0.13685E+04 24614   0.178E+02    0.115E+03
RMM:  15    -0.911023805294E+04    0.46305E+04   -0.63592E+03 23215   0.151E+02    0.859E+02
RMM:  16    -0.600790773112E+04    0.31023E+04   -0.62458E+03 19149   0.148E+02    0.586E+02
RMM:  17    -0.502499822232E+04    0.98291E+03   -0.65698E+03 20770   0.167E+02    0.516E+02
RMM:  18    -0.300587590684E+04    0.20191E+04   -0.52833E+03 17559   0.128E+02    0.378E+02
RMM:  19    -0.175776200279E+04    0.12481E+04   -0.48640E+03 24733   0.111E+02    0.293E+02
RMM:  20    -0.177215839703E+04   -0.14396E+02   -0.44564E+03 25319   0.855E+01    0.288E+02
RMM:  21    -0.191368825650E+04   -0.14153E+03   -0.19794E+03 23655   0.932E+01    0.251E+02
RMM:  22    -0.208213146897E+04   -0.16844E+03   -0.19496E+03 25325   0.743E+01    0.237E+02
RMM:  23    -0.220853822357E+04   -0.12641E+03   -0.12963E+03 25609   0.689E+01    0.219E+02
RMM:  24    -0.245816021658E+04   -0.24962E+03   -0.97476E+02 26064   0.646E+01    0.236E+02
RMM:  25    -0.274765392230E+04   -0.28949E+03   -0.12945E+03 25364   0.671E+01    0.269E+02
RMM:  26    -0.298239447610E+04   -0.23474E+03   -0.11711E+03 25919   0.670E+01    0.284E+02
RMM:  27    -0.318163064775E+04   -0.19924E+03   -0.13302E+03 25080   0.638E+01    0.294E+02
RMM:  28    -0.333340673623E+04   -0.15178E+03   -0.10700E+03 24522   0.590E+01    0.297E+02
RMM:  29    -0.347199156619E+04   -0.13858E+03   -0.86259E+02 24531   0.548E+01    0.306E+02
RMM:  30    -0.357980507234E+04   -0.10781E+03   -0.66709E+02 25013   0.514E+01    0.301E+02
RMM:  31    -0.355533653527E+04    0.24469E+02   -0.47052E+02 24714   0.453E+01    0.286E+02
RMM:  32    -0.340463493066E+04    0.15070E+03   -0.25182E+02 24820   0.430E+01    0.270E+02
RMM:  33    -0.331626059763E+04    0.88374E+02   -0.23309E+02 24733   0.353E+01    0.259E+02
RMM:  34    -0.326025469260E+04    0.56006E+02   -0.23203E+02 24336   0.342E+01    0.252E+02
RMM:  35    -0.332588724764E+04   -0.65633E+02   -0.29655E+02 23902   0.293E+01    0.255E+02
RMM:  36    -0.335814704508E+04   -0.32260E+02   -0.10824E+02 25121   0.237E+01    0.252E+02
RMM:  37    -0.339503609144E+04   -0.36889E+02    0.50764E+01 23932   0.195E+01    0.254E+02
RMM:  38    -0.342657879990E+04   -0.31543E+02    0.13028E+02 25395   0.170E+01    0.257E+02
RMM:  39    -0.343307630183E+04   -0.64975E+01    0.11194E+02 23327   0.158E+01    0.260E+02
RMM:  40    -0.342739301543E+04    0.56833E+01    0.14284E+01 23015   0.161E+01    0.262E+02
RMM:  41    -0.344201283631E+04   -0.14620E+02    0.46298E+01 23906   0.133E+01    0.262E+02
RMM:  42    -0.345830942537E+04   -0.16297E+02    0.99848E+01 24812   0.117E+01    0.263E+02
RMM:  43    -0.350907293080E+04   -0.50764E+02    0.78252E+01 23205   0.111E+01    0.268E+02
RMM:  44    -0.352500455692E+04   -0.15932E+02    0.26554E+01 22231   0.111E+01    0.272E+02
RMM:  45    -0.355742380803E+04   -0.32419E+02    0.13818E+01 23257   0.997E+00    0.275E+02
RMM:  46    -0.357769544629E+04   -0.20272E+02    0.30917E+01 24481   0.908E+00    0.276E+02
RMM:  47    -0.361623767985E+04   -0.38542E+02    0.19803E+01 22200   0.970E+00    0.280E+02
RMM:  48    -0.364980222319E+04   -0.33565E+02   -0.18102E-01 22446   0.948E+00    0.285E+02
RMM:  49    -0.366336998090E+04   -0.13568E+02    0.85775E+00 24041   0.861E+00    0.286E+02
RMM:  50    -0.368756659677E+04   -0.24197E+02    0.22277E+01 23330   0.827E+00    0.289E+02
RMM:  51    -0.346254567490E+04    0.22502E+03   -0.27601E+02 21415   0.154E+01    0.280E+02
RMM:  52    -0.352053389744E+04   -0.57988E+02   -0.45597E+02 22850   0.179E+01    0.292E+02
RMM:  53    -0.346475074081E+04    0.55783E+02   -0.36663E+02 23846   0.135E+01    0.287E+02
RMM:  54    -0.346241249645E+04    0.23382E+01   -0.26943E+02 24181   0.104E+01    0.289E+02
RMM:  55    -0.350040802071E+04   -0.37996E+02   -0.22960E+02 24179   0.899E+00    0.292E+02
RMM:  56    -0.431520709849E+04   -0.81480E+03   -0.20976E+03 21373   0.632E+01    0.392E+02
RMM:  57    -0.419822098501E+04    0.11699E+03   -0.19938E+03 23805   0.311E+01    0.388E+02
RMM:  58    -0.397508891037E+04    0.22313E+03   -0.16061E+03 20184   0.420E+01    0.382E+02
RMM:  59    -0.373842096210E+04    0.23667E+03   -0.12725E+03 20721   0.348E+01    0.357E+02
RMM:  60    -0.358574828756E+04    0.15267E+03   -0.97020E+02 19954   0.278E+01    0.336E+02
RMM:  61    -0.334343123659E+04    0.24232E+03   -0.12860E+03 19064   0.414E+01    0.323E+02
RMM:  62    -0.363942622055E+04   -0.29599E+03   -0.95263E+02 14211   0.648E+01    0.329E+02
RMM:  63    -0.347898259241E+04    0.16044E+03   -0.55542E+02 18693   0.297E+01    0.342E+02
RMM:  64    -0.354829573627E+04   -0.69313E+02   -0.39387E+02 19439   0.177E+01    0.340E+02
RMM:  65    -0.355353463792E+04   -0.52389E+01   -0.20290E+02 20938   0.107E+01    0.333E+02
RMM:  66    -0.319292425441E+04    0.36061E+03   -0.55624E+02 14481   0.428E+01    0.320E+02
RMM:  67    -0.352441435324E+04   -0.33149E+03   -0.33223E+02 13859   0.402E+01    0.319E+02
RMM:  68    -0.340510249608E+04    0.11931E+03   -0.17110E+02 13975   0.273E+01    0.335E+02
RMM:  69    -0.340658981163E+04   -0.14873E+01   -0.13926E+02 18712   0.130E+01    0.337E+02
RMM:  70    -0.340393426290E+04    0.26555E+01   -0.69759E+01 16170   0.103E+01    0.338E+02
RMM:  71    -0.456985351857E+04   -0.11659E+04   -0.29845E+03 19273   0.895E+01    0.395E+02
RMM:  72    -0.372757836891E+04    0.84228E+03   -0.85119E+02 15017   0.577E+01    0.330E+02
RMM:  73    -0.350181297873E+04    0.22577E+03   -0.58381E+02 14741   0.450E+01    0.313E+02
RMM:  74    -0.314173658557E+04    0.36008E+03   -0.50585E+02 18779   0.281E+01    0.271E+02
RMM:  75    -0.306926725648E+04    0.72469E+02   -0.22083E+02 15098   0.244E+01    0.261E+02
RMM:  76    -0.286982730290E+04    0.19944E+03   -0.74120E+02 16637   0.415E+01    0.258E+02
RMM:  77    -0.277187203195E+04    0.97955E+02   -0.33597E+02 13816   0.403E+01    0.233E+02
RMM:  78    -0.262614863422E+04    0.14572E+03   -0.41891E+02 17787   0.264E+01    0.198E+02
RMM:  79    -0.252714783446E+04    0.99001E+02   -0.22147E+02 16348   0.217E+01    0.163E+02
RMM:  80    -0.250230495697E+04    0.24843E+02   -0.21977E+02 16673   0.204E+01    0.153E+02
RMM:  81    -0.260314842908E+04   -0.10084E+03   -0.73053E+02 17237   0.435E+01    0.205E+02
RMM:  82    -0.243795199528E+04    0.16520E+03   -0.17558E+02 13710   0.311E+01    0.131E+02
RMM:  83    -0.241753983570E+04    0.20412E+02   -0.10358E+02 14732   0.181E+01    0.124E+02
RMM:  84    -0.241258412311E+04    0.49557E+01   -0.12896E+02 17709   0.135E+01    0.120E+02
RMM:  85    -0.241088678507E+04    0.16973E+01   -0.69277E+01 16454   0.119E+01    0.116E+02
RMM:  86    -0.253982212563E+04   -0.12894E+03   -0.29710E+02 15940   0.278E+01    0.190E+02
RMM:  87    -0.239464988456E+04    0.14517E+03   -0.10532E+02 13848   0.215E+01    0.110E+02
RMM:  88    -0.237926261805E+04    0.15387E+02   -0.93253E+01 16045   0.138E+01    0.942E+01
RMM:  89    -0.238124376059E+04   -0.19811E+01   -0.94264E+01 19494   0.944E+00    0.893E+01
RMM:  90    -0.238369238797E+04   -0.24486E+01   -0.52892E+01 18591   0.684E+00    0.874E+01
RMM:  91    -0.302471522501E+04   -0.64102E+03   -0.81582E+02 16845   0.477E+01    0.284E+02
RMM:  92    -0.269829240003E+04    0.32642E+03   -0.18160E+02 14249   0.289E+01    0.227E+02
RMM:  93    -0.274178853406E+04   -0.43496E+02   -0.68087E+01 13702   0.182E+01    0.231E+02
RMM:  94    -0.276520571153E+04   -0.23417E+02   -0.69412E+01 15564   0.125E+01    0.227E+02
RMM:  95    -0.276371548425E+04    0.14902E+01   -0.49783E+01 19524   0.833E+00    0.227E+02
RMM:  96    -0.262254309543E+04    0.14117E+03   -0.21700E+02 14778   0.264E+01    0.204E+02
RMM:  97    -0.255412081726E+04    0.68422E+02   -0.13680E+02 13701   0.280E+01    0.198E+02
RMM:  98    -0.248106410654E+04    0.73057E+02   -0.59766E+01 14399   0.146E+01    0.173E+02
RMM:  99    -0.243368315444E+04    0.47381E+02   -0.66167E+01 15486   0.126E+01    0.144E+02
RMM: 100    -0.237840638948E+04    0.55277E+02   -0.85109E+01 17621   0.119E+01    0.947E+01
RMM: 101    -0.237218805789E+04    0.62183E+01   -0.10342E+02 17159   0.144E+01    0.902E+01
RMM: 102    -0.234773603516E+04    0.24452E+02   -0.48153E+01 14180   0.143E+01    0.655E+01
RMM: 103    -0.234963125058E+04   -0.18952E+01   -0.53831E+01 17095   0.102E+01    0.664E+01
RMM: 104    -0.234446045356E+04    0.51708E+01   -0.25951E+01 15398   0.819E+00    0.578E+01
RMM: 105    -0.234417994494E+04    0.28051E+00   -0.19428E+01 16080   0.637E+00    0.583E+01
RMM: 106    -0.235076353288E+04   -0.65836E+01   -0.48901E+01 15299   0.117E+01    0.639E+01
RMM: 107    -0.234278896150E+04    0.79746E+01   -0.17667E+01 13755   0.107E+01    0.570E+01
RMM: 108    -0.233876545614E+04    0.40235E+01   -0.17006E+01 14978   0.718E+00    0.473E+01
RMM: 109    -0.234019321171E+04   -0.14278E+01   -0.29784E+01 17100   0.746E+00    0.481E+01
RMM: 110    -0.233844055054E+04    0.17527E+01   -0.10838E+01 14350   0.670E+00    0.454E+01
RMM: 111    -0.239157276641E+04   -0.53132E+02   -0.98722E+01 15465   0.171E+01    0.957E+01
RMM: 112    -0.235227126109E+04    0.39302E+02   -0.33643E+01 14029   0.113E+01    0.626E+01
RMM: 113    -0.234162308765E+04    0.10648E+02   -0.12562E+01 14191   0.721E+00    0.489E+01
RMM: 114    -0.233932593118E+04    0.22972E+01   -0.11345E+01 15381   0.546E+00    0.458E+01
RMM: 115    -0.233648581371E+04    0.28401E+01   -0.11100E+01 15782   0.526E+00    0.399E+01
RMM: 116    -0.240188192470E+04   -0.65396E+02   -0.10819E+02 15285   0.180E+01    0.992E+01
RMM: 117    -0.234586581299E+04    0.56016E+02   -0.32175E+01 13707   0.133E+01    0.519E+01
RMM: 118    -0.234283788858E+04    0.30279E+01   -0.19375E+01 15238   0.736E+00    0.465E+01
RMM: 119    -0.234097752394E+04    0.18604E+01   -0.18993E+01 16533   0.572E+00    0.410E+01
RMM: 120    -0.233985810894E+04    0.11194E+01   -0.12020E+01 17712   0.429E+00    0.398E+01
RMM: 121    -0.236797432745E+04   -0.28116E+02   -0.46424E+01 15376   0.111E+01    0.733E+01
RMM: 122    -0.234321243113E+04    0.24762E+02   -0.13006E+01 13773   0.880E+00    0.454E+01
RMM: 123    -0.234050484410E+04    0.27076E+01   -0.85994E+00 14757   0.550E+00    0.405E+01
RMM: 124    -0.234043961814E+04    0.65226E-01   -0.99909E+00 14538   0.598E+00    0.429E+01
RMM: 125    -0.233759069886E+04    0.28489E+01   -0.79658E+00 13901   0.591E+00    0.395E+01
RMM: 126    -0.234709023977E+04   -0.94995E+01   -0.15648E+01 14138   0.855E+00    0.552E+01
RMM: 127    -0.233617017374E+04    0.10920E+02   -0.70194E+00 13706   0.633E+00    0.364E+01
RMM: 128    -0.233655935383E+04   -0.38918E+00   -0.54255E+00 15284   0.373E+00    0.376E+01
RMM: 129    -0.233539227444E+04    0.11671E+01   -0.39187E+00 19655   0.195E+00    0.346E+01
RMM: 130    -0.233530024763E+04    0.92027E-01   -0.10911E+00 16911   0.123E+00    0.341E+01
RMM: 131    -0.233716377185E+04   -0.18635E+01   -0.57684E+00 14286   0.479E+00    0.364E+01
RMM: 132    -0.233507276384E+04    0.20910E+01   -0.23987E+00 13708   0.417E+00    0.334E+01
RMM: 133    -0.233525963719E+04   -0.18687E+00   -0.10437E+00 14451   0.211E+00    0.329E+01
RMM: 134    -0.233465144517E+04    0.60819E+00   -0.13235E+00 14520   0.217E+00    0.312E+01
RMM: 135    -0.233342591806E+04    0.12255E+01   -0.20763E+00 14521   0.276E+00    0.266E+01
RMM: 136    -0.235604261545E+04   -0.22617E+02   -0.35394E+01 14242   0.120E+01    0.626E+01
RMM: 137    -0.233885487406E+04    0.17188E+02   -0.12719E+01 13700   0.954E+00    0.400E+01
RMM: 138    -0.233606798425E+04    0.27869E+01   -0.36132E+00 14238   0.433E+00    0.319E+01
RMM: 139    -0.233487212284E+04    0.11959E+01   -0.36546E+00 16750   0.270E+00    0.288E+01
RMM: 140    -0.233497400616E+04   -0.10188E+00   -0.17524E+00 14559   0.255E+00    0.287E+01
RMM: 141    -0.235734526925E+04   -0.22371E+02   -0.36128E+01 13934   0.122E+01    0.667E+01
RMM: 142    -0.233832952159E+04    0.19016E+02   -0.14714E+01 13700   0.107E+01    0.378E+01
RMM: 143    -0.233371870187E+04    0.46108E+01   -0.35448E+00 13877   0.399E+00    0.257E+01
RMM: 144    -0.233363429904E+04    0.84403E-01   -0.46746E+00 13990   0.441E+00    0.259E+01
RMM: 145    -0.233134595035E+04    0.22883E+01   -0.29025E+00 13992   0.357E+00    0.151E+01
RMM: 146    -0.233459362821E+04   -0.32477E+01   -0.73125E+00 14087   0.528E+00    0.282E+01
RMM: 147    -0.233086344869E+04    0.37302E+01   -0.26253E+00 13701   0.416E+00    0.112E+01
RMM: 148    -0.233081308345E+04    0.50365E-01   -0.14927E+00 15274   0.200E+00    0.113E+01
RMM: 149    -0.233064630624E+04    0.16678E+00   -0.10208E+00 15178   0.170E+00    0.950E+00
RMM: 150    -0.233038229707E+04    0.26401E+00   -0.43677E-01 14543   0.124E+00    0.639E+00
RMM: 151    -0.233081994757E+04   -0.43765E+00   -0.99277E-01 13846   0.209E+00    0.108E+01
RMM: 152    -0.233028471981E+04    0.53523E+00   -0.40189E-01 13734   0.166E+00    0.447E+00
RMM: 153    -0.233027030157E+04    0.14418E-01   -0.32117E-01 15231   0.947E-01    0.406E+00
RMM: 154    -0.233027573213E+04   -0.54306E-02   -0.22825E-01 16615   0.646E-01    0.389E+00
RMM: 155    -0.233023739798E+04    0.38334E-01   -0.12430E-01 15207   0.594E-01    0.283E+00
RMM: 156    -0.233026587008E+04   -0.28472E-01   -0.13517E-01 14189   0.762E-01    0.363E+00
RMM: 157    -0.233022389523E+04    0.41975E-01   -0.76398E-02 13870   0.649E-01    0.231E+00
RMM: 158    -0.233022637335E+04   -0.24781E-02   -0.84443E-02 15036   0.499E-01    0.224E+00
RMM: 159    -0.233021626648E+04    0.10107E-01   -0.43542E-02 14177   0.443E-01    0.191E+00
RMM: 160    -0.233020772689E+04    0.85396E-02   -0.27129E-02 14741   0.313E-01    0.139E+00
RMM: 161    -0.233021011037E+04   -0.23835E-02   -0.25633E-02 14807   0.305E-01    0.150E+00
RMM: 162    -0.233020458302E+04    0.55273E-02   -0.11902E-02 14537   0.227E-01    0.105E+00
RMM: 163    -0.233020191799E+04    0.26650E-02   -0.14443E-02 17326   0.138E-01    0.694E-01
RMM: 164    -0.233020082539E+04    0.10926E-02   -0.66867E-03 16155   0.117E-01    0.453E-01
RMM: 165    -0.233020125643E+04   -0.43105E-03   -0.53477E-03 17548   0.875E-02    0.471E-01
RMM: 166    -0.233020315644E+04   -0.19000E-02   -0.52910E-03 15027   0.128E-01    0.725E-01
RMM: 167    -0.233020104488E+04    0.21116E-02   -0.17374E-03 14178   0.980E-02    0.355E-01
RMM: 168    -0.233020076424E+04    0.28064E-03   -0.18811E-03 17661   0.465E-02    0.235E-01
RMM: 169    -0.233020074343E+04    0.20811E-04   -0.76413E-04 15322   0.444E-02    0.201E-01
RMM: 170    -0.233020079899E+04   -0.55556E-04   -0.67962E-04 15335   0.422E-02    0.180E-01
RMM: 171    -0.233020182980E+04   -0.10308E-02   -0.17619E-03 14624   0.783E-02    0.464E-01
RMM: 172    -0.233020084886E+04    0.98093E-03   -0.60130E-04 13957   0.629E-02    0.139E-01
RMM: 173    -0.233020087435E+04   -0.25490E-04   -0.33199E-04 15348   0.282E-02    0.139E-01
RMM: 174    -0.233020089807E+04   -0.23717E-04   -0.25950E-04 15851   0.200E-02    0.106E-01
RMM: 175    -0.233020091314E+04   -0.15074E-04   -0.13790E-04 13614   0.175E-02    0.779E-02
RMM: 176    -0.233020095342E+04   -0.40276E-04   -0.15861E-04 14283   0.217E-02    0.974E-02
RMM: 177    -0.233020093979E+04    0.13626E-04   -0.67739E-05 10958   0.170E-02    0.486E-02
RMM: 178    -0.233020097740E+04   -0.37601E-04   -0.46668E-05  9682   0.983E-03    0.419E-02
RMM: 179    -0.233020100085E+04   -0.23457E-04   -0.28732E-05  8792   0.893E-03    0.356E-02
RMM: 180    -0.233020102987E+04   -0.29019E-04   -0.24427E-05  8763   0.695E-03    0.335E-02
RMM: 181    -0.233020108456E+04   -0.54689E-04   -0.42196E-05  9563   0.123E-02    0.602E-02
RMM: 182    -0.233020108509E+04   -0.52969E-06   -0.24392E-05  8023   0.111E-02
   1 F= -.23302011E+04 E0= -.23274496E+04  d E =-.233020E+04
       N       E                     dE             d eps       ncg     rms          rms(c)
DAV:   1    -0.233020128137E+04   -0.19680E-03   -0.39120E-02 15210   0.208E-01    0.391E-02
RMM:   2    -0.233020689036E+04   -0.56090E-02   -0.12675E-03 14276   0.694E-02    0.999E-01
RMM:   3    -0.233020273413E+04    0.41562E-02   -0.66571E-04 18504   0.298E-02    0.483E-01
RMM:   4    -0.233020433745E+04   -0.16033E-02   -0.32714E-04 14288   0.329E-02    0.731E-01
RMM:   5    -0.233020167359E+04    0.26639E-02   -0.22315E-04 13592   0.321E-02    0.209E-01
RMM:   6    -0.233020181556E+04   -0.14197E-03   -0.35786E-04 16700   0.262E-02    0.288E-01
RMM:   7    -0.233020183953E+04   -0.23964E-04   -0.46535E-04 14828   0.360E-02    0.279E-01
RMM:   8    -0.233020160846E+04    0.23106E-03   -0.19701E-04 13483   0.292E-02    0.183E-01
RMM:   9    -0.233020146376E+04    0.14470E-03   -0.78884E-05 11690   0.196E-02    0.966E-02
RMM:  10    -0.233020142664E+04    0.37125E-04   -0.36819E-05  9320   0.121E-02    0.542E-02
RMM:  11    -0.233020143375E+04   -0.71106E-05   -0.30962E-05  8957   0.113E-02
   2 F= -.23302014E+04 E0= -.23274497E+04  d E =-.348660E-03
       N       E                     dE             d eps       ncg     rms          rms(c)
DAV:   1    -0.233020148990E+04   -0.63263E-04   -0.35133E-01 14920   0.624E-01    0.116E-01
RMM:   2    -0.233021376076E+04   -0.12271E-01   -0.96658E-03 13968   0.202E-01    0.149E+00
RMM:   3    -0.233021925607E+04   -0.54953E-02   -0.57546E-03 19020   0.907E-02    0.176E+00
RMM:   4    -0.233020560973E+04    0.13646E-01   -0.17047E-03 13704   0.941E-02    0.811E-01
RMM:   5    -0.233020611472E+04   -0.50498E-03   -0.12999E-03 16331   0.541E-02    0.886E-01
RMM:   6    -0.233020412415E+04    0.19906E-02   -0.10578E-03 19101   0.354E-02    0.617E-01
RMM:   7    -0.233020368021E+04    0.44394E-03   -0.18147E-03 14006   0.813E-02    0.557E-01
RMM:   8    -0.233020278689E+04    0.89332E-03   -0.90643E-04 13717   0.658E-02    0.390E-01
RMM:   9    -0.233020233034E+04    0.45655E-03   -0.41722E-04 13647   0.477E-02    0.294E-01
RMM:  10    -0.233020210781E+04    0.22253E-03   -0.31241E-04 15451   0.249E-02    0.193E-01
RMM:  11    -0.233020201414E+04    0.93671E-04   -0.20311E-04 13939   0.271E-02    0.155E-01
RMM:  12    -0.233020197127E+04    0.42865E-04   -0.16299E-04 13639   0.261E-02    0.110E-01
RMM:  13    -0.233020192846E+04    0.42810E-04   -0.66433E-05 11731   0.201E-02    0.756E-02
RMM:  14    -0.233020191933E+04    0.91363E-05   -0.28870E-05  9054   0.113E-02
   3 F= -.23302019E+04 E0= -.23274500E+04  d E =-.834238E-03
       N       E                     dE             d eps       ncg     rms          rms(c)
DAV:   1    -0.233020205514E+04   -0.12667E-03   -0.69151E-02 14660   0.277E-01    0.615E-02
RMM:   2    -0.233024336833E+04   -0.41313E-01   -0.51631E-03 15154   0.116E-01    0.278E+00
RMM:   3    -0.233020876976E+04    0.34599E-01   -0.13975E-03 13943   0.773E-02    0.102E+00
RMM:   4    -0.233020953738E+04   -0.76762E-03   -0.11575E-03 14863   0.570E-02    0.113E+00
RMM:   5    -0.233020349087E+04    0.60465E-02   -0.76123E-04 13766   0.570E-02    0.454E-01
RMM:   6    -0.233020394278E+04   -0.45192E-03   -0.12007E-03 14397   0.616E-02    0.584E-01
RMM:   7    -0.233020517141E+04   -0.12286E-02   -0.23724E-03 16511   0.669E-02    0.738E-01
RMM:   8    -0.233020278541E+04    0.23860E-02   -0.85435E-04 13757   0.630E-02    0.308E-01
RMM:   9    -0.233020230716E+04    0.47825E-03   -0.34186E-04 13656   0.437E-02    0.183E-01
RMM:  10    -0.233020220900E+04    0.98167E-04   -0.16960E-04 14040   0.236E-02    0.130E-01
RMM:  11    -0.233020218786E+04    0.21140E-04   -0.17366E-04 13990   0.171E-02    0.990E-02
RMM:  12    -0.233020215784E+04    0.30022E-04   -0.10550E-04 12687   0.161E-02    0.688E-02
RMM:  13    -0.233020214060E+04    0.17239E-04   -0.42271E-05  9833   0.141E-02    0.389E-02
RMM:  14    -0.233020213714E+04    0.34563E-05   -0.19623E-05  8350   0.728E-03
   4 F= -.23302021E+04 E0= -.23274501E+04  d E =-.217812E-03
       N       E                     dE             d eps       ncg     rms          rms(c)
DAV:   1    -0.233020211782E+04    0.22773E-04   -0.62233E-01 14260   0.829E-01    0.120E-01
RMM:   2    -0.233023260691E+04   -0.30489E-01   -0.10760E-02 13975   0.222E-01    0.243E+00
RMM:   3    -0.233021069899E+04    0.21908E-01   -0.32927E-03 16955   0.922E-02    0.110E+00
RMM:   4    -0.233020416300E+04    0.65360E-02   -0.12282E-03 13696   0.791E-02    0.488E-01
RMM:   5    -0.233022252749E+04   -0.18364E-01   -0.18651E-03 19146   0.495E-02    0.192E+00
RMM:   6    -0.233020628329E+04    0.16244E-01   -0.18151E-03 13869   0.824E-02    0.732E-01
RMM:   7    -0.233020950497E+04   -0.32217E-02   -0.30039E-03 15703   0.849E-02    0.112E+00
RMM:   8    -0.233020351431E+04    0.59907E-02   -0.13463E-03 13702   0.864E-02    0.356E-01
RMM:   9    -0.233020281724E+04    0.69707E-03   -0.49622E-04 13723   0.513E-02    0.180E-01
RMM:  10    -0.233020290042E+04   -0.83183E-04   -0.47361E-04 14465   0.400E-02    0.229E-01
RMM:  11    -0.233020282228E+04    0.78147E-04   -0.47292E-04 14904   0.361E-02    0.174E-01
RMM:  12    -0.233020267846E+04    0.14382E-03   -0.16304E-04 13497   0.293E-02    0.861E-02
RMM:  13    -0.233020264680E+04    0.31654E-04   -0.83308E-05 11620   0.165E-02    0.478E-02
RMM:  14    -0.233020264210E+04    0.47024E-05   -0.40095E-05  9884   0.102E-02
   5 F= -.23302026E+04 E0= -.23274506E+04  d E =-.722774E-03
       N       E                     dE             d eps       ncg     rms          rms(c)
DAV:   1    -0.233020103672E+04    0.16101E-02   -0.24892E+00 13920   0.166E+00    0.237E-01
RMM:   2    -0.233030398763E+04   -0.10295E+00   -0.41395E-02 13963   0.434E-01    0.444E+00
RMM:   3    -0.233024150989E+04    0.62478E-01   -0.13518E-02 18425   0.165E-01    0.251E+00
RMM:   4    -0.233024921223E+04   -0.77023E-02   -0.42901E-03 13876   0.132E-01    0.287E+00
RMM:   5    -0.233021271554E+04    0.36497E-01   -0.39083E-03 14239   0.115E-01    0.115E+00
RMM:   6    -0.233021604183E+04   -0.33263E-02   -0.89207E-03 13727   0.192E-01    0.153E+00
RMM:   7    -0.233022737733E+04   -0.11336E-01   -0.16956E-02 18562   0.162E-01    0.210E+00
RMM:   8    -0.233020690633E+04    0.20471E-01   -0.60251E-03 13710   0.171E-01    0.776E-01
RMM:   9    -0.233020424447E+04    0.26619E-02   -0.25151E-03 13746   0.107E-01    0.455E-01
RMM:  10    -0.233020373972E+04    0.50475E-03   -0.16539E-03 15177   0.684E-02    0.382E-01
RMM:  11    -0.233020352969E+04    0.21003E-03   -0.21207E-03 17315   0.581E-02    0.276E-01
RMM:  12    -0.233020332411E+04    0.20558E-03   -0.82857E-04 14514   0.519E-02    0.202E-01
RMM:  13    -0.233020319382E+04    0.13029E-03   -0.48269E-04 15357   0.347E-02    0.130E-01
RMM:  14    -0.233020317861E+04    0.15209E-04   -0.37713E-04 17714   0.219E-02    0.114E-01
RMM:  15    -0.233020314922E+04    0.29387E-04   -0.14247E-04 14011   0.214E-02    0.856E-02
RMM:  16    -0.233020311261E+04    0.36610E-04   -0.51000E-05 10472   0.158E-02    0.337E-02
RMM:  17    -0.233020311090E+04    0.17089E-05   -0.24977E-05  8794   0.837E-03
   6 F= -.23302031E+04 E0= -.23274510E+04  d E =-.119157E-02
       N       E                     dE             d eps       ncg     rms          rms(c)
DAV:   1    -0.233020319960E+04   -0.86992E-04   -0.29352E-02 14400   0.181E-01    0.378E-02
RMM:   2    -0.233021247060E+04   -0.92710E-02   -0.13124E-03 14544   0.654E-02    0.128E+00
RMM:   3    -0.233020446178E+04    0.80088E-02   -0.60200E-04 17910   0.321E-02    0.417E-01
RMM:   4    -0.233020667600E+04   -0.22142E-02   -0.40896E-04 14044   0.377E-02    0.788E-01
RMM:   5    -0.233020357552E+04    0.31005E-02   -0.27491E-04 13631   0.349E-02    0.229E-01
RMM:   6    -0.233020356616E+04    0.93601E-05   -0.44022E-04 15542   0.335E-02    0.248E-01
RMM:   7    -0.233020415818E+04   -0.59202E-03   -0.68531E-04 16370   0.371E-02    0.414E-01
RMM:   8    -0.233020355242E+04    0.60576E-03   -0.27507E-04 14889   0.285E-02    0.237E-01
RMM:   9    -0.233020326553E+04    0.28689E-03   -0.13997E-04 13395   0.281E-02    0.818E-02
RMM:  10    -0.233020323850E+04    0.27025E-04   -0.54910E-05 10843   0.127E-02    0.538E-02
RMM:  11    -0.233020323867E+04   -0.16938E-06   -0.38725E-05  9355   0.990E-03
   7 F= -.23302032E+04 E0= -.23274510E+04  d E =-.127770E-03
       N       E                     dE             d eps       ncg     rms          rms(c)
DAV:   1    -0.233020333490E+04   -0.96401E-04   -0.26412E-01 13980   0.540E-01    0.812E-02
RMM:   2    -0.233021094043E+04   -0.76055E-02   -0.44610E-03 13924   0.144E-01    0.116E+00
RMM:   3    -0.233020707480E+04    0.38656E-02   -0.14347E-03 19240   0.447E-02    0.799E-01
RMM:   4    -0.233020778659E+04   -0.71179E-03   -0.58756E-04 13799   0.502E-02    0.877E-01
RMM:   5    -0.233020544485E+04    0.23417E-02   -0.51465E-04 14148   0.414E-02    0.566E-01
RMM:   6    -0.233020495077E+04    0.49409E-03   -0.81508E-04 14799   0.482E-02    0.502E-01
RMM:   7    -0.233020501760E+04   -0.66836E-04   -0.12884E-03 14439   0.633E-02    0.494E-01
RMM:   8    -0.233020451916E+04    0.49845E-03   -0.81906E-04 14357   0.525E-02    0.383E-01
RMM:   9    -0.233020382652E+04    0.69264E-03   -0.37611E-04 13677   0.469E-02    0.213E-01
RMM:  10    -0.233020361529E+04    0.21122E-03   -0.13412E-04 13444   0.195E-02    0.981E-02
RMM:  11    -0.233020361728E+04   -0.19856E-05   -0.10422E-04 12734   0.199E-02    0.107E-01
RMM:  12    -0.233020361417E+04    0.31133E-05   -0.14951E-04 13932   0.185E-02    0.975E-02
RMM:  13    -0.233020356856E+04    0.45608E-04   -0.39744E-05  9504   0.151E-02    0.453E-02
RMM:  14    -0.233020356289E+04    0.56722E-05   -0.16704E-05  7623   0.830E-03
   8 F= -.23302036E+04 E0= -.23274516E+04  d E =-.451985E-03
       N       E                     dE             d eps       ncg     rms          rms(c)
DAV:   1    -0.233020327009E+04    0.29847E-03   -0.10569E+00 13820   0.108E+00    0.144E-01
RMM:   2    -0.233021857831E+04   -0.15308E-01   -0.14408E-02 13941   0.267E-01    0.167E+00
RMM:   3    -0.233021049767E+04    0.80806E-02   -0.34081E-03 18623   0.834E-02    0.103E+00
RMM:   4    -0.233021338256E+04   -0.28849E-02   -0.89044E-04 13766   0.610E-02    0.132E+00
RMM:   5    -0.233021288423E+04    0.49833E-03   -0.23501E-03 18708   0.553E-02    0.121E+00
RMM:   6    -0.233021028709E+04    0.25971E-02   -0.30632E-03 13871   0.108E-01    0.104E+00
RMM:   7    -0.233020898958E+04    0.12975E-02   -0.40113E-03 15937   0.101E-01    0.917E-01
RMM:   8    -0.233020486977E+04    0.41198E-02   -0.16218E-03 13700   0.101E-01    0.339E-01
RMM:   9    -0.233020460584E+04    0.26392E-03   -0.64400E-04 14756   0.478E-02    0.298E-01
RMM:  10    -0.233020435473E+04    0.25112E-03   -0.43154E-04 14835   0.360E-02    0.200E-01
RMM:  11    -0.233020424933E+04    0.10539E-03   -0.36772E-04 14655   0.338E-02    0.141E-01
RMM:  12    -0.233020418372E+04    0.65617E-04   -0.12920E-04 13253   0.250E-02    0.976E-02
RMM:  13    -0.233020417483E+04    0.88883E-05   -0.74851E-05 11684   0.146E-02
   9 F= -.23302042E+04 E0= -.23274524E+04  d E =-.106393E-02
       N       E                     dE             d eps       ncg     rms          rms(c)
DAV:   1    -0.233020158631E+04    0.25974E-02   -0.42265E+00 13700   0.216E+00    0.301E-01
RMM:   2    -0.233046379768E+04   -0.26221E+00   -0.70428E-02 14012   0.572E-01    0.702E+00
RMM:   3    -0.233023280600E+04    0.23099E+00   -0.16021E-02 15161   0.239E-01    0.185E+00
RMM:   4    -0.233023605976E+04   -0.32538E-02   -0.82756E-03 13766   0.192E-01    0.231E+00
RMM:   5    -0.233026636047E+04   -0.30301E-01   -0.86740E-03 19245   0.106E-01    0.336E+00
RMM:   6    -0.233024842899E+04    0.17931E-01   -0.20917E-02 14861   0.239E-01    0.278E+00
RMM:   7    -0.233023384072E+04    0.14588E-01   -0.18009E-02 15093   0.225E-01    0.230E+00
RMM:   8    -0.233020970615E+04    0.24135E-01   -0.74238E-03 13706   0.210E-01    0.859E-01
RMM:   9    -0.233020756767E+04    0.21385E-02   -0.33669E-03 14037   0.121E-01    0.703E-01
RMM:  10    -0.233020662711E+04    0.94055E-03   -0.35461E-03 14664   0.104E-01    0.542E-01
RMM:  11    -0.233020597351E+04    0.65360E-03   -0.26408E-03 14718   0.867E-02    0.402E-01
RMM:  12    -0.233020515280E+04    0.82072E-03   -0.84630E-04 13738   0.650E-02    0.181E-01
RMM:  13    -0.233020512968E+04    0.23121E-04   -0.78600E-04 17211   0.324E-02    0.159E-01
RMM:  14    -0.233020509009E+04    0.39586E-04   -0.38271E-04 16804   0.243E-02    0.123E-01
RMM:  15    -0.233020502383E+04    0.66259E-04   -0.95957E-05 12740   0.192E-02    0.573E-02
RMM:  16    -0.233020501253E+04    0.11301E-04   -0.42033E-05  9918   0.131E-02    0.379E-02
RMM:  17    -0.233020502496E+04   -0.12427E-04   -0.56183E-05 10909   0.134E-02    0.565E-02
RMM:  18    -0.233020502128E+04    0.36750E-05   -0.35090E-05  9032   0.137E-02
  10 F= -.23302050E+04 E0= -.23274533E+04  d E =-.191038E-02
       N       E                     dE             d eps       ncg     rms          rms(c)
DAV:   1    -0.233019122972E+04    0.13795E-01   -0.16903E+01 13700   0.431E+00    0.586E-01
RMM:   2    -0.233040813751E+04   -0.21691E+00   -0.23913E-01 13945   0.109E+00    0.627E+00
RMM:   3    -0.233036905809E+04    0.39079E-01   -0.57100E-02 18985   0.326E-01    0.538E+00
RMM:   4    -0.233041479079E+04   -0.45733E-01   -0.18756E-02 14358   0.251E-01    0.612E+00
RMM:   5    -0.233029255102E+04    0.12224E+00   -0.29645E-02 15308   0.269E-01    0.366E+00
RMM:   6    -0.233031351938E+04   -0.20968E-01   -0.53851E-02 14028   0.434E-01    0.439E+00
RMM:   7    -0.233031233432E+04    0.11851E-02   -0.66133E-02 15824   0.405E-01    0.440E+00
RMM:   8    -0.233022803173E+04    0.84303E-01   -0.25475E-02 13706   0.391E-01    0.191E+00
RMM:   9    -0.233021777491E+04    0.10257E-01   -0.10238E-02 14294   0.201E-01    0.151E+00
RMM:  10    -0.233021181345E+04    0.59615E-02   -0.10280E-02 14335   0.189E-01    0.104E+00
RMM:  11    -0.233020698334E+04    0.48301E-02   -0.45683E-03 13859   0.143E-01    0.506E-01
RMM:  12    -0.233020603749E+04    0.94585E-03   -0.21566E-03 14111   0.930E-02    0.342E-01
RMM:  13    -0.233020607563E+04   -0.38142E-04   -0.19730E-03 17086   0.548E-02    0.328E-01
RMM:  14    -0.233020598235E+04    0.93282E-04   -0.99536E-04 15248   0.497E-02    0.287E-01
RMM:  15    -0.233020562980E+04    0.35255E-03   -0.32325E-04 13694   0.394E-02    0.137E-01
RMM:  16    -0.233020559173E+04    0.38064E-04   -0.28054E-04 15978   0.228E-02    0.106E-01
RMM:  17    -0.233020559618E+04   -0.44418E-05   -0.21593E-04 15396   0.203E-02    0.981E-02
RMM:  18    -0.233020556430E+04    0.31876E-04   -0.80666E-05 11928   0.176E-02    0.594E-02
RMM:  19    -0.233020555101E+04    0.13293E-04   -0.36570E-05  9616   0.120E-02    0.350E-02
RMM:  20    -0.233020555515E+04   -0.41421E-05   -0.27594E-05  9019   0.955E-03
  11 F= -.23302056E+04 E0= -.23274542E+04  d E =-.244425E-02
       N       E                     dE             d eps       ncg     rms          rms(c)
DAV:   1    -0.233020504574E+04    0.50527E-03   -0.12198E+00 13780   0.116E+00    0.155E-01
RMM:   2    -0.233021053257E+04   -0.54868E-02   -0.16304E-02 13945   0.285E-01    0.917E-01
RMM:   3    -0.233022040218E+04   -0.98696E-02   -0.42399E-03 19546   0.809E-02    0.161E+00
RMM:   4    -0.233022033928E+04    0.62907E-04   -0.11681E-03 13977   0.684E-02    0.161E+00
RMM:   5    -0.233021188810E+04    0.84512E-02   -0.15852E-03 14855   0.685E-02    0.100E+00
RMM:   6    -0.233021134525E+04    0.54286E-03   -0.28195E-03 15121   0.862E-02    0.976E-01
RMM:   7    -0.233021106646E+04    0.27878E-03   -0.33560E-03 13859   0.114E-01    0.867E-01
RMM:   8    -0.233020794077E+04    0.31257E-02   -0.14316E-03 13719   0.845E-02    0.583E-01
RMM:   9    -0.233020650702E+04    0.14337E-02   -0.55247E-04 13718   0.586E-02    0.269E-01
RMM:  10    -0.233020635531E+04    0.15172E-03   -0.33614E-04 13762   0.394E-02    0.234E-01
RMM:  11    -0.233020634690E+04    0.84020E-05   -0.41647E-04 15759   0.321E-02    0.224E-01
RMM:  12    -0.233020615317E+04    0.19374E-03   -0.17528E-04 13424   0.279E-02    0.129E-01
RMM:  13    -0.233020609518E+04    0.57983E-04   -0.76238E-05 12317   0.199E-02    0.903E-02
RMM:  14    -0.233020608388E+04    0.11300E-04   -0.45729E-05  9985   0.122E-02    0.780E-02
RMM:  15    -0.233020606291E+04    0.20973E-04   -0.28090E-05  8292   0.123E-02    0.437E-02
RMM:  16    -0.233020605465E+04    0.82623E-05   -0.15151E-05  7600   0.895E-03
  12 F= -.23302061E+04 E0= -.23274549E+04  d E =-.499500E-03
       N       E                     dE             d eps       ncg     rms          rms(c)
DAV:   1    -0.233019783598E+04    0.82269E-02   -0.10978E+01 13700   0.347E+00    0.466E-01
RMM:   2    -0.233032469797E+04   -0.12686E+00   -0.14933E-01 13946   0.862E-01    0.473E+00
RMM:   3    -0.233028086078E+04    0.43837E-01   -0.34338E-02 19218   0.242E-01    0.362E+00
RMM:   4    -0.233039951562E+04   -0.11865E+00   -0.15439E-02 14986   0.201E-01    0.587E+00
RMM:   5    -0.233024828222E+04    0.15123E+00   -0.16501E-02 13890   0.250E-01    0.253E+00
RMM:   6    -0.233027367602E+04   -0.25394E-01   -0.37701E-02 15488   0.296E-01    0.350E+00
RMM:   7    -0.233027460325E+04   -0.92723E-03   -0.33350E-02 14025   0.346E-01    0.351E+00
RMM:   8    -0.233022352287E+04    0.51080E-01   -0.12315E-02 13731   0.257E-01    0.153E+00
RMM:   9    -0.233021491371E+04    0.86092E-02   -0.58365E-03 13765   0.182E-01    0.122E+00
RMM:  10    -0.233021290714E+04    0.20066E-02   -0.52750E-03 14182   0.135E-01    0.103E+00
RMM:  11    -0.233020967248E+04    0.32347E-02   -0.44184E-03 14807   0.114E-01    0.668E-01
RMM:  12    -0.233020738291E+04    0.22896E-02   -0.16507E-03 13726   0.950E-02    0.293E-01
RMM:  13    -0.233020726314E+04    0.11977E-03   -0.10272E-03 15094   0.523E-02    0.268E-01
RMM:  14    -0.233020729734E+04   -0.34202E-04   -0.98929E-04 16646   0.411E-02    0.265E-01
RMM:  15    -0.233020711595E+04    0.18139E-03   -0.39301E-04 14713   0.349E-02    0.178E-01
RMM:  16    -0.233020699959E+04    0.11635E-03   -0.17038E-04 13959   0.250E-02    0.107E-01
RMM:  17    -0.233020699462E+04    0.49775E-05   -0.18174E-04 14650   0.154E-02    0.924E-02
RMM:  18    -0.233020696783E+04    0.26790E-04   -0.66171E-05 11482   0.154E-02    0.563E-02
RMM:  19    -0.233020695440E+04    0.13425E-04   -0.26999E-05  8660   0.114E-02    0.264E-02
RMM:  20    -0.233020695581E+04   -0.14057E-05   -0.18252E-05  8408   0.775E-03
  13 F= -.23302070E+04 E0= -.23274560E+04  d E =-.140066E-02
       N       E                     dE             d eps       ncg     rms          rms(c)
DAV:   1    -0.233020733992E+04   -0.38551E-03   -0.40668E-01 13820   0.672E-01    0.976E-02
RMM:   2    -0.233021434674E+04   -0.70068E-02   -0.67253E-03 13922   0.175E-01    0.108E+00
RMM:   3    -0.233021855656E+04   -0.42098E-02   -0.26159E-03 19686   0.566E-02    0.141E+00
RMM:   4    -0.233020977853E+04    0.87780E-02   -0.78273E-04 13687   0.630E-02    0.561E-01
RMM:   5    -0.233021167723E+04   -0.18987E-02   -0.93131E-04 15523   0.473E-02    0.861E-01
RMM:   6    -0.233020970755E+04    0.19697E-02   -0.11869E-03 16963   0.479E-02    0.604E-01
RMM:   7    -0.233021197801E+04   -0.22705E-02   -0.25199E-03 15577   0.735E-02    0.850E-01
RMM:   8    -0.233020851137E+04    0.34666E-02   -0.11835E-03 14119   0.674E-02    0.358E-01
RMM:   9    -0.233020790574E+04    0.60563E-03   -0.48257E-04 13688   0.530E-02    0.195E-01
RMM:  10    -0.233020778526E+04    0.12048E-03   -0.23581E-04 13759   0.316E-02    0.141E-01
RMM:  11    -0.233020774600E+04    0.39260E-04   -0.25438E-04 14971   0.230E-02    0.107E-01
RMM:  12    -0.233020774661E+04   -0.60932E-06   -0.22053E-04 15087   0.231E-02    0.978E-02
RMM:  13    -0.233020769463E+04    0.51982E-04   -0.69542E-05 11578   0.187E-02    0.452E-02
RMM:  14    -0.233020769097E+04    0.36560E-05   -0.38952E-05  9811   0.912E-03
  14 F= -.23302077E+04 E0= -.23274567E+04  d E =-.735166E-03
       N       E                     dE             d eps       ncg     rms          rms(c)
DAV:   1    -0.233020610952E+04    0.15851E-02   -0.36603E+00 13700   0.201E+00    0.288E-01
RMM:   2    -0.233028981840E+04   -0.83709E-01   -0.58845E-02 13923   0.523E-01    0.376E+00
RMM:   3    -0.233025684861E+04    0.32970E-01   -0.21786E-02 19449   0.178E-01    0.292E+00
RMM:   4    -0.233029932935E+04   -0.42481E-01   -0.63188E-03 13902   0.163E-01    0.403E+00
RMM:   5    -0.233021830941E+04    0.81020E-01   -0.50764E-03 14053   0.140E-01    0.110E+00
RMM:   6    -0.233023460413E+04   -0.16295E-01   -0.13495E-02 15013   0.186E-01    0.216E+00
RMM:   7    -0.233024677263E+04   -0.12169E-01   -0.20903E-02 15896   0.221E-01    0.255E+00
RMM:   8    -0.233021818635E+04    0.28586E-01   -0.79507E-03 13740   0.185E-01    0.123E+00
RMM:   9    -0.233021000471E+04    0.81816E-02   -0.35901E-03 13712   0.146E-01    0.384E-01
RMM:  10    -0.233021019265E+04   -0.18793E-03   -0.29845E-03 16318   0.766E-02    0.445E-01
RMM:  11    -0.233021006416E+04    0.12849E-03   -0.20853E-03 14634   0.782E-02    0.402E-01
RMM:  12    -0.233020942755E+04    0.63661E-03   -0.92575E-04 13835   0.640E-02    0.217E-01
RMM:  13    -0.233020924619E+04    0.18135E-03   -0.64066E-04 15388   0.387E-02    0.130E-01
RMM:  14    -0.233020927824E+04   -0.32049E-04   -0.52652E-04 17835   0.263E-02    0.136E-01
RMM:  15    -0.233020922656E+04    0.51678E-04   -0.19548E-04 14498   0.238E-02    0.884E-02
RMM:  16    -0.233020919184E+04    0.34726E-04   -0.76185E-05 11958   0.167E-02    0.458E-02
RMM:  17    -0.233020918956E+04    0.22777E-05   -0.41545E-05 10022   0.101E-02
  15 F= -.23302092E+04 E0= -.23274581E+04  d E =-.223376E-02
       N       E                     dE             d eps       ncg     rms          rms(c)
DAV:   1    -0.233019635948E+04    0.12832E-01   -0.14638E+01 13700   0.403E+00    0.581E-01
RMM:   2    -0.233050340739E+04   -0.30705E+00   -0.24017E-01 13905   0.106E+00    0.728E+00
RMM:   3    -0.233036916373E+04    0.13424E+00   -0.88578E-02 19321   0.368E-01    0.525E+00
RMM:   4    -0.233023807156E+04    0.13109E+00   -0.29085E-02 13701   0.402E-01    0.210E+00
RMM:   5    -0.233041409465E+04   -0.17602E+00   -0.27605E-02 19300   0.187E-01    0.614E+00
RMM:   6    -0.233031192830E+04    0.10217E+00   -0.48277E-02 15697   0.317E-01    0.420E+00
RMM:   7    -0.233031039946E+04    0.15288E-02   -0.50557E-02 14362   0.403E-01    0.422E+00
RMM:   8    -0.233025349939E+04    0.56900E-01   -0.26317E-02 13827   0.324E-01    0.280E+00
RMM:   9    -0.233021400070E+04    0.39499E-01   -0.13789E-02 13702   0.293E-01    0.888E-01
RMM:  10    -0.233021458290E+04   -0.58219E-03   -0.98676E-03 14116   0.192E-01    0.101E+00
RMM:  11    -0.233021483868E+04   -0.25579E-03   -0.11175E-02 15199   0.172E-01    0.102E+00
RMM:  12    -0.233021038067E+04    0.44580E-02   -0.40637E-03 13717   0.145E-01    0.490E-01
RMM:  13    -0.233020924863E+04    0.11320E-02   -0.20859E-03 14674   0.822E-02    0.263E-01
RMM:  14    -0.233020931055E+04   -0.61919E-04   -0.21980E-03 17798   0.541E-02    0.255E-01
RMM:  15    -0.233020909595E+04    0.21461E-03   -0.77951E-04 14907   0.484E-02    0.150E-01
RMM:  16    -0.233020902765E+04    0.68296E-04   -0.48793E-04 16319   0.309E-02    0.964E-02
RMM:  17    -0.233020903663E+04   -0.89789E-05   -0.32767E-04 17020   0.215E-02    0.931E-02
RMM:  18    -0.233020902316E+04    0.13468E-04   -0.11913E-04 13483   0.200E-02    0.760E-02
RMM:  19    -0.233020900389E+04    0.19270E-04   -0.44377E-05 10188   0.141E-02    0.495E-02
RMM:  20    -0.233020900539E+04   -0.15033E-05   -0.38248E-05  9799   0.904E-03
  16 F= -.23302090E+04 E0= -.23274579E+04  d E =-.204959E-02
       N       E                     dE             d eps       ncg     rms          rms(c)
DAV:   1    -0.233020553640E+04    0.34675E-02   -0.48661E+00 13700   0.232E+00    0.333E-01
RMM:   2    -0.233029885042E+04   -0.93314E-01   -0.77144E-02 13915   0.597E-01    0.397E+00
RMM:   3    -0.233028846432E+04    0.10386E-01   -0.30144E-02 20050   0.184E-01    0.378E+00
RMM:   4    -0.233029023562E+04   -0.17713E-02   -0.10025E-02 13763   0.215E-01    0.375E+00
RMM:   5    -0.233022281252E+04    0.67423E-01   -0.70582E-03 14453   0.158E-01    0.145E+00
RMM:   6    -0.233025071513E+04   -0.27903E-01   -0.25937E-02 15645   0.231E-01    0.270E+00
RMM:   7    -0.233024510623E+04    0.56089E-02   -0.19908E-02 14846   0.245E-01    0.250E+00
RMM:   8    -0.233022595680E+04    0.19149E-01   -0.99319E-03 13857   0.194E-01    0.167E+00
RMM:   9    -0.233021206876E+04    0.13888E-01   -0.44719E-03 13706   0.162E-01    0.644E-01
RMM:  10    -0.233021158384E+04    0.48492E-03   -0.36007E-03 15617   0.926E-02    0.601E-01
RMM:  11    -0.233021109012E+04    0.49372E-03   -0.32214E-03 15529   0.891E-02    0.524E-01
RMM:  12    -0.233020993991E+04    0.11502E-02   -0.12545E-03 13778   0.743E-02    0.237E-01
RMM:  13    -0.233020967194E+04    0.26796E-03   -0.72376E-04 14821   0.462E-02    0.129E-01
RMM:  14    -0.233020974547E+04   -0.73527E-04   -0.74005E-04 18352   0.304E-02    0.153E-01
RMM:  15    -0.233020964743E+04    0.98041E-04   -0.17557E-04 13699   0.267E-02    0.754E-02
RMM:  16    -0.233020963249E+04    0.14939E-04   -0.12360E-04 13306   0.149E-02    0.465E-02
RMM:  17    -0.233020963574E+04   -0.32486E-05   -0.58641E-05 11117   0.126E-02
  17 F= -.23302096E+04 E0= -.23274585E+04  d E =-.267993E-02
       N       E                     dE             d eps       ncg     rms          rms(c)
DAV:   1    -0.233020989827E+04   -0.26578E-03   -0.41049E-01 13800   0.675E-01    0.965E-02
RMM:   2    -0.233021675406E+04   -0.68558E-02   -0.64777E-03 13910   0.174E-01    0.109E+00
RMM:   3    -0.233021772330E+04   -0.96924E-03   -0.21669E-03 19520   0.532E-02    0.115E+00
RMM:   4    -0.233021299690E+04    0.47264E-02   -0.68766E-04 13665   0.578E-02    0.705E-01
RMM:   5    -0.233021503750E+04   -0.20406E-02   -0.10323E-03 15871   0.480E-02    0.893E-01
RMM:   6    -0.233021193539E+04    0.31021E-02   -0.99773E-04 14326   0.569E-02    0.549E-01
RMM:   7    -0.233021356717E+04   -0.16318E-02   -0.24717E-03 17211   0.665E-02    0.767E-01
RMM:   8    -0.233021107228E+04    0.24949E-02   -0.11728E-03 14038   0.678E-02    0.362E-01
RMM:   9    -0.233021051084E+04    0.56144E-03   -0.52623E-04 13706   0.544E-02    0.212E-01
RMM:  10    -0.233021037412E+04    0.13672E-03   -0.23029E-04 13795   0.315E-02    0.158E-01
RMM:  11    -0.233021031640E+04    0.57716E-04   -0.22495E-04 15580   0.203E-02    0.112E-01
RMM:  12    -0.233021031001E+04    0.63955E-05   -0.18131E-04 14676   0.218E-02    0.989E-02
RMM:  13    -0.233021026666E+04    0.43347E-04   -0.60845E-05 11104   0.168E-02    0.540E-02
RMM:  14    -0.233021025892E+04    0.77349E-05   -0.28699E-05  8501   0.110E-02
  18 F= -.23302103E+04 E0= -.23274592E+04  d E =-.623186E-03
       N       E                     dE             d eps       ncg     rms          rms(c)
DAV:   1    -0.233020869564E+04    0.15710E-02   -0.36974E+00 13700   0.202E+00    0.268E-01
RMM:   2    -0.233027145194E+04   -0.62756E-01   -0.49622E-02 13954   0.494E-01    0.321E+00
RMM:   3    -0.233023376711E+04    0.37685E-01   -0.11699E-02 19451   0.138E-01    0.195E+00
RMM:   4    -0.233025453703E+04   -0.20770E-01   -0.46372E-03 14163   0.124E-01    0.274E+00
RMM:   5    -0.233022405552E+04    0.30482E-01   -0.58763E-03 14980   0.123E-01    0.147E+00
RMM:   6    -0.233022312699E+04    0.92853E-03   -0.11626E-02 13734   0.219E-01    0.141E+00
RMM:   7    -0.233025120037E+04   -0.28073E-01   -0.14700E-02 15900   0.180E-01    0.271E+00
RMM:   8    -0.233021542815E+04    0.35772E-01   -0.49390E-03 13702   0.168E-01    0.705E-01
RMM:   9    -0.233021318815E+04    0.22400E-02   -0.22694E-03 14036   0.998E-02    0.518E-01
RMM:  10    -0.233021272865E+04    0.45950E-03   -0.18254E-03 15111   0.700E-02    0.441E-01
RMM:  11    -0.233021235743E+04    0.37122E-03   -0.17745E-03 15546   0.637E-02    0.329E-01
RMM:  12    -0.233021192388E+04    0.43355E-03   -0.57072E-04 13710   0.529E-02    0.199E-01
RMM:  13    -0.233021184542E+04    0.78461E-04   -0.35441E-04 15266   0.292E-02    0.159E-01
RMM:  14    -0.233021184450E+04    0.92736E-06   -0.34227E-04 17127   0.221E-02    0.151E-01
RMM:  15    -0.233021174411E+04    0.10038E-03   -0.11623E-04 13138   0.190E-02    0.668E-02
RMM:  16    -0.233021172405E+04    0.20067E-04   -0.46321E-05 10118   0.134E-02    0.334E-02
RMM:  17    -0.233021172362E+04    0.42922E-06   -0.28367E-05  9096   0.852E-03
  19 F= -.23302117E+04 E0= -.23274608E+04  d E =-.208788E-02
       N       E                     dE             d eps       ncg     rms          rms(c)
DAV:   1    -0.233020039643E+04    0.11328E-01   -0.14787E+01 13700   0.405E+00    0.537E-01
RMM:   2    -0.233029777335E+04   -0.97377E-01   -0.19562E-01 13952   0.988E-01    0.382E+00
RMM:   3    -0.233034277610E+04   -0.45003E-01   -0.45491E-02 19580   0.261E-01    0.485E+00
RMM:   4    -0.233032004145E+04    0.22735E-01   -0.15558E-02 13925   0.239E-01    0.421E+00
RMM:   5    -0.233029193328E+04    0.28108E-01   -0.27113E-02 16891   0.217E-01    0.390E+00
RMM:   6    -0.233025873094E+04    0.33202E-01   -0.42577E-02 13728   0.418E-01    0.283E+00
RMM:   7    -0.233035558955E+04   -0.96859E-01   -0.50851E-02 15557   0.341E-01    0.516E+00
RMM:   8    -0.233022577111E+04    0.12982E+00   -0.18243E-02 13701   0.334E-01    0.129E+00
RMM:   9    -0.233021803213E+04    0.77390E-02   -0.89208E-03 13945   0.203E-01    0.986E-01
RMM:  10    -0.233021606583E+04    0.19663E-02   -0.91651E-03 14855   0.159E-01    0.746E-01
RMM:  11    -0.233021409217E+04    0.19737E-02   -0.36039E-03 13771   0.130E-01    0.495E-01
RMM:  12    -0.233021348231E+04    0.60986E-03   -0.21338E-03 14916   0.760E-02    0.376E-01
RMM:  13    -0.233021326648E+04    0.21583E-03   -0.13843E-03 17670   0.442E-02    0.297E-01
RMM:  14    -0.233021321618E+04    0.50296E-04   -0.95694E-04 16537   0.413E-02    0.273E-01
RMM:  15    -0.233021289906E+04    0.31713E-03   -0.30145E-04 14087   0.341E-02    0.131E-01
RMM:  16    -0.233021283984E+04    0.59220E-04   -0.17633E-04 14237   0.233E-02    0.788E-02
RMM:  17    -0.233021284807E+04   -0.82293E-05   -0.15679E-04 14342   0.162E-02    0.807E-02
RMM:  18    -0.233021283927E+04    0.88002E-05   -0.57973E-05 10814   0.153E-02
  20 F= -.23302128E+04 E0= -.23274622E+04  d E =-.320353E-02
       N       E                     dE             d eps       ncg     rms          rms(c)
DAV:   1    -0.233021162707E+04    0.12210E-02   -0.30053E+00 13700   0.182E+00    0.249E-01
RMM:   2    -0.233041020830E+04   -0.19858E+00   -0.50431E-02 14060   0.480E-01    0.602E+00
RMM:   3    -0.233023200365E+04    0.17820E+00   -0.11436E-02 15363   0.200E-01    0.153E+00
RMM:   4    -0.233022665419E+04    0.53495E-02   -0.44559E-03 13738   0.145E-01    0.155E+00
RMM:   5    -0.233033753641E+04   -0.11088E+00   -0.12653E-02 18351   0.137E-01    0.472E+00
RMM:   6    -0.233023092295E+04    0.10661E+00   -0.10251E-02 15341   0.164E-01    0.151E+00
RMM:   7    -0.233023574272E+04   -0.48198E-02   -0.13134E-02 14061   0.220E-01    0.189E+00
RMM:   8    -0.233021817288E+04    0.17570E-01   -0.55324E-03 13717   0.170E-01    0.822E-01
RMM:   9    -0.233021496060E+04    0.32123E-02   -0.27429E-03 13775   0.121E-01    0.406E-01
RMM:  10    -0.233021528513E+04   -0.32453E-03   -0.24448E-03 14231   0.930E-02    0.474E-01
RMM:  11    -0.233021492828E+04    0.35685E-03   -0.22484E-03 14720   0.812E-02    0.374E-01
RMM:  12    -0.233021422242E+04    0.70586E-03   -0.78437E-04 13740   0.648E-02    0.173E-01
RMM:  13    -0.233021405421E+04    0.16821E-03   -0.43845E-04 14838   0.354E-02    0.669E-02
RMM:  14    -0.233021407757E+04   -0.23355E-04   -0.38084E-04 16513   0.185E-02    0.687E-02
RMM:  15    -0.233021408904E+04   -0.11471E-04   -0.16253E-04 14792   0.190E-02    0.757E-02
RMM:  16    -0.233021406716E+04    0.21880E-04   -0.50077E-05 10486   0.139E-02    0.390E-02
RMM:  17    -0.233021406766E+04   -0.50827E-06   -0.28762E-05  9011   0.988E-03
  21 F= -.23302141E+04 E0= -.23274635E+04  d E =-.122840E-02
       N       E                     dE             d eps       ncg     rms          rms(c)
DAV:   1    -0.233020297211E+04    0.11095E-01   -0.14671E+01 13700   0.403E+00    0.541E-01
RMM:   2    -0.233053062461E+04   -0.32765E+00   -0.20763E-01 13951   0.101E+00    0.757E+00
RMM:   3    -0.233029336657E+04    0.23726E+00   -0.49428E-02 19110   0.296E-01    0.360E+00
RMM:   4    -0.233045964738E+04   -0.16628E+00   -0.23213E-02 14992   0.244E-01    0.666E+00
RMM:   5    -0.233027249119E+04    0.18716E+00   -0.26159E-02 13740   0.332E-01    0.304E+00
RMM:   6    -0.233030499903E+04   -0.32508E-01   -0.60225E-02 16554   0.337E-01    0.406E+00
RMM:   7    -0.233024922594E+04    0.55773E-01   -0.36242E-02 13723   0.398E-01    0.230E+00
RMM:   8    -0.233023424075E+04    0.14985E-01   -0.15428E-02 13704   0.293E-01    0.175E+00
RMM:   9    -0.233021891363E+04    0.15327E-01   -0.57279E-03 13771   0.172E-01    0.809E-01
RMM:  10    -0.233021985548E+04   -0.94186E-03   -0.57346E-03 13927   0.147E-01    0.907E-01
RMM:  11    -0.233021796380E+04    0.18917E-02   -0.63946E-03 14851   0.135E-01    0.680E-01
RMM:  12    -0.233021576760E+04    0.21962E-02   -0.23032E-03 13703   0.112E-01    0.324E-01
RMM:  13    -0.233021540192E+04    0.36568E-03   -0.13505E-03 14922   0.615E-02    0.224E-01
RMM:  14    -0.233021543540E+04   -0.33478E-04   -0.11297E-03 17012   0.419E-02    0.215E-01
RMM:  15    -0.233021538597E+04    0.49432E-04   -0.59655E-04 15417   0.395E-02    0.183E-01
RMM:  16    -0.233021524885E+04    0.13711E-03   -0.20975E-04 13964   0.299E-02    0.941E-02
RMM:  17    -0.233021524738E+04    0.14736E-05   -0.22764E-04 15450   0.159E-02    0.821E-02
RMM:  18    -0.233021523645E+04    0.10930E-04   -0.90612E-05 12690   0.166E-02    0.663E-02
RMM:  19    -0.233021521940E+04    0.17047E-04   -0.38353E-05  9695   0.131E-02    0.342E-02
RMM:  20    -0.233021521996E+04   -0.55414E-06   -0.25265E-05  9055   0.794E-03
  22 F= -.23302152E+04 E0= -.23274649E+04  d E =-.238069E-02
       N       E                     dE             d eps       ncg     rms          rms(c)
DAV:   1    -0.233021328488E+04    0.19345E-02   -0.34597E+00 13700   0.196E+00    0.270E-01
RMM:   2    -0.233029963726E+04   -0.86352E-01   -0.52587E-02 13896   0.494E-01    0.403E+00
RMM:   3    -0.233024092419E+04    0.58713E-01   -0.15752E-02 18850   0.172E-01    0.189E+00
RMM:   4    -0.233024986816E+04   -0.89440E-02   -0.52928E-03 13719   0.156E-01    0.246E+00
RMM:   5    -0.233024082303E+04    0.90451E-02   -0.68678E-03 19086   0.941E-02    0.204E+00
RMM:   6    -0.233022341022E+04    0.17413E-01   -0.81894E-03 13722   0.185E-01    0.109E+00
RMM:   7    -0.233025742662E+04   -0.34016E-01   -0.17860E-02 16351   0.188E-01    0.281E+00
RMM:   8    -0.233022330824E+04    0.34118E-01   -0.63468E-03 13790   0.165E-01    0.103E+00
RMM:   9    -0.233021738870E+04    0.59195E-02   -0.28537E-03 13718   0.128E-01    0.424E-01
RMM:  10    -0.233021706721E+04    0.32149E-03   -0.20907E-03 14927   0.781E-02    0.388E-01
RMM:  11    -0.233021707304E+04   -0.58269E-05   -0.19926E-03 15474   0.682E-02    0.385E-01
RMM:  12    -0.233021658341E+04    0.48963E-03   -0.10347E-03 14229   0.616E-02    0.226E-01
RMM:  13    -0.233021632414E+04    0.25927E-03   -0.43219E-04 14174   0.422E-02    0.106E-01
RMM:  14    -0.233021633437E+04   -0.10226E-04   -0.47983E-04 17569   0.227E-02    0.100E-01
RMM:  15    -0.233021633235E+04    0.20196E-05   -0.19349E-04 14807   0.221E-02    0.954E-02
RMM:  16    -0.233021629673E+04    0.35620E-04   -0.77909E-05 12075   0.179E-02    0.522E-02
RMM:  17    -0.233021629046E+04    0.62644E-05   -0.38581E-05  9856   0.993E-03
  23 F= -.23302163E+04 E0= -.23274658E+04  d E =-.107051E-02
       N       E                     dE             d eps       ncg     rms          rms(c)
DAV:   1    -0.233021622140E+04    0.75326E-04   -0.13465E-01 13860   0.387E-01    0.643E-02
RMM:   2    -0.233022674840E+04   -0.10527E-01   -0.28511E-03 13803   0.110E-01    0.142E+00
RMM:   3    -0.233021944499E+04    0.73034E-02   -0.14352E-03 19344   0.435E-02    0.702E-01
RMM:   4    -0.233022195369E+04   -0.25087E-02   -0.69123E-04 14111   0.488E-02    0.100E+00
RMM:   5    -0.233021749127E+04    0.44624E-02   -0.50470E-04 13727   0.462E-02    0.431E-01
RMM:   6    -0.233021713690E+04    0.35436E-03   -0.68159E-04 15665   0.415E-02    0.385E-01
RMM:   7    -0.233021760373E+04   -0.46683E-03   -0.12558E-03 15783   0.541E-02    0.458E-01
RMM:   8    -0.233021702364E+04    0.58010E-03   -0.69820E-04 14594   0.473E-02    0.342E-01
RMM:   9    -0.233021654317E+04    0.48047E-03   -0.28754E-04 13623   0.394E-02    0.184E-01
RMM:  10    -0.233021641535E+04    0.12781E-03   -0.13133E-04 13216   0.231E-02    0.122E-01
RMM:  11    -0.233021638759E+04    0.27762E-04   -0.12518E-04 13521   0.153E-02    0.943E-02
RMM:  12    -0.233021635951E+04    0.28077E-04   -0.85284E-05 12491   0.160E-02    0.580E-02
RMM:  13    -0.233021634699E+04    0.12520E-04   -0.28745E-05  8333   0.113E-02    0.376E-02
RMM:  14    -0.233021634462E+04    0.23756E-05   -0.20640E-05  7673   0.991E-03
  24 F= -.23302163E+04 E0= -.23274658E+04  d E =-.112466E-02
       N       E                     dE             d eps       ncg     rms          rms(c)
DAV:   1    -0.233021623486E+04    0.11214E-03   -0.68786E-01 13700   0.875E-01    0.124E-01
RMM:   2    -0.233022329323E+04   -0.70584E-02   -0.10602E-02 13915   0.225E-01    0.103E+00
RMM:   3    -0.233022658480E+04   -0.32916E-02   -0.37616E-03 19554   0.737E-02    0.135E+00
RMM:   4    -0.233022414340E+04    0.24414E-02   -0.10774E-03 13714   0.693E-02    0.114E+00
RMM:   5    -0.233022144734E+04    0.26961E-02   -0.14705E-03 18145   0.463E-02    0.907E-01
RMM:   6    -0.233021831404E+04    0.31333E-02   -0.14296E-03 13760   0.755E-02    0.495E-01
RMM:   7    -0.233022529012E+04   -0.69761E-02   -0.41694E-03 16844   0.871E-02    0.126E+00
RMM:   8    -0.233021823453E+04    0.70556E-02   -0.16563E-03 14072   0.795E-02    0.454E-01
RMM:   9    -0.233021704499E+04    0.11895E-02   -0.77484E-04 13713   0.691E-02    0.190E-01
RMM:  10    -0.233021698051E+04    0.64474E-04   -0.41548E-04 15044   0.341E-02    0.172E-01
RMM:  11    -0.233021703186E+04   -0.51349E-04   -0.53162E-04 17436   0.280E-02    0.185E-01
RMM:  12    -0.233021690595E+04    0.12591E-03   -0.18299E-04 13647   0.263E-02    0.105E-01
RMM:  13    -0.233021686568E+04    0.40267E-04   -0.11145E-04 12930   0.183E-02    0.681E-02
RMM:  14    -0.233021686022E+04    0.54656E-05   -0.60223E-05 10874   0.112E-02
  25 F= -.23302169E+04 E0= -.23274664E+04  d E =-.515601E-03
       N       E                     dE             d eps       ncg     rms          rms(c)
DAV:   1    -0.233021627780E+04    0.58788E-03   -0.87336E-01 13700   0.986E-01    0.143E-01
RMM:   2    -0.233022660595E+04   -0.10328E-01   -0.13969E-02 13900   0.257E-01    0.137E+00
RMM:   3    -0.233024039400E+04   -0.13788E-01   -0.47948E-03 19326   0.915E-02    0.203E+00
RMM:   4    -0.233022425009E+04    0.16144E-01   -0.13209E-03 13795   0.732E-02    0.111E+00
RMM:   5    -0.233022371097E+04    0.53912E-03   -0.18830E-03 16080   0.611E-02    0.104E+00
RMM:   6    -0.233021903602E+04    0.46750E-02   -0.22000E-03 13769   0.942E-02    0.571E-01
RMM:   7    -0.233022797541E+04   -0.89394E-02   -0.51923E-03 16066   0.104E-01    0.145E+00
RMM:   8    -0.233021904377E+04    0.89316E-02   -0.20102E-03 14436   0.843E-02    0.539E-01
RMM:   9    -0.233021748546E+04    0.15583E-02   -0.94800E-04 13706   0.753E-02    0.271E-01
RMM:  10    -0.233021735817E+04    0.12729E-03   -0.61868E-04 14827   0.429E-02    0.246E-01
RMM:  11    -0.233021733153E+04    0.26641E-04   -0.65073E-04 17119   0.326E-02    0.217E-01
RMM:  12    -0.233021723339E+04    0.98137E-04   -0.39122E-04 14723   0.321E-02    0.170E-01
RMM:  13    -0.233021709648E+04    0.13691E-03   -0.13724E-04 13288   0.243E-02    0.785E-02
RMM:  14    -0.233021709090E+04    0.55800E-05   -0.12571E-04 13264   0.144E-02    0.715E-02
RMM:  15    -0.233021708241E+04    0.84948E-05   -0.55670E-05 10888   0.138E-02
  26 F= -.23302171E+04 E0= -.23274666E+04  d E =-.737789E-03
       N       E                     dE             d eps       ncg     rms          rms(c)
DAV:   1    -0.233021678518E+04    0.30572E-03   -0.77308E-01 13700   0.929E-01    0.133E-01
RMM:   2    -0.233027318093E+04   -0.56396E-01   -0.12795E-02 13931   0.247E-01    0.323E+00
RMM:   3    -0.233022726381E+04    0.45917E-01   -0.45254E-03 19163   0.880E-02    0.120E+00
RMM:   4    -0.233022526723E+04    0.19966E-02   -0.21190E-03 13708   0.998E-02    0.114E+00
RMM:   5    -0.233022777084E+04   -0.25036E-02   -0.27020E-03 16458   0.713E-02    0.140E+00
RMM:   6    -0.233022300012E+04    0.47707E-02   -0.30998E-03 13959   0.105E-01    0.988E-01
RMM:   7    -0.233022378266E+04   -0.78254E-03   -0.58986E-03 17636   0.102E-01    0.105E+00
RMM:   8    -0.233021843370E+04    0.53490E-02   -0.20877E-03 13701   0.105E-01    0.384E-01
RMM:   9    -0.233021768269E+04    0.75101E-03   -0.73842E-04 13717   0.603E-02    0.220E-01
RMM:  10    -0.233021766096E+04    0.21730E-04   -0.74396E-04 17173   0.374E-02    0.198E-01
RMM:  11    -0.233021773198E+04   -0.71019E-04   -0.53284E-04 16378   0.317E-02    0.227E-01
RMM:  12    -0.233021750712E+04    0.22485E-03   -0.15724E-04 13256   0.259E-02    0.999E-02
RMM:  13    -0.233021748154E+04    0.25582E-04   -0.11889E-04 13097   0.147E-02    0.744E-02
RMM:  14    -0.233021747905E+04    0.24921E-05   -0.53707E-05 10713   0.133E-02
  27 F= -.23302175E+04 E0= -.23274670E+04  d E =-.396642E-03
       N       E                     dE             d eps       ncg     rms          rms(c)
DAV:   1    -0.233021683833E+04    0.64321E-03   -0.89319E-01 13700   0.999E-01    0.142E-01
RMM:   2    -0.233024591330E+04   -0.29075E-01   -0.13719E-02 13954   0.254E-01    0.225E+00
RMM:   3    -0.233022763743E+04    0.18276E-01   -0.44952E-03 19660   0.788E-02    0.131E+00
RMM:   4    -0.233022596406E+04    0.16734E-02   -0.18429E-03 13720   0.907E-02    0.118E+00
RMM:   5    -0.233022409901E+04    0.18650E-02   -0.21826E-03 16488   0.647E-02    0.110E+00
RMM:   6    -0.233022009507E+04    0.40039E-02   -0.29942E-03 13774   0.109E-01    0.642E-01
RMM:   7    -0.233021913850E+04    0.95658E-03   -0.27233E-03 14106   0.102E-01    0.487E-01
RMM:   8    -0.233021955095E+04   -0.41245E-03   -0.97567E-04 13706   0.726E-02    0.585E-01
RMM:   9    -0.233021838340E+04    0.11675E-02   -0.36216E-04 13872   0.377E-02    0.372E-01
RMM:  10    -0.233021806559E+04    0.31782E-03   -0.31258E-04 13797   0.376E-02    0.284E-01
RMM:  11    -0.233021785763E+04    0.20796E-03   -0.33962E-04 14836   0.296E-02    0.205E-01
RMM:  12    -0.233021776100E+04    0.96624E-04   -0.25689E-04 14325   0.284E-02    0.162E-01
RMM:  13    -0.233021766035E+04    0.10065E-03   -0.90998E-05 12680   0.222E-02    0.941E-02
RMM:  14    -0.233021765246E+04    0.78875E-05   -0.51792E-05 10523   0.141E-02
  28 F= -.23302177E+04 E0= -.23274673E+04  d E =-.570055E-03
       N       E                     dE             d eps       ncg     rms          rms(c)
DAV:   1    -0.233021708710E+04    0.57325E-03   -0.99318E-01 13700   0.105E+00    0.161E-01
RMM:   2    -0.233026240755E+04   -0.45320E-01   -0.18652E-02 13872   0.296E-01    0.294E+00
RMM:   3    -0.233024324993E+04    0.19158E-01   -0.84502E-03 19873   0.102E-01    0.209E+00
RMM:   4    -0.233023841700E+04    0.48329E-02   -0.34737E-03 13738   0.125E-01    0.190E+00
RMM:   5    -0.233022245285E+04    0.15964E-01   -0.25861E-03 15197   0.829E-02    0.820E-01
RMM:   6    -0.233022286595E+04   -0.41310E-03   -0.34941E-03 13938   0.113E-01    0.914E-01
RMM:   7    -0.233023104500E+04   -0.81791E-02   -0.89811E-03 17829   0.124E-01    0.156E+00
RMM:   8    -0.233022165383E+04    0.93912E-02   -0.35511E-03 14345   0.110E-01    0.743E-01
RMM:   9    -0.233021860835E+04    0.30455E-02   -0.17700E-03 13704   0.103E-01    0.357E-01
RMM:  10    -0.233021837313E+04    0.23522E-03   -0.93863E-04 15834   0.477E-02    0.299E-01
RMM:  11    -0.233021827438E+04    0.98752E-04   -0.93153E-04 17522   0.375E-02    0.257E-01
RMM:  12    -0.233021806969E+04    0.20469E-03   -0.54800E-04 15511   0.361E-02    0.168E-01
RMM:  13    -0.233021797931E+04    0.90378E-04   -0.22858E-04 14199   0.274E-02    0.115E-01
RMM:  14    -0.233021797321E+04    0.61035E-05   -0.21626E-04 15716   0.175E-02    0.105E-01
RMM:  15    -0.233021794185E+04    0.31356E-04   -0.73330E-05 12098   0.164E-02    0.726E-02
RMM:  16    -0.233021791416E+04    0.27695E-04   -0.26668E-05  8205   0.129E-02    0.260E-02
RMM:  17    -0.233021791298E+04    0.11798E-05   -0.13684E-05  7659   0.715E-03
  29 F= -.23302179E+04 E0= -.23274675E+04  d E =-.260516E-03
       N       E                     dE             d eps       ncg     rms          rms(c)
DAV:   1    -0.233021781466E+04    0.99501E-04   -0.15519E-01 13800   0.416E-01    0.642E-02
RMM:   2    -0.233022229504E+04   -0.44804E-02   -0.28048E-03 13941   0.111E-01    0.915E-01
RMM:   3    -0.233022094732E+04    0.13477E-02   -0.11643E-03 19201   0.412E-02    0.721E-01
RMM:   4    -0.233022255999E+04   -0.16127E-02   -0.39371E-04 13674   0.408E-02    0.916E-01
RMM:   5    -0.233021859544E+04    0.39645E-02   -0.29808E-04 14043   0.319E-02    0.294E-01
RMM:   6    -0.233021870520E+04   -0.10976E-03   -0.53875E-04 13845   0.449E-02    0.356E-01
RMM:   7    -0.233021909893E+04   -0.39373E-03   -0.91719E-04 15253   0.494E-02    0.460E-01
RMM:   8    -0.233021871611E+04    0.38282E-03   -0.54587E-04 16155   0.351E-02    0.368E-01
RMM:   9    -0.233021801032E+04    0.70579E-03   -0.23584E-04 13603   0.360E-02    0.953E-02
RMM:  10    -0.233021797506E+04    0.35259E-04   -0.15951E-04 14459   0.199E-02    0.822E-02
RMM:  11    -0.233021799747E+04   -0.22406E-04   -0.13253E-04 13992   0.149E-02    0.964E-02
RMM:  12    -0.233021798111E+04    0.16356E-04   -0.67616E-05 11471   0.153E-02    0.793E-02
RMM:  13    -0.233021795201E+04    0.29105E-04   -0.27011E-05  8126   0.120E-02    0.322E-02
RMM:  14    -0.233021795074E+04    0.12639E-05   -0.17739E-05  7591   0.883E-03
  30 F= -.23302180E+04 E0= -.23274675E+04  d E =-.298282E-03
       N       E                     dE             d eps       ncg     rms          rms(c)
DAV:   1    -0.233021768703E+04    0.26498E-03   -0.60083E-01 13700   0.818E-01    0.118E-01
RMM:   2    -0.233023689754E+04   -0.19211E-01   -0.99800E-03 13920   0.216E-01    0.185E+00
RMM:   3    -0.233022358096E+04    0.13317E-01   -0.34090E-03 19151   0.736E-02    0.932E-01
RMM:   4    -0.233023896068E+04   -0.15380E-01   -0.14388E-03 14618   0.671E-02    0.196E+00
RMM:   5    -0.233021999443E+04    0.18966E-01   -0.12764E-03 13727   0.748E-02    0.444E-01
RMM:   6    -0.233022295976E+04   -0.29653E-02   -0.24582E-03 15162   0.815E-02    0.940E-01
RMM:   7    -0.233022411242E+04   -0.11527E-02   -0.40102E-03 16370   0.912E-02    0.102E+00
RMM:   8    -0.233021982622E+04    0.42862E-02   -0.15209E-03 13821   0.779E-02    0.520E-01
RMM:   9    -0.233021843012E+04    0.13961E-02   -0.70736E-04 13717   0.624E-02    0.201E-01
RMM:  10    -0.233021832926E+04    0.10087E-03   -0.47820E-04 14617   0.388E-02    0.171E-01
RMM:  11    -0.233021838125E+04   -0.51993E-04   -0.64336E-04 17548   0.307E-02    0.185E-01
RMM:  12    -0.233021828915E+04    0.92094E-04   -0.20145E-04 13924   0.252E-02    0.129E-01
RMM:  13    -0.233021821592E+04    0.73233E-04   -0.11928E-04 13058   0.185E-02    0.644E-02
RMM:  14    -0.233021820947E+04    0.64493E-05   -0.62571E-05 11144   0.119E-02
  31 F= -.23302182E+04 E0= -.23274679E+04  d E =-.258728E-03
       N       E                     dE             d eps       ncg     rms          rms(c)
DAV:   1    -0.233021793975E+04    0.27617E-03   -0.37790E-01 13700   0.649E-01    0.103E-01
RMM:   2    -0.233025157530E+04   -0.33636E-01   -0.74881E-03 13937   0.180E-01    0.247E+00
RMM:   3    -0.233022352071E+04    0.28055E-01   -0.32709E-03 19219   0.684E-02    0.884E-01
RMM:   4    -0.233021936455E+04    0.41562E-02   -0.17177E-03 13702   0.981E-02    0.409E-01
RMM:   5    -0.233022544703E+04   -0.60825E-02   -0.22000E-03 18464   0.594E-02    0.114E+00
RMM:   6    -0.233022486957E+04    0.57746E-03   -0.23185E-03 18300   0.616E-02    0.112E+00
RMM:   7    -0.233022245344E+04    0.24161E-02   -0.20789E-03 14159   0.833E-02    0.850E-01
RMM:   8    -0.233021987556E+04    0.25779E-02   -0.14072E-03 14464   0.678E-02    0.524E-01
RMM:   9    -0.233021851497E+04    0.13606E-02   -0.69350E-04 13702   0.645E-02    0.205E-01
RMM:  10    -0.233021839061E+04    0.12436E-03   -0.42637E-04 14128   0.401E-02    0.168E-01
RMM:  11    -0.233021847052E+04   -0.79913E-04   -0.60443E-04 17749   0.300E-02    0.195E-01
RMM:  12    -0.233021836548E+04    0.10505E-03   -0.21209E-04 13787   0.274E-02    0.134E-01
RMM:  13    -0.233021828155E+04    0.83928E-04   -0.10104E-04 12628   0.187E-02    0.621E-02
RMM:  14    -0.233021827263E+04    0.89216E-05   -0.64093E-05 11001   0.120E-02
  32 F= -.23302183E+04 E0= -.23274681E+04  d E =-.321886E-03
       N       E                     dE             d eps       ncg     rms          rms(c)
DAV:   1    -0.233021794076E+04    0.34079E-03   -0.59253E-01 13700   0.812E-01    0.118E-01
RMM:   2    -0.233022721521E+04   -0.92744E-02   -0.95059E-03 13903   0.213E-01    0.123E+00
RMM:   3    -0.233022653158E+04    0.68363E-03   -0.32437E-03 19524   0.656E-02    0.121E+00
RMM:   4    -0.233023114489E+04   -0.46133E-02   -0.13122E-03 14477   0.637E-02    0.150E+00
RMM:   5    -0.233022150045E+04    0.96444E-02   -0.12313E-03 14408   0.620E-02    0.724E-01
RMM:   6    -0.233022022571E+04    0.12747E-02   -0.15977E-03 13946   0.765E-02    0.565E-01
RMM:   7    -0.233022340240E+04   -0.31767E-02   -0.37610E-03 18164   0.766E-02    0.945E-01
RMM:   8    -0.233021972341E+04    0.36790E-02   -0.17456E-03 13873   0.819E-02    0.452E-01
RMM:   9    -0.233021865715E+04    0.10663E-02   -0.80731E-04 13701   0.701E-02    0.204E-01
RMM:  10    -0.233021854488E+04    0.11227E-03   -0.32844E-04 14199   0.333E-02    0.153E-01
RMM:  11    -0.233021855758E+04   -0.12694E-04   -0.41463E-04 17640   0.225E-02    0.152E-01
RMM:  12    -0.233021849768E+04    0.59899E-04   -0.19446E-04 14345   0.238E-02    0.106E-01
RMM:  13    -0.233021845145E+04    0.46229E-04   -0.97203E-05 12682   0.200E-02    0.576E-02
RMM:  14    -0.233021844483E+04    0.66234E-05   -0.51039E-05 10313   0.109E-02
  33 F= -.23302184E+04 E0= -.23274683E+04  d E =-.172195E-03
       N       E                     dE             d eps       ncg     rms          rms(c)
DAV:   1    -0.233021834360E+04    0.10785E-03   -0.14550E-01 13780   0.403E-01    0.702E-02
RMM:   2    -0.233023797778E+04   -0.19634E-01   -0.40681E-03 14151   0.126E-01    0.184E+00
RMM:   3    -0.233022181675E+04    0.16161E-01   -0.14703E-03 17403   0.577E-02    0.730E-01
RMM:   4    -0.233022751356E+04   -0.56968E-02   -0.92888E-04 14812   0.492E-02    0.128E+00
RMM:   5    -0.233021955802E+04    0.79555E-02   -0.67338E-04 13766   0.541E-02    0.397E-01
RMM:   6    -0.233021917401E+04    0.38402E-03   -0.87996E-04 13955   0.577E-02    0.362E-01
RMM:   7    -0.233022131058E+04   -0.21366E-02   -0.19836E-03 17722   0.590E-02    0.729E-01
RMM:   8    -0.233021938782E+04    0.19228E-02   -0.82562E-04 14667   0.504E-02    0.393E-01
RMM:   9    -0.233021856241E+04    0.82541E-03   -0.41962E-04 13668   0.493E-02    0.128E-01
RMM:  10    -0.233021850731E+04    0.55104E-04   -0.27778E-04 16904   0.218E-02    0.947E-02
RMM:  11    -0.233021851442E+04   -0.71087E-05   -0.17239E-04 15010   0.185E-02    0.929E-02
RMM:  12    -0.233021848026E+04    0.34158E-04   -0.66931E-05 11716   0.162E-02    0.529E-02
RMM:  13    -0.233021847306E+04    0.71989E-05   -0.28274E-05  8485   0.895E-03
  34 F= -.23302185E+04 E0= -.23274682E+04  d E =-.200432E-03
       N       E                     dE             d eps       ncg     rms          rms(c)
DAV:   1    -0.233021833793E+04    0.14234E-03   -0.34129E-01 13700   0.616E-01    0.940E-02
RMM:   2    -0.233024345214E+04   -0.25114E-01   -0.66865E-03 13968   0.174E-01    0.212E+00
RMM:   3    -0.233022289789E+04    0.20554E-01   -0.22778E-03 18163   0.667E-02    0.813E-01
RMM:   4    -0.233023109236E+04   -0.81945E-02   -0.12816E-03 14703   0.597E-02    0.150E+00
RMM:   5    -0.233022068284E+04    0.10410E-01   -0.10177E-03 13730   0.672E-02    0.579E-01
RMM:   6    -0.233022024435E+04    0.43849E-03   -0.13649E-03 15702   0.589E-02    0.551E-01
RMM:   7    -0.233022174751E+04   -0.15032E-02   -0.25264E-03 15346   0.797E-02    0.741E-01
RMM:   8    -0.233021969216E+04    0.20553E-02   -0.10827E-03 14069   0.648E-02    0.405E-01
RMM:   9    -0.233021888956E+04    0.80261E-03   -0.49235E-04 13696   0.544E-02    0.217E-01
RMM:  10    -0.233021871173E+04    0.17782E-03   -0.22476E-04 15210   0.206E-02    0.130E-01
RMM:  11    -0.233021873682E+04   -0.25089E-04   -0.22927E-04 14481   0.261E-02    0.147E-01
RMM:  12    -0.233021866031E+04    0.76516E-04   -0.17585E-04 14366   0.214E-02    0.802E-02
RMM:  13    -0.233021863068E+04    0.29627E-04   -0.59129E-05 10944   0.168E-02    0.483E-02
RMM:  14    -0.233021862900E+04    0.16827E-05   -0.27608E-05  8828   0.920E-03
  35 F= -.23302186E+04 E0= -.23274682E+04  d E =-.155935E-03
       N       E                     dE             d eps       ncg     rms          rms(c)
DAV:   1    -0.233021855460E+04    0.76082E-04   -0.11018E-01 13800   0.351E-01    0.648E-02
RMM:   2    -0.233023946018E+04   -0.20906E-01   -0.33014E-03 14102   0.117E-01    0.195E+00
RMM:   3    -0.233022168586E+04    0.17774E-01   -0.15884E-03 18502   0.499E-02    0.676E-01
RMM:   4    -0.233021982611E+04    0.18597E-02   -0.93255E-04 13694   0.710E-02    0.462E-01
RMM:   5    -0.233022165163E+04   -0.18255E-02   -0.94908E-04 18664   0.358E-02    0.727E-01
RMM:   6    -0.233021978260E+04    0.18690E-02   -0.76830E-04 14456   0.495E-02    0.416E-01
RMM:   7    -0.233021943518E+04    0.34742E-03   -0.98330E-04 14360   0.572E-02    0.362E-01
RMM:   8    -0.233021930346E+04    0.13172E-03   -0.46977E-04 13645   0.474E-02    0.338E-01
RMM:   9    -0.233021920289E+04    0.10057E-03   -0.18700E-04 13507   0.300E-02    0.328E-01
RMM:  10    -0.233021875309E+04    0.44980E-03   -0.89746E-05 12511   0.218E-02    0.132E-01
RMM:  11    -0.233021869698E+04    0.56115E-04   -0.79394E-05 12175   0.171E-02    0.982E-02
RMM:  12    -0.233021867002E+04    0.26954E-04   -0.81802E-05 12173   0.163E-02    0.641E-02
RMM:  13    -0.233021865982E+04    0.10204E-04   -0.31462E-05  8697   0.127E-02    0.527E-02
RMM:  14    -0.233021865270E+04    0.71191E-05   -0.16293E-05  7706   0.864E-03
  36 F= -.23302187E+04 E0= -.23274682E+04  d E =-.179636E-03
       N       E                     dE             d eps       ncg     rms          rms(c)
DAV:   1    -0.233021848397E+04    0.17585E-03   -0.33982E-01 13700   0.615E-01    0.939E-02
RMM:   2    -0.233023440663E+04   -0.15923E-01   -0.62353E-03 13953   0.167E-01    0.174E+00
RMM:   3    -0.233022582494E+04    0.85817E-02   -0.25011E-03 18736   0.657E-02    0.109E+00
RMM:   4    -0.233023024899E+04   -0.44240E-02   -0.10321E-03 14143   0.601E-02    0.143E+00
RMM:   5    -0.233021975700E+04    0.10492E-01   -0.69254E-04 13788   0.532E-02    0.343E-01
RMM:   6    -0.233022073768E+04   -0.98068E-03   -0.14373E-03 14045   0.704E-02    0.576E-01
RMM:   7    -0.233022174874E+04   -0.10111E-02   -0.19926E-03 15046   0.755E-02    0.739E-01
RMM:   8    -0.233022030210E+04    0.14466E-02   -0.10685E-03 15665   0.523E-02    0.505E-01
RMM:   9    -0.233021897026E+04    0.13318E-02   -0.52671E-04 13698   0.553E-02    0.191E-01
RMM:  10    -0.233021889575E+04    0.74514E-04   -0.41401E-04 17264   0.270E-02    0.157E-01
RMM:  11    -0.233021893239E+04   -0.36645E-04   -0.30351E-04 16706   0.227E-02    0.177E-01
RMM:  12    -0.233021879626E+04    0.13613E-03   -0.92577E-05 12316   0.197E-02    0.804E-02
RMM:  13    -0.233021877189E+04    0.24368E-04   -0.41117E-05  9629   0.134E-02    0.546E-02
RMM:  14    -0.233021876864E+04    0.32552E-05   -0.30719E-05  8639   0.112E-02
  37 F= -.23302188E+04 E0= -.23274683E+04  d E =-.115939E-03
       N       E                     dE             d eps       ncg     rms          rms(c)
DAV:   1    -0.233021859935E+04    0.17254E-03   -0.20750E-01 13720   0.481E-01    0.763E-02
RMM:   2    -0.233022465446E+04   -0.60551E-02   -0.39178E-03 13876   0.137E-01    0.105E+00
RMM:   3    -0.233022451061E+04    0.14386E-03   -0.16183E-03 19617   0.442E-02    0.102E+00
RMM:   4    -0.233022173606E+04    0.27745E-02   -0.66641E-04 13683   0.559E-02    0.728E-01
RMM:   5    -0.233022009089E+04    0.16452E-02   -0.58472E-04 15796   0.358E-02    0.456E-01
RMM:   6    -0.233021996919E+04    0.12169E-03   -0.74167E-04 13980   0.511E-02    0.444E-01
RMM:   7    -0.233022103962E+04   -0.10704E-02   -0.14554E-03 16280   0.557E-02    0.652E-01
RMM:   8    -0.233021951040E+04    0.15292E-02   -0.76337E-04 15081   0.467E-02    0.325E-01
RMM:   9    -0.233021891805E+04    0.59235E-03   -0.35889E-04 13679   0.462E-02    0.157E-01
RMM:  10    -0.233021883606E+04    0.81984E-04   -0.19130E-04 13751   0.264E-02    0.115E-01
RMM:  11    -0.233021883969E+04   -0.36259E-05   -0.19667E-04 14798   0.156E-02    0.108E-01
RMM:  12    -0.233021884015E+04   -0.45891E-06   -0.13600E-04 13861   0.181E-02    0.106E-01
RMM:  13    -0.233021879526E+04    0.44887E-04   -0.44387E-05  9886   0.143E-02    0.563E-02
RMM:  14    -0.233021878985E+04    0.54159E-05   -0.23266E-05  8169   0.949E-03
  38 F= -.23302188E+04 E0= -.23274683E+04  d E =-.137147E-03
       N       E                     dE             d eps       ncg     rms          rms(c)
DAV:   1    -0.233021868543E+04    0.10983E-03   -0.20938E-01 13700   0.482E-01    0.817E-02
RMM:   2    -0.233023333478E+04   -0.14649E-01   -0.50200E-03 13888   0.153E-01    0.167E+00
RMM:   3    -0.233022699439E+04    0.63404E-02   -0.20810E-03 18041   0.636E-02    0.118E+00
RMM:   4    -0.233022804951E+04   -0.10551E-02   -0.90976E-04 13994   0.584E-02    0.128E+00
RMM:   5    -0.233022017799E+04    0.78715E-02   -0.67975E-04 13908   0.496E-02    0.420E-01
RMM:   6    -0.233021973967E+04    0.43831E-03   -0.10553E-03 13743   0.667E-02    0.380E-01
RMM:   7    -0.233022114900E+04   -0.14093E-02   -0.19865E-03 15922   0.680E-02    0.641E-01
RMM:   8    -0.233022042283E+04    0.72617E-03   -0.11827E-03 16420   0.506E-02    0.527E-01
RMM:   9    -0.233021918959E+04    0.12332E-02   -0.49956E-04 13686   0.518E-02    0.245E-01
RMM:  10    -0.233021895634E+04    0.23324E-03   -0.26385E-04 14081   0.309E-02    0.149E-01
RMM:  11    -0.233021892471E+04    0.31631E-04   -0.28180E-04 16264   0.203E-02    0.118E-01
RMM:  12    -0.233021887822E+04    0.46489E-04   -0.18550E-04 14921   0.189E-02    0.726E-02
RMM:  13    -0.233021886220E+04    0.16027E-04   -0.61057E-05 11222   0.157E-02    0.567E-02
RMM:  14    -0.233021885812E+04    0.40726E-05   -0.28815E-05  8377   0.968E-03
  39 F= -.23302189E+04 E0= -.23274684E+04  d E =-.682793E-04
       N       E                     dE             d eps       ncg     rms          rms(c)
DAV:   1    -0.233021854513E+04    0.31707E-03   -0.42892E-01 13700   0.690E-01    0.109E-01
RMM:   2    -0.233024582260E+04   -0.27277E-01   -0.87099E-03 13942   0.200E-01    0.229E+00
RMM:   3    -0.233023049355E+04    0.15329E-01   -0.34878E-03 18184   0.823E-02    0.139E+00
RMM:   4    -0.233023494647E+04   -0.44529E-02   -0.14828E-03 13886   0.759E-02    0.169E+00
RMM:   5    -0.233022084956E+04    0.14097E-01   -0.10839E-03 13932   0.641E-02    0.511E-01
RMM:   6    -0.233022122589E+04   -0.37634E-03   -0.18527E-03 13831   0.848E-02    0.633E-01
RMM:   7    -0.233022629006E+04   -0.50642E-02   -0.44095E-03 17783   0.879E-02    0.118E+00
RMM:   8    -0.233022075276E+04    0.55373E-02   -0.16017E-03 13844   0.790E-02    0.536E-01
RMM:   9    -0.233021922273E+04    0.15300E-02   -0.79153E-04 13713   0.662E-02    0.255E-01
RMM:  10    -0.233021899421E+04    0.22852E-03   -0.41136E-04 15224   0.335E-02    0.159E-01
RMM:  11    -0.233021898370E+04    0.10501E-04   -0.47654E-04 16910   0.293E-02    0.143E-01
RMM:  12    -0.233021892236E+04    0.61346E-04   -0.22127E-04 14809   0.234E-02    0.977E-02
RMM:  13    -0.233021889313E+04    0.29232E-04   -0.96972E-05 12561   0.161E-02    0.634E-02
RMM:  14    -0.233021888852E+04    0.46077E-05   -0.47191E-05 10387   0.109E-02
  40 F= -.23302189E+04 E0= -.23274684E+04  d E =-.986739E-04
