 288 288   0   0
  0.1280206E+02  0.9726678E-09  0.8423550E-09  0.4500000E-08  0.2500000E-15
  1.000000000000000E-004
  CAR 
 unknown system                          
      6.78153717     -6.03273478  301      4.31583251      1.00000000
     -6.033  0.0000E+00  0.0000E+00
     -5.990  0.0000E+00  0.0000E+00
     -5.947  0.0000E+00  0.0000E+00
     -5.905  0.0000E+00  0.0000E+00
     -5.862  0.0000E+00  0.0000E+00
     -5.819  0.0000E+00  0.0000E+00
     -5.776  0.0000E+00  0.0000E+00
     -5.734  0.0000E+00  0.0000E+00
     -5.691  0.0000E+00  0.0000E+00
     -5.648  0.0000E+00  0.0000E+00
     -5.606  0.0000E+00  0.0000E+00
     -5.563  0.0000E+00  0.0000E+00
     -5.520  0.0000E+00  0.0000E+00
     -5.477  0.0000E+00  0.0000E+00
     -5.435  0.0000E+00  0.0000E+00
     -5.392  0.1624E-15  0.6939E-17
     -5.349  0.3866E-14  0.1721E-15
     -5.307  0.8278E-13  0.3708E-14
     -5.264  0.1510E-11  0.6821E-13
     -5.221  0.2346E-10  0.1070E-11
     -5.178  0.3106E-09  0.1434E-10
     -5.136  0.3503E-08  0.1639E-09
     -5.093  0.3367E-07  0.1602E-08
     -5.050  0.2759E-06  0.1339E-07
     -5.008  0.1930E-05  0.9582E-07
     -4.965  0.1153E-04  0.5881E-06
     -4.922  0.5887E-04  0.3103E-05
     -4.879  0.2577E-03  0.1411E-04
     -4.837  0.9703E-03  0.5556E-04
     -4.794  0.3156E-02  0.1904E-03
     -4.751  0.8926E-02  0.5716E-03
     -4.709  0.2216E-01  0.1518E-02
     -4.666  0.4883E-01  0.3604E-02
     -4.623  0.9675E-01  0.7737E-02
     -4.580  0.1746E+00  0.1519E-01
     -4.538  0.2899E+00  0.2758E-01
     -4.495  0.4469E+00  0.4667E-01
     -4.452  0.6430E+00  0.7413E-01
     -4.410  0.8675E+00  0.1112E+00
     -4.367  0.1102E+01  0.1583E+00
     -4.324  0.1324E+01  0.2148E+00
     -4.281  0.1512E+01  0.2794E+00
     -4.239  0.1651E+01  0.3500E+00
     -4.196  0.1742E+01  0.4244E+00
     -4.153  0.1802E+01  0.5014E+00
     -4.111  0.1858E+01  0.5807E+00
     -4.068  0.1946E+01  0.6638E+00
     -4.025  0.2088E+01  0.7530E+00
     -3.982  0.2294E+01  0.8510E+00
     -3.940  0.2544E+01  0.9597E+00
     -3.897  0.2801E+01  0.1079E+01
     -3.854  0.3019E+01  0.1208E+01
     -3.812  0.3156E+01  0.1343E+01
     -3.769  0.3197E+01  0.1480E+01
     -3.726  0.3156E+01  0.1614E+01
     -3.683  0.3076E+01  0.1746E+01
     -3.641  0.3016E+01  0.1875E+01
     -3.598  0.3028E+01  0.2004E+01
     -3.555  0.3137E+01  0.2138E+01
     -3.513  0.3336E+01  0.2281E+01
     -3.470  0.3590E+01  0.2434E+01
     -3.427  0.3845E+01  0.2598E+01
     -3.384  0.4052E+01  0.2771E+01
     -3.342  0.4178E+01  0.2950E+01
     -3.299  0.4219E+01  0.3130E+01
     -3.256  0.4197E+01  0.3309E+01
     -3.214  0.4157E+01  0.3487E+01
     -3.171  0.4148E+01  0.3664E+01
     -3.128  0.4213E+01  0.3844E+01
     -3.085  0.4366E+01  0.4030E+01
     -3.043  0.4593E+01  0.4226E+01
     -3.000  0.4855E+01  0.4434E+01
     -2.957  0.5102E+01  0.4652E+01
     -2.915  0.5289E+01  0.4878E+01
     -2.872  0.5390E+01  0.5108E+01
     -2.829  0.5412E+01  0.5339E+01
     -2.786  0.5396E+01  0.5570E+01
     -2.744  0.5395E+01  0.5800E+01
     -2.701  0.5444E+01  0.6033E+01
     -2.658  0.5531E+01  0.6269E+01
     -2.616  0.5605E+01  0.6508E+01
     -2.573  0.5615E+01  0.6748E+01
     -2.530  0.5557E+01  0.6985E+01
     -2.487  0.5498E+01  0.7220E+01
     -2.445  0.5545E+01  0.7457E+01
     -2.402  0.5790E+01  0.7704E+01
     -2.359  0.6250E+01  0.7971E+01
     -2.317  0.6828E+01  0.8263E+01
     -2.274  0.7343E+01  0.8577E+01
     -2.231  0.7605E+01  0.8901E+01
     -2.188  0.7530E+01  0.9223E+01
     -2.146  0.7201E+01  0.9531E+01
     -2.103  0.6837E+01  0.9823E+01
     -2.060  0.6679E+01  0.1011E+02
     -2.018  0.6868E+01  0.1040E+02
     -1.975  0.7376E+01  0.1072E+02
     -1.932  0.8033E+01  0.1106E+02
     -1.889  0.8609E+01  0.1143E+02
     -1.847  0.8925E+01  0.1181E+02
     -1.804  0.8940E+01  0.1219E+02
     -1.761  0.8766E+01  0.1256E+02
     -1.719  0.8591E+01  0.1293E+02
     -1.676  0.8567E+01  0.1330E+02
     -1.633  0.8733E+01  0.1367E+02
     -1.590  0.9027E+01  0.1406E+02
     -1.548  0.9353E+01  0.1446E+02
     -1.505  0.9648E+01  0.1487E+02
     -1.462  0.9898E+01  0.1529E+02
     -1.420  0.1012E+02  0.1572E+02
     -1.377  0.1031E+02  0.1616E+02
     -1.334  0.1048E+02  0.1661E+02
     -1.291  0.1065E+02  0.1707E+02
     -1.249  0.1093E+02  0.1753E+02
     -1.206  0.1149E+02  0.1802E+02
     -1.163  0.1238E+02  0.1855E+02
     -1.121  0.1350E+02  0.1913E+02
     -1.078  0.1456E+02  0.1975E+02
     -1.035  0.1525E+02  0.2040E+02
     -0.992  0.1548E+02  0.2106E+02
     -0.950  0.1544E+02  0.2172E+02
     -0.907  0.1555E+02  0.2239E+02
     -0.864  0.1619E+02  0.2308E+02
     -0.822  0.1750E+02  0.2383E+02
     -0.779  0.1940E+02  0.2465E+02
     -0.736  0.2173E+02  0.2558E+02
     -0.693  0.2449E+02  0.2663E+02
     -0.651  0.2784E+02  0.2782E+02
     -0.608  0.3188E+02  0.2918E+02
     -0.565  0.3642E+02  0.3074E+02
     -0.523  0.4098E+02  0.3249E+02
     -0.480  0.4497E+02  0.3441E+02
     -0.437  0.4807E+02  0.3646E+02
     -0.394  0.5036E+02  0.3861E+02
     -0.352  0.5214E+02  0.4084E+02
     -0.309  0.5368E+02  0.4313E+02
     -0.266  0.5508E+02  0.4548E+02
     -0.224  0.5622E+02  0.4788E+02
     -0.181  0.5698E+02  0.5032E+02
     -0.138  0.5734E+02  0.5277E+02
     -0.095  0.5744E+02  0.5522E+02
     -0.053  0.5753E+02  0.5768E+02
     -0.010  0.5786E+02  0.6015E+02
      0.033  0.5859E+02  0.6265E+02
      0.075  0.5989E+02  0.6521E+02
      0.118  0.6187E+02  0.6785E+02
      0.161  0.6457E+02  0.7061E+02
      0.204  0.6784E+02  0.7351E+02
      0.246  0.7135E+02  0.7656E+02
      0.289  0.7476E+02  0.7975E+02
      0.332  0.7781E+02  0.8307E+02
      0.374  0.8043E+02  0.8651E+02
      0.417  0.8259E+02  0.9004E+02
      0.460  0.8433E+02  0.9364E+02
      0.503  0.8562E+02  0.9730E+02
      0.545  0.8642E+02  0.1010E+03
      0.588  0.8674E+02  0.1047E+03
      0.631  0.8661E+02  0.1084E+03
      0.673  0.8608E+02  0.1121E+03
      0.716  0.8516E+02  0.1157E+03
      0.759  0.8378E+02  0.1193E+03
      0.802  0.8198E+02  0.1228E+03
      0.844  0.7999E+02  0.1262E+03
      0.887  0.7820E+02  0.1295E+03
      0.930  0.7692E+02  0.1328E+03
      0.972  0.7624E+02  0.1361E+03
      1.015  0.7595E+02  0.1393E+03
      1.058  0.7569E+02  0.1426E+03
      1.101  0.7520E+02  0.1458E+03
      1.143  0.7445E+02  0.1490E+03
      1.186  0.7367E+02  0.1521E+03
      1.229  0.7319E+02  0.1552E+03
      1.271  0.7320E+02  0.1584E+03
      1.314  0.7354E+02  0.1615E+03
      1.357  0.7374E+02  0.1646E+03
      1.400  0.7332E+02  0.1678E+03
      1.442  0.7214E+02  0.1709E+03
      1.485  0.7048E+02  0.1739E+03
      1.528  0.6897E+02  0.1768E+03
      1.570  0.6819E+02  0.1797E+03
      1.613  0.6845E+02  0.1827E+03
      1.656  0.6972E+02  0.1856E+03
      1.699  0.7174E+02  0.1887E+03
      1.741  0.7413E+02  0.1919E+03
      1.784  0.7658E+02  0.1951E+03
      1.827  0.7889E+02  0.1985E+03
      1.869  0.8097E+02  0.2020E+03
      1.912  0.8282E+02  0.2055E+03
      1.955  0.8451E+02  0.2091E+03
      1.998  0.8608E+02  0.2128E+03
      2.040  0.8760E+02  0.2165E+03
      2.083  0.8910E+02  0.2203E+03
      2.126  0.9059E+02  0.2242E+03
      2.168  0.9209E+02  0.2281E+03
      2.211  0.9363E+02  0.2321E+03
      2.254  0.9529E+02  0.2362E+03
      2.297  0.9729E+02  0.2404E+03
      2.339  0.9990E+02  0.2446E+03
      2.382  0.1033E+03  0.2490E+03
      2.425  0.1074E+03  0.2536E+03
      2.467  0.1119E+03  0.2584E+03
      2.510  0.1163E+03  0.2634E+03
      2.553  0.1204E+03  0.2685E+03
      2.596  0.1237E+03  0.2738E+03
      2.638  0.1261E+03  0.2792E+03
      2.681  0.1276E+03  0.2846E+03
      2.724  0.1284E+03  0.2901E+03
      2.766  0.1290E+03  0.2956E+03
      2.809  0.1299E+03  0.3012E+03
      2.852  0.1318E+03  0.3068E+03
      2.895  0.1347E+03  0.3126E+03
      2.937  0.1379E+03  0.3185E+03
      2.980  0.1403E+03  0.3244E+03
      3.023  0.1403E+03  0.3304E+03
      3.065  0.1368E+03  0.3363E+03
      3.108  0.1301E+03  0.3418E+03
      3.151  0.1212E+03  0.3470E+03
      3.194  0.1119E+03  0.3518E+03
      3.236  0.1037E+03  0.3562E+03
      3.279  0.9765E+02  0.3604E+03
      3.322  0.9391E+02  0.3644E+03
      3.364  0.9214E+02  0.3683E+03
      3.407  0.9164E+02  0.3723E+03
      3.450  0.9157E+02  0.3762E+03
      3.493  0.9114E+02  0.3801E+03
      3.535  0.8988E+02  0.3839E+03
      3.578  0.8785E+02  0.3877E+03
      3.621  0.8567E+02  0.3913E+03
      3.663  0.8424E+02  0.3949E+03
      3.706  0.8428E+02  0.3985E+03
      3.749  0.8595E+02  0.4022E+03
      3.792  0.8877E+02  0.4060E+03
      3.834  0.9194E+02  0.4099E+03
      3.877  0.9478E+02  0.4139E+03
      3.920  0.9703E+02  0.4181E+03
      3.962  0.9880E+02  0.4223E+03
      4.005  0.1003E+03  0.4266E+03
      4.048  0.1015E+03  0.4309E+03
      4.091  0.1023E+03  0.4353E+03
      4.133  0.1024E+03  0.4397E+03
      4.176  0.1020E+03  0.4440E+03
      4.219  0.1010E+03  0.4483E+03
      4.261  0.9995E+02  0.4526E+03
      4.304  0.9904E+02  0.4568E+03
      4.347  0.9857E+02  0.4611E+03
      4.390  0.9865E+02  0.4653E+03
      4.432  0.9915E+02  0.4695E+03
      4.475  0.9977E+02  0.4738E+03
      4.518  0.1001E+03  0.4780E+03
      4.560  0.1000E+03  0.4823E+03
      4.603  0.9936E+02  0.4866E+03
      4.646  0.9855E+02  0.4908E+03
      4.689  0.9808E+02  0.4950E+03
      4.731  0.9846E+02  0.4992E+03
      4.774  0.9996E+02  0.5034E+03
      4.817  0.1025E+03  0.5078E+03
      4.859  0.1057E+03  0.5123E+03
      4.902  0.1090E+03  0.5170E+03
      4.945  0.1119E+03  0.5218E+03
      4.988  0.1139E+03  0.5266E+03
      5.030  0.1141E+03  0.5315E+03
      5.073  0.1114E+03  0.5363E+03
      5.116  0.1046E+03  0.5407E+03
      5.158  0.9305E+02  0.5447E+03
      5.201  0.7713E+02  0.5480E+03
      5.244  0.5875E+02  0.5505E+03
      5.287  0.4062E+02  0.5522E+03
      5.329  0.2523E+02  0.5533E+03
      5.372  0.1396E+02  0.5539E+03
      5.415  0.6839E+01  0.5542E+03
      5.457  0.2951E+01  0.5543E+03
      5.500  0.1117E+01  0.5544E+03
      5.543  0.3700E+00  0.5544E+03
      5.586  0.1069E+00  0.5544E+03
      5.628  0.2686E-01  0.5544E+03
      5.671  0.5867E-02  0.5544E+03
      5.714  0.1111E-02  0.5544E+03
      5.756  0.1823E-03  0.5544E+03
      5.799  0.2587E-04  0.5544E+03
      5.842  0.3170E-05  0.5544E+03
      5.885  0.3352E-06  0.5544E+03
      5.927  0.3055E-07  0.5544E+03
      5.970  0.2397E-08  0.5544E+03
      6.013  0.1617E-09  0.5544E+03
      6.055  0.9372E-11  0.5544E+03
      6.098  0.4656E-12  0.5544E+03
      6.141  0.1891E-13  0.5544E+03
      6.184  0.4549E-15  0.5544E+03
      6.226  0.0000E+00  0.5544E+03
      6.269  0.0000E+00  0.5544E+03
      6.312  0.0000E+00  0.5544E+03
      6.354  0.0000E+00  0.5544E+03
      6.397  0.0000E+00  0.5544E+03
      6.440  0.0000E+00  0.5544E+03
      6.483  0.0000E+00  0.5544E+03
      6.525  0.0000E+00  0.5544E+03
      6.568  0.0000E+00  0.5544E+03
      6.611  0.0000E+00  0.5544E+03
      6.653  0.0000E+00  0.5544E+03
      6.696  0.0000E+00  0.5544E+03
      6.739  0.0000E+00  0.5544E+03
      6.782  0.0000E+00  0.5544E+03
