       N       E                     dE             d eps       ncg     rms          rms(c)
DAV:   1     0.290863286318E+05    0.29086E+05   -0.86164E+05 27930   0.196E+03
DAV:   2     0.119014178049E+04   -0.27896E+05   -0.27276E+05 27720   0.601E+02
DAV:   3    -0.194889268535E+04   -0.31390E+04   -0.27203E+04 38962   0.279E+02
DAV:   4    -0.261886322547E+04   -0.66997E+03   -0.60974E+03 50960   0.973E+01
DAV:   5    -0.273861230433E+04   -0.11975E+03   -0.11209E+03 48328   0.397E+01    0.204E+02
RMM:   6    -0.568240479193E+04   -0.29438E+04   -0.10566E+04 47942   0.233E+02    0.587E+02
RMM:   7    -0.358827494197E+04    0.20941E+04   -0.35753E+03 29245   0.123E+02    0.361E+02
RMM:   8    -0.113625353781E+05   -0.77743E+04   -0.17893E+04 42572   0.356E+02    0.108E+03
RMM:   9    -0.148144672869E+05   -0.34519E+04   -0.16961E+04 49722   0.172E+02    0.772E+02
RMM:  10    -0.727283272586E+04    0.75416E+04   -0.49975E+03 40523   0.133E+02    0.481E+02
RMM:  11    -0.745650510939E+04   -0.18367E+03   -0.14023E+04 44708   0.277E+02    0.820E+02
RMM:  12    -0.836252896632E+04   -0.90602E+03   -0.12862E+04 49717   0.144E+02    0.824E+02
RMM:  13    -0.966568705075E+04   -0.13032E+04   -0.63858E+03 46213   0.140E+02    0.661E+02
RMM:  14    -0.728110054530E+04    0.23846E+04   -0.74004E+03 37838   0.242E+02    0.570E+02
RMM:  15    -0.105551415776E+05   -0.32740E+04   -0.58162E+03 39916   0.166E+02    0.564E+02
RMM:  16    -0.465867584966E+04    0.58965E+04   -0.48245E+03 27743   0.150E+02    0.427E+02
RMM:  17    -0.370937936906E+04    0.94930E+03   -0.14020E+03 31116   0.664E+01    0.351E+02
RMM:  18    -0.304365875592E+04    0.66572E+03   -0.78797E+02 30794   0.463E+01    0.271E+02
RMM:  19    -0.296791920542E+04    0.75740E+02   -0.14865E+03 38409   0.423E+01    0.257E+02
RMM:  20    -0.261537330494E+04    0.35255E+03   -0.78216E+02 36400   0.366E+01    0.231E+02
RMM:  21    -0.243114714060E+04    0.18423E+03   -0.98136E+02 42749   0.303E+01    0.134E+02
RMM:  22    -0.242931984990E+04    0.18273E+01   -0.41696E+02 36294   0.235E+01    0.136E+02
RMM:  23    -0.235833405834E+04    0.70986E+02   -0.15590E+02 30600   0.196E+01    0.944E+01
RMM:  24    -0.234819497331E+04    0.10139E+02   -0.21862E+02 38740   0.155E+01    0.747E+01
RMM:  25    -0.235542752682E+04   -0.72326E+01   -0.11747E+02 38007   0.103E+01    0.802E+01
RMM:  26    -0.235271185067E+04    0.27157E+01   -0.55586E+01 34122   0.769E+00    0.742E+01
RMM:  27    -0.236027416175E+04   -0.75623E+01   -0.38790E+01 36071   0.601E+00    0.785E+01
RMM:  28    -0.234401651788E+04    0.16258E+02   -0.18812E+01 39251   0.382E+00    0.618E+01
RMM:  29    -0.234168160902E+04    0.23349E+01   -0.18523E+01 31404   0.528E+00    0.593E+01
RMM:  30    -0.234356685893E+04   -0.18852E+01   -0.17971E+01 34085   0.484E+00    0.613E+01
RMM:  31    -0.233800604452E+04    0.55608E+01   -0.80722E+00 37470   0.260E+00    0.529E+01
RMM:  32    -0.233721515188E+04    0.79089E+00   -0.51691E+00 43436   0.125E+00    0.517E+01
RMM:  33    -0.233657392535E+04    0.64123E+00   -0.14784E+00 39328   0.775E-01    0.510E+01
RMM:  34    -0.233535169030E+04    0.12222E+01   -0.74687E-01 30471   0.133E+00    0.492E+01
RMM:  35    -0.233601455475E+04   -0.66286E+00   -0.23556E+00 30083   0.266E+00    0.499E+01
RMM:  36    -0.233697855528E+04   -0.96400E+00   -0.19621E+00 32247   0.210E+00    0.527E+01
RMM:  37    -0.233504236926E+04    0.19362E+01   -0.16513E+00 32879   0.188E+00    0.493E+01
RMM:  38    -0.233293557702E+04    0.21068E+01   -0.13855E+00 41337   0.102E+00    0.461E+01
RMM:  39    -0.233051903898E+04    0.24165E+01   -0.16324E+00 30473   0.218E+00    0.419E+01
RMM:  40    -0.233108247881E+04   -0.56344E+00   -0.36019E+00 31102   0.304E+00    0.431E+01
RMM:  41    -0.232968472611E+04    0.13978E+01   -0.30387E+00 43585   0.103E+00    0.401E+01
RMM:  42    -0.232847600970E+04    0.12087E+01   -0.55232E-01 30548   0.117E+00    0.371E+01
RMM:  43    -0.232876152199E+04   -0.28551E+00   -0.11777E+00 29794   0.188E+00    0.391E+01
RMM:  44    -0.233299602926E+04   -0.42345E+01   -0.13326E+00 30239   0.203E+00    0.500E+01
RMM:  45    -0.233251902992E+04    0.47700E+00   -0.18076E+00 33923   0.183E+00    0.494E+01
RMM:  46    -0.233020878848E+04    0.23102E+01   -0.14467E+00 38399   0.135E+00    0.456E+01
RMM:  47    -0.232826397775E+04    0.19448E+01   -0.83463E-01 36756   0.988E-01    0.408E+01
RMM:  48    -0.232721179194E+04    0.10522E+01   -0.81076E-01 35446   0.111E+00    0.377E+01
RMM:  49    -0.232687327282E+04    0.33852E+00   -0.45321E-01 36060   0.819E-01    0.371E+01
RMM:  50    -0.232673998725E+04    0.13329E+00   -0.29178E-01 35846   0.660E-01    0.368E+01
RMM:  51    -0.246593673017E+04   -0.13920E+03   -0.11244E+02 34552   0.124E+01    0.137E+02
RMM:  52    -0.247233722050E+04   -0.64005E+01   -0.96888E+01 42549   0.688E+00    0.143E+02
RMM:  53    -0.248993765708E+04   -0.17600E+02   -0.53643E+01 42204   0.379E+00    0.156E+02
RMM:  54    -0.249340485398E+04   -0.34672E+01   -0.34448E+01 46453   0.161E+00    0.163E+02
RMM:  55    -0.250637615838E+04   -0.12971E+02   -0.29292E+01 37546   0.376E+00    0.168E+02
RMM:  56    -0.246627598687E+04    0.40100E+02   -0.10703E+02 34823   0.128E+01    0.147E+02
RMM:  57    -0.249400244487E+04   -0.27726E+02   -0.96491E+01 42312   0.847E+00    0.161E+02
RMM:  58    -0.250180257422E+04   -0.78001E+01   -0.75149E+01 46116   0.297E+00    0.173E+02
RMM:  59    -0.250983268550E+04   -0.80301E+01   -0.31655E+01 39755   0.244E+00    0.181E+02
RMM:  60    -0.250834729999E+04    0.14854E+01   -0.14477E+01 40254   0.202E+00    0.184E+02
RMM:  61    -0.248351729836E+04    0.24830E+02   -0.86161E+01 34316   0.113E+01    0.175E+02
RMM:  62    -0.243655504984E+04    0.46962E+02   -0.47307E+01 38014   0.787E+00    0.151E+02
RMM:  63    -0.242041692870E+04    0.16138E+02   -0.34307E+01 28632   0.116E+01    0.147E+02
RMM:  64    -0.238721584617E+04    0.33201E+02   -0.40399E+01 31075   0.999E+00    0.121E+02
RMM:  65    -0.237118026227E+04    0.16036E+02   -0.28429E+01 27729   0.116E+01    0.108E+02
RMM:  66    -0.239118962886E+04   -0.20009E+02   -0.43199E+01 28883   0.123E+01    0.123E+02
RMM:  67    -0.236781978347E+04    0.23370E+02   -0.19720E+01 27826   0.937E+00    0.100E+02
RMM:  68    -0.235362898431E+04    0.14191E+02   -0.21388E+01 34148   0.581E+00    0.873E+01
RMM:  69    -0.234791027415E+04    0.57187E+01   -0.19720E+01 34789   0.555E+00    0.818E+01
RMM:  70    -0.235105642061E+04   -0.31461E+01   -0.13463E+01 31301   0.584E+00    0.856E+01
RMM:  71    -0.235459349583E+04   -0.35371E+01   -0.20688E+01 31222   0.719E+00    0.798E+01
RMM:  72    -0.234787171636E+04    0.67218E+01   -0.74430E+00 27784   0.632E+00    0.750E+01
RMM:  73    -0.234565776625E+04    0.22140E+01   -0.78615E+00 34094   0.352E+00    0.733E+01
RMM:  74    -0.234581871015E+04   -0.16094E+00   -0.44845E+00 31443   0.319E+00    0.755E+01
RMM:  75    -0.234502422506E+04    0.79449E+00   -0.39253E+00 32559   0.282E+00    0.741E+01
RMM:  76    -0.236414158666E+04   -0.19117E+02   -0.20704E+01 29042   0.859E+00    0.939E+01
RMM:  77    -0.234956707668E+04    0.14575E+02   -0.82981E+00 27720   0.729E+00    0.783E+01
RMM:  78    -0.234402090739E+04    0.55462E+01   -0.39098E+00 29124   0.393E+00    0.709E+01
RMM:  79    -0.233593987198E+04    0.80810E+01   -0.83311E+00 37614   0.309E+00    0.575E+01
RMM:  80    -0.233475434777E+04    0.11855E+01   -0.62225E+00 41773   0.178E+00    0.538E+01
RMM:  81    -0.235170107184E+04   -0.16947E+02   -0.28722E+01 33237   0.629E+00    0.735E+01
RMM:  82    -0.234559891895E+04    0.61022E+01   -0.10978E+01 30795   0.535E+00    0.660E+01
RMM:  83    -0.234395074411E+04    0.16482E+01   -0.13928E+01 42817   0.191E+00    0.621E+01
RMM:  84    -0.234434092874E+04   -0.39018E+00   -0.60668E+00 41365   0.110E+00    0.631E+01
RMM:  85    -0.234522611230E+04   -0.88518E+00   -0.31707E+00 45598   0.620E-01    0.647E+01
RMM:  86    -0.234347489834E+04    0.17512E+01   -0.10757E+01 28650   0.631E+00    0.618E+01
RMM:  87    -0.234115044801E+04    0.23245E+01   -0.49592E+00 27779   0.592E+00    0.589E+01
RMM:  88    -0.233899741840E+04    0.21530E+01   -0.12433E+00 28655   0.256E+00    0.560E+01
RMM:  89    -0.233454465338E+04    0.44528E+01   -0.18376E+00 28311   0.288E+00    0.484E+01
RMM:  90    -0.233131994547E+04    0.32247E+01   -0.35659E+00 32947   0.275E+00    0.403E+01
RMM:  91    -0.235030760039E+04   -0.18988E+02   -0.29330E+01 29673   0.933E+00    0.664E+01
RMM:  92    -0.233309262460E+04    0.17215E+02   -0.11087E+01 27722   0.836E+00    0.411E+01
RMM:  93    -0.233017514557E+04    0.29175E+01   -0.45336E+00 31486   0.320E+00    0.342E+01
RMM:  94    -0.232930374585E+04    0.87140E+00   -0.27081E+00 33410   0.219E+00    0.312E+01
RMM:  95    -0.233026891591E+04   -0.96517E+00   -0.24770E+00 35135   0.194E+00    0.327E+01
RMM:  96    -0.233640766041E+04   -0.61387E+01   -0.16387E+01 29076   0.763E+00    0.466E+01
RMM:  97    -0.232779007565E+04    0.86176E+01   -0.66207E+00 27720   0.633E+00    0.284E+01
RMM:  98    -0.232698118810E+04    0.80889E+00   -0.30006E+00 30944   0.278E+00    0.257E+01
RMM:  99    -0.232714365270E+04   -0.16246E+00   -0.29537E+00 29808   0.313E+00    0.254E+01
RMM: 100    -0.232668493359E+04    0.45872E+00   -0.33092E+00 28568   0.347E+00
   1 F= -.23266849E+04 E0= -.23239745E+04  d E =-.232668E+04
       N       E                     dE             d eps       ncg     rms          rms(c)
DAV:   1    -0.234344450818E+04   -0.16301E+02   -0.16111E+02 45598   0.268E+01    0.594E+01
RMM:   2    -0.136855442673E+05   -0.11342E+05   -0.10517E+04 49623   0.219E+02    0.644E+02
RMM:   3    -0.480210616390E+04    0.88834E+04   -0.33504E+03 41771   0.111E+02    0.365E+02
RMM:   4    -0.428824113403E+04    0.51387E+03   -0.16014E+03 30829   0.875E+01    0.326E+02
RMM:   5    -0.349890124376E+04    0.78934E+03   -0.85938E+02 35834   0.549E+01    0.253E+02
RMM:   6    -0.294162538240E+04    0.55728E+03   -0.24382E+02 28029   0.327E+01    0.266E+02
RMM:   7    -0.276996082591E+04    0.17166E+03   -0.39383E+02 29194   0.387E+01    0.203E+02
RMM:   8    -0.245105460452E+04    0.31891E+03   -0.38768E+02 41736   0.151E+01    0.139E+02
RMM:   9    -0.238946922803E+04    0.61585E+02   -0.10285E+02 28109   0.195E+01    0.109E+02
RMM:  10    -0.241050881983E+04   -0.21040E+02   -0.15833E+02 40269   0.109E+01    0.123E+02
RMM:  11    -0.244296796751E+04   -0.32459E+02   -0.96779E+01 36028   0.113E+01    0.134E+02
RMM:  12    -0.239042141190E+04    0.52547E+02   -0.69778E+01 36880   0.101E+01    0.987E+01
RMM:  13    -0.234707896511E+04    0.43342E+02   -0.17284E+01 28392   0.782E+00    0.611E+01
RMM:  14    -0.233331637020E+04    0.13763E+02   -0.13057E+01 28290   0.703E+00    0.399E+01
RMM:  15    -0.233453249609E+04   -0.12161E+01   -0.20168E+01 32121   0.670E+00    0.429E+01
RMM:  16    -0.233165866460E+04    0.28738E+01   -0.84048E+00 28910   0.537E+00    0.368E+01
RMM:  17    -0.232877197597E+04    0.28867E+01   -0.81390E+00 35536   0.344E+00    0.293E+01
RMM:  18    -0.233006937215E+04   -0.12974E+01   -0.42775E+00 35567   0.248E+00    0.327E+01
RMM:  19    -0.232831467980E+04    0.17547E+01   -0.22038E+00 34515   0.177E+00    0.270E+01
RMM:  20    -0.232712634321E+04    0.11883E+01   -0.17684E+00 32176   0.197E+00    0.229E+01
RMM:  21    -0.232612563687E+04    0.10007E+01   -0.71980E-01 28465   0.183E+00    0.184E+01
RMM:  22    -0.232619283351E+04   -0.67197E-01   -0.62054E-01 37566   0.904E-01    0.186E+01
RMM:  23    -0.232636205942E+04   -0.16923E+00   -0.36103E-01 40001   0.582E-01    0.192E+01
RMM:  24    -0.232667535919E+04   -0.31330E+00   -0.21293E-01 30527   0.773E-01    0.205E+01
RMM:  25    -0.232660899096E+04    0.66368E-01   -0.26645E-01 28257   0.106E+00    0.201E+01
RMM:  26    -0.232657090573E+04    0.38085E-01   -0.27904E-01 27803   0.119E+00    0.200E+01
RMM:  27    -0.232582296107E+04    0.74794E+00   -0.31790E-01 29231   0.106E+00    0.165E+01
RMM:  28    -0.232541827732E+04    0.40468E+00   -0.23342E-01 28902   0.970E-01    0.144E+01
RMM:  29    -0.232536521373E+04    0.53064E-01   -0.29048E-01 31254   0.840E-01    0.141E+01
RMM:  30    -0.232520866706E+04    0.15655E+00   -0.10316E-01 29279   0.612E-01    0.131E+01
RMM:  31    -0.232545451025E+04   -0.24584E+00   -0.10869E-01 31559   0.508E-01    0.147E+01
RMM:  32    -0.232563089671E+04   -0.17639E+00   -0.10602E-01 41077   0.313E-01    0.157E+01
RMM:  33    -0.232610590299E+04   -0.47501E+00   -0.83682E-02 31714   0.431E-01    0.182E+01
RMM:  34    -0.232572052991E+04    0.38537E+00   -0.12476E-01 32707   0.502E-01    0.160E+01
RMM:  35    -0.232514455400E+04    0.57598E+00   -0.86927E-02 32599   0.409E-01    0.122E+01
RMM:  36    -0.232498981281E+04    0.15474E+00   -0.72689E-02 38820   0.262E-01    0.110E+01
RMM:  37    -0.232491206851E+04    0.77744E-01   -0.29657E-02 39439   0.166E-01    0.104E+01
RMM:  38    -0.232486345222E+04    0.48616E-01   -0.12450E-02 34396   0.131E-01    0.995E+00
RMM:  39    -0.232482338265E+04    0.40070E-01   -0.15310E-02 31803   0.188E-01    0.963E+00
RMM:  40    -0.232463102671E+04    0.19236E+00   -0.19249E-02 28683   0.268E-01    0.767E+00
RMM:  41    -0.232456103610E+04    0.69991E-01   -0.20927E-02 32597   0.208E-01    0.684E+00
RMM:  42    -0.232455662679E+04    0.44093E-02   -0.27464E-02 40133   0.175E-01    0.671E+00
RMM:  43    -0.232455513842E+04    0.14884E-02   -0.14209E-02 34165   0.153E-01    0.661E+00
RMM:  44    -0.232454484038E+04    0.10298E-01   -0.11695E-02 42743   0.804E-02    0.645E+00
RMM:  45    -0.232450633184E+04    0.38509E-01   -0.44034E-03 33252   0.904E-02    0.589E+00
RMM:  46    -0.232446485445E+04    0.41477E-01   -0.37404E-03 28488   0.124E-01    0.523E+00
RMM:  47    -0.232467483849E+04   -0.20998E+00   -0.34980E-01 32560   0.802E-01    0.778E+00
RMM:  48    -0.232458156906E+04    0.93269E-01   -0.17508E-01 38599   0.446E-01    0.664E+00
RMM:  49    -0.232459280450E+04   -0.11235E-01   -0.64277E-02 29165   0.501E-01    0.700E+00
RMM:  50    -0.232447726530E+04    0.11554E+00   -0.96044E-02 30857   0.501E-01    0.540E+00
RMM:  51    -0.232435426988E+04    0.12300E+00   -0.57554E-02 28101   0.490E-01    0.291E+00
RMM:  52    -0.232450632572E+04   -0.15206E+00   -0.18464E-01 31063   0.664E-01    0.594E+00
RMM:  53    -0.232442993690E+04    0.76389E-01   -0.10794E-01 33392   0.457E-01    0.453E+00
RMM:  54    -0.232438458063E+04    0.45356E-01   -0.44245E-02 29549   0.394E-01    0.362E+00
RMM:  55    -0.232437807922E+04    0.65014E-02   -0.63384E-02 31901   0.378E-01    0.343E+00
RMM:  56    -0.232436656344E+04    0.11516E-01   -0.27945E-02 28736   0.325E-01    0.312E+00
RMM:  57    -0.232436040302E+04    0.61604E-02   -0.37670E-02 31419   0.299E-01    0.292E+00
RMM:  58    -0.232435874535E+04    0.16577E-02   -0.17775E-02 30223   0.226E-01    0.291E+00
RMM:  59    -0.232434363868E+04    0.15107E-01   -0.83969E-03 28700   0.182E-01    0.241E+00
RMM:  60    -0.232432104087E+04    0.22598E-01   -0.64431E-03 29773   0.136E-01    0.127E+00
RMM:  61    -0.232431503895E+04    0.60019E-02   -0.44403E-03 30428   0.109E-01    0.752E-01
RMM:  62    -0.232431618656E+04   -0.11476E-02   -0.57570E-03 31086   0.118E-01    0.851E-01
RMM:  63    -0.232431450835E+04    0.16782E-02   -0.20170E-03 27743   0.103E-01    0.651E-01
RMM:  64    -0.232431324327E+04    0.12651E-02   -0.18123E-03 30937   0.692E-02    0.407E-01
RMM:  65    -0.232431288728E+04    0.35599E-03   -0.15472E-03 32333   0.574E-02    0.306E-01
RMM:  66    -0.232431284679E+04    0.40493E-04   -0.10477E-03 32838   0.466E-02    0.279E-01
RMM:  67    -0.232431354793E+04   -0.70115E-03   -0.11165E-03 28561   0.673E-02    0.460E-01
RMM:  68    -0.232431289163E+04    0.65631E-03   -0.40454E-04 27810   0.477E-02    0.286E-01
RMM:  69    -0.232431272894E+04    0.16269E-03   -0.27187E-04 31619   0.246E-02    0.223E-01
RMM:  70    -0.232431255469E+04    0.17425E-03   -0.22340E-04 31700   0.225E-02    0.128E-01
RMM:  71    -0.232431251292E+04    0.41771E-04   -0.17722E-04 32669   0.187E-02    0.870E-02
RMM:  72    -0.232431264146E+04   -0.12854E-03   -0.38792E-04 32269   0.287E-02    0.168E-01
RMM:  73    -0.232431251569E+04    0.12577E-03   -0.11665E-04 27852   0.256E-02    0.789E-02
RMM:  74    -0.232431250546E+04    0.10229E-04   -0.84505E-05 33998   0.115E-02    0.603E-02
RMM:  75    -0.232431250087E+04    0.45916E-05   -0.46770E-05 33922   0.877E-03    0.468E-02
RMM:  76    -0.232431250144E+04   -0.57227E-06   -0.37364E-05 35359   0.690E-03    0.436E-02
RMM:  77    -0.232431251274E+04   -0.11299E-04   -0.32970E-05 30258   0.977E-03    0.615E-02
RMM:  78    -0.232431249984E+04    0.12903E-04   -0.12795E-05 27761   0.738E-03    0.355E-02
RMM:  79    -0.232431249573E+04    0.41014E-05   -0.77504E-06 23020   0.389E-03    0.230E-02
RMM:  80    -0.232431249500E+04    0.73173E-06   -0.31897E-06 18680   0.379E-03
   2 F= -.23243125E+04 E0= -.23215469E+04  d E =0.237244E+01
       N       E                     dE             d eps       ncg     rms          rms(c)
DAV:   1    -0.232431734626E+04   -0.48505E-02   -0.12788E+00 29960   0.118E+00    0.270E-01
RMM:   2    -0.232469548608E+04   -0.37814E+00   -0.76837E-02 31265   0.464E-01    0.843E+00
RMM:   3    -0.232445682623E+04    0.23866E+00   -0.41357E-02 37012   0.247E-01    0.485E+00
RMM:   4    -0.232449205105E+04   -0.35225E-01   -0.17871E-02 28283   0.262E-01    0.560E+00
RMM:   5    -0.232433796087E+04    0.15409E+00   -0.12424E-02 28239   0.216E-01    0.171E+00
RMM:   6    -0.232433637202E+04    0.15889E-02   -0.13102E-02 29008   0.206E-01    0.188E+00
RMM:   7    -0.232435790577E+04   -0.21534E-01   -0.33695E-02 36687   0.223E-01    0.278E+00
RMM:   8    -0.232434227998E+04    0.15626E-01   -0.16190E-02 28198   0.233E-01    0.202E+00
RMM:   9    -0.232432037748E+04    0.21902E-01   -0.60939E-03 27738   0.172E-01    0.574E-01
RMM:  10    -0.232431887282E+04    0.15047E-02   -0.43918E-03 31026   0.991E-02    0.375E-01
RMM:  11    -0.232431909746E+04   -0.22464E-03   -0.39289E-03 36721   0.749E-02    0.387E-01
RMM:  12    -0.232431880344E+04    0.29402E-03   -0.14576E-03 30100   0.632E-02    0.319E-01
RMM:  13    -0.232431835049E+04    0.45295E-03   -0.55766E-04 28643   0.463E-02    0.141E-01
RMM:  14    -0.232431836865E+04   -0.18168E-04   -0.69365E-04 38336   0.277E-02    0.135E-01
RMM:  15    -0.232431832023E+04    0.48423E-04   -0.19243E-04 29055   0.257E-02    0.921E-02
RMM:  16    -0.232431828638E+04    0.33850E-04   -0.10174E-04 30460   0.169E-02    0.473E-02
RMM:  17    -0.232431829611E+04   -0.97298E-05   -0.10216E-04 36432   0.120E-02    0.579E-02
RMM:  18    -0.232431829344E+04    0.26709E-05   -0.49860E-05 30399   0.121E-02    0.505E-02
RMM:  19    -0.232431828391E+04    0.95262E-05   -0.23049E-05 28856   0.961E-03    0.312E-02
RMM:  20    -0.232431828392E+04   -0.82364E-08   -0.23440E-05 31897   0.586E-03    0.273E-02
RMM:  21    -0.232431828585E+04   -0.19288E-05   -0.17146E-05 30505   0.603E-03    0.313E-02
RMM:  22    -0.232431828289E+04    0.29622E-05   -0.62663E-06 22631   0.486E-03    0.207E-02
RMM:  23    -0.232431828249E+04    0.40291E-06   -0.45179E-06 20831   0.240E-03
   3 F= -.23243183E+04 E0= -.23215513E+04  d E =0.236665E+01
       N       E                     dE             d eps       ncg     rms          rms(c)
DAV:   1    -0.232432116175E+04   -0.28789E-02   -0.51149E+00 28252   0.236E+00    0.541E-01
RMM:   2    -0.232543452952E+04   -0.11134E+01   -0.29613E-01 31187   0.925E-01    0.145E+01
RMM:   3    -0.232492248460E+04    0.51204E+00   -0.15937E-01 36843   0.484E-01    0.102E+01
RMM:   4    -0.232498231941E+04   -0.59835E-01   -0.64033E-02 28201   0.502E-01    0.109E+01
RMM:   5    -0.232440987794E+04    0.57244E+00   -0.45474E-02 28746   0.398E-01    0.358E+00
RMM:   6    -0.232438415353E+04    0.25724E-01   -0.42496E-02 28457   0.384E-01    0.341E+00
RMM:   7    -0.232445612451E+04   -0.71971E-01   -0.11592E-01 36633   0.418E-01    0.505E+00
RMM:   8    -0.232441404597E+04    0.42079E-01   -0.61370E-02 28527   0.443E-01    0.391E+00
RMM:   9    -0.232433256881E+04    0.81477E-01   -0.22411E-02 27733   0.332E-01    0.110E+00
RMM:  10    -0.232432697405E+04    0.55948E-02   -0.16163E-02 31234   0.186E-01    0.696E-01
RMM:  11    -0.232432790647E+04   -0.93242E-03   -0.14162E-02 36508   0.143E-01    0.740E-01
RMM:  12    -0.232432687305E+04    0.10334E-02   -0.52751E-03 30046   0.122E-01    0.613E-01
RMM:  13    -0.232432522759E+04    0.16455E-02   -0.20245E-03 28619   0.894E-02    0.282E-01
RMM:  14    -0.232432527822E+04   -0.50627E-04   -0.24122E-03 37515   0.541E-02    0.268E-01
RMM:  15    -0.232432509540E+04    0.18281E-03   -0.77817E-04 29301   0.506E-02    0.187E-01
RMM:  16    -0.232432494428E+04    0.15112E-03   -0.35866E-04 29447   0.347E-02    0.903E-02
RMM:  17    -0.232432498093E+04   -0.36651E-04   -0.41392E-04 36493   0.241E-02    0.111E-01
RMM:  18    -0.232432498245E+04   -0.15143E-05   -0.21502E-04 30886   0.241E-02    0.106E-01
RMM:  19    -0.232432493732E+04    0.45127E-04   -0.89605E-05 28730   0.196E-02    0.600E-02
RMM:  20    -0.232432493618E+04    0.11400E-05   -0.97751E-05 36276   0.111E-02    0.488E-02
RMM:  21    -0.232432494429E+04   -0.81123E-05   -0.66640E-05 32926   0.113E-02    0.590E-02
RMM:  22    -0.232432493364E+04    0.10654E-04   -0.27200E-05 30046   0.905E-03    0.370E-02
RMM:  23    -0.232432493382E+04   -0.17535E-06   -0.26893E-05 30963   0.417E-03    0.321E-02
RMM:  24    -0.232432493092E+04    0.28932E-05   -0.92465E-06 24599   0.431E-03    0.200E-02
RMM:  25    -0.232432492933E+04    0.15935E-05   -0.39577E-06 20033   0.363E-03    0.957E-03
RMM:  26    -0.232432492939E+04   -0.62224E-07   -0.26104E-06 18567   0.240E-03
   4 F= -.23243249E+04 E0= -.23215550E+04  d E =0.236000E+01
       N       E                     dE             d eps       ncg     rms          rms(c)
DAV:   1    -0.232445119782E+04   -0.12627E+00   -0.42601E+01 27720   0.681E+00    0.109E+00
RMM:   2    -0.232581540407E+04   -0.13642E+01   -0.81419E-01 27903   0.185E+00    0.158E+01
RMM:   3    -0.232534393055E+04    0.47147E+00   -0.34724E-01 38091   0.743E-01    0.121E+01
RMM:   4    -0.232514167423E+04    0.20226E+00   -0.95987E-02 27786   0.658E-01    0.111E+01
RMM:   5    -0.232516575488E+04   -0.24081E-01   -0.14638E-01 38469   0.438E-01    0.109E+01
RMM:   6    -0.232458822667E+04    0.57753E+00   -0.86056E-02 28040   0.563E-01    0.365E+00
RMM:   7    -0.232471047147E+04   -0.12224E+00   -0.21133E-01 29370   0.789E-01    0.618E+00
RMM:   8    -0.232457216341E+04    0.13831E+00   -0.80251E-02 27794   0.616E-01    0.361E+00
RMM:   9    -0.232454511920E+04    0.27044E-01   -0.33949E-02 27851   0.385E-01    0.283E+00
RMM:  10    -0.232451700595E+04    0.28113E-01   -0.22342E-02 28133   0.302E-01    0.196E+00
RMM:  11    -0.232450627087E+04    0.10735E-01   -0.28618E-02 29577   0.292E-01    0.132E+00
RMM:  12    -0.232450125746E+04    0.50134E-02   -0.12864E-02 28373   0.233E-01    0.928E-01
RMM:  13    -0.232449911859E+04    0.21389E-02   -0.62578E-03 29075   0.156E-01    0.722E-01
RMM:  14    -0.232449910983E+04    0.87575E-05   -0.68506E-03 34145   0.104E-01    0.683E-01
RMM:  15    -0.232449825867E+04    0.85117E-03   -0.38753E-03 30726   0.994E-02    0.526E-01
RMM:  16    -0.232449707438E+04    0.11843E-02   -0.15527E-03 28832   0.772E-02    0.262E-01
RMM:  17    -0.232449692978E+04    0.14460E-03   -0.14492E-03 34634   0.456E-02    0.174E-01
RMM:  18    -0.232449703964E+04   -0.10986E-03   -0.10836E-03 35467   0.403E-02    0.205E-01
RMM:  19    -0.232449686434E+04    0.17531E-03   -0.35223E-04 30326   0.328E-02    0.882E-02
RMM:  20    -0.232449686946E+04   -0.51235E-05   -0.35159E-04 38565   0.175E-02    0.686E-02
RMM:  21    -0.232449688517E+04   -0.15708E-04   -0.15506E-04 32754   0.171E-02    0.789E-02
RMM:  22    -0.232449686477E+04    0.20396E-04   -0.78752E-05 31501   0.139E-02    0.422E-02
RMM:  23    -0.232449686899E+04   -0.42150E-05   -0.78898E-05 39491   0.788E-03    0.404E-02
RMM:  24    -0.232449686766E+04    0.13284E-05   -0.27947E-05 31094   0.800E-03    0.335E-02
RMM:  25    -0.232449686331E+04    0.43490E-05   -0.13598E-05 28379   0.589E-03    0.151E-02
RMM:  26    -0.232449686389E+04   -0.58068E-06   -0.10655E-05 24952   0.303E-03    0.135E-02
RMM:  27    -0.232449686415E+04   -0.26170E-06   -0.43321E-06 20589   0.358E-03
   5 F= -.23244969E+04 E0= -.23217235E+04  d E =-.171935E+00
