unknown system                          
            1
     9.726678    0.000000    0.000000
     0.000000    8.423550    0.000000
     0.000000    0.000000   45.000000
   Fe   Mn
 273  15
Direct configuration=     1
   0.31187172  0.86573525  0.16642409
   0.68789030  0.12285941  0.65485084
   0.06259492  0.70542918  0.34517933
   0.81283238  0.03768671  0.61047852
   0.06288883  0.86570321  0.16624108
   0.81238786  0.53719110  0.25609919
   0.06246288  0.53719223  0.25609076
   0.81183435  0.03387691  0.12423253
   0.43758679  0.62261144  0.65478213
   0.56242245  0.20514959  0.34521087
   0.43742319  0.45520815  0.34512049
   0.43785583  0.45563718  0.47846754
   0.18810466  0.78268234  0.12421249
   0.31257976  0.20372506  0.21167422
   0.81247796  0.54055463  0.74394707
   0.18766534  0.12426993  0.78853885
   0.43743082  0.11589881  0.16647901
   0.43811668  0.78982844  0.38937995
   0.06227751  0.03739560  0.25608421
   0.56227422  0.70333166  0.21159298
   0.06264903  0.70380136  0.21156002
   0.06210106  0.53390378  0.12442849
   0.06204741  0.20611969  0.47835837
   0.81163046  0.54327048  0.87563805
   0.81205375  0.37179750  0.52155161
   0.18712016  0.46168383  0.83372346
   0.31245747  0.03712261  0.25607643
   0.18711415  0.78710347  0.25602882
   0.06248279  0.54083356  0.74415169
   0.56249094  0.20460302  0.56549640
   0.06309598  0.03348105  0.12400647
   0.18780659  0.78804495  0.61050087
   0.68727155  0.78255668  0.12422490
   0.31307388  0.87265405  0.43436631
   0.93759516  0.62131715  0.30055892
   0.31277154  0.20626319  0.47845942
   0.06222756  0.54312075  0.87571664
   0.93718611  0.45571835  0.47848244
   0.31254121  0.37252159  0.65486249
   0.81265006  0.53967019  0.38940217
   0.18796981  0.12220830  0.30055843
   0.68743355  0.28278686  0.12427610
   0.81242511  0.37233761  0.65481980
   0.81237900  0.20572608  0.34520887
   0.93720930  0.45554775  0.34524987
   0.81237591  0.87219915  0.52149225
   0.43780992  0.61575517  0.16649052
   0.06242032  0.04364138  0.87580394
   0.93735690  0.28322944  0.12418958
   0.56261103  0.37227557  0.65472385
   0.31253127  0.36491142  0.16660750
   0.31285469  0.87448242  0.78840439
   0.31235927  0.70531649  0.34512450
   0.68736993  0.12191482  0.52147315
   0.56251566  0.54061219  0.74389719
   0.68752631  0.45305111  0.21157295
   0.93728739  0.79106283  0.74394036
   0.68808740  0.95602075  0.47834710
   0.56273197  0.87208155  0.52142003
   0.31228060  0.70467598  0.56573592
   0.56242695  0.86531639  0.16645181
   0.93758683  0.45352397  0.21157485
   0.81217047  0.21261685  0.83362014
   0.56218478  0.70546893  0.34527358
   0.56248100  0.53740455  0.25614723
   0.31271825  0.37225912  0.30048595
   0.93756556  0.62253808  0.65474268
   0.31248517  0.87251939  0.65470480
   0.56235519  0.37345406  0.43442089
   0.68737374  0.61593844  0.16652630
   0.93748268  0.45631904  0.69955441
   0.31243108  0.20583660  0.69953871
   0.43763839  0.96189100  0.83368285
   0.43730683  0.78718096  0.25606105
   0.93726876  0.78715109  0.25605313
   0.18787670  0.95255904  0.21156101
   0.43765055  0.79072355  0.74403574
   0.81232144  0.03716760  0.25602888
   0.18785411  0.62195716  0.52156170
   0.81266049  0.20594118  0.69953100
   0.18781026  0.78997276  0.38949362
   0.93737819  0.28698206  0.25606569
   0.18767380  0.12217710  0.52143551
   0.06261145  0.71278895  0.83349251
   0.81281584  0.70640783  0.47835975
   0.56257011  0.70457710  0.56533716
   0.93755423  0.12190867  0.30050712
   0.18739347  0.29073878  0.74391248
   0.56247354  0.36607582  0.16654914
   0.06264572  0.37192685  0.30046972
   0.06275373  0.03792987  0.61052988
   0.18743648  0.62254823  0.65474723
   0.56219428  0.37467968  0.78839714
   0.56278966  0.87454877  0.78856704
   0.06227121  0.04065096  0.74408723
   0.56273029  0.37183331  0.52147108
   0.93751889  0.29062270  0.74397660
   0.06222188  0.03965881  0.38946366
   0.18770334  0.95462694  0.56532585
   0.93703214  0.11555614  0.16619044
   0.68726508  0.79007827  0.38950183
   0.81222580  0.70359746  0.21171273
   0.18749134  0.62197625  0.30041950
   0.81248865  0.86535657  0.16636488
   0.06220224  0.53808180  0.61042989
   0.68748952  0.62150521  0.52152747
   0.43769819  0.28827536  0.61043683
   0.06266104  0.70572259  0.47844892
   0.93757439  0.28795989  0.61055731
   0.68756010  0.45578727  0.69953577
   0.56246375  0.03703533  0.25602974
   0.81201732  0.87470279  0.78845566
   0.56266481  0.04010993  0.38941501
   0.81277329  0.04424435  0.87573891
   0.93678699  0.61557947  0.16638602
   0.31316786  0.04427837  0.87574281
   0.43763432  0.45318540  0.21162971
   0.56260524  0.03375787  0.12437229
   0.18737379  0.61531483  0.16647262
   0.06230815  0.70623181  0.69949923
   0.31240877  0.53833045  0.61053276
   0.43726965  0.62197077  0.52150984
   0.06241262  0.21292660  0.83348439
   0.93721401  0.96152424  0.83382808
   0.56256339  0.21250143  0.83341315
   0.68775728  0.12325109  0.43445957
   0.43773273  0.95274151  0.21156002
   0.06234808  0.20550807  0.34519877
   0.68714699  0.28701322  0.25619936
   0.31241779  0.87234317  0.30035602
   0.56263186  0.53337921  0.12441700
   0.81252600  0.20443616  0.56545267
   0.43756670  0.45596913  0.69960172
   0.43739623  0.12191579  0.52151490
   0.43727647  0.28729777  0.25600572
   0.43708796  0.12279954  0.65483250
   0.68770743  0.95483855  0.56563035
   0.56288280  0.71273658  0.83355349
   0.68781569  0.62476940  0.78851479
   0.68765340  0.78688279  0.25601052
   0.43735057  0.29044803  0.74407839
   0.43714091  0.46225338  0.83344316
   0.43748573  0.78830158  0.61051815
   0.68731807  0.29457570  0.87575244
   0.06239371  0.20621691  0.69948911
   0.56269633  0.70554851  0.69966745
   0.18718503  0.29562089  0.87581273
   0.81236441  0.37180046  0.30055031
   0.68733028  0.12196482  0.30059366
   0.81289650  0.53809725  0.61049759
   0.68770727  0.28980559  0.38946602
   0.06227857  0.20480322  0.56567741
   0.18710089  0.45555049  0.34512122
   0.31235247  0.37211164  0.52160137
   0.68769426  0.12548304  0.78838782
   0.18740067  0.28697978  0.25609597
   0.93756177  0.95606937  0.69958377
   0.93761222  0.62415226  0.78831046
   0.81242193  0.37487994  0.78841692
   0.93760601  0.45460121  0.56560492
   0.93769654  0.12157041  0.52155381
   0.68754820  0.62249458  0.65486136
   0.93743903  0.78992469  0.38934953
   0.93722865  0.12453237  0.78842515
   0.06282207  0.70464074  0.56568803
   0.31225645  0.03818956  0.61038544
   0.31229941  0.53731567  0.25607235
   0.31308950  0.53370203  0.12442976
   0.93789884  0.46187045  0.83355309
   0.43778578  0.62262881  0.43447190
   0.43737975  0.95645694  0.47830027
   0.31224913  0.71204339  0.83354703
   0.68750578  0.79053411  0.74402719
   0.81218683  0.53419993  0.12430532
   0.31247747  0.70286297  0.21154639
   0.81260866  0.70570571  0.69948589
   0.68771424  0.45486402  0.56571441
   0.43742239  0.12470561  0.78849668
   0.93714264  0.62317858  0.43463383
   0.81269233  0.03982409  0.38944406
   0.43771216  0.45459262  0.56564646
   0.81186029  0.71284116  0.83374314
   0.31287032  0.37423027  0.78854786
   0.56280104  0.53990857  0.38949020
   0.43684851  0.62435184  0.78838477
   0.56220898  0.20317134  0.21163120
   0.68755197  0.62180249  0.30040652
   0.43775291  0.12213610  0.30044693
   0.18723124  0.95554322  0.34523208
   0.56239551  0.87309485  0.43445359
   0.93751341  0.78761388  0.61045237
   0.18754205  0.29005574  0.38946190
   0.68748724  0.96179886  0.83363996
   0.31231814  0.54073191  0.74402300
   0.81258085  0.37329884  0.43428019
   0.43742943  0.29506204  0.87570869
   0.56275969  0.53837284  0.61037681
   0.43761783  0.28281082  0.12435675
   0.18723696  0.79540969  0.87587200
   0.31241266  0.20551470  0.34517129
   0.93723689  0.95544881  0.34513455
   0.81252364  0.70508496  0.56559003
   0.68784711  0.45566928  0.47839748
   0.18758154  0.95600257  0.69952475
   0.18750753  0.28834984  0.61048943
   0.56255739  0.87202087  0.30049657
   0.31254908  0.04033745  0.74389954
   0.31224999  0.70585587  0.47840327
   0.68734476  0.78842000  0.61059536
   0.18745726  0.12253269  0.65472378
   0.81255771  0.04040996  0.74397855
   0.06246445  0.37234993  0.65487371
   0.93728935  0.95629566  0.47835837
   0.93757705  0.12310858  0.43438343
   0.68754291  0.95637933  0.69960356
   0.81231467  0.87251433  0.65477871
   0.81300680  0.20592279  0.47836819
   0.81241301  0.87299798  0.43424812
   0.81235320  0.70535484  0.34520678
   0.81252784  0.36540466  0.16652010
   0.43740329  0.12312548  0.43442537
   0.93762694  0.12255762  0.65468564
   0.18758805  0.45630106  0.69948914
   0.56262780  0.54327016  0.87563408
   0.31228016  0.03357643  0.12417026
   0.06225160  0.87288857  0.43428207
   0.18772664  0.62325852  0.43433897
   0.43668457  0.79548011  0.87570593
   0.43729252  0.28988612  0.38939276
   0.18739147  0.45588046  0.47843832
   0.56256017  0.87264540  0.65478179
   0.06234094  0.87198098  0.52156119
   0.31288508  0.20465611  0.56568014
   0.81259461  0.87166639  0.30062005
   0.18773465  0.28254511  0.12418654
   0.31278860  0.03973155  0.38946449
   0.68724961  0.95316878  0.21154254
   0.93717659  0.78215996  0.12420245
   0.68740033  0.29047198  0.74407965
   0.93733932  0.95471688  0.56563881
   0.43764668  0.62215371  0.30047478
   0.06222803  0.20356103  0.21180795
   0.56232606  0.20619862  0.47840010
   0.93798897  0.29543381  0.87584304
   0.43778684  0.78178090  0.12434172
   0.06273571  0.37325705  0.43433744
   0.18738658  0.79090914  0.74406122
   0.06256202  0.87187820  0.30053435
   0.18779485  0.45303067  0.21153048
   0.43743559  0.95613882  0.69968060
   0.56245189  0.37234409  0.30051288
   0.93790772  0.28960566  0.38947463
   0.68767281  0.45543694  0.34526553
   0.68759288  0.62293590  0.43428134
   0.31249656  0.21217807  0.83354739
   0.31283202  0.87146852  0.52148500
   0.68749863  0.46261648  0.83363977
   0.43742889  0.95505170  0.56564615
   0.18784251  0.62449637  0.78849258
   0.68738268  0.28810963  0.61049407
   0.06248135  0.54017289  0.38937145
   0.06263881  0.87228883  0.65486875
   0.31257792  0.37325099  0.43453684
   0.18721165  0.45476114  0.56555234
   0.56249576  0.04049466  0.74401825
   0.68749783  0.11551613  0.16632917
   0.93844052  0.79579304  0.87585832
   0.68746495  0.95538703  0.34525527
   0.31335445  0.54386133  0.87559710
   0.18697292  0.96174729  0.83373669
   0.06222600  0.36488910  0.16643832
   0.56134854  0.04440247  0.87566154
   0.06318916  0.37193239  0.52164673
   0.31264896  0.70551081  0.69946511
   0.68738581  0.79508267  0.87554292
   0.43757198  0.95541237  0.34518475
   0.18725944  0.11500775  0.16577945
   0.06222257  0.37394990  0.78823325
   0.31255238  0.53998867  0.38935175
   0.93743164  0.62183462  0.52147666
   0.81220859  0.20433235  0.21179987
   0.56279815  0.20545037  0.69960942
   0.06262638  0.87421266  0.78817881
   0.93842908  0.95313667  0.21183661
   0.56250230  0.03805282  0.61054066
   0.56244226  0.70620376  0.47853185
   0.18748315  0.12353568  0.43428215
   0.18765117  0.95610408  0.47858662
Direct configuration=     2
   0.31186814  0.86585898  0.16647401
   0.68788226  0.12279555  0.65484668
   0.06260968  0.70543332  0.34518769
   0.81281610  0.03772643  0.61049092
   0.06288884  0.86587075  0.16629867
   0.81239601  0.53715476  0.25608820
   0.06246460  0.53715814  0.25607795
   0.81186046  0.03381869  0.12424133
   0.43757437  0.62256089  0.65478326
   0.56244091  0.20516289  0.34521348
   0.43741933  0.45524905  0.34512473
   0.43787851  0.45566564  0.47849340
   0.18808855  0.78275812  0.12422361
   0.31256731  0.20364861  0.21168405
   0.81248669  0.54056997  0.74394555
   0.18766655  0.12434163  0.78852094
   0.43741711  0.11602616  0.16653236
   0.43809857  0.78976168  0.38937783
   0.06228379  0.03734728  0.25606533
   0.56226632  0.70323034  0.21160318
   0.06265348  0.70375643  0.21157569
   0.06209463  0.53385361  0.12443311
   0.06206804  0.20603824  0.47838433
   0.81166905  0.54336778  0.87564071
   0.81214054  0.37183960  0.52153201
   0.18712625  0.46157092  0.83365872
   0.31245951  0.03712326  0.25606833
   0.18712224  0.78708759  0.25601384
   0.06248484  0.54084526  0.74414662
   0.56250646  0.20465347  0.56550403
   0.06310585  0.03345325  0.12402074
   0.18780514  0.78808995  0.61051770
   0.68727781  0.78261458  0.12423504
   0.31305365  0.87261231  0.43436468
   0.93760195  0.62128037  0.30056096
   0.31275579  0.20616081  0.47848380
   0.06223642  0.54318870  0.87571673
   0.93720133  0.45564989  0.47851535
   0.31254690  0.37251150  0.65485724
   0.81268071  0.53961604  0.38939009
   0.18794689  0.12218523  0.30056462
   0.68745405  0.28285380  0.12428975
   0.81242119  0.37231408  0.65481478
   0.81239664  0.20574363  0.34521518
   0.93723423  0.45557285  0.34525274
   0.81246819  0.87214819  0.52146916
   0.43781040  0.61586663  0.16654126
   0.06238978  0.04369783  0.87580464
   0.93738294  0.28330708  0.12420413
   0.56261260  0.37227153  0.65472366
   0.31253565  0.36503551  0.16665392
   0.31285561  0.87454518  0.78839749
   0.31234586  0.70537132  0.34512763
   0.68734620  0.12192550  0.52145470
   0.56250753  0.54061663  0.74389313
   0.68752242  0.45294607  0.21158638
   0.93731393  0.79109487  0.74394791
   0.68800711  0.95597414  0.47837032
   0.56269448  0.87219451  0.52138912
   0.31228134  0.70472864  0.56574285
   0.56244804  0.86545713  0.16650099
   0.93758630  0.45343049  0.21159010
   0.81219314  0.21244248  0.83356567
   0.56219948  0.70551357  0.34527521
   0.56247770  0.53738932  0.25613726
   0.31269856  0.37222945  0.30048988
   0.93756134  0.62248004  0.65473951
   0.31250746  0.87249445  0.65469980
   0.56235747  0.37341475  0.43442294
   0.68738220  0.61607392  0.16658089
   0.93748366  0.45633719  0.69954982
   0.31241723  0.20588141  0.69952989
   0.43765784  0.96177990  0.83363158
   0.43730816  0.78718531  0.25604799
   0.93729028  0.78712922  0.25604081
   0.18783958  0.95248965  0.21157522
   0.43763936  0.79069947  0.74402906
   0.81234347  0.03715388  0.25601862
   0.18786527  0.62191951  0.52153570
   0.81266044  0.20597115  0.69952311
   0.18777832  0.78992614  0.38948095
   0.93738585  0.28695554  0.25605376
   0.18768017  0.12222757  0.52141199
   0.06260466  0.71259139  0.83345127
   0.81275904  0.70639287  0.47839934
   0.56257611  0.70463498  0.56534489
   0.93753765  0.12186021  0.30050826
   0.18740284  0.29077748  0.74392071
   0.56246745  0.36618653  0.16660085
   0.06263065  0.37188183  0.30047005
   0.06274407  0.03796369  0.61053739
   0.18744815  0.62250906  0.65474662
   0.56221058  0.37472636  0.78839260
   0.56275954  0.87461580  0.78856188
   0.06228397  0.04068038  0.74408252
   0.56272401  0.37190628  0.52145099
   0.93751399  0.29067509  0.74398326
   0.06220645  0.03962854  0.38945876
   0.18770598  0.95465424  0.56533209
   0.93704903  0.11572314  0.16625064
   0.68727391  0.79002529  0.38948686
   0.81222650  0.70352611  0.21172417
   0.18747880  0.62196260  0.30042493
   0.81251459  0.86550509  0.16641529
   0.06220774  0.53811137  0.61043819
   0.68752657  0.62154038  0.52149996
   0.43768394  0.28830215  0.61045317
   0.06271514  0.70571576  0.47847590
   0.93757042  0.28798640  0.61057300
   0.68755034  0.45577863  0.69952413
   0.56246411  0.03704575  0.25602420
   0.81203009  0.87476870  0.78844839
   0.56269163  0.04003879  0.38940223
   0.81280761  0.04432790  0.87573791
   0.93679646  0.61571451  0.16643983
   0.31315109  0.04437216  0.87574678
   0.43762830  0.45311468  0.21164402
   0.56259141  0.03366676  0.12437513
   0.18737897  0.61546503  0.16652804
   0.06232260  0.70628142  0.69948492
   0.31240575  0.53836749  0.61054088
   0.43724506  0.62197746  0.52149202
   0.06240708  0.21272507  0.83344399
   0.93721346  0.96141524  0.83377367
   0.56256183  0.21237592  0.83336870
   0.68776572  0.12323752  0.43446508
   0.43770845  0.95269228  0.21157711
   0.06235842  0.20556081  0.34520612
   0.68716215  0.28701303  0.25618650
   0.31241671  0.87232157  0.30035578
   0.56260969  0.53335570  0.12441530
   0.81251090  0.20449863  0.56546456
   0.43756799  0.45595586  0.69958759
   0.43739469  0.12191505  0.52149464
   0.43728495  0.28731431  0.25599799
   0.43710286  0.12274690  0.65482836
   0.68770001  0.95486617  0.56563346
   0.56291237  0.71262122  0.83351169
   0.68780007  0.62482891  0.78849976
   0.68765288  0.78686989  0.25599474
   0.43736239  0.29045058  0.74407316
   0.43715770  0.46213304  0.83339623
   0.43749855  0.78835410  0.61053587
   0.68730656  0.29455666  0.87574247
   0.06237491  0.20627979  0.69947699
   0.56270132  0.70557920  0.69965617
   0.18717987  0.29548826  0.87579897
   0.81238442  0.37174724  0.30054778
   0.68731865  0.12192987  0.30059561
   0.81289940  0.53814263  0.61050742
   0.68770852  0.28975132  0.38945810
   0.06227054  0.20483228  0.56567785
   0.18708310  0.45560849  0.34512849
   0.31237109  0.37215257  0.52158163
   0.68768727  0.12554966  0.78837262
   0.18740746  0.28697767  0.25609089
   0.93754330  0.95610715  0.69957356
   0.93761705  0.62423260  0.78829875
   0.81240599  0.37496594  0.78840929
   0.93762170  0.45462246  0.56560645
   0.93772319  0.12161773  0.52154123
   0.68755069  0.62245114  0.65485594
   0.93744549  0.78988253  0.38933867
   0.93723023  0.12461141  0.78841503
   0.06279878  0.70465693  0.56568861
   0.31225288  0.03824681  0.61039530
   0.31230764  0.53730353  0.25606515
   0.31306383  0.53364688  0.12443485
   0.93788929  0.46174759  0.83350060
   0.43777882  0.62262213  0.43447210
   0.43740418  0.95643371  0.47833511
   0.31225642  0.71188962  0.83349240
   0.68750086  0.79054390  0.74402420
   0.81222950  0.53417722  0.12431120
   0.31246444  0.70280027  0.21155785
   0.81260757  0.70575741  0.69947382
   0.68768598  0.45489559  0.56571949
   0.43741649  0.12476823  0.78848191
   0.93715397  0.62317097  0.43462921
   0.81268710  0.03978033  0.38943494
   0.43771209  0.45464203  0.56564845
   0.81184321  0.71268379  0.83368991
   0.31285914  0.37432106  0.78854091
   0.56279712  0.53985088  0.38947585
   0.43684745  0.62441736  0.78836714
   0.56222379  0.20310846  0.21164397
   0.68754968  0.62176161  0.30040826
   0.43773470  0.12212150  0.30045188
   0.18723958  0.95557183  0.34523237
   0.56240367  0.87305178  0.43444810
   0.93751322  0.78764633  0.61046668
   0.18751569  0.29002999  0.38945047
   0.68747823  0.96160900  0.83359328
   0.31232800  0.54073307  0.74402350
   0.81257921  0.37325796  0.43428414
   0.43744403  0.29497812  0.87570452
   0.56275458  0.53843188  0.61038718
   0.43756768  0.28286752  0.12436983
   0.18722322  0.79526859  0.87585683
   0.31240753  0.20553907  0.34517615
   0.93723936  0.95544711  0.34513474
   0.81253724  0.70512077  0.56560051
   0.68778984  0.45567325  0.47842322
   0.18758666  0.95601903  0.69951874
   0.18750865  0.28838146  0.61051047
   0.56254543  0.87199200  0.30050000
   0.31254786  0.04036803  0.74390318
   0.31219788  0.70584286  0.47842730
   0.68733654  0.78845997  0.61061003
   0.18745607  0.12250689  0.65472373
   0.81254983  0.04044716  0.74397868
   0.06247049  0.37232753  0.65486979
   0.93733851  0.95622166  0.47839314
   0.93756117  0.12308530  0.43437982
   0.68754514  0.95638066  0.69959040
   0.81231466  0.87250001  0.65477391
   0.81296758  0.20595665  0.47839283
   0.81243476  0.87296825  0.43424907
   0.81237279  0.70536536  0.34520974
   0.81252681  0.36556915  0.16656496
   0.43742512  0.12309493  0.43442299
   0.93763037  0.12251310  0.65468299
   0.18758455  0.45635427  0.69948745
   0.56261491  0.54336456  0.87563806
   0.31225331  0.03354225  0.12417618
   0.06226174  0.87288329  0.43428451
   0.18772910  0.62322119  0.43434266
   0.43671463  0.79540604  0.87570132
   0.43728762  0.28984400  0.38939060
   0.18741282  0.45589185  0.47845804
   0.56255198  0.87263149  0.65477916
   0.06221411  0.87202294  0.52152897
   0.31289142  0.20470814  0.56568393
   0.81259519  0.87160877  0.30062179
   0.18772346  0.28260240  0.12420159
   0.31276189  0.03968057  0.38945224
   0.68725632  0.95312504  0.21155789
   0.93719011  0.78225489  0.12421676
   0.68740567  0.29048752  0.74407553
   0.93733911  0.95473224  0.56563790
   0.43762066  0.62214941  0.30047757
   0.06224539  0.20346797  0.21181342
   0.56235662  0.20612667  0.47842482
   0.93797569  0.29530744  0.87582917
   0.43775024  0.78184782  0.12434512
   0.06272858  0.37322233  0.43433342
   0.18738411  0.79094405  0.74406589
   0.06255537  0.87183308  0.30053058
   0.18778453  0.45297945  0.21154719
   0.43744028  0.95613801  0.69966400
   0.56244494  0.37229865  0.30051014
   0.93789437  0.28956751  0.38946450
   0.68771693  0.45545441  0.34526794
   0.68759212  0.62292177  0.43428288
   0.31249508  0.21201615  0.83349377
   0.31290758  0.87153109  0.52145591
   0.68748996  0.46251471  0.83359659
   0.43744091  0.95508559  0.56564989
   0.18782605  0.62456134  0.78847989
   0.68740431  0.28811940  0.61050556
   0.06245424  0.54010277  0.38936497
   0.06263696  0.87229337  0.65486334
   0.31259168  0.37320340  0.43453049
   0.18722275  0.45481564  0.56555828
   0.56249944  0.04050125  0.74401727
   0.68751443  0.11564700  0.16638724
   0.93843192  0.79569010  0.87584177
   0.68748892  0.95541140  0.34525362
   0.31330417  0.54396061  0.87560495
   0.18699791  0.96164172  0.83368047
   0.06224212  0.36502175  0.16649260
   0.56136787  0.04447447  0.87566457
   0.06307838  0.37199075  0.52162453
   0.31263452  0.70557115  0.69945631
   0.68737391  0.79498735  0.87552251
   0.43757882  0.95544138  0.34518431
   0.18724656  0.11515400  0.16582073
   0.06225328  0.37404163  0.78822329
   0.31252867  0.53991892  0.38934044
   0.93741571  0.62187136  0.52145962
   0.81223127  0.20421340  0.21181209
   0.56278995  0.20551982  0.69960125
   0.06261020  0.87429978  0.78816584
   0.93841154  0.95308061  0.21185190
   0.56251033  0.03810671  0.61055012
   0.56249271  0.70612779  0.47856072
   0.18746654  0.12355204  0.43427706
   0.18765830  0.95603168  0.47860420
Direct configuration=     3
   0.31185740  0.86623017  0.16662380
   0.68785816  0.12260399  0.65483418
   0.06265394  0.70544571  0.34521277
   0.81276727  0.03784558  0.61052809
   0.06288887  0.86637339  0.16647146
   0.81242046  0.53704573  0.25605525
   0.06246975  0.53705585  0.25603953
   0.81193879  0.03364402  0.12426773
   0.43753713  0.62240927  0.65478665
   0.56249630  0.20520279  0.34522131
   0.43740777  0.45537172  0.34513742
   0.43794658  0.45575101  0.47857096
   0.18804019  0.78298545  0.12425696
   0.31252995  0.20341924  0.21171353
   0.81251287  0.54061600  0.74394100
   0.18767018  0.12455675  0.78846722
   0.43737598  0.11640821  0.16669242
   0.43804423  0.78956139  0.38937148
   0.06230261  0.03720233  0.25600870
   0.56224262  0.70292637  0.21163379
   0.06266684  0.70362163  0.21162268
   0.06207537  0.53370311  0.12444696
   0.06212992  0.20579387  0.47846223
   0.81178485  0.54365969  0.87564870
   0.81240089  0.37196589  0.52147323
   0.18714455  0.46123220  0.83346451
   0.31246562  0.03712519  0.25604403
   0.18714651  0.78703996  0.25596889
   0.06249098  0.54088037  0.74413141
   0.56255300  0.20480482  0.56552690
   0.06313548  0.03336984  0.12406357
   0.18780079  0.78822493  0.61056819
   0.68729659  0.78278825  0.12426546
   0.31299294  0.87248710  0.43435981
   0.93762230  0.62117004  0.30056709
   0.31270856  0.20585364  0.47855692
   0.06226303  0.54339252  0.87571703
   0.93724699  0.45544451  0.47861409
   0.31256395  0.37248123  0.65484149
   0.81277265  0.53945358  0.38935383
   0.18787815  0.12211601  0.30058318
   0.68751553  0.28305462  0.12433069
   0.81240946  0.37224346  0.65479971
   0.81244955  0.20579629  0.34523412
   0.93730904  0.45564816  0.34526135
   0.81274500  0.87199532  0.52139989
   0.43781185  0.61620101  0.16669349
   0.06229818  0.04386720  0.87580675
   0.93746108  0.28354000  0.12424779
   0.56261731  0.37225942  0.65472309
   0.31254879  0.36540777  0.16679317
   0.31285835  0.87473345  0.78837681
   0.31230563  0.70553582  0.34513701
   0.68727500  0.12195754  0.52139936
   0.56248315  0.54062995  0.74388093
   0.68751075  0.45263094  0.21162666
   0.93739355  0.79119097  0.74397058
   0.68776624  0.95583430  0.47843999
   0.56258199  0.87253338  0.52129640
   0.31228356  0.70488662  0.56576364
   0.56251131  0.86587934  0.16664850
   0.93758472  0.45315004  0.21163585
   0.81226114  0.21191938  0.83340224
   0.56224359  0.70564747  0.34528009
   0.56246780  0.53734361  0.25610735
   0.31263950  0.37214047  0.30050169
   0.93754870  0.62230592  0.65472998
   0.31257434  0.87241964  0.65468478
   0.56236432  0.37329682  0.43442909
   0.68740758  0.61648038  0.16674466
   0.93748660  0.45639166  0.69953604
   0.31237569  0.20601585  0.69950342
   0.43771617  0.96144659  0.83347777
   0.43731216  0.78719836  0.25600881
   0.93735485  0.78706359  0.25600388
   0.18772824  0.95228147  0.21161785
   0.43760580  0.79062722  0.74400903
   0.81240954  0.03711270  0.25598782
   0.18789876  0.62180653  0.52145770
   0.81266029  0.20606107  0.69949945
   0.18768251  0.78978630  0.38944294
   0.93740883  0.28687598  0.25601798
   0.18769929  0.12237900  0.52134145
   0.06258427  0.71199870  0.83332755
   0.81258865  0.70634798  0.47851811
   0.56259412  0.70480863  0.56536807
   0.93748790  0.12171486  0.30051166
   0.18743096  0.29089357  0.74394540
   0.56244918  0.36651866  0.16675597
   0.06258544  0.37174676  0.30047106
   0.06271510  0.03806512  0.61055991
   0.18748317  0.62239154  0.65474477
   0.56225947  0.37486641  0.78837897
   0.56266919  0.87481689  0.78854641
   0.06232226  0.04076862  0.74406840
   0.56270520  0.37212519  0.52139071
   0.93749929  0.29083224  0.74400324
   0.06216017  0.03953775  0.38944406
   0.18771390  0.95473613  0.56535080
   0.93709971  0.11622413  0.16643125
   0.68730043  0.78986632  0.38944192
   0.81222860  0.70331207  0.21175850
   0.18744119  0.62192166  0.30044124
   0.81259241  0.86595067  0.16656652
   0.06222421  0.53820007  0.61046310
   0.68763771  0.62164590  0.52141742
   0.43764118  0.28838252  0.61050220
   0.06287744  0.70569527  0.47855687
   0.93755851  0.28806592  0.61062008
   0.68752106  0.45575271  0.69948920
   0.56246521  0.03707701  0.25600759
   0.81206840  0.87496642  0.78842658
   0.56277211  0.03982535  0.38936390
   0.81291059  0.04457854  0.87573489
   0.93682486  0.61611961  0.16660125
   0.31310081  0.04465352  0.87575868
   0.43761025  0.45290250  0.21168694
   0.56254993  0.03339343  0.12438367
   0.18739451  0.61591560  0.16669431
   0.06236595  0.70643024  0.69944199
   0.31239668  0.53847860  0.61056524
   0.43717128  0.62199751  0.52143853
   0.06239047  0.21212051  0.83332277
   0.93721182  0.96108825  0.83361043
   0.56255715  0.21199937  0.83323535
   0.68779102  0.12319682  0.43448159
   0.43763561  0.95254459  0.21162839
   0.06238943  0.20571901  0.34522816
   0.68720763  0.28701247  0.25614789
   0.31241346  0.87225674  0.30035506
   0.56254320  0.53328518  0.12441018
   0.81246561  0.20468602  0.56550023
   0.43757188  0.45591608  0.69954518
   0.43739009  0.12191283  0.52143387
   0.43731042  0.28736393  0.25597479
   0.43714755  0.12258900  0.65481593
   0.68767777  0.95494904  0.56564277
   0.56300111  0.71227514  0.83338630
   0.68775323  0.62500746  0.78845464
   0.68765133  0.78683117  0.25594741
   0.43739784  0.29045822  0.74405747
   0.43720810  0.46177200  0.83325543
   0.43753701  0.78851164  0.61058902
   0.68727203  0.29449953  0.87571254
   0.06231850  0.20646842  0.69944063
   0.56271627  0.70567127  0.69962233
   0.18716437  0.29509034  0.87575767
   0.81244445  0.37158758  0.30054017
   0.68728379  0.12182502  0.30060147
   0.81290810  0.53827880  0.61053693
   0.68771227  0.28958852  0.38943434
   0.06224642  0.20491947  0.56567919
   0.18702972  0.45578247  0.34515029
   0.31242694  0.37227535  0.52152240
   0.68766628  0.12574952  0.78832702
   0.18742784  0.28697134  0.25607567
   0.93748789  0.95622050  0.69954291
   0.93763156  0.62447359  0.78826365
   0.81235820  0.37522394  0.78838638
   0.93766877  0.45468621  0.56561104
   0.93780315  0.12175968  0.52150347
   0.68755816  0.62232081  0.65483970
   0.93746486  0.78975604  0.38930610
   0.93723496  0.12484853  0.78838467
   0.06272888  0.70470549  0.56569036
   0.31224217  0.03841855  0.61042490
   0.31233235  0.53726712  0.25604357
   0.31298679  0.53348142  0.12445014
   0.93786065  0.46137903  0.83334312
   0.43775795  0.62260207  0.43447270
   0.43747745  0.95636402  0.47843963
   0.31227829  0.71142832  0.83332853
   0.68748611  0.79057328  0.74401523
   0.81235752  0.53410907  0.12432884
   0.31242536  0.70261216  0.21159221
   0.81260429  0.70591250  0.69943760
   0.68760118  0.45499029  0.56573473
   0.43739876  0.12495609  0.78843761
   0.93718796  0.62314814  0.43461537
   0.81267142  0.03964907  0.38940759
   0.43771187  0.45479025  0.56565442
   0.81179199  0.71221169  0.83353022
   0.31282562  0.37459345  0.78852004
   0.56278535  0.53967778  0.38943279
   0.43684428  0.62461390  0.78831423
   0.56226821  0.20291980  0.21168231
   0.68754281  0.62163897  0.30041347
   0.43768007  0.12207769  0.30046674
   0.18726460  0.95565765  0.34523324
   0.56242816  0.87292254  0.43443163
   0.93751267  0.78774367  0.61050961
   0.18743661  0.28995272  0.38941618
   0.68745122  0.96103944  0.83345323
   0.31235758  0.54073656  0.74402499
   0.81257431  0.37313530  0.43429598
   0.43748781  0.29472636  0.87569203
   0.56273927  0.53860898  0.61041827
   0.43741724  0.28303763  0.12440908
   0.18718200  0.79484529  0.87581133
   0.31239214  0.20561217  0.34519071
   0.93724677  0.95544201  0.34513532
   0.81257803  0.70522821  0.56563197
   0.68761804  0.45568516  0.47850047
   0.18760199  0.95606841  0.69950070
   0.18751200  0.28847634  0.61057359
   0.56250954  0.87190538  0.30051029