 288 288   0   0
  0.1280206E+02  0.9726678E-09  0.8423550E-09  0.4500000E-08  0.2500000E-15
  1.000000000000000E-004
  CAR 
 unknown system                          
      6.77976353     -6.01691939  301      4.29644487      1.00000000
     -6.017  0.0000E+00  0.0000E+00
     -5.974  0.0000E+00  0.0000E+00
     -5.932  0.0000E+00  0.0000E+00
     -5.889  0.0000E+00  0.0000E+00
     -5.846  0.0000E+00  0.0000E+00
     -5.804  0.0000E+00  0.0000E+00
     -5.761  0.0000E+00  0.0000E+00
     -5.718  0.0000E+00  0.0000E+00
     -5.676  0.0000E+00  0.0000E+00
     -5.633  0.0000E+00  0.0000E+00
     -5.590  0.0000E+00  0.0000E+00
     -5.548  0.0000E+00  0.0000E+00
     -5.505  0.0000E+00  0.0000E+00
     -5.462  0.0000E+00  0.0000E+00
     -5.420  0.0000E+00  0.0000E+00
     -5.377  0.1627E-15  0.6939E-17
     -5.334  0.3611E-14  0.1610E-15
     -5.292  0.7759E-13  0.3471E-14
     -5.249  0.1417E-11  0.6391E-13
     -5.206  0.2205E-10  0.1005E-11
     -5.164  0.2927E-09  0.1349E-10
     -5.121  0.3314E-08  0.1548E-09
     -5.078  0.3201E-07  0.1520E-08
     -5.036  0.2641E-06  0.1278E-07
     -4.993  0.1862E-05  0.9219E-07
     -4.951  0.1123E-04  0.5711E-06
     -4.908  0.5805E-04  0.3047E-05
     -4.865  0.2578E-03  0.1405E-04
     -4.823  0.9870E-03  0.5615E-04
     -4.780  0.3271E-02  0.1957E-03
     -4.737  0.9441E-02  0.5984E-03
     -4.695  0.2392E-01  0.1619E-02
     -4.652  0.5370E-01  0.3909E-02
     -4.609  0.1080E+00  0.8516E-02
     -4.567  0.1967E+00  0.1691E-01
     -4.524  0.3280E+00  0.3090E-01
     -4.481  0.5048E+00  0.5243E-01
     -4.439  0.7217E+00  0.8321E-01
     -4.396  0.9632E+00  0.1243E+00
     -4.353  0.1206E+01  0.1757E+00
     -4.311  0.1422E+01  0.2364E+00
     -4.268  0.1592E+01  0.3043E+00
     -4.225  0.1706E+01  0.3771E+00
     -4.183  0.1774E+01  0.4527E+00
     -4.140  0.1824E+01  0.5305E+00
     -4.097  0.1896E+01  0.6114E+00
     -4.055  0.2024E+01  0.6977E+00
     -4.012  0.2222E+01  0.7925E+00
     -3.969  0.2478E+01  0.8982E+00
     -3.927  0.2753E+01  0.1016E+01
     -3.884  0.2993E+01  0.1143E+01
     -3.841  0.3150E+01  0.1278E+01
     -3.799  0.3202E+01  0.1414E+01
     -3.756  0.3163E+01  0.1549E+01
     -3.714  0.3082E+01  0.1681E+01
     -3.671  0.3022E+01  0.1810E+01
     -3.628  0.3038E+01  0.1939E+01
     -3.586  0.3156E+01  0.2074E+01
     -3.543  0.3361E+01  0.2217E+01
     -3.500  0.3607E+01  0.2371E+01
     -3.458  0.3835E+01  0.2535E+01
     -3.415  0.4003E+01  0.2705E+01
     -3.372  0.4098E+01  0.2880E+01
     -3.330  0.4132E+01  0.3056E+01
     -3.287  0.4138E+01  0.3233E+01
     -3.244  0.4146E+01  0.3410E+01
     -3.202  0.4187E+01  0.3588E+01
     -3.159  0.4275E+01  0.3771E+01
     -3.116  0.4413E+01  0.3959E+01
     -3.074  0.4593E+01  0.4155E+01
     -3.031  0.4795E+01  0.4359E+01
     -2.988  0.4991E+01  0.4572E+01
     -2.946  0.5153E+01  0.4792E+01
     -2.903  0.5266E+01  0.5017E+01
     -2.860  0.5332E+01  0.5244E+01
     -2.818  0.5376E+01  0.5473E+01
     -2.775  0.5431E+01  0.5705E+01
     -2.732  0.5521E+01  0.5941E+01
     -2.690  0.5634E+01  0.6181E+01
     -2.647  0.5718E+01  0.6425E+01
     -2.604  0.5711E+01  0.6668E+01
     -2.562  0.5596E+01  0.6907E+01
     -2.519  0.5438E+01  0.7139E+01
     -2.477  0.5371E+01  0.7368E+01
     -2.434  0.5526E+01  0.7604E+01
     -2.391  0.5951E+01  0.7858E+01
     -2.349  0.6563E+01  0.8138E+01
     -2.306  0.7174E+01  0.8444E+01
     -2.263  0.7575E+01  0.8767E+01
     -2.221  0.7645E+01  0.9093E+01
     -2.178  0.7411E+01  0.9409E+01
     -2.135  0.7046E+01  0.9710E+01
     -2.093  0.6785E+01  0.9999E+01
     -2.050  0.6806E+01  0.1029E+02
     -2.007  0.7150E+01  0.1059E+02
     -1.965  0.7713E+01  0.1092E+02
     -1.922  0.8299E+01  0.1128E+02
     -1.879  0.8724E+01  0.1165E+02
     -1.837  0.8894E+01  0.1203E+02
     -1.794  0.8846E+01  0.1241E+02
     -1.751  0.8715E+01  0.1278E+02
     -1.709  0.8648E+01  0.1315E+02
     -1.666  0.8724E+01  0.1352E+02
     -1.623  0.8931E+01  0.1390E+02
     -1.581  0.9202E+01  0.1429E+02
     -1.538  0.9481E+01  0.1470E+02
     -1.495  0.9749E+01  0.1511E+02
     -1.453  0.1001E+02  0.1554E+02
     -1.410  0.1024E+02  0.1598E+02
     -1.367  0.1041E+02  0.1642E+02
     -1.325  0.1050E+02  0.1687E+02
     -1.282  0.1063E+02  0.1732E+02
     -1.239  0.1097E+02  0.1779E+02
     -1.197  0.1170E+02  0.1829E+02
     -1.154  0.1281E+02  0.1883E+02
     -1.112  0.1405E+02  0.1943E+02
     -1.069  0.1506E+02  0.2008E+02
     -1.026  0.1557E+02  0.2074E+02
     -0.984  0.1561E+02  0.2141E+02
     -0.941  0.1552E+02  0.2207E+02
     -0.898  0.1572E+02  0.2274E+02
     -0.856  0.1650E+02  0.2344E+02
     -0.813  0.1790E+02  0.2421E+02
     -0.770  0.1981E+02  0.2505E+02
     -0.728  0.2217E+02  0.2600E+02
     -0.685  0.2514E+02  0.2707E+02
     -0.642  0.2892E+02  0.2830E+02
     -0.600  0.3349E+02  0.2973E+02
     -0.557  0.3846E+02  0.3137E+02
     -0.514  0.4315E+02  0.3321E+02
     -0.472  0.4701E+02  0.3522E+02
     -0.429  0.4987E+02  0.3735E+02
     -0.386  0.5197E+02  0.3956E+02
     -0.344  0.5363E+02  0.4185E+02
     -0.301  0.5503E+02  0.4420E+02
     -0.258  0.5613E+02  0.4659E+02
     -0.216  0.5681E+02  0.4902E+02
     -0.173  0.5705E+02  0.5145E+02
     -0.130  0.5697E+02  0.5388E+02
     -0.088  0.5683E+02  0.5630E+02
     -0.045  0.5690E+02  0.5873E+02
     -0.002  0.5744E+02  0.6118E+02
      0.040  0.5863E+02  0.6368E+02
      0.083  0.6056E+02  0.6626E+02
      0.125  0.6320E+02  0.6896E+02
      0.168  0.6643E+02  0.7179E+02
      0.211  0.7006E+02  0.7478E+02
      0.253  0.7383E+02  0.7793E+02
      0.296  0.7744E+02  0.8124E+02
      0.339  0.8059E+02  0.8467E+02
      0.381  0.8309E+02  0.8822E+02
      0.424  0.8492E+02  0.9184E+02
      0.467  0.8619E+02  0.9552E+02
      0.509  0.8698E+02  0.9923E+02
      0.552  0.8731E+02  0.1030E+03
      0.595  0.8715E+02  0.1067E+03
      0.637  0.8656E+02  0.1104E+03
      0.680  0.8562E+02  0.1140E+03
      0.723  0.8434E+02  0.1176E+03
      0.765  0.8270E+02  0.1211E+03
      0.808  0.8075E+02  0.1246E+03
      0.851  0.7873E+02  0.1279E+03
      0.893  0.7702E+02  0.1312E+03
      0.936  0.7598E+02  0.1345E+03
      0.979  0.7570E+02  0.1377E+03
      1.021  0.7594E+02  0.1409E+03
      1.064  0.7627E+02  0.1442E+03
      1.107  0.7632E+02  0.1474E+03
      1.149  0.7593E+02  0.1507E+03
      1.192  0.7520E+02  0.1539E+03
      1.235  0.7437E+02  0.1571E+03
      1.277  0.7360E+02  0.1602E+03
      1.320  0.7292E+02  0.1633E+03
      1.363  0.7222E+02  0.1664E+03
      1.405  0.7126E+02  0.1694E+03
      1.448  0.6990E+02  0.1724E+03
      1.490  0.6824E+02  0.1753E+03
      1.533  0.6669E+02  0.1782E+03
      1.576  0.6584E+02  0.1810E+03
      1.618  0.6617E+02  0.1838E+03
      1.661  0.6778E+02  0.1867E+03
      1.704  0.7039E+02  0.1897E+03
      1.746  0.7349E+02  0.1928E+03
      1.789  0.7666E+02  0.1961E+03
      1.832  0.7966E+02  0.1995E+03
      1.874  0.8242E+02  0.2030E+03
      1.917  0.8489E+02  0.2066E+03
      1.960  0.8707E+02  0.2103E+03
      2.002  0.8903E+02  0.2141E+03
      2.045  0.9080E+02  0.2180E+03
      2.088  0.9238E+02  0.2220E+03
      2.130  0.9370E+02  0.2260E+03
      2.173  0.9477E+02  0.2300E+03
      2.216  0.9580E+02  0.2341E+03
      2.258  0.9723E+02  0.2382E+03
      2.301  0.9948E+02  0.2425E+03
      2.344  0.1028E+03  0.2469E+03
      2.386  0.1069E+03  0.2514E+03
      2.429  0.1114E+03  0.2562E+03
      2.472  0.1157E+03  0.2611E+03
      2.514  0.1193E+03  0.2662E+03
      2.557  0.1221E+03  0.2714E+03
      2.600  0.1243E+03  0.2767E+03
      2.642  0.1262E+03  0.2821E+03
      2.685  0.1280E+03  0.2875E+03
      2.727  0.1300E+03  0.2931E+03
      2.770  0.1324E+03  0.2987E+03
      2.813  0.1351E+03  0.3045E+03
      2.855  0.1380E+03  0.3104E+03
      2.898  0.1407E+03  0.3164E+03
      2.941  0.1422E+03  0.3225E+03
      2.983  0.1416E+03  0.3285E+03
      3.026  0.1382E+03  0.3344E+03
      3.069  0.1320E+03  0.3400E+03
      3.111  0.1239E+03  0.3453E+03
      3.154  0.1148E+03  0.3502E+03
      3.197  0.1061E+03  0.3547E+03
      3.239  0.9866E+02  0.3589E+03
      3.282  0.9299E+02  0.3629E+03
      3.325  0.8910E+02  0.3667E+03
      3.367  0.8666E+02  0.3704E+03
      3.410  0.8526E+02  0.3740E+03
      3.453  0.8449E+02  0.3776E+03
      3.495  0.8396E+02  0.3812E+03
      3.538  0.8342E+02  0.3848E+03
      3.581  0.8283E+02  0.3883E+03
      3.623  0.8248E+02  0.3918E+03
      3.666  0.8290E+02  0.3954E+03
      3.709  0.8456E+02  0.3990E+03
      3.751  0.8758E+02  0.4027E+03
      3.794  0.9163E+02  0.4066E+03
      3.837  0.9609E+02  0.4107E+03
      3.879  0.1003E+03  0.4150E+03
      3.922  0.1038E+03  0.4194E+03
      3.964  0.1065E+03  0.4240E+03
      4.007  0.1082E+03  0.4286E+03
      4.050  0.1090E+03  0.4332E+03
      4.092  0.1088E+03  0.4379E+03
      4.135  0.1079E+03  0.4425E+03
      4.178  0.1067E+03  0.4470E+03
      4.220  0.1054E+03  0.4515E+03
      4.263  0.1041E+03  0.4560E+03
      4.306  0.1029E+03  0.4604E+03
      4.348  0.1021E+03  0.4647E+03
      4.391  0.1016E+03  0.4690E+03
      4.434  0.1014E+03  0.4734E+03
      4.476  0.1011E+03  0.4777E+03
      4.519  0.1004E+03  0.4820E+03
      4.562  0.9919E+02  0.4862E+03
      4.604  0.9790E+02  0.4904E+03
      4.647  0.9707E+02  0.4945E+03
      4.690  0.9718E+02  0.4987E+03
      4.732  0.9841E+02  0.5028E+03
      4.775  0.1006E+03  0.5071E+03
      4.818  0.1033E+03  0.5115E+03
      4.860  0.1060E+03  0.5161E+03
      4.903  0.1081E+03  0.5207E+03
      4.946  0.1094E+03  0.5253E+03
      4.988  0.1094E+03  0.5300E+03
      5.031  0.1075E+03  0.5346E+03
      5.074  0.1029E+03  0.5390E+03
      5.116  0.9447E+02  0.5430E+03
      5.159  0.8192E+02  0.5465E+03
      5.202  0.6598E+02  0.5493E+03
      5.244  0.4867E+02  0.5514E+03
      5.287  0.3250E+02  0.5528E+03
      5.329  0.1946E+02  0.5536E+03
      5.372  0.1038E+02  0.5541E+03
      5.415  0.4900E+01  0.5543E+03
      5.457  0.2040E+01  0.5544E+03
      5.500  0.7466E+00  0.5544E+03
      5.543  0.2393E+00  0.5544E+03
      5.585  0.6707E-01  0.5544E+03
      5.628  0.1639E-01  0.5544E+03
      5.671  0.3488E-02  0.5544E+03
      5.713  0.6449E-03  0.5544E+03
      5.756  0.1035E-03  0.5544E+03
      5.799  0.1439E-04  0.5544E+03
      5.841  0.1733E-05  0.5544E+03
      5.884  0.1803E-06  0.5544E+03
      5.927  0.1621E-07  0.5544E+03
      5.969  0.1256E-08  0.5544E+03
      6.012  0.8396E-10  0.5544E+03
      6.055  0.4831E-11  0.5544E+03
      6.097  0.2377E-12  0.5544E+03
      6.140  0.9500E-14  0.5544E+03
      6.183  0.1952E-15  0.5544E+03
      6.225  0.0000E+00  0.5544E+03
      6.268  0.0000E+00  0.5544E+03
      6.311  0.0000E+00  0.5544E+03
      6.353  0.0000E+00  0.5544E+03
      6.396  0.0000E+00  0.5544E+03
      6.439  0.0000E+00  0.5544E+03
      6.481  0.0000E+00  0.5544E+03
      6.524  0.0000E+00  0.5544E+03
      6.566  0.0000E+00  0.5544E+03
      6.609  0.0000E+00  0.5544E+03
      6.652  0.0000E+00  0.5544E+03
      6.694  0.0000E+00  0.5544E+03
      6.737  0.0000E+00  0.5544E+03
      6.780  0.0000E+00  0.5544E+03
