<?xml version="1.0" encoding="ISO-8859-1"?>
<modeling>
 <generator>
  <i name="program" type="string">vasp </i>
  <i name="version" type="string">5.4.4.18Apr17-6-g9f103f2a35  </i>
  <i name="subversion" type="string">(build Sep 27 2018 12:46:37) complex + VL-xray_ parallel </i>
  <i name="platform" type="string">LLNL_Quartz_ifc </i>
  <i name="date" type="string">2021 09 26 </i>
  <i name="time" type="string">17:59:32 </i>
 </generator>
 <incar>
  <i type="int" name="ISTART">     2</i>
  <i type="string" name="PREC">accurate</i>
  <i type="string" name="ALGO"> Fast</i>
  <i type="int" name="ICHARG">     2</i>
  <i type="int" name="INIWAV">     1</i>
  <i type="int" name="NELM">   200</i>
  <i type="int" name="NELMIN">     4</i>
  <i type="int" name="IBRION">     2</i>
  <i name="EDIFF">      0.00000100</i>
  <i type="int" name="NSW">     5</i>
  <i type="int" name="ISIF">     2</i>
  <i type="int" name="ISYM">     2</i>
  <i name="ENCUT">    450.00000000</i>
  <i name="POTIM">      0.25000000</i>
  <i type="string" name="LREAL"> Auto</i>
  <i type="int" name="ISMEAR">     0</i>
  <i name="SIGMA">      0.15000000</i>
  <i type="logical" name="LWAVE"> F  </i>
  <i type="logical" name="LCHARG"> F  </i>
  <i type="int" name="ICORELEVEL">     0</i>
  <i type="int" name="CLNT">     1</i>
  <i type="int" name="CLN">     1</i>
  <i type="int" name="INCAR     ">     0</i>
  <i name="CLZ">      0.00000000</i>
  <v type="int" name="KPOINT_BSE">    -1     0     0     0</v>
  <i type="int" name="NELM">   200</i>
 </incar>
 <structure name="primitive_cell" >
  <crystal>
   <varray name="basis" >
    <v>       9.72667804       0.00000000       0.00000000 </v>
    <v>       0.00000000       8.42355028       0.00000000 </v>
    <v>       0.00000000       0.00000000      45.00000000 </v>
   </varray>
   <i name="volume">   3686.99226691 </i>
   <varray name="rec_basis" >
    <v>       0.10281002       0.00000000       0.00000000 </v>
    <v>       0.00000000       0.11871479       0.00000000 </v>
    <v>       0.00000000       0.00000000       0.02222222 </v>
   </varray>
  </crystal>
  <varray name="positions" >
   <v>       0.05438891      -0.29932364       0.21135721 </v>
   <v>      -0.05940870      -0.21266264       0.25515685 </v>
   <v>       0.06531500      -0.46236446       0.25514575 </v>
   <v>       0.30344129      -0.29916964       0.21126487 </v>
   <v>       0.17853907       0.45112510       0.21136812 </v>
   <v>      -0.07091441       0.45118843       0.21142738 </v>
   <v>       0.17854576      -0.04895801       0.21128078 </v>
   <v>       0.06723062      -0.13777345       0.16654289 </v>
   <v>      -0.07096708      -0.04867842       0.21125923 </v>
   <v>      -0.05817268      -0.38839764       0.16587492 </v>
   <v>      -0.19703705      -0.29920644       0.21141096 </v>
   <v>       0.19063957      -0.21242403       0.25525363 </v>
   <v>       0.19141296      -0.38813707       0.16632228 </v>
   <v>      -0.18212657      -0.13842409       0.16659454 </v>
   <v>      -0.18395473      -0.46207451       0.25547191 </v>
   <v>       0.06588134       0.03756861       0.25527682 </v>
   <v>       0.06696194       0.36276152       0.16655578 </v>
   <v>       0.31550339      -0.46219711       0.25519367 </v>
   <v>       0.31848386      -0.13688010       0.16583496 </v>
   <v>      -0.30924647      -0.21268430       0.25545788 </v>
   <v>      -0.30821951      -0.38732186       0.16668611 </v>
   <v>      -0.06448283      -0.21841268       0.12422528 </v>
   <v>      -0.05912550       0.28743687       0.25542420 </v>
   <v>      -0.05865987       0.11226892       0.16646202 </v>
   <v>      -0.18495634       0.03744170       0.25520729 </v>
   <v>      -0.18201899       0.36272768       0.16665097 </v>
   <v>       0.18629819      -0.21695142       0.12427130 </v>
   <v>       0.05692401      -0.47227970       0.12405607 </v>
   <v>       0.17828843      -0.37622739       0.29952439 </v>
   <v>       0.42878907       0.45102805       0.21149929 </v>
   <v>       0.05415553       0.20079723       0.21127265 </v>
   <v>       0.42895223      -0.04862858       0.21139176 </v>
   <v>      -0.07233617      -0.37635136       0.29969929 </v>
   <v>      -0.32111856       0.45148489       0.21132195 </v>
   <v>       0.19097120       0.28747366       0.25523275 </v>
   <v>      -0.32128355      -0.04861277       0.21129657 </v>
   <v>       0.19173987       0.11146574       0.16635677 </v>
   <v>       0.05267435      -0.12613537       0.29958780 </v>
   <v>       0.31529789       0.03787395       0.25525212 </v>
   <v>       0.44048988      -0.21238105       0.25526649 </v>
   <v>       0.44159785      -0.38980217       0.16645906 </v>
   <v>       0.31860543       0.36344469       0.16577202 </v>
   <v>       0.05865460       0.02854501       0.12416208 </v>
   <v>      -0.18992066      -0.47175935       0.12390593 </v>
   <v>       0.05285634       0.37366667       0.29959775 </v>
   <v>      -0.19587378       0.20121181       0.21116958 </v>
   <v>      -0.44586361      -0.29913352       0.21115113 </v>
   <v>       0.30463231       0.20039509       0.21118508 </v>
   <v>       0.30291681      -0.12621581       0.29961911 </v>
   <v>       0.31026342      -0.47252838       0.12399986 </v>
   <v>      -0.19692728      -0.12654439       0.29948627 </v>
   <v>      -0.43247866      -0.13673829       0.16652904 </v>
   <v>      -0.43429345      -0.46246389       0.25520376 </v>
   <v>      -0.30890486       0.28760906       0.25524171 </v>
   <v>      -0.30868352       0.11254441       0.16662188 </v>
   <v>      -0.31249755      -0.21770748       0.12423530 </v>
   <v>      -0.19145573       0.02901411       0.12402277 </v>
   <v>      -0.06542313       0.28247051       0.12417187 </v>
   <v>       0.30296104       0.37384385       0.29956172 </v>
   <v>       0.31011652       0.02651188       0.12394289 </v>
   <v>      -0.19687153       0.37344378       0.29945600 </v>
   <v>       0.42806489      -0.37658187       0.29938999 </v>
   <v>       0.18602765       0.28268316       0.12433259 </v>
   <v>      -0.32217924      -0.37653816       0.29962723 </v>
   <v>       0.43725767      -0.21597130       0.12396589 </v>
   <v>       0.17775994       0.12367367       0.29954737 </v>
   <v>      -0.07196256       0.12358153       0.29957404 </v>
   <v>       0.44052998       0.28738652       0.25519672 </v>
   <v>       0.44141186       0.11058645       0.16648785 </v>
   <v>      -0.43446629       0.03755698       0.25518066 </v>
   <v>      -0.43364095       0.36261731       0.16645263 </v>
   <v>       0.06493002      -0.29155093       0.34395809 </v>
   <v>      -0.31270511       0.28168102       0.12419327 </v>
   <v>      -0.44059667      -0.47203621       0.12397818 </v>
   <v>      -0.06003764       0.45930350       0.34403063 </v>
   <v>      -0.18543939      -0.29143946       0.34389956 </v>
   <v>      -0.44639544       0.20114499       0.21121657 </v>
   <v>      -0.44740353      -0.12622378       0.29963582 </v>
   <v>       0.18988144       0.45857700       0.34402306 </v>
   <v>       0.42778500       0.12377513       0.29951116 </v>
   <v>       0.43674967       0.28332577       0.12400890 </v>
   <v>      -0.05984889      -0.04116315       0.34416082 </v>
   <v>      -0.32200816       0.12367265       0.29942030 </v>
   <v>       0.31479925      -0.29119579       0.34400280 </v>
   <v>       0.18989552      -0.04113107       0.34401336 </v>
   <v>      -0.44129859       0.02659668       0.12392122 </v>
   <v>      -0.44701668       0.37352562       0.29957574 </v>
   <v>      -0.31003781       0.45873596       0.34408852 </v>
   <v>       0.06455902       0.20856724       0.34387449 </v>
   <v>      -0.31032462      -0.04106653       0.34394116 </v>
   <v>       0.43985915       0.45881025       0.34401322 </v>
   <v>       0.43990521      -0.04131774       0.34401512 </v>
   <v>      -0.18556617       0.20794533       0.34400030 </v>
   <v>      -0.43541368      -0.29156065       0.34399413 </v>
   <v>       0.31471868       0.20860230       0.34394391 </v>
   <v>       0.06153077      -0.45854301       0.38840185 </v>
   <v>      -0.06330966      -0.20854319       0.38842710 </v>
   <v>       0.18616313      -0.20882702       0.38836087 </v>
   <v>      -0.18863694      -0.45820844       0.38840921 </v>
   <v>       0.31119238      -0.45860991       0.38843163 </v>
   <v>       0.06161901       0.04141481       0.38842864 </v>
   <v>      -0.43508369       0.20889841       0.34401353 </v>
   <v>      -0.06365410       0.29113295       0.38844037 </v>
   <v>      -0.31368479      -0.20833679       0.38839705 </v>
   <v>       0.18600360       0.29111128       0.38840741 </v>
   <v>      -0.18896302       0.04169655       0.38830751 </v>
   <v>       0.43622005      -0.20889809       0.38843421 </v>
   <v>       0.31153473       0.04134542       0.38842734 </v>
   <v>      -0.31375105       0.29101095       0.38841831 </v>
   <v>      -0.43826326      -0.45842310       0.38844394 </v>
   <v>       0.43609140       0.29116294       0.38838011 </v>
   <v>      -0.43873830       0.04139989       0.38843037 </v>
   <v>      -0.06628123      -0.37505105       0.43299839 </v>
   <v>       0.18352632      -0.37539036       0.43308015 </v>
   <v>       0.05835580      -0.12501687       0.43297711 </v>
   <v>       0.05807831       0.37449380       0.43298895 </v>
   <v>      -0.19138551      -0.12492375       0.43309843 </v>
   <v>       0.30858777      -0.12505749       0.43305791 </v>
   <v>      -0.19128737       0.37504139       0.43309427 </v>
   <v>      -0.31639915      -0.37507552       0.43293714 </v>
   <v>       0.30863654       0.37511294       0.43294730 </v>
   <v>       0.43358354      -0.37519422       0.43306179 </v>
   <v>      -0.06682880       0.12474408       0.43313193 </v>
   <v>       0.18333769       0.12499722       0.43309315 </v>
   <v>      -0.44137846      -0.12523254       0.43301405 </v>
   <v>      -0.31638954       0.12503436       0.43305073 </v>
   <v>       0.43368376       0.12476597       0.43292508 </v>
   <v>      -0.44148287       0.37483644       0.43304803 </v>
   <v>       0.06780156      -0.28945803       0.47742569 </v>
   <v>      -0.05733686       0.46055401       0.47729511 </v>
   <v>      -0.18209516      -0.28922779       0.47747355 </v>
   <v>      -0.05708620      -0.03924043       0.47735960 </v>
   <v>       0.19281253       0.46075777       0.47746277 </v>
   <v>       0.31782376      -0.28945571       0.47739103 </v>
   <v>       0.19265396      -0.03920886       0.47737319 </v>
   <v>      -0.30741586       0.46058929       0.47736892 </v>
   <v>       0.06788925       0.21074361       0.47744817 </v>
   <v>      -0.30715144      -0.03924867       0.47745686 </v>
   <v>       0.44282823       0.46067268       0.47744821 </v>
   <v>       0.44287208      -0.03934945       0.47745060 </v>
   <v>      -0.18233393       0.21064630       0.47734059 </v>
   <v>      -0.43218164      -0.28935331       0.47747303 </v>
   <v>       0.31783529       0.21057952       0.47732376 </v>
   <v>      -0.43223429       0.21056927       0.47740727 </v>
   <v>       0.05729946      -0.46080161      -0.47752062 </v>
   <v>      -0.06806870      -0.21109713      -0.47751196 </v>
   <v>       0.18220187      -0.21076687      -0.47749393 </v>
   <v>      -0.19294988      -0.46076712      -0.47747180 </v>
   <v>       0.30689313      -0.46105448      -0.47755851 </v>
   <v>       0.05683784       0.03916964      -0.47755252 </v>
   <v>      -0.06769404       0.28870232      -0.47768097 </v>
   <v>      -0.31755474      -0.21148657      -0.47770470 </v>
   <v>       0.18239004       0.28919505      -0.47749224 </v>
   <v>       0.43214640      -0.21109883      -0.47771538 </v>
   <v>       0.30725935       0.03850682      -0.47773441 </v>
   <v>      -0.19258778       0.03935437      -0.47751524 </v>
   <v>      -0.31797930       0.28894214      -0.47758622 </v>
   <v>      -0.44309855      -0.46097809      -0.47753999 </v>
   <v>       0.43228685       0.28910324      -0.47756496 </v>
   <v>      -0.44302946       0.03905480      -0.47756377 </v>
   <v>       0.06750603      -0.27664962      -0.12381884 </v>
   <v>      -0.06025129       0.46835284      -0.12389500 </v>
   <v>      -0.18289648      -0.27618483      -0.12369247 </v>
   <v>       0.18968376       0.46806999      -0.12390586 </v>
   <v>      -0.06025452      -0.03157940      -0.12386310 </v>
   <v>       0.31842339      -0.27635337      -0.12373825 </v>
   <v>       0.18976494      -0.03193225      -0.12390250 </v>
   <v>       0.06812281       0.22311367      -0.12383545 </v>
   <v>      -0.31020556       0.46786125      -0.12391317 </v>
   <v>      -0.31019093      -0.03161311      -0.12392330 </v>
   <v>       0.43963000       0.46780032      -0.12405267 </v>
   <v>       0.43961954      -0.03206729      -0.12390810 </v>
   <v>      -0.18257452       0.22388591      -0.12380156 </v>
   <v>      -0.43255780      -0.27534493      -0.12378240 </v>
   <v>       0.31754435       0.22363890      -0.12387088 </v>
   <v>      -0.05821426      -0.37491166      -0.43322833 </v>
   <v>       0.06661796      -0.12507630      -0.43311568 </v>
   <v>       0.19156708      -0.37508077      -0.43312069 </v>
   <v>      -0.18331804      -0.12495613      -0.43310741 </v>
   <v>       0.06662581       0.37503598      -0.43311734 </v>
   <v>       0.31669183      -0.12507501      -0.43312330 </v>
   <v>      -0.43184582       0.22394160      -0.12389219 </v>
   <v>      -0.18328567       0.37515312      -0.43314793 </v>
   <v>      -0.30836953      -0.37501948      -0.43310568 </v>
   <v>      -0.05855030       0.12501050      -0.43314755 </v>
   <v>       0.31654148       0.37474371      -0.43317659 </v>
   <v>       0.44139338      -0.37486617      -0.43315003 </v>
   <v>       0.19178461       0.12498794      -0.43307307 </v>
   <v>      -0.43362440      -0.12511118      -0.43313385 </v>
   <v>      -0.30838218       0.12500670      -0.43310638 </v>
   <v>       0.44161185       0.12490052      -0.43309839 </v>
   <v>      -0.43328674       0.37498410      -0.43320481 </v>
   <v>      -0.06629155      -0.36243464      -0.16608158 </v>
   <v>       0.18323418      -0.36233057      -0.16643516 </v>
   <v>       0.05848972      -0.11229050      -0.16654451 </v>
   <v>       0.05846086       0.38860434      -0.16645027 </v>
   <v>      -0.19141428      -0.11225462      -0.16643065 </v>
   <v>       0.30853624      -0.11239691      -0.16648483 </v>
   <v>      -0.19161181       0.38762839      -0.16646452 </v>
   <v>       0.30841193       0.38742058      -0.16648368 </v>
   <v>      -0.31640313      -0.36237705      -0.16649506 </v>
   <v>       0.43368251      -0.36219558      -0.16648531 </v>
   <v>      -0.06640315       0.13786011      -0.16645899 </v>
   <v>       0.18363362       0.13781395      -0.16639567 </v>
   <v>      -0.44159744      -0.11245814      -0.16649475 </v>
   <v>      -0.31664954       0.13763082      -0.16647744 </v>
   <v>       0.43342237       0.13769561      -0.16647139 </v>
   <v>      -0.44167344       0.38749113      -0.16652787 </v>
   <v>       0.06329454      -0.29165781      -0.38840839 </v>
   <v>      -0.06185120       0.45827672      -0.38839787 </v>
   <v>      -0.18660868      -0.29162503      -0.38842778 </v>
   <v>      -0.06199112      -0.04176973      -0.38857969 </v>
   <v>       0.18825975       0.45861818      -0.38846347 </v>
   <v>       0.18809284      -0.04160099      -0.38850427 </v>
   <v>       0.31328372      -0.29145911      -0.38845197 </v>
   <v>      -0.31171390       0.45865855      -0.38847366 </v>
   <v>       0.06329756       0.20848563      -0.38848987 </v>
   <v>      -0.31179732      -0.04153482      -0.38851574 </v>
   <v>       0.43822103       0.45841819      -0.38840514 </v>
   <v>       0.43853720      -0.04133276      -0.38847972 </v>
   <v>      -0.18666679       0.20848531      -0.38846445 </v>
   <v>      -0.43655475      -0.29163335      -0.38843128 </v>
   <v>       0.31319734       0.20826260      -0.38850745 </v>
   <v>       0.07073792      -0.45045726      -0.21121482 </v>
   <v>      -0.05532043      -0.20043788      -0.21116320 </v>
   <v>      -0.43712635       0.20804966      -0.38867840 </v>
   <v>       0.19454982      -0.20060795      -0.21116153 </v>
   <v>      -0.18014252      -0.45042977      -0.21107504 </v>
   <v>       0.31964264      -0.45035418      -0.21109052 </v>
   <v>       0.06959561       0.04956063      -0.21099730 </v>
   <v>      -0.05500146       0.29878815      -0.21124937 </v>
   <v>      -0.30503060      -0.20072859      -0.21109725 </v>
   <v>       0.19492518       0.29913250      -0.21118283 </v>
   <v>      -0.18078933       0.04961882      -0.21093761 </v>
   <v>       0.44456535      -0.20075705      -0.21114402 </v>
   <v>       0.32011415       0.04944276      -0.21113898 </v>
   <v>      -0.43019678      -0.45022970      -0.21096437 </v>
   <v>      -0.30496792       0.29915460      -0.21123056 </v>
   <v>       0.44458716       0.29905957      -0.21116617 </v>
   <v>      -0.43062284       0.04968430      -0.21103259 </v>
   <v>       0.05967793      -0.45942655      -0.34410563 </v>
   <v>      -0.06525704      -0.20935982      -0.34408886 </v>
   <v>       0.18483015      -0.20934879      -0.34413019 </v>
   <v>      -0.19035431      -0.45940175      -0.34416281 </v>
   <v>       0.30965001      -0.45932068      -0.34410798 </v>
   <v>       0.06006295       0.04042630      -0.34396205 </v>
   <v>      -0.06523461       0.29073691      -0.34417654 </v>
   <v>      -0.31533061      -0.20958374      -0.34412378 </v>
   <v>       0.18459552       0.29054858      -0.34409977 </v>
   <v>      -0.19022749       0.04060784      -0.34407401 </v>
   <v>       0.43461617      -0.20952444      -0.34403881 </v>
   <v>       0.30994433       0.04079631      -0.34405097 </v>
   <v>      -0.44034392      -0.45938119      -0.34412617 </v>
   <v>      -0.31504509       0.29074284      -0.34395698 </v>
   <v>       0.43510457       0.29072163      -0.34391913 </v>
   <v>      -0.44029540       0.04078949      -0.34414115 </v>
   <v>       0.05923759      -0.28779735      -0.25501633 </v>
   <v>      -0.06581728       0.46263832      -0.25507873 </v>
   <v>       0.18445802       0.46257303      -0.25503445 </v>
   <v>      -0.19002190      -0.28794345      -0.25517259 </v>
   <v>       0.30973966      -0.28790790      -0.25519320 </v>
   <v>      -0.06673955      -0.03776290      -0.25531850 </v>
   <v>       0.18375543      -0.03739272      -0.25525052 </v>
   <v>      -0.31587865       0.46277136      -0.25501661 </v>
   <v>       0.05979947       0.21271269      -0.25507916 </v>
   <v>       0.43459534       0.46266123      -0.25512125 </v>
   <v>      -0.31550125      -0.03742443      -0.25514220 </v>
   <v>       0.43373854      -0.03735445      -0.25525442 </v>
   <v>       0.30968553       0.21241451      -0.25505742 </v>
   <v>      -0.18943810       0.21159766      -0.25540824 </v>
   <v>      -0.44011125      -0.28795753      -0.25513517 </v>
   <v>      -0.43995786       0.21266454      -0.25515259 </v>
   <v>      -0.05317352      -0.37358593      -0.29949209 </v>
   <v>       0.07212818      -0.12359671      -0.29967090 </v>
   <v>       0.19706623      -0.37376997      -0.29966448 </v>
   <v>      -0.17796415      -0.12389680      -0.29958720 </v>
   <v>       0.07197213       0.37641774      -0.29946537 </v>
   <v>       0.32200007      -0.12369656      -0.29950794 </v>
   <v>      -0.17811178       0.37634199      -0.29972324 </v>
   <v>      -0.30292522      -0.37387134      -0.29954605 </v>
   <v>      -0.05284773       0.12623260      -0.29964567 </v>
   <v>       0.32234400       0.37643410      -0.29961401 </v>
   <v>       0.19707300       0.12623374      -0.29965573 </v>
   <v>       0.44690816      -0.37371488      -0.29959939 </v>
   <v>      -0.42857491      -0.12352636      -0.29945035 </v>
   <v>      -0.30260237       0.12626867      -0.29958519 </v>
   <v>       0.44718070       0.12595755      -0.29958166 </v>
   <v>      -0.42783763       0.37634733      -0.29961531 </v>
  </varray>
 </structure>
 <varray name="primitive_index" >
  <v type="int" >        1 </v>
  <v type="int" >      238 </v>
  <v type="int" >      220 </v>
  <v type="int" >      192 </v>
  <v type="int" >       10 </v>
  <v type="int" >      242 </v>
  <v type="int" >      109 </v>
  <v type="int" >      208 </v>
  <v type="int" >       71 </v>
  <v type="int" >      282 </v>
  <v type="int" >       81 </v>
  <v type="int" >       89 </v>
  <v type="int" >       35 </v>
  <v type="int" >       32 </v>
  <v type="int" >      288 </v>
  <v type="int" >      263 </v>
  <v type="int" >       55 </v>
  <v type="int" >      243 </v>
  <v type="int" >      283 </v>
  <v type="int" >      128 </v>
  <v type="int" >      117 </v>
  <v type="int" >      155 </v>
  <v type="int" >      252 </v>
  <v type="int" >      158 </v>
  <v type="int" >      222 </v>
  <v type="int" >      183 </v>
  <v type="int" >      262 </v>
  <v type="int" >      265 </v>
  <v type="int" >      162 </v>
  <v type="int" >       28 </v>
  <v type="int" >      160 </v>
  <v type="int" >       15 </v>
  <v type="int" >       38 </v>
  <v type="int" >      205 </v>
  <v type="int" >       45 </v>
  <v type="int" >      161 </v>
  <v type="int" >      126 </v>
  <v type="int" >      147 </v>
  <v type="int" >      278 </v>
  <v type="int" >      226 </v>
  <v type="int" >      227 </v>
  <v type="int" >      286 </v>
  <v type="int" >       48 </v>
  <v type="int" >       14 </v>
  <v type="int" >       26 </v>
  <v type="int" >       70 </v>
  <v type="int" >      251 </v>
  <v type="int" >       61 </v>
  <v type="int" >      108 </v>
  <v type="int" >      197 </v>
  <v type="int" >      277 </v>
  <v type="int" >      191 </v>
  <v type="int" >       33 </v>
  <v type="int" >      203 </v>
  <v type="int" >       90 </v>
  <v type="int" >       25 </v>
  <v type="int" >       99 </v>
  <v type="int" >      133 </v>
  <v type="int" >       52 </v>
  <v type="int" >       23 </v>
  <v type="int" >      104 </v>
  <v type="int" >      100 </v>
  <v type="int" >      189 </v>
  <v type="int" >      144 </v>
  <v type="int" >       83 </v>
  <v type="int" >      142 </v>
  <v type="int" >      145 </v>
  <v type="int" >        5 </v>
  <v type="int" >      143 </v>
  <v type="int" >      261 </v>
  <v type="int" >      122 </v>
  <v type="int" >      112 </v>
  <v type="int" >      267 </v>
  <v type="int" >       43 </v>
  <v type="int" >      190 </v>
  <v type="int" >      118 </v>
  <v type="int" >       63 </v>
  <v type="int" >      255 </v>
  <v type="int" >      120 </v>
  <v type="int" >      169 </v>
  <v type="int" >      279 </v>
  <v type="int" >       92 </v>
  <v type="int" >      170 </v>
  <v type="int" >      257 </v>
  <v type="int" >      254 </v>
  <v type="int" >      214 </v>
  <v type="int" >      124 </v>
  <v type="int" >       34 </v>
  <v type="int" >      153 </v>
  <v type="int" >       24 </v>
  <v type="int" >       95 </v>
  <v type="int" >      236 </v>
  <v type="int" >      172 </v>
  <v type="int" >      123 </v>
  <v type="int" >      258 </v>
  <v type="int" >      247 </v>
  <v type="int" >      198 </v>
  <v type="int" >      229 </v>
  <v type="int" >       86 </v>
  <v type="int" >       57 </v>
  <v type="int" >      246 </v>
  <v type="int" >       50 </v>
  <v type="int" >      273 </v>
  <v type="int" >      156 </v>
  <v type="int" >      105 </v>
  <v type="int" >       17 </v>
  <v type="int" >       79 </v>
  <v type="int" >      134 </v>
  <v type="int" >      232 </v>
  <v type="int" >      171 </v>
  <v type="int" >      248 </v>
  <v type="int" >      244 </v>
  <v type="int" >      193 </v>
  <v type="int" >      168 </v>
  <v type="int" >      211 </v>
  <v type="int" >      256 </v>
  <v type="int" >       46 </v>
  <v type="int" >      240 </v>
  <v type="int" >       29 </v>
  <v type="int" >       94 </v>
  <v type="int" >      215 </v>
  <v type="int" >      281 </v>
  <v type="int" >      285 </v>
  <v type="int" >      223 </v>
  <v type="int" >      239 </v>
  <v type="int" >      115 </v>
  <v type="int" >      184 </v>
  <v type="int" >      136 </v>
  <v type="int" >       62 </v>
  <v type="int" >      166 </v>
  <v type="int" >      268 </v>
  <v type="int" >      179 </v>
  <v type="int" >      132 </v>
  <v type="int" >      217 </v>
  <v type="int" >      176 </v>
  <v type="int" >      249 </v>
  <v type="int" >      185 </v>
  <v type="int" >       91 </v>
  <v type="int" >       19 </v>
  <v type="int" >      130 </v>
  <v type="int" >      206 </v>
  <v type="int" >      207 </v>
  <v type="int" >      175 </v>
  <v type="int" >       11 </v>
  <v type="int" >      178 </v>
  <v type="int" >      116 </v>
  <v type="int" >      107 </v>
  <v type="int" >      241 </v>
  <v type="int" >      230 </v>
  <v type="int" >      218 </v>
  <v type="int" >      209 </v>
  <v type="int" >       18 </v>
  <v type="int" >      225 </v>
  <v type="int" >      187 </v>
  <v type="int" >      266 </v>
  <v type="int" >       93 </v>
  <v type="int" >       87 </v>
  <v type="int" >      141 </v>
  <v type="int" >      111 </v>
  <v type="int" >      181 </v>
  <v type="int" >       58 </v>
  <v type="int" >      151 </v>
  <v type="int" >      101 </v>
  <v type="int" >      125 </v>
  <v type="int" >      274 </v>
  <v type="int" >        2 </v>
  <v type="int" >      154 </v>
  <v type="int" >      212 </v>
  <v type="int" >       27 </v>
  <v type="int" >      234 </v>
  <v type="int" >      173 </v>
  <v type="int" >       97 </v>
  <v type="int" >       41 </v>
  <v type="int" >      131 </v>
  <v type="int" >       39 </v>
  <v type="int" >       72 </v>
  <v type="int" >       12 </v>
  <v type="int" >      148 </v>
  <v type="int" >      276 </v>
  <v type="int" >      250 </v>
  <v type="int" >       40 </v>
  <v type="int" >       13 </v>
  <v type="int" >      146 </v>
  <v type="int" >      264 </v>
  <v type="int" >      259 </v>
  <v type="int" >      216 </v>
  <v type="int" >       21 </v>
  <v type="int" >      233 </v>
  <v type="int" >       98 </v>
  <v type="int" >      235 </v>
  <v type="int" >       68 </v>
  <v type="int" >       16 </v>
  <v type="int" >       59 </v>
  <v type="int" >       66 </v>
  <v type="int" >      177 </v>
  <v type="int" >        6 </v>
  <v type="int" >       75 </v>
  <v type="int" >        7 </v>
  <v type="int" >       73 </v>
  <v type="int" >      150 </v>
  <v type="int" >      271 </v>
  <v type="int" >      152 </v>
  <v type="int" >      129 </v>
  <v type="int" >      188 </v>
  <v type="int" >      174 </v>
  <v type="int" >      221 </v>
  <v type="int" >      269 </v>
  <v type="int" >      103 </v>
  <v type="int" >      180 </v>
  <v type="int" >      245 </v>
  <v type="int" >       82 </v>
  <v type="int" >      201 </v>
  <v type="int" >      194 </v>
  <v type="int" >       51 </v>
  <v type="int" >      280 </v>
  <v type="int" >      102 </v>
  <v type="int" >      228 </v>
  <v type="int" >        3 </v>
  <v type="int" >        4 </v>
  <v type="int" >      260 </v>
  <v type="int" >      167 </v>
  <v type="int" >       30 </v>
  <v type="int" >       77 </v>
  <v type="int" >      284 </v>
  <v type="int" >      149 </v>
  <v type="int" >      275 </v>
  <v type="int" >       36 </v>
  <v type="int" >      106 </v>
  <v type="int" >       60 </v>
  <v type="int" >       67 </v>
  <v type="int" >      199 </v>
  <v type="int" >       88 </v>
  <v type="int" >       54 </v>
  <v type="int" >      253 </v>
  <v type="int" >      114 </v>
  <v type="int" >       85 </v>
  <v type="int" >      121 </v>
  <v type="int" >      182 </v>
  <v type="int" >      127 </v>
  <v type="int" >       44 </v>
  <v type="int" >      196 </v>
  <v type="int" >      157 </v>
  <v type="int" >      113 </v>
  <v type="int" >       42 </v>
  <v type="int" >       49 </v>
  <v type="int" >      135 </v>
  <v type="int" >       69 </v>
  <v type="int" >      210 </v>
  <v type="int" >      200 </v>
  <v type="int" >      213 </v>
  <v type="int" >       53 </v>
  <v type="int" >      186 </v>
  <v type="int" >       31 </v>
  <v type="int" >       76 </v>
  <v type="int" >      159 </v>
  <v type="int" >      140 </v>
  <v type="int" >      204 </v>
  <v type="int" >      119 </v>
  <v type="int" >      110 </v>
  <v type="int" >      202 </v>
  <v type="int" >       84 </v>
  <v type="int" >      287 </v>
  <v type="int" >      237 </v>
  <v type="int" >      137 </v>
  <v type="int" >        9 </v>
  <v type="int" >       78 </v>
  <v type="int" >       80 </v>
  <v type="int" >       20 </v>
  <v type="int" >       64 </v>
  <v type="int" >       96 </v>
  <v type="int" >      272 </v>
  <v type="int" >      138 </v>
  <v type="int" >      164 </v>
  <v type="int" >      195 </v>
  <v type="int" >       74 </v>
  <v type="int" >      163 </v>
  <v type="int" >       65 </v>
  <v type="int" >      219 </v>
  <v type="int" >      231 </v>
  <v type="int" >       56 </v>
  <v type="int" >      139 </v>
  <v type="int" >      270 </v>
  <v type="int" >      165 </v>
  <v type="int" >        8 </v>
  <v type="int" >       22 </v>
  <v type="int" >      224 </v>
  <v type="int" >       37 </v>
  <v type="int" >       47 </v>
 </varray>
 <kpoints>
  <generation param="Gamma">
   <v type="int" name="divisions">       4        4        1 </v>
   <v name="usershift">      0.00000000       0.00000000       0.00000000 </v>
   <v name="genvec1">      0.25000000       0.00000000       0.00000000 </v>
   <v name="genvec2">      0.00000000       0.25000000       0.00000000 </v>
   <v name="genvec3">      0.00000000       0.00000000       1.00000000 </v>
   <v name="shift">      0.00000000       0.00000000       0.00000000 </v>
  </generation>
  <varray name="kpointlist" >
   <v>       0.00000000       0.00000000       0.00000000 </v>
   <v>       0.25000000       0.00000000       0.00000000 </v>
   <v>       0.50000000       0.00000000       0.00000000 </v>
   <v>       0.00000000       0.25000000       0.00000000 </v>
   <v>       0.25000000       0.25000000       0.00000000 </v>
   <v>       0.50000000       0.25000000       0.00000000 </v>
   <v>      -0.25000000       0.25000000       0.00000000 </v>
   <v>       0.00000000       0.50000000       0.00000000 </v>
   <v>       0.25000000       0.50000000       0.00000000 </v>
   <v>       0.50000000       0.50000000       0.00000000 </v>
  </varray>
  <varray name="weights" >
   <v>       0.06250000 </v>
   <v>       0.12500000 </v>
   <v>       0.06250000 </v>
   <v>       0.12500000 </v>
   <v>       0.12500000 </v>
   <v>       0.12500000 </v>
   <v>       0.12500000 </v>
   <v>       0.06250000 </v>
   <v>       0.12500000 </v>
   <v>       0.06250000 </v>
  </varray>
 </kpoints>
 <parameters>
  <separator name="general" >
   <i type="string" name="SYSTEM">unknown system</i>
   <i type="logical" name="LCOMPAT"> F  </i>
  </separator>
  <separator name="electronic" >
   <i type="string" name="PREC">accura</i>
   <i name="ENMAX">    450.00000000</i>
   <i name="ENAUG">    838.43500000</i>
   <i name="EDIFF">      0.00000100</i>
   <i type="int" name="IALGO">    68</i>
   <i type="int" name="IWAVPR">    11</i>
   <i type="int" name="NBANDS">  1386</i>
   <i name="NELECT">   2297.00000000</i>
   <i type="int" name="TURBO">     0</i>
   <i type="int" name="IRESTART">     0</i>
   <i type="int" name="NREBOOT">     0</i>
   <i type="int" name="NMIN">     0</i>
   <i name="EREF">      0.00000000</i>
   <separator name="electronic smearing" >
    <i type="int" name="ISMEAR">     0</i>
    <i name="SIGMA">      0.15000000</i>
    <i name="KSPACING">      0.50000000</i>
    <i type="logical" name="KGAMMA"> T  </i>
   </separator>
   <separator name="electronic projectors" >
    <i type="logical" name="LREAL"> T  </i>
    <v name="ROPT">     -0.00025000     -0.00025000</v>
    <i type="int" name="LMAXPAW">  -100</i>
    <i type="int" name="LMAXMIX">     2</i>
    <i type="logical" name="NLSPLINE"> F  </i>
   </separator>
   <separator name="electronic startup" >
    <i type="int" name="ISTART">     0</i>
    <i type="int" name="ICHARG">     2</i>
    <i type="int" name="INIWAV">     1</i>
   </separator>
   <separator name="electronic spin" >
    <i type="int" name="ISPIN">     1</i>
    <i type="logical" name="LNONCOLLINEAR"> F  </i>
    <v name="MAGMOM">      1.00000000      1.00000000      1.00000000      1.00000000      1.00000000      1.00000000      1.00000000      1.00000000      1.00000000      1.00000000      1.00000000      1.00000000      1.00000000      1.00000000      1.00000000      1.00000000      1.00000000      1.00000000      1.00000000      1.00000000
      1.00000000      1.00000000      1.00000000      1.00000000      1.00000000      1.00000000      1.00000000      1.00000000      1.00000000      1.00000000      1.00000000      1.00000000      1.00000000      1.00000000      1.00000000      1.00000000      1.00000000      1.00000000      1.00000000      1.00000000
      1.00000000      1.00000000      1.00000000      1.00000000      1.00000000      1.00000000      1.00000000      1.00000000      1.00000000      1.00000000      1.00000000      1.00000000      1.00000000      1.00000000      1.00000000      1.00000000      1.00000000      1.00000000      1.00000000      1.00000000
      1.00000000      1.00000000      1.00000000      1.00000000      1.00000000      1.00000000      1.00000000      1.00000000      1.00000000      1.00000000      1.00000000      1.00000000      1.00000000      1.00000000      1.00000000      1.00000000      1.00000000      1.00000000      1.00000000      1.00000000
      1.00000000      1.00000000      1.00000000      1.00000000      1.00000000      1.00000000      1.00000000      1.00000000      1.00000000      1.00000000      1.00000000      1.00000000      1.00000000      1.00000000      1.00000000      1.00000000      1.00000000      1.00000000      1.00000000      1.00000000
      1.00000000      1.00000000      1.00000000      1.00000000      1.00000000      1.00000000      1.00000000      1.00000000      1.00000000      1.00000000      1.00000000      1.00000000      1.00000000      1.00000000      1.00000000      1.00000000      1.00000000      1.00000000      1.00000000      1.00000000
      1.00000000      1.00000000      1.00000000      1.00000000      1.00000000      1.00000000      1.00000000      1.00000000      1.00000000      1.00000000      1.00000000      1.00000000      1.00000000      1.00000000      1.00000000      1.00000000      1.00000000      1.00000000      1.00000000      1.00000000
      1.00000000      1.00000000      1.00000000      1.00000000      1.00000000      1.00000000      1.00000000      1.00000000      1.00000000      1.00000000      1.00000000      1.00000000      1.00000000      1.00000000      1.00000000      1.00000000      1.00000000      1.00000000      1.00000000      1.00000000
      1.00000000      1.00000000      1.00000000      1.00000000      1.00000000      1.00000000      1.00000000      1.00000000      1.00000000      1.00000000      1.00000000      1.00000000      1.00000000      1.00000000      1.00000000      1.00000000      1.00000000      1.00000000      1.00000000      1.00000000
      1.00000000      1.00000000      1.00000000      1.00000000      1.00000000      1.00000000      1.00000000      1.00000000      1.00000000      1.00000000      1.00000000      1.00000000      1.00000000      1.00000000      1.00000000      1.00000000      1.00000000      1.00000000      1.00000000      1.00000000
      1.00000000      1.00000000      1.00000000      1.00000000      1.00000000      1.00000000      1.00000000      1.00000000      1.00000000      1.00000000      1.00000000      1.00000000      1.00000000      1.00000000      1.00000000      1.00000000      1.00000000      1.00000000      1.00000000      1.00000000
      1.00000000      1.00000000      1.00000000      1.00000000      1.00000000      1.00000000      1.00000000      1.00000000      1.00000000      1.00000000      1.00000000      1.00000000      1.00000000      1.00000000      1.00000000      1.00000000      1.00000000      1.00000000      1.00000000      1.00000000
      1.00000000      1.00000000      1.00000000      1.00000000      1.00000000      1.00000000      1.00000000      1.00000000      1.00000000      1.00000000      1.00000000      1.00000000      1.00000000      1.00000000      1.00000000      1.00000000      1.00000000      1.00000000      1.00000000      1.00000000
      1.00000000      1.00000000      1.00000000      1.00000000      1.00000000      1.00000000      1.00000000      1.00000000      1.00000000      1.00000000      1.00000000      1.00000000      1.00000000      1.00000000      1.00000000      1.00000000      1.00000000      1.00000000      1.00000000      1.00000000
      1.00000000      1.00000000      1.00000000      1.00000000      1.00000000      1.00000000      1.00000000      1.00000000</v>
    <i name="NUPDOWN">     -1.00000000</i>
    <i type="logical" name="LSORBIT"> F  </i>
    <v name="SAXIS">      0.00000000      0.00000000      1.00000000</v>
    <i type="logical" name="LSPIRAL"> F  </i>
    <v name="QSPIRAL">      0.00000000      0.00000000      0.00000000</v>
    <i type="logical" name="LZEROZ"> F  </i>
   </separator>
   <separator name="electronic exchange-correlation" >
    <i type="logical" name="LASPH"> F  </i>
    <i type="logical" name="LMETAGGA"> F  </i>
   </separator>
   <separator name="electronic convergence" >
    <i type="int" name="NELM">   200</i>
    <i type="int" name="NELMDL">     0</i>
    <i type="int" name="NELMIN">     4</i>
    <i name="ENINI">    450.00000000</i>
    <separator name="electronic convergence detail" >
     <i type="logical" name="LDIAG"> T  </i>
     <i type="logical" name="LSUBROT"> F  </i>
     <i name="WEIMIN">      0.00100000</i>
     <i name="EBREAK">      0.00000000</i>
     <i name="DEPER">      0.30000000</i>
     <i type="int" name="NRMM">     4</i>
     <i name="TIME">      0.40000000</i>
    </separator>
   </separator>
   <separator name="electronic mixer" >
    <i name="AMIX">      0.40000000</i>
    <i name="BMIX">      1.00000000</i>
    <i name="AMIN">      0.10000000</i>
    <i name="AMIX_MAG">      1.60000000</i>
    <i name="BMIX_MAG">      1.00000000</i>
    <separator name="electronic mixer details" >
     <i type="int" name="IMIX">     4</i>
     <i type="logical" name="MIXFIRST"> F  </i>
     <i type="int" name="MAXMIX">   -45</i>
     <i name="WC">    100.00000000</i>
     <i type="int" name="INIMIX">     1</i>
     <i type="int" name="MIXPRE">     1</i>
     <i type="int" name="MREMOVE">     5</i>
    </separator>
   </separator>
   <separator name="electronic dipolcorrection" >
    <i type="logical" name="LDIPOL"> F  </i>
    <i type="logical" name="LMONO"> F  </i>
    <i type="int" name="IDIPOL">     0</i>
    <i name="EPSILON">      1.00000000</i>
    <v name="DIPOL">   -100.00000000   -100.00000000   -100.00000000</v>
    <i name="EFIELD">      0.00000000</i>
   </separator>
  </separator>
  <separator name="grids" >
   <i type="int" name="NGX">    70</i>
   <i type="int" name="NGY">    60</i>
   <i type="int" name="NGZ">   320</i>
   <i type="int" name="NGXF">   140</i>
   <i type="int" name="NGYF">   120</i>
   <i type="int" name="NGZF">   640</i>
   <i type="logical" name="ADDGRID"> F  </i>
  </separator>
  <separator name="ionic" >
   <i type="int" name="NSW">     5</i>
   <i type="int" name="IBRION">     2</i>
   <i type="int" name="MDALGO">     0</i>
   <i type="int" name="ISIF">     2</i>
   <i name="PSTRESS">      0.00000000</i>
   <i name="EDIFFG">      0.00001000</i>
   <i type="int" name="NFREE">     1</i>
   <i name="POTIM">      0.25000000</i>
   <i name="SMASS">     -3.00000000</i>
   <i name="SCALEE">      1.00000000</i>
  </separator>
  <separator name="ionic md" >
   <i name="TEBEG">      0.00010000</i>
   <i name="TEEND">      0.00010000</i>
   <i type="int" name="NBLOCK">     1</i>
   <i type="int" name="KBLOCK">     5</i>
   <i type="int" name="NPACO">   256</i>
   <i name="APACO">     16.00000000</i>
  </separator>
  <separator name="symmetry" >
   <i type="int" name="ISYM">     2</i>
   <i name="SYMPREC">      0.00001000</i>
  </separator>
  <separator name="dos" >
   <i type="int" name="LORBIT">     0</i>
   <v name="RWIGS">     -1.00000000     -1.00000000</v>
   <i type="int" name="NEDOS">   301</i>
   <i name="EMIN">     10.00000000</i>
   <i name="EMAX">    -10.00000000</i>
   <i name="EFERMI">      0.00000000</i>
  </separator>
  <separator name="writing" >
   <i type="int" name="NWRITE">     2</i>
   <i type="logical" name="LWAVE"> F  </i>
   <i type="logical" name="LDOWNSAMPLE"> F  </i>
   <i type="logical" name="LCHARG"> F  </i>
   <i type="logical" name="LPARD"> F  </i>
   <i type="logical" name="LVTOT"> F  </i>
   <i type="logical" name="LVHAR"> F  </i>
   <i type="logical" name="LELF"> F  </i>
   <i type="logical" name="LOPTICS"> F  </i>
   <v name="STM">      0.00000000      0.00000000      0.00000000      0.00000000      0.00000000      0.00000000      0.00000000</v>
  </separator>
  <separator name="performance" >
   <i type="int" name="NPAR">    14</i>
   <i type="int" name="NSIM">     4</i>
   <i type="int" name="NBLK">    -1</i>
   <i type="logical" name="LPLANE"> T  </i>
   <i type="logical" name="LSCALAPACK"> T  </i>
   <i type="logical" name="LSCAAWARE"> T  </i>
   <i type="logical" name="LSCALU"> F  </i>
   <i type="logical" name="LASYNC"> F  </i>
   <i type="logical" name="LORBITALREAL"> F  </i>
  </separator>
  <separator name="miscellaneous" >
   <i type="int" name="IDIOT">     3</i>
   <i type="int" name="ISPECIAL">     0</i>
   <i type="logical" name="LMUSIC"> F  </i>
   <v name="POMASS">     55.84700000     54.93800000</v>
   <v name="DARWINR">      0.00000000      0.00000000</v>
   <v name="DARWINV">      1.00000000      1.00000000</v>
   <i type="logical" name="LCORR"> T  </i>
  </separator>
  <i type="logical" name="GGA_COMPAT"> T  </i>
  <i type="logical" name="LBERRY"> F  </i>
  <i type="int" name="ICORELEVEL">     0</i>
  <i type="logical" name="LDAU"> F  </i>
  <i type="int" name="I_CONSTRAINED_M">     0</i>
  <separator name="electronic exchange-correlation" >
   <i type="string" name="GGA">--</i>
   <i type="int" name="VOSKOWN">     0</i>
   <i type="logical" name="LHFCALC"> F  </i>
   <i type="string" name="PRECFOCK"></i>
   <i type="logical" name="LSYMGRAD"> F  </i>
   <i type="logical" name="LHFONE"> F  </i>
   <i type="logical" name="LRHFCALC"> F  </i>
   <i type="logical" name="LTHOMAS"> F  </i>
   <i type="logical" name="LMODELHF"> F  </i>
   <i name="ENCUT4O">     -1.00000000</i>
   <i type="int" name="EXXOEP">     0</i>
   <i type="int" name="FOURORBIT">     0</i>
   <i name="AEXX">      0.00000000</i>
   <i name="HFALPHA">      0.00000000</i>
   <i name="MCALPHA">      0.00000000</i>
   <i name="ALDAX">      1.00000000</i>
   <i name="AGGAX">      1.00000000</i>
   <i name="ALDAC">      1.00000000</i>
   <i name="AGGAC">      1.00000000</i>
   <i type="int" name="NKREDX">     1</i>
   <i type="int" name="NKREDY">     1</i>
   <i type="int" name="NKREDZ">     1</i>
   <i type="logical" name="SHIFTRED"> F  </i>
   <i type="logical" name="ODDONLY"> F  </i>
   <i type="logical" name="EVENONLY"> F  </i>
   <i type="int" name="LMAXFOCK">     0</i>
   <i type="int" name="NMAXFOCKAE">     0</i>
   <i type="logical" name="LFOCKAEDFT"> F  </i>
   <i name="HFSCREEN">      0.00000000</i>
   <i name="HFSCREENC">      0.00000000</i>
   <i type="int" name="NBANDSGWLOW">     0</i>
  </separator>
  <separator name="vdW DFT" >
   <i type="logical" name="LUSE_VDW"> F  </i>
   <i name="Zab_VDW">     -0.84910000</i>
   <i name="PARAM1">      0.12340000</i>
   <i name="PARAM2">      1.00000000</i>
   <i name="PARAM3">      0.00000000</i>
  </separator>
  <separator name="model GW" >
   <i type="int" name="MODEL_GW">     0</i>
   <i name="MODEL_EPS0">      7.68123389</i>
   <i name="MODEL_ALPHA">      1.00000000</i>
  </separator>
  <separator name="linear response parameters" >
   <i type="logical" name="LEPSILON"> F  </i>
   <i type="logical" name="LRPA"> F  </i>
   <i type="logical" name="LNABLA"> F  </i>
   <i type="logical" name="LVEL"> F  </i>
   <i type="int" name="KINTER">     0</i>
   <i name="CSHIFT">      0.10000000</i>
   <i name="OMEGAMAX">     -1.00000000</i>
   <i name="DEG_THRESHOLD">      0.00200000</i>
   <i name="RTIME">     -0.10000000</i>
   <i name="WPLASMAI">      0.00000000</i>
   <v name="DFIELD">      0.00000000      0.00000000      0.00000000</v>
   <v name="WPLASMA">      0.00000000      0.00000000      0.00000000      0.00000000      0.00000000      0.00000000      0.00000000      0.00000000      0.00000000</v>
  </separator>
  <separator name="orbital magnetization" >
   <i type="logical" name="NUCIND"> F  </i>
   <v name="MAGPOS">      0.00000000      0.00000000      0.00000000</v>
   <i type="logical" name="LNICSALL"> T  </i>
   <i type="logical" name="ORBITALMAG"> F  </i>
   <i type="logical" name="LMAGBLOCH"> F  </i>
   <i type="logical" name="LCHIMAG"> F  </i>
   <i type="logical" name="LGAUGE"> T  </i>
   <i type="int" name="MAGATOM">     0</i>
   <v name="MAGDIPOL">      0.00000000      0.00000000      0.00000000</v>
   <v name="AVECCONST">      0.00000000      0.00000000      0.00000000</v>
  </separator>
  <separator name="response functions" >
   <i type="logical" name="LADDER"> F  </i>
   <i type="logical" name="LRPAFORCE"> F  </i>
   <i type="logical" name="LFXC"> F  </i>
   <i type="logical" name="LHARTREE"> T  </i>
   <i type="int" name="IBSE">     0</i>
   <v type="int" name="KPOINT">    -1     0     0     0</v>
   <i type="logical" name="LTCTE"> F  </i>
   <i type="logical" name="LTETE"> F  </i>
   <i type="logical" name="LTRIPLET"> F  </i>
   <i type="logical" name="LFXCEPS"> F  </i>
   <i type="logical" name="LFXHEG"> F  </i>
   <i type="int" name="NATURALO">     2</i>
   <i type="logical" name="L2ORDER"> F  </i>
   <i type="logical" name="LMP2LT"> F  </i>
   <i type="logical" name="LUSEW"> F  </i>
   <i name="ENCUTGW">     -2.00000000</i>
   <i name="ENCUTGWSOFT">     -2.00000000</i>
   <i name="ENCUTLF">     -1.00000000</i>
   <i type="int" name="LMAXMP2">    -1</i>
   <i name="SCISSOR">      0.00000000</i>
   <i type="int" name="NOMEGA">     0</i>
   <i type="int" name="NOMEGAR">     0</i>
   <i type="int" name="NBANDSGW">    -1</i>
   <i type="int" name="NBANDSO">    -1</i>
   <i type="int" name="NBANDSV">    -1</i>
   <i type="int" name="NELM">   200</i>
   <i type="int" name="NELMHF">     1</i>
   <i type="int" name="DIM">     3</i>
   <i type="int" name="ANTIRES">     0</i>
   <i name="OMEGAMAX">    -30.00000000</i>
   <i name="OMEGAMIN">    -30.00000000</i>
   <i name="OMEGATL">   -200.00000000</i>
   <i type="int" name="OMEGAGRID">   140</i>
   <i name="CSHIFT">     -0.10000000</i>
   <i type="logical" name="SELFENERGY"> F  </i>
   <i type="logical" name="LSPECTRAL"> F  </i>
   <i type="logical" name="LSPECTRALGW"> F  </i>
   <i type="logical" name="LSINGLES"> F  </i>
   <i type="logical" name="LFERMIGW"> F  </i>
   <i type="logical" name="ODDONLYGW"> F  </i>
   <i type="logical" name="EVENONLYGW"> F  </i>
   <i type="int" name="NKREDLFX">     1</i>
   <i type="int" name="NKREDLFY">     1</i>
   <i type="int" name="NKREDLFZ">     1</i>
   <i type="int" name="MAXMEM">  2800</i>
   <i type="int" name="TELESCOPE">     0</i>
   <i type="int" name="TAUPAR">     1</i>
   <i type="int" name="OMEGAPAR">    -1</i>
   <i name="LAMBDA">      1.00000000</i>
  </separator>
  <separator name="External order field" >
   <i name="OFIELD_KAPPA">      0.00000000</i>
   <v name="OFIELD_K">      0.00000000      0.00000000      0.00000000</v>
   <i name="OFIELD_Q6_NEAR">      0.00000000</i>
   <i name="OFIELD_Q6_FAR">      0.00000000</i>
   <i name="OFIELD_A">      0.00000000</i>
  </separator>
 </parameters>
 <atominfo>
  <atoms>     288 </atoms>
  <types>       2 </types>
  <array name="atoms" >
   <dimension dim="1">ion</dimension>
   <field type="string">element</field>
   <field type="int">atomtype</field>
   <set>
    <rc><c>Fe</c><c>   1</c></rc>
    <rc><c>Fe</c><c>   1</c></rc>
    <rc><c>Fe</c><c>   1</c></rc>
    <rc><c>Fe</c><c>   1</c></rc>
    <rc><c>Fe</c><c>   1</c></rc>
    <rc><c>Fe</c><c>   1</c></rc>
    <rc><c>Fe</c><c>   1</c></rc>
    <rc><c>Fe</c><c>   1</c></rc>
    <rc><c>Fe</c><c>   1</c></rc>
    <rc><c>Fe</c><c>   1</c></rc>
    <rc><c>Fe</c><c>   1</c></rc>
    <rc><c>Fe</c><c>   1</c></rc>
    <rc><c>Fe</c><c>   1</c></rc>
    <rc><c>Fe</c><c>   1</c></rc>
    <rc><c>Fe</c><c>   1</c></rc>
    <rc><c>Fe</c><c>   1</c></rc>
    <rc><c>Fe</c><c>   1</c></rc>
    <rc><c>Fe</c><c>   1</c></rc>
    <rc><c>Fe</c><c>   1</c></rc>
    <rc><c>Fe</c><c>   1</c></rc>
    <rc><c>Fe</c><c>   1</c></rc>
    <rc><c>Fe</c><c>   1</c></rc>
    <rc><c>Fe</c><c>   1</c></rc>
    <rc><c>Fe</c><c>   1</c></rc>
    <rc><c>Fe</c><c>   1</c></rc>
    <rc><c>Fe</c><c>   1</c></rc>
    <rc><c>Fe</c><c>   1</c></rc>
    <rc><c>Fe</c><c>   1</c></rc>
    <rc><c>Fe</c><c>   1</c></rc>
    <rc><c>Fe</c><c>   1</c></rc>
    <rc><c>Fe</c><c>   1</c></rc>
    <rc><c>Fe</c><c>   1</c></rc>
    <rc><c>Fe</c><c>   1</c></rc>
    <rc><c>Fe</c><c>   1</c></rc>
    <rc><c>Fe</c><c>   1</c></rc>
    <rc><c>Fe</c><c>   1</c></rc>
    <rc><c>Fe</c><c>   1</c></rc>
    <rc><c>Fe</c><c>   1</c></rc>
    <rc><c>Fe</c><c>   1</c></rc>
    <rc><c>Fe</c><c>   1</c></rc>
    <rc><c>Fe</c><c>   1</c></rc>
    <rc><c>Fe</c><c>   1</c></rc>
    <rc><c>Fe</c><c>   1</c></rc>
    <rc><c>Fe</c><c>   1</c></rc>
    <rc><c>Fe</c><c>   1</c></rc>
    <rc><c>Fe</c><c>   1</c></rc>
    <rc><c>Fe</c><c>   1</c></rc>
    <rc><c>Fe</c><c>   1</c></rc>
    <rc><c>Fe</c><c>   1</c></rc>
    <rc><c>Fe</c><c>   1</c></rc>
    <rc><c>Fe</c><c>   1</c></rc>
    <rc><c>Fe</c><c>   1</c></rc>
    <rc><c>Fe</c><c>   1</c></rc>
    <rc><c>Fe</c><c>   1</c></rc>
    <rc><c>Fe</c><c>   1</c></rc>
    <rc><c>Fe</c><c>   1</c></rc>
    <rc><c>Fe</c><c>   1</c></rc>
    <rc><c>Fe</c><c>   1</c></rc>
    <rc><c>Fe</c><c>   1</c></rc>
    <rc><c>Fe</c><c>   1</c></rc>
    <rc><c>Fe</c><c>   1</c></rc>
    <rc><c>Fe</c><c>   1</c></rc>
    <rc><c>Fe</c><c>   1</c></rc>
    <rc><c>Fe</c><c>   1</c></rc>
    <rc><c>Fe</c><c>   1</c></rc>
    <rc><c>Fe</c><c>   1</c></rc>
    <rc><c>Fe</c><c>   1</c></rc>
    <rc><c>Fe</c><c>   1</c></rc>
    <rc><c>Fe</c><c>   1</c></rc>
    <rc><c>Fe</c><c>   1</c></rc>
    <rc><c>Fe</c><c>   1</c></rc>
    <rc><c>Fe</c><c>   1</c></rc>
    <rc><c>Fe</c><c>   1</c></rc>
    <rc><c>Fe</c><c>   1</c></rc>
    <rc><c>Fe</c><c>   1</c></rc>
    <rc><c>Fe</c><c>   1</c></rc>
    <rc><c>Fe</c><c>   1</c></rc>
    <rc><c>Fe</c><c>   1</c></rc>
    <rc><c>Fe</c><c>   1</c></rc>
    <rc><c>Fe</c><c>   1</c></rc>
    <rc><c>Fe</c><c>   1</c></rc>
    <rc><c>Fe</c><c>   1</c></rc>
    <rc><c>Fe</c><c>   1</c></rc>
    <rc><c>Fe</c><c>   1</c></rc>
    <rc><c>Fe</c><c>   1</c></rc>
    <rc><c>Fe</c><c>   1</c></rc>
    <rc><c>Fe</c><c>   1</c></rc>
    <rc><c>Fe</c><c>   1</c></rc>
    <rc><c>Fe</c><c>   1</c></rc>
    <rc><c>Fe</c><c>   1</c></rc>
    <rc><c>Fe</c><c>   1</c></rc>
    <rc><c>Fe</c><c>   1</c></rc>
    <rc><c>Fe</c><c>   1</c></rc>
    <rc><c>Fe</c><c>   1</c></rc>
    <rc><c>Fe</c><c>   1</c></rc>
    <rc><c>Fe</c><c>   1</c></rc>
    <rc><c>Fe</c><c>   1</c></rc>
    <rc><c>Fe</c><c>   1</c></rc>
    <rc><c>Fe</c><c>   1</c></rc>
    <rc><c>Fe</c><c>   1</c></rc>
    <rc><c>Fe</c><c>   1</c></rc>
    <rc><c>Fe</c><c>   1</c></rc>
    <rc><c>Fe</c><c>   1</c></rc>
    <rc><c>Fe</c><c>   1</c></rc>
    <rc><c>Fe</c><c>   1</c></rc>
    <rc><c>Fe</c><c>   1</c></rc>
    <rc><c>Fe</c><c>   1</c></rc>
    <rc><c>Fe</c><c>   1</c></rc>
    <rc><c>Fe</c><c>   1</c></rc>
    <rc><c>Fe</c><c>   1</c></rc>
    <rc><c>Fe</c><c>   1</c></rc>
    <rc><c>Fe</c><c>   1</c></rc>
    <rc><c>Fe</c><c>   1</c></rc>
    <rc><c>Fe</c><c>   1</c></rc>
    <rc><c>Fe</c><c>   1</c></rc>
    <rc><c>Fe</c><c>   1</c></rc>
    <rc><c>Fe</c><c>   1</c></rc>
    <rc><c>Fe</c><c>   1</c></rc>
    <rc><c>Fe</c><c>   1</c></rc>
    <rc><c>Fe</c><c>   1</c></rc>
    <rc><c>Fe</c><c>   1</c></rc>
    <rc><c>Fe</c><c>   1</c></rc>
    <rc><c>Fe</c><c>   1</c></rc>
    <rc><c>Fe</c><c>   1</c></rc>
    <rc><c>Fe</c><c>   1</c></rc>
    <rc><c>Fe</c><c>   1</c></rc>
    <rc><c>Fe</c><c>   1</c></rc>
    <rc><c>Fe</c><c>   1</c></rc>
    <rc><c>Fe</c><c>   1</c></rc>
    <rc><c>Fe</c><c>   1</c></rc>
    <rc><c>Fe</c><c>   1</c></rc>
    <rc><c>Fe</c><c>   1</c></rc>
    <rc><c>Fe</c><c>   1</c></rc>
    <rc><c>Fe</c><c>   1</c></rc>
    <rc><c>Fe</c><c>   1</c></rc>
    <rc><c>Fe</c><c>   1</c></rc>
    <rc><c>Fe</c><c>   1</c></rc>
    <rc><c>Fe</c><c>   1</c></rc>
    <rc><c>Fe</c><c>   1</c></rc>
    <rc><c>Fe</c><c>   1</c></rc>
    <rc><c>Fe</c><c>   1</c></rc>
    <rc><c>Fe</c><c>   1</c></rc>
    <rc><c>Fe</c><c>   1</c></rc>
    <rc><c>Fe</c><c>   1</c></rc>
    <rc><c>Fe</c><c>   1</c></rc>
    <rc><c>Fe</c><c>   1</c></rc>
    <rc><c>Fe</c><c>   1</c></rc>
    <rc><c>Fe</c><c>   1</c></rc>
    <rc><c>Fe</c><c>   1</c></rc>
    <rc><c>Fe</c><c>   1</c></rc>
    <rc><c>Fe</c><c>   1</c></rc>
    <rc><c>Fe</c><c>   1</c></rc>
    <rc><c>Fe</c><c>   1</c></rc>
    <rc><c>Fe</c><c>   1</c></rc>
    <rc><c>Fe</c><c>   1</c></rc>
    <rc><c>Fe</c><c>   1</c></rc>
    <rc><c>Fe</c><c>   1</c></rc>
    <rc><c>Fe</c><c>   1</c></rc>
    <rc><c>Fe</c><c>   1</c></rc>
    <rc><c>Fe</c><c>   1</c></rc>
    <rc><c>Fe</c><c>   1</c></rc>
    <rc><c>Fe</c><c>   1</c></rc>
    <rc><c>Fe</c><c>   1</c></rc>
    <rc><c>Fe</c><c>   1</c></rc>
    <rc><c>Fe</c><c>   1</c></rc>
    <rc><c>Fe</c><c>   1</c></rc>
    <rc><c>Fe</c><c>   1</c></rc>
    <rc><c>Fe</c><c>   1</c></rc>
    <rc><c>Fe</c><c>   1</c></rc>
    <rc><c>Fe</c><c>   1</c></rc>
    <rc><c>Fe</c><c>   1</c></rc>
    <rc><c>Fe</c><c>   1</c></rc>
    <rc><c>Fe</c><c>   1</c></rc>
    <rc><c>Fe</c><c>   1</c></rc>
    <rc><c>Fe</c><c>   1</c></rc>
    <rc><c>Fe</c><c>   1</c></rc>
    <rc><c>Fe</c><c>   1</c></rc>
    <rc><c>Fe</c><c>   1</c></rc>
    <rc><c>Fe</c><c>   1</c></rc>
    <rc><c>Fe</c><c>   1</c></rc>
    <rc><c>Fe</c><c>   1</c></rc>
    <rc><c>Fe</c><c>   1</c></rc>
    <rc><c>Fe</c><c>   1</c></rc>
    <rc><c>Fe</c><c>   1</c></rc>
    <rc><c>Fe</c><c>   1</c></rc>
    <rc><c>Fe</c><c>   1</c></rc>
    <rc><c>Fe</c><c>   1</c></rc>
    <rc><c>Fe</c><c>   1</c></rc>
    <rc><c>Fe</c><c>   1</c></rc>
    <rc><c>Fe</c><c>   1</c></rc>
    <rc><c>Fe</c><c>   1</c></rc>
    <rc><c>Fe</c><c>   1</c></rc>
    <rc><c>Fe</c><c>   1</c></rc>
    <rc><c>Fe</c><c>   1</c></rc>
    <rc><c>Fe</c><c>   1</c></rc>
    <rc><c>Fe</c><c>   1</c></rc>
    <rc><c>Fe</c><c>   1</c></rc>
    <rc><c>Fe</c><c>   1</c></rc>
    <rc><c>Fe</c><c>   1</c></rc>
    <rc><c>Fe</c><c>   1</c></rc>
    <rc><c>Fe</c><c>   1</c></rc>
    <rc><c>Fe</c><c>   1</c></rc>
    <rc><c>Fe</c><c>   1</c></rc>
    <rc><c>Fe</c><c>   1</c></rc>
    <rc><c>Fe</c><c>   1</c></rc>
    <rc><c>Fe</c><c>   1</c></rc>
    <rc><c>Fe</c><c>   1</c></rc>
    <rc><c>Fe</c><c>   1</c></rc>
    <rc><c>Fe</c><c>   1</c></rc>
    <rc><c>Fe</c><c>   1</c></rc>
    <rc><c>Fe</c><c>   1</c></rc>
    <rc><c>Fe</c><c>   1</c></rc>
    <rc><c>Fe</c><c>   1</c></rc>
    <rc><c>Fe</c><c>   1</c></rc>
    <rc><c>Fe</c><c>   1</c></rc>
    <rc><c>Fe</c><c>   1</c></rc>
    <rc><c>Fe</c><c>   1</c></rc>
    <rc><c>Fe</c><c>   1</c></rc>
    <rc><c>Fe</c><c>   1</c></rc>
    <rc><c>Fe</c><c>   1</c></rc>
    <rc><c>Fe</c><c>   1</c></rc>
    <rc><c>Fe</c><c>   1</c></rc>
    <rc><c>Fe</c><c>   1</c></rc>
    <rc><c>Fe</c><c>   1</c></rc>
    <rc><c>Fe</c><c>   1</c></rc>
    <rc><c>Fe</c><c>   1</c></rc>
    <rc><c>Fe</c><c>   1</c></rc>
    <rc><c>Fe</c><c>   1</c></rc>
    <rc><c>Fe</c><c>   1</c></rc>
    <rc><c>Fe</c><c>   1</c></rc>
    <rc><c>Fe</c><c>   1</c></rc>
    <rc><c>Fe</c><c>   1</c></rc>
    <rc><c>Fe</c><c>   1</c></rc>
    <rc><c>Fe</c><c>   1</c></rc>
    <rc><c>Fe</c><c>   1</c></rc>
    <rc><c>Fe</c><c>   1</c></rc>
    <rc><c>Fe</c><c>   1</c></rc>
    <rc><c>Fe</c><c>   1</c></rc>
    <rc><c>Fe</c><c>   1</c></rc>
    <rc><c>Fe</c><c>   1</c></rc>
    <rc><c>Fe</c><c>   1</c></rc>
    <rc><c>Fe</c><c>   1</c></rc>
    <rc><c>Fe</c><c>   1</c></rc>
    <rc><c>Fe</c><c>   1</c></rc>
    <rc><c>Fe</c><c>   1</c></rc>
    <rc><c>Fe</c><c>   1</c></rc>
    <rc><c>Fe</c><c>   1</c></rc>
    <rc><c>Fe</c><c>   1</c></rc>
    <rc><c>Fe</c><c>   1</c></rc>
    <rc><c>Fe</c><c>   1</c></rc>
    <rc><c>Fe</c><c>   1</c></rc>
    <rc><c>Fe</c><c>   1</c></rc>
    <rc><c>Fe</c><c>   1</c></rc>
    <rc><c>Fe</c><c>   1</c></rc>
    <rc><c>Fe</c><c>   1</c></rc>
    <rc><c>Fe</c><c>   1</c></rc>
    <rc><c>Fe</c><c>   1</c></rc>
    <rc><c>Fe</c><c>   1</c></rc>
    <rc><c>Fe</c><c>   1</c></rc>
    <rc><c>Fe</c><c>   1</c></rc>
    <rc><c>Fe</c><c>   1</c></rc>
    <rc><c>Fe</c><c>   1</c></rc>
    <rc><c>Fe</c><c>   1</c></rc>
    <rc><c>Fe</c><c>   1</c></rc>
    <rc><c>Fe</c><c>   1</c></rc>
    <rc><c>Fe</c><c>   1</c></rc>
    <rc><c>Fe</c><c>   1</c></rc>
    <rc><c>Fe</c><c>   1</c></rc>
    <rc><c>Fe</c><c>   1</c></rc>
    <rc><c>Fe</c><c>   1</c></rc>
    <rc><c>Fe</c><c>   1</c></rc>
    <rc><c>Fe</c><c>   1</c></rc>
    <rc><c>Fe</c><c>   1</c></rc>
    <rc><c>Fe</c><c>   1</c></rc>
    <rc><c>Fe</c><c>   1</c></rc>
    <rc><c>Fe</c><c>   1</c></rc>
    <rc><c>Fe</c><c>   1</c></rc>
    <rc><c>Fe</c><c>   1</c></rc>
    <rc><c>Fe</c><c>   1</c></rc>
    <rc><c>Fe</c><c>   1</c></rc>
    <rc><c>Fe</c><c>   1</c></rc>
    <rc><c>Mn</c><c>   2</c></rc>
    <rc><c>Mn</c><c>   2</c></rc>
    <rc><c>Mn</c><c>   2</c></rc>
    <rc><c>Mn</c><c>   2</c></rc>
    <rc><c>Mn</c><c>   2</c></rc>
    <rc><c>Mn</c><c>   2</c></rc>
    <rc><c>Mn</c><c>   2</c></rc>
   </set>
  </array>
  <array name="atomtypes" >
   <dimension dim="1">type</dimension>
   <field type="int">atomspertype</field>
   <field type="string">element</field>
   <field>mass</field>
   <field>valence</field>
   <field type="string">pseudopotential</field>
   <set>
    <rc><c> 281</c><c>Fe</c><c>     55.84700000</c><c>      8.00000000</c><c>  PAW_PBE Fe_GW 31Mar2010               </c></rc>
    <rc><c>   7</c><c>Mn</c><c>     54.93800000</c><c>      7.00000000</c><c>  PAW_PBE Mn_GW 31Mar2010               </c></rc>
   </set>
  </array>
 </atominfo>
 <structure name="initialpos" >
  <crystal>
   <varray name="basis" >
    <v>       9.72667804       0.00000000       0.00000000 </v>
    <v>       0.00000000       8.42355028       0.00000000 </v>
    <v>       0.00000000       0.00000000      45.00000000 </v>
   </varray>
   <i name="volume">   3686.99226691 </i>
   <varray name="rec_basis" >
    <v>       0.10281002       0.00000000       0.00000000 </v>
    <v>       0.00000000       0.11871479       0.00000000 </v>
    <v>       0.00000000       0.00000000       0.02222222 </v>
   </varray>
  </crystal>
  <varray name="positions" >
   <v>       0.05438891       0.70067636       0.21135721 </v>
   <v>       0.31842339       0.72364663       0.87626175 </v>
   <v>       0.68820268       0.95846518       0.61148426 </v>
   <v>       0.43822103       0.45841819       0.61159486 </v>
   <v>       0.44052998       0.28738652       0.25519672 </v>
   <v>       0.05846086       0.38860434       0.83354973 </v>
   <v>       0.30853624       0.88760309       0.83351517 </v>
   <v>       0.44690816       0.62628512       0.70040061 </v>
   <v>       0.05979947       0.21271269       0.74492084 </v>
   <v>       0.17853907       0.45112510       0.21136812 </v>
   <v>       0.56776571       0.21056927       0.47740727 </v>
   <v>       0.06661796       0.87492370       0.56688432 </v>
   <v>       0.56815418       0.22394160       0.87610781 </v>
   <v>       0.81007934       0.52824065       0.12390593 </v>
   <v>       0.42895223       0.95137142       0.21139176 </v>
   <v>       0.56671326       0.37498410       0.56679519 </v>
   <v>       0.81103698       0.04169655       0.38830751 </v>
   <v>       0.68244526       0.78851343       0.52229530 </v>
   <v>       0.44282823       0.46067268       0.47744821 </v>
   <v>       0.43373854       0.96264555       0.74474558 </v>
   <v>       0.44139338       0.62513383       0.56684997 </v>
   <v>       0.57142509       0.87647364       0.70054965 </v>
   <v>       0.31011652       0.02651188       0.12394289 </v>
   <v>       0.68967538       0.95893347       0.34394116 </v>
   <v>       0.68750245       0.78229252       0.12423530 </v>
   <v>       0.05285634       0.37366667       0.29959775 </v>
   <v>       0.68979444       0.46786125       0.87608683 </v>
   <v>       0.42878907       0.45102805       0.21149929 </v>
   <v>       0.80871263       0.37504139       0.43309427 </v>
   <v>       0.56344525       0.70836665       0.61156872 </v>
   <v>       0.55965608       0.54061881       0.65587383 </v>
   <v>       0.81787343       0.86157591       0.16659454 </v>
   <v>       0.56570655       0.53753611       0.25520376 </v>
   <v>       0.68996219       0.45873596       0.34408852 </v>
   <v>       0.19141296       0.61186293       0.16632228 </v>
   <v>       0.19454982       0.79939205       0.78883847 </v>
   <v>       0.44718070       0.12595755       0.70041834 </v>
   <v>       0.92766383       0.62364864       0.29969929 </v>
   <v>       0.31754435       0.22363890       0.87612912 </v>
   <v>       0.31669183       0.87492499       0.56687670 </v>
   <v>       0.81742548       0.22388591       0.87619844 </v>
   <v>       0.80964569       0.54059825       0.65583719 </v>
   <v>       0.55940333       0.52796379       0.12397818 </v>
   <v>       0.56937716       0.04968430       0.78896741 </v>
   <v>       0.19097120       0.28747366       0.25523275 </v>
   <v>       0.80861449       0.87507625       0.43309843 </v>
   <v>       0.57216237       0.37634733       0.70038469 </v>
   <v>       0.05865460       0.02854501       0.12416208 </v>
   <v>       0.30965001       0.54067932       0.65589202 </v>
   <v>       0.56491631       0.20889841       0.34401353 </v>
   <v>       0.18809284       0.95839901       0.61149573 </v>
   <v>       0.30296104       0.37384385       0.29956172 </v>
   <v>       0.43461617       0.79047556       0.65596119 </v>
   <v>       0.19492518       0.29913250       0.78881717 </v>
   <v>       0.06696194       0.36276152       0.16655578 </v>
   <v>       0.69707478       0.62612866       0.70045395 </v>
   <v>       0.31119238       0.54139009       0.38843163 </v>
   <v>       0.06750603       0.72335038       0.87618116 </v>
   <v>       0.93370845       0.63756536       0.83391842 </v>
   <v>       0.31964264       0.54964582       0.78890948 </v>
   <v>       0.30463231       0.20039509       0.21118508 </v>
   <v>       0.06780156       0.71054197       0.47742569 </v>
   <v>       0.55360456       0.20114499       0.21121657 </v>
   <v>       0.30968553       0.21241451       0.74494258 </v>
   <v>       0.07197213       0.37641774       0.70053463 </v>
   <v>       0.18323418       0.63766943       0.83356484 </v>
   <v>       0.06959561       0.04956063       0.78900270 </v>
   <v>       0.44161185       0.12490052       0.56690161 </v>
   <v>       0.93476539       0.29073691       0.65582346 </v>
   <v>       0.80412622       0.20121181       0.21116958 </v>
   <v>       0.92903292       0.95132158       0.21125923 </v>
   <v>       0.94178574       0.62508834       0.56677167 </v>
   <v>       0.80838819       0.38762839       0.83353548 </v>
   <v>       0.19706623       0.62623003       0.70033552 </v>
   <v>       0.80858572       0.88774538       0.83356935 </v>
   <v>       0.68495491       0.29074284       0.65604302 </v>
   <v>       0.31319734       0.20826260       0.61149255 </v>
   <v>       0.43459534       0.46266123       0.74487875 </v>
   <v>       0.43622005       0.79110191       0.38843421 </v>
   <v>       0.68449875       0.96257557       0.74485780 </v>
   <v>       0.80296295       0.70079356       0.21141096 </v>
   <v>       0.81339132       0.70837497       0.61157222 </v>
   <v>       0.43725767       0.78402870       0.12396589 </v>
   <v>       0.30973966       0.71209210       0.74480680 </v>
   <v>       0.32011415       0.04944276       0.78886102 </v>
   <v>       0.81136306       0.54179156       0.38840921 </v>
   <v>       0.68202070       0.28894214       0.52241378 </v>
   <v>       0.69496940       0.79927141       0.78890275 </v>
   <v>       0.19063957       0.78757597       0.25525363 </v>
   <v>       0.69131648       0.11254441       0.16662188 </v>
   <v>       0.69284856       0.96075133       0.47745686 </v>
   <v>       0.94015111       0.95883685       0.34416082 </v>
   <v>       0.80741222       0.03935437       0.52248476 </v>
   <v>       0.68360085       0.62492448       0.43293714 </v>
   <v>       0.43985915       0.45881025       0.34401322 </v>
   <v>       0.81056190       0.21159766       0.74459176 </v>
   <v>       0.43961954       0.96793271       0.87609190 </v>
   <v>       0.56637560       0.87488882       0.56686615 </v>
   <v>       0.80854427       0.02901411       0.12402277 </v>
   <v>       0.42806489       0.62341813       0.29938999 </v>
   <v>       0.81710352       0.72381517       0.87630753 </v>
   <v>       0.68828610       0.45865855       0.61152634 </v>
   <v>       0.55832656       0.38749113       0.83347213 </v>
   <v>       0.80312847       0.37344378       0.29945600 </v>
   <v>       0.18600360       0.29111128       0.38840741 </v>
   <v>       0.81985748       0.54957023       0.78892496 </v>
   <v>       0.18220187       0.78923313       0.52250607 </v>
   <v>       0.30291681       0.87378419       0.29961911 </v>
   <v>       0.17854576       0.95104199       0.21128078 </v>
   <v>       0.18445802       0.46257303       0.74496555 </v>
   <v>       0.43228685       0.28910324       0.52243504 </v>
   <v>       0.06493002       0.70844907       0.34395809 </v>
   <v>       0.18483015       0.79065121       0.65586981 </v>
   <v>       0.44456535       0.79924295       0.78885598 </v>
   <v>       0.68361046       0.12503436       0.43305073 </v>
   <v>       0.93193130       0.78890287       0.52248804 </v>
   <v>       0.69178049       0.61267814       0.16668611 </v>
   <v>       0.81456061       0.70856054       0.34389956 </v>
   <v>       0.93418272       0.46263832       0.74492127 </v>
   <v>       0.18988144       0.45857700       0.34402306 </v>
   <v>       0.56980322       0.54977030       0.78903563 </v>
   <v>       0.56635905       0.36261731       0.16645263 </v>
   <v>       0.56458632       0.70843935       0.34399413 </v>
   <v>       0.55298332       0.37352562       0.29957574 </v>
   <v>       0.18968376       0.46806999       0.87609414 </v>
   <v>       0.19173987       0.11146574       0.16635677 </v>
   <v>       0.44458716       0.29905957       0.78883383 </v>
   <v>       0.69075353       0.78731570       0.25545788 </v>
   <v>       0.93359685       0.13786011       0.83354101 </v>
   <v>       0.44287208       0.96065055       0.47745060 </v>
   <v>       0.56744220       0.72465507       0.87621760 </v>
   <v>       0.19281253       0.46075777       0.47746277 </v>
   <v>       0.93457687       0.28247051       0.12417187 </v>
   <v>       0.31153473       0.04134542       0.38842734 </v>
   <v>       0.06006295       0.04042630       0.65603795 </v>
   <v>       0.55851713       0.37483644       0.43304803 </v>
   <v>       0.68412135       0.46277136       0.74498339 </v>
   <v>       0.56004214       0.21266454       0.74484741 </v>
   <v>       0.94715227       0.12623260       0.70035433 </v>
   <v>       0.55970460       0.04078949       0.65585885 </v>
   <v>       0.55690145       0.53902191       0.52246001 </v>
   <v>       0.17775994       0.12367367       0.29954737 </v>
   <v>       0.44141186       0.11058645       0.16648785 </v>
   <v>       0.67782076       0.62346184       0.29962723 </v>
   <v>       0.92803744       0.12358153       0.29957404 </v>
   <v>       0.81671433       0.37515312       0.56685207 </v>
   <v>       0.05267435       0.87386463       0.29958780 </v>
   <v>       0.19156708       0.62491923       0.56687931 </v>
   <v>       0.94467957       0.79956212       0.78883680 </v>
   <v>       0.30841193       0.38742058       0.83351632 </v>
   <v>       0.93974871       0.46835284       0.87610500 </v>
   <v>       0.43368251       0.63780442       0.83351469 </v>
   <v>       0.06455902       0.20856724       0.34387449 </v>
   <v>       0.18976494       0.96806775       0.87609750 </v>
   <v>       0.93551717       0.78158732       0.12422528 </v>
   <v>       0.68631521       0.79166321       0.38839705 </v>
   <v>       0.93474296       0.79064018       0.65591114 </v>
   <v>       0.94134013       0.11226892       0.16646202 </v>
   <v>       0.43510457       0.29072163       0.65608087 </v>
   <v>       0.05415553       0.20079723       0.21127265 </v>
   <v>       0.67871645       0.95138723       0.21129657 </v>
   <v>       0.17828843       0.62377261       0.29952439 </v>
   <v>       0.82203585       0.87610320       0.70041280 </v>
   <v>       0.94682648       0.62641407       0.70050791 </v>
   <v>       0.19707300       0.12623374       0.70034427 </v>
   <v>       0.94266314       0.46055401       0.47729511 </v>
   <v>       0.81333321       0.20848531       0.61153555 </v>
   <v>       0.18352632       0.62460964       0.43308015 </v>
   <v>       0.42778500       0.12377513       0.29951116 </v>
   <v>       0.67799184       0.12367265       0.29942030 </v>
   <v>       0.56173674       0.54157690       0.38844394 </v>
   <v>       0.81443383       0.20794533       0.34400030 </v>
   <v>       0.43963000       0.46780032       0.87594733 </v>
   <v>       0.55840256       0.88754186       0.83350525 </v>
   <v>       0.31783529       0.21057952       0.47732376 </v>
   <v>       0.19265396       0.96079114       0.47737319 </v>
   <v>       0.05848972       0.88770950       0.83345549 </v>
   <v>       0.05729946       0.53919839       0.52247938 </v>
   <v>       0.94291380       0.96075957       0.47735960 </v>
   <v>       0.06329454       0.70834219       0.61159161 </v>
   <v>       0.55697054       0.03905480       0.52243623 </v>
   <v>       0.69503208       0.29915460       0.78876944 </v>
   <v>       0.81798101       0.36272768       0.16665097 </v>
   <v>       0.43368376       0.12476597       0.43292508 </v>
   <v>       0.06788925       0.21074361       0.47744817 </v>
   <v>       0.30994433       0.04079631       0.65594903 </v>
   <v>       0.43214640       0.78890117       0.52228462 </v>
   <v>       0.18363362       0.13781395       0.83360433 </v>
   <v>       0.18602765       0.28268316       0.12433259 </v>
   <v>       0.93996236       0.45930350       0.34403063 </v>
   <v>       0.56752134       0.86326171       0.16652904 </v>
   <v>       0.30344129       0.70083036       0.21126487 </v>
   <v>       0.93371877       0.62494895       0.43299839 </v>
   <v>       0.18825975       0.45861818       0.61153653 </v>
   <v>       0.07212818       0.87640329       0.70032910 </v>
   <v>       0.05967793       0.54057345       0.65589437 </v>
   <v>       0.31026342       0.52747162       0.12399986 </v>
   <v>       0.93669034       0.79145681       0.38842710 </v>
   <v>       0.94499854       0.29878815       0.78875063 </v>
   <v>       0.18459552       0.29054858       0.65590023 </v>
   <v>       0.93800888       0.95823027       0.61142031 </v>
   <v>       0.80997810       0.71205655       0.74482741 </v>
   <v>       0.69109514       0.28760906       0.25524171 </v>
   <v>       0.05923759       0.71220265       0.74498367 </v>
   <v>       0.67888144       0.45148489       0.21132195 </v>
   <v>       0.81766607       0.21064630       0.47734059 </v>
   <v>       0.56781836       0.71064669       0.47747303 </v>
   <v>       0.06723062       0.86222655       0.16654289 </v>
   <v>       0.93230596       0.28870232       0.52231903 </v>
   <v>       0.68466939       0.79041626       0.65587622 </v>
   <v>       0.05835580       0.87498313       0.43297711 </v>
   <v>       0.06812281       0.22311367       0.87616455 </v>
   <v>       0.80977251       0.04060784       0.65592599 </v>
   <v>       0.55870141       0.02659668       0.12392122 </v>
   <v>       0.30863654       0.37511294       0.43294730 </v>
   <v>       0.31654148       0.37474371       0.56682341 </v>
   <v>       0.31782376       0.71054429       0.47739103 </v>
   <v>       0.05683784       0.03916964       0.52244748 </v>
   <v>       0.32200007       0.87630344       0.70049206 </v>
   <v>       0.06531500       0.53763554       0.25514575 </v>
   <v>       0.68335046       0.13763082       0.83352256 </v>
   <v>       0.81504366       0.03744170       0.25520729 </v>
   <v>       0.18333769       0.12499722       0.43309315 </v>
   <v>       0.69739763       0.12626867       0.70041481 </v>
   <v>       0.18239004       0.28919505       0.52250776 </v>
   <v>       0.44048988       0.78761895       0.25526649 </v>
   <v>       0.44159785       0.61019783       0.16645906 </v>
   <v>       0.06329756       0.20848563       0.61151013 </v>
   <v>       0.18616313       0.79117298       0.38836087 </v>
   <v>       0.30689313       0.53894552       0.52244149 </v>
   <v>       0.82188822       0.37634199       0.70027676 </v>
   <v>       0.68624895       0.29101095       0.38841831 </v>
   <v>       0.19178461       0.12498794       0.56692693 </v>
   <v>       0.68980907       0.96838689       0.87607670 </v>
   <v>       0.69161782       0.12500670       0.56689362 </v>
   <v>       0.43990521       0.95868226       0.34401512 </v>
   <v>       0.18375543       0.96260728       0.74474948 </v>
   <v>       0.94059130       0.78733736       0.25515685 </v>
   <v>       0.55862154       0.87476746       0.43301405 </v>
   <v>       0.30858777       0.87494251       0.43305791 </v>
   <v>       0.80705012       0.53923288       0.52252820 </v>
   <v>       0.92908559       0.45118843       0.21142738 </v>
   <v>       0.31550339       0.53780289       0.25519367 </v>
   <v>       0.56126170       0.04139989       0.38843037 </v>
   <v>       0.93814880       0.45827672       0.61160213 </v>
   <v>       0.06161901       0.04141481       0.38842864 </v>
   <v>       0.06153077       0.54145699       0.38840185 </v>
   <v>       0.43609140       0.29116294       0.38838011 </v>
   <v>       0.69258414       0.46058929       0.47736892 </v>
   <v>       0.06662581       0.37503598       0.56688266 </v>
   <v>       0.55413639       0.70086648       0.21115113 </v>
   <v>       0.94087450       0.28743687       0.25542420 </v>
   <v>       0.81921067       0.04961882       0.78906239 </v>
   <v>       0.18989552       0.95886893       0.34401336 </v>
   <v>       0.55259647       0.87377622       0.29963582 </v>
   <v>       0.05807831       0.37449380       0.43298895 </v>
   <v>       0.31479925       0.70880421       0.34400280 </v>
   <v>       0.31471868       0.20860230       0.34394391 </v>
   <v>       0.94144970       0.12501050       0.56685245 </v>
   <v>       0.43853720       0.95866724       0.61152028 </v>
   <v>       0.56553371       0.03755698       0.25518066 </v>
   <v>       0.18629819       0.78304858       0.12427130 </v>
   <v>       0.06588134       0.03756861       0.25527682 </v>
   <v>       0.69163047       0.62498052       0.56689432 </v>
   <v>       0.05692401       0.52772030       0.12405607 </v>
   <v>       0.30725935       0.03850682       0.52226559 </v>
   <v>       0.68729489       0.28168102       0.12419327 </v>
   <v>       0.81790484       0.71077221       0.47747355 </v>
   <v>       0.43342237       0.13769561       0.83352861 </v>
   <v>       0.32234400       0.37643410       0.70038599 </v>
   <v>       0.68359687       0.63762295       0.83350494 </v>
   <v>       0.55988875       0.71204247       0.74486483 </v>
   <v>       0.93634590       0.29113295       0.38844037 </v>
   <v>       0.93974548       0.96842060       0.87613690 </v>
   <v>       0.56287365       0.20804966       0.61132160 </v>
   <v>       0.81668196       0.87504387       0.56689259 </v>
   <v>       0.80307272       0.87345561       0.29948627 </v>
   <v>       0.31529789       0.03787395       0.25525212 </v>
   <v>       0.43674967       0.28332577       0.12400890 </v>
   <v>       0.31328372       0.70854089       0.61154803 </v>
   <v>       0.43358354       0.62480578       0.43306179 </v>
   <v>       0.94182732       0.61160236       0.16587492 </v>
   <v>       0.31848386       0.86311990       0.16583496 </v>
   <v>       0.07073792       0.54954274       0.78878518 </v>
   <v>       0.93317120       0.12474408       0.43313193 </v>
   <v>       0.31860543       0.36344469       0.16577202 </v>
   <v>       0.93326045       0.96223710       0.74468150 </v>
   <v>       0.81604527       0.53792549       0.25547191 </v>
  </varray>
 </structure>
 <calculation>
  <scstep>
   <time name="dav">   54.65   54.66</time>
   <time name="total">   54.80   54.86</time>
   <energy>
    <i name="alphaZ">  16403.00255340 </i>
    <i name="ewald"> 718692.48010216 </i>
    <i name="hartreedc">-910361.57473042 </i>
    <i name="XCdc">  -6389.70421730 </i>
    <i name="pawpsdc"> 163151.95320885 </i>
    <i name="pawaedc">-160818.84594568 </i>
    <i name="eentropy">     -1.05295378 </i>
    <i name="bandstr">  38622.37901367 </i>
    <i name="atom"> 169914.59583762 </i>
    <i name="e_fr_energy">  29213.23286852 </i>
    <i name="e_wo_entrp">  29214.28582230 </i>
    <i name="e_0_energy">  29213.75934541 </i>
   </energy>
  </scstep>
  <scstep>
   <time name="dav">   54.05   54.08</time>
   <time name="total">   54.06   54.09</time>
   <energy>
    <i name="e_fr_energy">   1192.33129430 </i>
    <i name="e_wo_entrp">   1193.80334338 </i>
    <i name="e_0_energy">   1193.06731884 </i>
   </energy>
  </scstep>
  <scstep>
   <time name="dav">   71.13   71.18</time>
   <time name="total">   71.14   71.19</time>
   <energy>
    <i name="e_fr_energy">  -1939.85544232 </i>
    <i name="e_wo_entrp">  -1936.28298227 </i>
    <i name="e_0_energy">  -1938.06921229 </i>
   </energy>
  </scstep>
  <scstep>
   <time name="dav">   89.15   89.19</time>
   <time name="total">   89.15   89.19</time>
   <energy>
    <i name="e_fr_energy">  -2606.79988974 </i>
    <i name="e_wo_entrp">  -2603.18663547 </i>
    <i name="e_0_energy">  -2604.99326261 </i>
   </energy>
  </scstep>
  <scstep>
   <time name="dav">   84.91   84.95</time>
   <time name="total">   86.94   86.98</time>
   <energy>
    <i name="e_fr_energy">  -2726.91284223 </i>
    <i name="e_wo_entrp">  -2723.12630872 </i>
    <i name="e_0_energy">  -2725.01957548 </i>
   </energy>
  </scstep>
  <scstep>
   <time name="diag">    8.32    8.32</time>
   <time name="diis">   37.45   37.46</time>
   <time name="orth">    2.30    2.31</time>
   <time name="total">   50.27   50.32</time>
   <energy>
    <i name="e_fr_energy">  -5178.23976843 </i>
    <i name="e_wo_entrp">  -5174.49814956 </i>
    <i name="e_0_energy">  -5176.36895899 </i>
   </energy>
  </scstep>
  <scstep>
   <time name="diag">    8.30    8.30</time>
   <time name="diis">   24.97   24.97</time>
   <time name="orth">    2.32    2.32</time>
   <time name="total">   37.71   37.76</time>
[...]
       <r>     5.8413     0.0000  2772.0000 </r>
       <r>     5.8840     0.0000  2772.0000 </r>
       <r>     5.9267     0.0000  2772.0000 </r>
       <r>     5.9693     0.0000  2772.0000 </r>
       <r>     6.0120     0.0000  2772.0000 </r>
       <r>     6.0546     0.0000  2772.0000 </r>
       <r>     6.0973     0.0000  2772.0000 </r>
       <r>     6.1399     0.0000  2772.0000 </r>
       <r>     6.1826     0.0000  2772.0000 </r>
       <r>     6.2252     0.0000  2772.0000 </r>
       <r>     6.2679     0.0000  2772.0000 </r>
       <r>     6.3106     0.0000  2772.0000 </r>
       <r>     6.3532     0.0000  2772.0000 </r>
       <r>     6.3959     0.0000  2772.0000 </r>
       <r>     6.4385     0.0000  2772.0000 </r>
       <r>     6.4812     0.0000  2772.0000 </r>
       <r>     6.5238     0.0000  2772.0000 </r>
       <r>     6.5665     0.0000  2772.0000 </r>
       <r>     6.6091     0.0000  2772.0000 </r>
       <r>     6.6518     0.0000  2772.0000 </r>
       <r>     6.6945     0.0000  2772.0000 </r>
       <r>     6.7371     0.0000  2772.0000 </r>
       <r>     6.7798     0.0000  2772.0000 </r>
      </set>
     </set>
    </array>
   </total>
  </dos>
 </calculation>
 <structure name="finalpos" >
  <crystal>
   <varray name="basis" >
    <v>       9.72667804       0.00000000       0.00000000 </v>
    <v>       0.00000000       8.42355028       0.00000000 </v>
    <v>       0.00000000       0.00000000      45.00000000 </v>
   </varray>
   <i name="volume">   3686.99226691 </i>
   <varray name="rec_basis" >
    <v>       0.10281002       0.00000000       0.00000000 </v>
    <v>       0.00000000       0.11871479       0.00000000 </v>
    <v>       0.00000000       0.00000000       0.02222222 </v>
   </varray>
  </crystal>
  <varray name="positions" >
   <v>       0.05814416       0.70135695       0.21104961 </v>
   <v>       0.31593765       0.72037636       0.87573072 </v>
   <v>       0.68826300       0.95799519       0.61142331 </v>
   <v>       0.43835711       0.45793974       0.61145130 </v>
   <v>       0.43650459       0.28678838       0.25557044 </v>
   <v>       0.06098695       0.38658292       0.83417085 </v>
   <v>       0.31129011       0.88667570       0.83425767 </v>
   <v>       0.44218920       0.62655641       0.70038966 </v>
   <v>       0.06381468       0.21325371       0.74448298 </v>
   <v>       0.18243960       0.45127475       0.21123552 </v>
   <v>       0.56365450       0.20910543       0.47788327 </v>
   <v>       0.06410561       0.87488104       0.56683996 </v>
   <v>       0.56560496       0.21969295       0.87570060 </v>
   <v>       0.81091522       0.53056152       0.12435594 </v>
   <v>       0.43324734       0.95121188       0.21116137 </v>
   <v>       0.56413005       0.37468117       0.56676170 </v>
   <v>       0.81175328       0.04186810       0.38840496 </v>
   <v>       0.68608240       0.79104316       0.52210118 </v>
   <v>       0.43861111       0.45887432       0.47785149 </v>
   <v>       0.43813407       0.96280847       0.74449271 </v>
   <v>       0.43916944       0.62464235       0.56682163 </v>
   <v>       0.56734439       0.87634267       0.70032573 </v>
   <v>       0.31063988       0.03130381       0.12416351 </v>
   <v>       0.68650822       0.95771827       0.34401049 </v>
   <v>       0.68822699       0.77995214       0.12467197 </v>
   <v>       0.05777104       0.37339795       0.29970631 </v>
   <v>       0.68887904       0.47147029       0.87545803 </v>
   <v>       0.43308649       0.45168314       0.21111627 </v>
   <v>       0.81089229       0.37551727       0.43298830 </v>
   <v>       0.56321876       0.70801392       0.61147161 </v>
   <v>       0.56299577       0.54134006       0.65577848 </v>
   <v>       0.81394069       0.86340482       0.16616055 </v>
   <v>       0.56072978       0.53706779       0.25550890 </v>
   <v>       0.68671144       0.45805176       0.34423486 </v>
   <v>       0.18899182       0.61341317       0.16617540 </v>
   <v>       0.19169390       0.79936575       0.78872981 </v>
   <v>       0.44241346       0.12659334       0.70042351 </v>
   <v>       0.93313247       0.62330665       0.29974130 </v>
   <v>       0.31522580       0.21984501       0.87569761 </v>
   <v>       0.31396669       0.87470945       0.56677786 </v>
   <v>       0.81530720       0.21986270       0.87568160 </v>
   <v>       0.81290438       0.54177978       0.65576612 </v>
   <v>       0.55983560       0.53006176       0.12448905 </v>
   <v>       0.56675261       0.04957925       0.78893956 </v>
   <v>       0.18638098       0.28684323       0.25542021 </v>
   <v>       0.81092677       0.87488586       0.43306004 </v>
   <v>       0.56708188       0.37646514       0.70046711 </v>
   <v>       0.06175887       0.02991122       0.12452641 </v>
   <v>       0.31303525       0.54120470       0.65578620 </v>
   <v>       0.56167354       0.20817766       0.34417602 </v>
   <v>       0.18841695       0.95799337       0.61141958 </v>
   <v>       0.30776731       0.37361178       0.29963470 </v>
   <v>       0.43805722       0.79162596       0.65579426 </v>
   <v>       0.19158991       0.29832898       0.78887073 </v>
   <v>       0.06332851       0.36320418       0.16610632 </v>
   <v>       0.69188566       0.62671541       0.70035384 </v>
   <v>       0.31169309       0.54168295       0.38845425 </v>
   <v>       0.06535553       0.71987846       0.87585088 </v>
   <v>       0.93634287       0.63681023       0.83428122 </v>
   <v>       0.31734855       0.54978758       0.78895037 </v>
   <v>       0.30727683       0.20023744       0.21113984 </v>
   <v>       0.06377170       0.70883825       0.47785461 </v>
   <v>       0.55768433       0.20087235       0.21114105 </v>
   <v>       0.31381024       0.21343274       0.74439096 </v>
   <v>       0.06715446       0.37690925       0.70036732 </v>
   <v>       0.18634686       0.63673583       0.83407046 </v>
   <v>       0.06670318       0.04925681       0.78892466 </v>
   <v>       0.43895529       0.12464487       0.56681086 </v>
   <v>       0.93823195       0.29169541       0.65570206 </v>
   <v>       0.80747054       0.20137658       0.21106668 </v>
   <v>       0.93273726       0.95119597       0.21124916 </v>
   <v>       0.93883234       0.62487408       0.56677679 </v>
   <v>       0.81091095       0.38660253       0.83421129 </v>
   <v>       0.19201774       0.62656857       0.70036242 </v>
   <v>       0.81116992       0.88655250       0.83427923 </v>
   <v>       0.68802671       0.29131470       0.65578399 </v>
   <v>       0.31338259       0.20805135       0.61149529 </v>
   <v>       0.43826373       0.46270276       0.74438822 </v>
   <v>       0.43668391       0.79161984       0.38841600 </v>
   <v>       0.68767200       0.96275177       0.74449593 </v>
   <v>       0.80709917       0.70189050       0.21126757 </v>
   <v>       0.81309734       0.70799699       0.61139845 </v>
   <v>       0.43727470       0.77913266       0.12439183 </v>
   <v>       0.31320993       0.71303000       0.74439183 </v>
   <v>       0.31706409       0.04952072       0.78897264 </v>
   <v>       0.81149632       0.54183378       0.38847307 </v>
   <v>       0.68616474       0.29100995       0.52212565 </v>
   <v>       0.69184368       0.79941818       0.78889489 </v>
   <v>       0.18631365       0.78792599       0.25552825 </v>
   <v>       0.68847131       0.11370780       0.16615203 </v>
   <v>       0.68885349       0.95894870       0.47788936 </v>
   <v>       0.93674027       0.95794068       0.34420219 </v>
   <v>       0.81104545       0.04059253       0.52209766 </v>
   <v>       0.68543586       0.62496530       0.43307236 </v>
   <v>       0.43680210       0.45826920       0.34416228 </v>
   <v>       0.81324112       0.21344123       0.74450419 </v>
   <v>       0.43900450       0.97157910       0.87550662 </v>
   <v>       0.56420843       0.87448102       0.56677639 </v>
   <v>       0.81032345       0.03025539       0.12457049 </v>
   <v>       0.43249578       0.62341089       0.29973697 </v>
   <v>       0.81512621       0.72033815       0.87583992 </v>
   <v>       0.68809990       0.45774585       0.61137799 </v>
   <v>       0.56120872       0.38693790       0.83409111 </v>
   <v>       0.80754721       0.37296596       0.29975192 </v>
   <v>       0.18627602       0.29167936       0.38840644 </v>
   <v>       0.81641612       0.54947378       0.78906616 </v>
   <v>       0.18617359       0.79070425       0.52206571 </v>
   <v>       0.30756958       0.87337499       0.29964624 </v>
   <v>       0.18246669       0.95164205       0.21131388 </v>
   <v>       0.18869649       0.46295156       0.74440899 </v>
   <v>       0.43602685       0.29053026       0.52206060 </v>
   <v>       0.06201643       0.70853522       0.34430289 </v>
   <v>       0.18820900       0.79110966       0.65570884 </v>
   <v>       0.44172311       0.79956678       0.78877394 </v>
   <v>       0.68549677       0.12477089       0.43303789 </v>
   <v>       0.93636269       0.79034953       0.52215053 </v>
   <v>       0.68886271       0.61396518       0.16616610 </v>
   <v>       0.81161472       0.70847172       0.34432252 </v>
   <v>       0.93846127       0.46269233       0.74443083 </v>
   <v>       0.18682690       0.45834046       0.34421355 </v>
   <v>       0.56726612       0.54927736       0.78897289 </v>
   <v>       0.56510934       0.36359894       0.16577326 </v>
   <v>       0.56146478       0.70836060       0.34431020 </v>
   <v>       0.55801666       0.37327783       0.29962778 </v>
   <v>       0.18880235       0.47139945       0.87554662 </v>
   <v>       0.18916331       0.11270025       0.16609012 </v>
   <v>       0.44174161       0.29874899       0.78881754 </v>
   <v>       0.68592177       0.78743160       0.25551051 </v>
   <v>       0.93683121       0.13665235       0.83412787 </v>
   <v>       0.43877387       0.95913969       0.47778473 </v>
   <v>       0.56541625       0.71999841       0.87570797 </v>
   <v>       0.18878642       0.45879828       0.47785817 </v>
   <v>       0.93654625       0.28028716       0.12455832 </v>
   <v>       0.31139381       0.04162982       0.38844283 </v>
   <v>       0.06301348       0.04108301       0.65572846 </v>
   <v>       0.56086633       0.37571789       0.43306504 </v>
   <v>       0.68765880       0.46249878       0.74446458 </v>
   <v>       0.56361614       0.21340818       0.74443272 </v>
   <v>       0.94235815       0.12696950       0.70040088 </v>
   <v>       0.56319641       0.04115280       0.65577453 </v>
   <v>       0.56130480       0.54094148       0.52206755 </v>
   <v>       0.18275487       0.12323524       0.29966932 </v>
   <v>       0.43839185       0.11278538       0.16613819 </v>
   <v>       0.68224966       0.62341001       0.29977943 </v>
   <v>       0.93247841       0.12293369       0.29966363 </v>
   <v>       0.81395251       0.37462173       0.56684143 </v>
   <v>       0.05790403       0.87311118       0.29967687 </v>
   <v>       0.18897306       0.62484424       0.56685665 </v>
   <v>       0.94095129       0.79919239       0.78891591 </v>
   <v>       0.31131988       0.38681471       0.83422295 </v>
   <v>       0.93918486       0.47160039       0.87555870 </v>
   <v>       0.43663085       0.63705477       0.83413682 </v>
   <v>       0.06161609       0.20835173       0.34418658 </v>
   <v>       0.18880453       0.97110192       0.87548338 </v>
   <v>       0.93674992       0.77977947       0.12433479 </v>
   <v>       0.68620626       0.79182429       0.38843037 </v>
   <v>       0.93805949       0.79142424       0.65577298 </v>
   <v>       0.93832893       0.11347727       0.16625902 </v>
   <v>       0.43782043       0.29156715       0.65581262 </v>
   <v>       0.05838738       0.20111111       0.21109028 </v>
   <v>       0.68296985       0.95135782       0.21138232 </v>
   <v>       0.18261346       0.62338145       0.29974009 </v>
   <v>       0.81689390       0.87663258       0.70033978 </v>
   <v>       0.94230316       0.62678612       0.70039356 </v>
   <v>       0.19215227       0.12689519       0.70039021 </v>
   <v>       0.93880969       0.45890976       0.47783790 </v>
   <v>       0.81320772       0.20787938       0.61142929 </v>
   <v>       0.18659604       0.62514405       0.43305528 </v>
   <v>       0.43288516       0.12319533       0.29972944 </v>
   <v>       0.68237015       0.12298297       0.29967424 </v>
   <v>       0.56128856       0.54159473       0.38846252 </v>
   <v>       0.81187793       0.20801728       0.34429684 </v>
   <v>       0.43915433       0.47160837       0.87546598 </v>
   <v>       0.56121213       0.88658275       0.83422634 </v>
   <v>       0.31384268       0.20911270       0.47784308 </v>
   <v>       0.18843377       0.95905704       0.47783532 </v>
   <v>       0.06101086       0.88685723       0.83423363 </v>
   <v>       0.06107062       0.54042025       0.52200487 </v>
   <v>       0.93889960       0.95878678       0.47787318 </v>
   <v>       0.06332165       0.70793449       0.61138287 </v>
   <v>       0.56129154       0.04071708       0.52208240 </v>
   <v>       0.69188532       0.29866327       0.78877369 </v>
   <v>       0.81469947       0.36380119       0.16608170 </v>
   <v>       0.43566965       0.12499616       0.43306598 </v>
   <v>       0.06400310       0.20909955       0.47790939 </v>
   <v>       0.31305770       0.04131625       0.65577157 </v>
   <v>       0.43624163       0.79080331       0.52208850 </v>
   <v>       0.18667041       0.13676098       0.83412460 </v>
   <v>       0.18637614       0.27886941       0.12447201 </v>
   <v>       0.93662960       0.45820452       0.34414837 </v>
   <v>       0.56499697       0.86462952       0.16592035 </v>
   <v>       0.30758964       0.70016863       0.21112240 </v>
   <v>       0.93588908       0.62518383       0.43308184 </v>
   <v>       0.18823027       0.45784230       0.61141788 </v>
   <v>       0.06710868       0.87674688       0.70025914 </v>
   <v>       0.06309688       0.54150886       0.65586954 </v>
   <v>       0.31188388       0.53142333       0.12419707 </v>
   <v>       0.93617362       0.79199392       0.38846826 </v>
   <v>       0.94142723       0.29867071       0.78884729 </v>
   <v>       0.18805894       0.29152148       0.65581651 </v>
   <v>       0.93849773       0.95818719       0.61149117 </v>
   <v>       0.81354387       0.71310324       0.74454479 </v>
   <v>       0.68619427       0.28710187       0.25542630 </v>
   <v>       0.06406179       0.71307908       0.74442003 </v>
   <v>       0.68300773       0.45131489       0.21125094 </v>
   <v>       0.81381168       0.20909903       0.47788185 </v>
   <v>       0.56387785       0.70893637       0.47780949 </v>
   <v>       0.06394241       0.86420673       0.16606392 </v>
   <v>       0.93623933       0.29100082       0.52210161 </v>
   <v>       0.68767347       0.79143359       0.65578486 </v>
   <v>       0.06123293       0.87489433       0.43300949 </v>
   <v>       0.06554781       0.21941984       0.87577585 </v>
   <v>       0.81310418       0.04116581       0.65572537 </v>
   <v>       0.56089076       0.02991699       0.12440212 </v>
   <v>       0.31078138       0.37533357       0.43311786 </v>
   <v>       0.31395235       0.37469708       0.56678746 </v>
   <v>       0.31362353       0.70900569       0.47781086 </v>
   <v>       0.06144878       0.04081982       0.52208628 </v>
   <v>       0.31700003       0.87659050       0.70040152 </v>
   <v>       0.06144723       0.53701141       0.25558761 </v>
   <v>       0.68670803       0.13721675       0.83409069 </v>
   <v>       0.81143937       0.03679728       0.25549652 </v>
   <v>       0.18648674       0.12493141       0.43305200 </v>
   <v>       0.69199861       0.12646651       0.70033021 </v>
   <v>       0.18640355       0.29071358       0.52217578 </v>
   <v>       0.43632378       0.78730345       0.25552695 </v>
   <v>       0.43843976       0.61258014       0.16606091 </v>
   <v>       0.06322960       0.20789564       0.61139411 </v>
   <v>       0.18667079       0.79168637       0.38838070 </v>
   <v>       0.31127787       0.54083600       0.52207586 </v>
   <v>       0.81700396       0.37663568       0.70033863 </v>
   <v>       0.68659486       0.29191390       0.38846519 </v>
   <v>       0.18895640       0.12459474       0.56679483 </v>
   <v>       0.68893042       0.97175892       0.87550644 </v>
   <v>       0.68899701       0.12475967       0.56682350 </v>
   <v>       0.43672528       0.95835649       0.34423192 </v>
   <v>       0.18852771       0.96284898       0.74449822 </v>
   <v>       0.93636696       0.78734251       0.25555862 </v>
   <v>       0.56107986       0.87473344       0.43300395 </v>
   <v>       0.31082944       0.87443434       0.43304890 </v>
   <v>       0.81111952       0.54032047       0.52205402 </v>
   <v>       0.93285255       0.45070530       0.21141989 </v>
   <v>       0.31132870       0.53685113       0.25556412 </v>
   <v>       0.56140657       0.04161892       0.38844356 </v>
   <v>       0.93833648       0.45771172       0.61144304 </v>
   <v>       0.06133375       0.04172190       0.38843940 </v>
   <v>       0.06135256       0.54170903       0.38849035 </v>
   <v>       0.43647334       0.29184526       0.38842478 </v>
   <v>       0.68860642       0.45914862       0.47787993 </v>
   <v>       0.06405126       0.37460849       0.56684573 </v>
   <v>       0.55764180       0.70090405       0.21118906 </v>
   <v>       0.93634863       0.28666662       0.25554894 </v>
   <v>       0.81652112       0.04947908       0.78890717 </v>
   <v>       0.18674907       0.95820798       0.34414598 </v>
   <v>       0.55780338       0.87326494       0.29969515 </v>
   <v>       0.06114647       0.37499701       0.43302765 </v>
   <v>       0.31172444       0.70788031       0.34417003 </v>
   <v>       0.31159563       0.20809131       0.34421938 </v>
   <v>       0.93908115       0.12482302       0.56680994 </v>
   <v>       0.43814764       0.95796039       0.61143404 </v>
   <v>       0.56059624       0.03712094       0.25552996 </v>
   <v>       0.18620963       0.77928815       0.12435445 </v>
   <v>       0.06173080       0.03690608       0.25548720 </v>
   <v>       0.68885434       0.62474870       0.56684838 </v>
   <v>       0.06094228       0.52986240       0.12414292 </v>
   <v>       0.31106256       0.04108879       0.52207234 </v>
   <v>       0.68741999       0.27926297       0.12475631 </v>
   <v>       0.81376113       0.70879201       0.47783068 </v>
   <v>       0.43674457       0.13664184       0.83397969 </v>
   <v>       0.31721617       0.37628170       0.70036311 </v>
   <v>       0.68693829       0.63709131       0.83410756 </v>
   <v>       0.56329931       0.71277807       0.74447181 </v>
   <v>       0.93614932       0.29188376       0.38842129 </v>
   <v>       0.93927869       0.97134843       0.87547989 </v>
   <v>       0.56353538       0.20822068       0.61146391 </v>
   <v>       0.81391173       0.87482848       0.56682998 </v>
   <v>       0.80751577       0.87323301       0.29965219 </v>
   <v>       0.31109736       0.03673449       0.25557515 </v>
   <v>       0.43727755       0.28011029       0.12429729 </v>
   <v>       0.31323485       0.70795939       0.61144407 </v>
   <v>       0.43579632       0.62503198       0.43303265 </v>
   <v>       0.93882683       0.61315325       0.16576958 </v>
   <v>       0.31513396       0.86373283       0.16565023 </v>
   <v>       0.06701213       0.54923392       0.78878330 </v>
   <v>       0.93575252       0.12492088       0.43307279 </v>
   <v>       0.31507255       0.36298343       0.16559426 </v>
   <v>       0.93768761       0.96312738       0.74462138 </v>
   <v>       0.81193162       0.53684089       0.25539098 </v>
  </varray>
 </structure>
</modeling>
