unknown system                          
           1
     9.726678    0.000000    0.000000
     0.000000    8.423550    0.000000
     0.000000    0.000000   45.000000
   Fe   Mn
 281   7
Direct configuration=     1
   0.05438891  0.70067636  0.21135721
   0.31842339  0.72364663  0.87626175
   0.68820268  0.95846518  0.61148426
   0.43822103  0.45841819  0.61159486
   0.44052998  0.28738652  0.25519672
   0.05846086  0.38860434  0.83354973
   0.30853624  0.88760309  0.83351517
   0.44690816  0.62628512  0.70040061
   0.05979947  0.21271269  0.74492084
   0.17853907  0.45112510  0.21136812
   0.56776571  0.21056927  0.47740727
   0.06661796  0.87492370  0.56688432
   0.56815418  0.22394160  0.87610781
   0.81007934  0.52824065  0.12390593
   0.42895223  0.95137142  0.21139176
   0.56671326  0.37498410  0.56679519
   0.81103698  0.04169655  0.38830751
   0.68244526  0.78851343  0.52229530
   0.44282823  0.46067268  0.47744821
   0.43373854  0.96264555  0.74474558
   0.44139338  0.62513383  0.56684997
   0.57142509  0.87647364  0.70054965
   0.31011652  0.02651188  0.12394289
   0.68967538  0.95893347  0.34394116
   0.68750245  0.78229252  0.12423530
   0.05285634  0.37366667  0.29959775
   0.68979444  0.46786125  0.87608683
   0.42878907  0.45102805  0.21149929
   0.80871263  0.37504139  0.43309427
   0.56344525  0.70836665  0.61156872
   0.55965608  0.54061881  0.65587383
   0.81787343  0.86157591  0.16659454
   0.56570655  0.53753611  0.25520376
   0.68996219  0.45873596  0.34408852
   0.19141296  0.61186293  0.16632228
   0.19454982  0.79939205  0.78883847
   0.44718070  0.12595755  0.70041834
   0.92766383  0.62364864  0.29969929
   0.31754435  0.22363890  0.87612912
   0.31669183  0.87492499  0.56687670
   0.81742548  0.22388591  0.87619844
   0.80964569  0.54059825  0.65583719
   0.55940333  0.52796379  0.12397818
   0.56937716  0.04968430  0.78896741
   0.19097120  0.28747366  0.25523275
   0.80861449  0.87507625  0.43309843
   0.57216237  0.37634733  0.70038469
   0.05865460  0.02854501  0.12416208
   0.30965001  0.54067932  0.65589202
   0.56491631  0.20889841  0.34401353
   0.18809284  0.95839901  0.61149573
   0.30296104  0.37384385  0.29956172
   0.43461617  0.79047556  0.65596119
   0.19492518  0.29913250  0.78881717
   0.06696194  0.36276152  0.16655578
   0.69707478  0.62612866  0.70045395
   0.31119238  0.54139009  0.38843163
   0.06750603  0.72335038  0.87618116
   0.93370845  0.63756536  0.83391842
   0.31964264  0.54964582  0.78890948
   0.30463231  0.20039509  0.21118508
   0.06780156  0.71054197  0.47742569
   0.55360456  0.20114499  0.21121657
   0.30968553  0.21241451  0.74494258
   0.07197213  0.37641774  0.70053463
   0.18323418  0.63766943  0.83356484
   0.06959561  0.04956063  0.78900270
   0.44161185  0.12490052  0.56690161
   0.93476539  0.29073691  0.65582346
   0.80412622  0.20121181  0.21116958
   0.92903292  0.95132158  0.21125923
   0.94178574  0.62508834  0.56677167
   0.80838819  0.38762839  0.83353548
   0.19706623  0.62623003  0.70033552
   0.80858572  0.88774538  0.83356935
   0.68495491  0.29074284  0.65604302
   0.31319734  0.20826260  0.61149255
   0.43459534  0.46266123  0.74487875
   0.43622005  0.79110191  0.38843421
   0.68449875  0.96257557  0.74485780
   0.80296295  0.70079356  0.21141096
   0.81339132  0.70837497  0.61157222
   0.43725767  0.78402870  0.12396589
   0.30973966  0.71209210  0.74480680
   0.32011415  0.04944276  0.78886102
   0.81136306  0.54179156  0.38840921
   0.68202070  0.28894214  0.52241378
   0.69496940  0.79927141  0.78890275
   0.19063957  0.78757597  0.25525363
   0.69131648  0.11254441  0.16662188
   0.69284856  0.96075133  0.47745686
   0.94015111  0.95883685  0.34416082
   0.80741222  0.03935437  0.52248476
   0.68360085  0.62492448  0.43293714
   0.43985915  0.45881025  0.34401322
   0.81056190  0.21159766  0.74459176
   0.43961954  0.96793271  0.87609190
   0.56637560  0.87488882  0.56686615
   0.80854427  0.02901411  0.12402277
   0.42806489  0.62341813  0.29938999
   0.81710352  0.72381517  0.87630753
   0.68828610  0.45865855  0.61152634
   0.55832656  0.38749113  0.83347213
   0.80312847  0.37344378  0.29945600
   0.18600360  0.29111128  0.38840741
   0.81985748  0.54957023  0.78892496
   0.18220187  0.78923313  0.52250607
   0.30291681  0.87378419  0.29961911
   0.17854576  0.95104199  0.21128078
   0.18445802  0.46257303  0.74496555
   0.43228685  0.28910324  0.52243504
   0.06493002  0.70844907  0.34395809
   0.18483015  0.79065121  0.65586981
   0.44456535  0.79924295  0.78885598
   0.68361046  0.12503436  0.43305073
   0.93193130  0.78890287  0.52248804
   0.69178049  0.61267814  0.16668611
   0.81456061  0.70856054  0.34389956
   0.93418272  0.46263832  0.74492127
   0.18988144  0.45857700  0.34402306
   0.56980322  0.54977030  0.78903563
   0.56635905  0.36261731  0.16645263
   0.56458632  0.70843935  0.34399413
   0.55298332  0.37352562  0.29957574
   0.18968376  0.46806999  0.87609414
   0.19173987  0.11146574  0.16635677
   0.44458716  0.29905957  0.78883383
   0.69075353  0.78731570  0.25545788
   0.93359685  0.13786011  0.83354101
   0.44287208  0.96065055  0.47745060
   0.56744220  0.72465507  0.87621760
   0.19281253  0.46075777  0.47746277
   0.93457687  0.28247051  0.12417187
   0.31153473  0.04134542  0.38842734
   0.06006295  0.04042630  0.65603795
   0.55851713  0.37483644  0.43304803
   0.68412135  0.46277136  0.74498339
   0.56004214  0.21266454  0.74484741
   0.94715227  0.12623260  0.70035433
   0.55970460  0.04078949  0.65585885
   0.55690145  0.53902191  0.52246001
   0.17775994  0.12367367  0.29954737
   0.44141186  0.11058645  0.16648785
   0.67782076  0.62346184  0.29962723
   0.92803744  0.12358153  0.29957404
   0.81671433  0.37515312  0.56685207
   0.05267435  0.87386463  0.29958780
   0.19156708  0.62491923  0.56687931
   0.94467957  0.79956212  0.78883680
   0.30841193  0.38742058  0.83351632
   0.93974871  0.46835284  0.87610500
   0.43368251  0.63780442  0.83351469
   0.06455902  0.20856724  0.34387449
   0.18976494  0.96806775  0.87609750
   0.93551717  0.78158732  0.12422528
   0.68631521  0.79166321  0.38839705
   0.93474296  0.79064018  0.65591114
   0.94134013  0.11226892  0.16646202
   0.43510457  0.29072163  0.65608087
   0.05415553  0.20079723  0.21127265
   0.67871645  0.95138723  0.21129657
   0.17828843  0.62377261  0.29952439
   0.82203585  0.87610320  0.70041280
   0.94682648  0.62641407  0.70050791
   0.19707300  0.12623374  0.70034427
   0.94266314  0.46055401  0.47729511
   0.81333321  0.20848531  0.61153555
   0.18352632  0.62460964  0.43308015
   0.42778500  0.12377513  0.29951116
   0.67799184  0.12367265  0.29942030
   0.56173674  0.54157690  0.38844394
   0.81443383  0.20794533  0.34400030
   0.43963000  0.46780032  0.87594733
   0.55840256  0.88754186  0.83350525
   0.31783529  0.21057952  0.47732376
   0.19265396  0.96079114  0.47737319
   0.05848972  0.88770950  0.83345549
   0.05729946  0.53919839  0.52247938
   0.94291380  0.96075957  0.47735960
   0.06329454  0.70834219  0.61159161
   0.55697054  0.03905480  0.52243623
   0.69503208  0.29915460  0.78876944
   0.81798101  0.36272768  0.16665097
   0.43368376  0.12476597  0.43292508
   0.06788925  0.21074361  0.47744817
   0.30994433  0.04079631  0.65594903
   0.43214640  0.78890117  0.52228462
   0.18363362  0.13781395  0.83360433
   0.18602765  0.28268316  0.12433259
   0.93996236  0.45930350  0.34403063
   0.56752134  0.86326171  0.16652904
   0.30344129  0.70083036  0.21126487
   0.93371877  0.62494895  0.43299839
   0.18825975  0.45861818  0.61153653
   0.07212818  0.87640329  0.70032910
   0.05967793  0.54057345  0.65589437
   0.31026342  0.52747162  0.12399986
   0.93669034  0.79145681  0.38842710
   0.94499854  0.29878815  0.78875063
   0.18459552  0.29054858  0.65590023
   0.93800888  0.95823027  0.61142031
   0.80997810  0.71205655  0.74482741
   0.69109514  0.28760906  0.25524171
   0.05923759  0.71220265  0.74498367
   0.67888144  0.45148489  0.21132195
   0.81766607  0.21064630  0.47734059
   0.56781836  0.71064669  0.47747303
   0.06723062  0.86222655  0.16654289
   0.93230596  0.28870232  0.52231903
   0.68466939  0.79041626  0.65587622
   0.05835580  0.87498313  0.43297711
   0.06812281  0.22311367  0.87616455
   0.80977251  0.04060784  0.65592599
   0.55870141  0.02659668  0.12392122
   0.30863654  0.37511294  0.43294730
   0.31654148  0.37474371  0.56682341
   0.31782376  0.71054429  0.47739103
   0.05683784  0.03916964  0.52244748
   0.32200007  0.87630344  0.70049206
   0.06531500  0.53763554  0.25514575
   0.68335046  0.13763082  0.83352256
   0.81504366  0.03744170  0.25520729
   0.18333769  0.12499722  0.43309315
   0.69739763  0.12626867  0.70041481
   0.18239004  0.28919505  0.52250776
   0.44048988  0.78761895  0.25526649
   0.44159785  0.61019783  0.16645906
   0.06329756  0.20848563  0.61151013
   0.18616313  0.79117298  0.38836087
   0.30689313  0.53894552  0.52244149
   0.82188822  0.37634199  0.70027676
   0.68624895  0.29101095  0.38841831
   0.19178461  0.12498794  0.56692693
   0.68980907  0.96838689  0.87607670
   0.69161782  0.12500670  0.56689362
   0.43990521  0.95868226  0.34401512
   0.18375543  0.96260728  0.74474948
   0.94059130  0.78733736  0.25515685
   0.55862154  0.87476746  0.43301405
   0.30858777  0.87494251  0.43305791
   0.80705012  0.53923288  0.52252820
   0.92908559  0.45118843  0.21142738
   0.31550339  0.53780289  0.25519367
   0.56126170  0.04139989  0.38843037
   0.93814880  0.45827672  0.61160213
   0.06161901  0.04141481  0.38842864
   0.06153077  0.54145699  0.38840185
   0.43609140  0.29116294  0.38838011
   0.69258414  0.46058929  0.47736892
   0.06662581  0.37503598  0.56688266
   0.55413639  0.70086648  0.21115113
   0.94087450  0.28743687  0.25542420
   0.81921067  0.04961882  0.78906239
   0.18989552  0.95886893  0.34401336
   0.55259647  0.87377622  0.29963582
   0.05807831  0.37449380  0.43298895
   0.31479925  0.70880421  0.34400280
   0.31471868  0.20860230  0.34394391
   0.94144970  0.12501050  0.56685245
   0.43853720  0.95866724  0.61152028
   0.56553371  0.03755698  0.25518066
   0.18629819  0.78304858  0.12427130
   0.06588134  0.03756861  0.25527682
   0.69163047  0.62498052  0.56689432
   0.05692401  0.52772030  0.12405607
   0.30725935  0.03850682  0.52226559
   0.68729489  0.28168102  0.12419327
   0.81790484  0.71077221  0.47747355
   0.43342237  0.13769561  0.83352861
   0.32234400  0.37643410  0.70038599
   0.68359687  0.63762295  0.83350494
   0.55988875  0.71204247  0.74486483
   0.93634590  0.29113295  0.38844037
   0.93974548  0.96842060  0.87613690
   0.56287365  0.20804966  0.61132160
   0.81668196  0.87504387  0.56689259
   0.80307272  0.87345561  0.29948627
   0.31529789  0.03787395  0.25525212
   0.43674967  0.28332577  0.12400890
   0.31328372  0.70854089  0.61154803
   0.43358354  0.62480578  0.43306179
   0.94182732  0.61160236  0.16587492
   0.31848386  0.86311990  0.16583496
   0.07073792  0.54954274  0.78878518
   0.93317120  0.12474408  0.43313193
   0.31860543  0.36344469  0.16577202
   0.93326045  0.96223710  0.74468150
   0.81604527  0.53792549  0.25547191
Direct configuration=     2
   0.05490933  0.70077068  0.21131458
   0.31807890  0.72319343  0.87618816
   0.68821104  0.95840005  0.61147581
   0.43823989  0.45835188  0.61157497
   0.43997212  0.28730363  0.25524851
   0.05881093  0.38832420  0.83363581
   0.30891789  0.88747457  0.83361807
   0.44625418  0.62632271  0.70039909
   0.06035592  0.21278767  0.74486016
   0.17907963  0.45114584  0.21134975
   0.56719596  0.21036640  0.47747323
   0.06626979  0.87491779  0.56687817
   0.56780090  0.22335281  0.87605137
   0.81019518  0.52856229  0.12396829
   0.42954747  0.95134931  0.21135983
   0.56635527  0.37494212  0.56679055
   0.81113625  0.04172032  0.38832102
   0.68294932  0.78886401  0.52226840
   0.44224381  0.46042346  0.47750410
   0.43434769  0.96266813  0.74471053
   0.44108518  0.62506572  0.56684604
   0.57085957  0.87645549  0.70051861
   0.31018905  0.02717596  0.12397347
   0.68923646  0.95876507  0.34395077
   0.68760286  0.78196818  0.12429582
   0.05353744  0.37362943  0.29961279
   0.68966758  0.46836141  0.87599969
   0.42938462  0.45111883  0.21144621
   0.80901470  0.37510734  0.43307958
   0.56341386  0.70831777  0.61155526
   0.56011891  0.54071876  0.65586061
   0.81732841  0.86182937  0.16653439
   0.56501685  0.53747121  0.25524605
   0.68951169  0.45864114  0.34410880
   0.19107743  0.61207777  0.16630192
   0.19415404  0.79938841  0.78882341
   0.44652003  0.12604566  0.70041906
   0.92842170  0.62360124  0.29970512
   0.31722304  0.22311313  0.87606932
   0.31631417  0.87489512  0.56686300
   0.81713192  0.22332835  0.87612682
   0.81009729  0.54076199  0.65582735
   0.55946323  0.52825453  0.12404898
   0.56901344  0.04966974  0.78896355
   0.19033507  0.28738629  0.25525873
   0.80893494  0.87504987  0.43309311
   0.57145830  0.37636365  0.70039611
   0.05908480  0.02873434  0.12421257
   0.31011915  0.54075213  0.65587736
   0.56446691  0.20879853  0.34403604
   0.18813775  0.95834280  0.61148518
   0.30362711  0.37381169  0.29957183
   0.43509305  0.79063499  0.65593806
   0.19446296  0.29902114  0.78882460
   0.06645840  0.36282287  0.16649350
   0.69635565  0.62620998  0.70044008
   0.31126177  0.54143068  0.38843476
   0.06720801  0.72286922  0.87613539
   0.93407354  0.63746071  0.83396870
   0.31932472  0.54966546  0.78891514
   0.30499880  0.20037324  0.21117881
   0.06724309  0.71030586  0.47748513
   0.55416995  0.20110721  0.21120611
   0.31025715  0.21255562  0.74486614
   0.07130448  0.37648586  0.70051144
   0.18366555  0.63754004  0.83363491
   0.06919476  0.04951852  0.78899189
   0.44124369  0.12486509  0.56688903
   0.93524580  0.29086974  0.65580664
   0.80458969  0.20123464  0.21115531
   0.92954629  0.95130418  0.21125784
   0.94137645  0.62505865  0.56677238
   0.80873781  0.38748622  0.83362914
   0.19636659  0.62627695  0.70033925
   0.80894385  0.88758006  0.83366773
   0.68538061  0.29082209  0.65600712
   0.31322301  0.20823333  0.61149293
   0.43510372  0.46266699  0.74481077
   0.43628434  0.79117369  0.38843168
   0.68493851  0.96259999  0.74480765
   0.80353616  0.70094558  0.21139108
   0.81335058  0.70832259  0.61154814
   0.43726003  0.78335019  0.12402492
   0.31022058  0.71222208  0.74474929
   0.31969146  0.04945357  0.78887649
   0.81138153  0.54179741  0.38841806
   0.68259500  0.28922870  0.52237385
   0.69453623  0.79929175  0.78890166
   0.19004006  0.78762447  0.25529169
   0.69092218  0.11270564  0.16655676
   0.69229490  0.96050152  0.47751680
   0.93967842  0.95871265  0.34416656
   0.80791573  0.03952596  0.52243111
   0.68385516  0.62493014  0.43295588
   0.43943549  0.45873527  0.34403388
   0.81093319  0.21185315  0.74457963
   0.43953430  0.96843804  0.87601079
   0.56607527  0.87483230  0.56685371
   0.80879084  0.02918613  0.12409868
   0.42867894  0.62341713  0.29943808
   0.81682950  0.72333331  0.87624273
   0.68826030  0.45853206  0.61150578
   0.55872598  0.38741446  0.83355791
   0.80374084  0.37337756  0.29949701
   0.18604135  0.29119000  0.38840728
   0.81938056  0.54955686  0.78894453
   0.18275229  0.78943700  0.52244505
   0.30356161  0.87372748  0.29962287
   0.17908914  0.95112515  0.21128536
   0.18504541  0.46262549  0.74488842
   0.43280516  0.28930100  0.52238315
   0.06452624  0.70846101  0.34400588
   0.18529840  0.79071474  0.65584750
   0.44417146  0.79928783  0.78884461
   0.68387187  0.12499785  0.43304895
   0.93254542  0.78910335  0.52244127
   0.69137613  0.61285651  0.16661404
   0.81415236  0.70854823  0.34395818
   0.93477566  0.46264580  0.74485330
   0.18945813  0.45854422  0.34404946
   0.56945161  0.54970199  0.78902693
   0.56618586  0.36275335  0.16635848
   0.56415373  0.70842844  0.34403793
   0.55368086  0.37349128  0.29958295
   0.18956161  0.46853140  0.87601826
   0.19138280  0.11163682  0.16631982
   0.44419281  0.29901653  0.78883158
   0.69008392  0.78733177  0.25546518
   0.93404508  0.13769274  0.83362234
   0.44230414  0.96044117  0.47749690
   0.56716144  0.72400973  0.87614697
   0.19225457  0.46048621  0.47751756
   0.93484979  0.28216793  0.12422542
   0.31151520  0.04138484  0.38842949
   0.06047185  0.04051731  0.65599506
   0.55884270  0.37495859  0.43305038
   0.68461159  0.46273359  0.74491149
   0.56053744  0.21276759  0.74478994
   0.94648788  0.12633472  0.70036078
   0.56018851  0.04083984  0.65584717
   0.55751169  0.53928793  0.52240563
   0.17845216  0.12361291  0.29956427
   0.44099334  0.11089119  0.16643939
   0.67843454  0.62345465  0.29964833
   0.92865289  0.12349175  0.29958645
   0.81633159  0.37507948  0.56685060
   0.05339910  0.87376022  0.29960014
   0.19120759  0.62490884  0.56687617
   0.94416289  0.79951088  0.78884777
   0.30881493  0.38733661  0.83361425
   0.93967057  0.46880290  0.87602929
   0.43409111  0.63770053  0.83360090
   0.06415117  0.20853737  0.34391774
   0.18963184  0.96848824  0.87601240
   0.93568801  0.78133678  0.12424046
   0.68630011  0.79168553  0.38840167
   0.93520258  0.79074884  0.65589200
   0.94092282  0.11243637  0.16643389
   0.43548095  0.29083881  0.65604369
   0.05474200  0.20084073  0.21124737
   0.67930591  0.95138316  0.21130846
   0.17888781  0.62371840  0.29955428
   0.82132326  0.87617656  0.70040268
   0.94619962  0.62646563  0.70049206
   0.19639106  0.12632541  0.70035064
   0.94212911  0.46032614  0.47737033
   0.81331582  0.20840134  0.61152082
   0.18395174  0.62468370  0.43307671
   0.42849180  0.12369478  0.29954141
   0.67859860  0.12357707  0.29945549
   0.56167463  0.54157937  0.38844651
   0.81407962  0.20795530  0.34404140
   0.43956408  0.46832805  0.87588062
   0.55879192  0.88740894  0.83360518
   0.31728198  0.21037624  0.47739573
   0.19206910  0.96055082  0.47743723
   0.05883911  0.88759138  0.83356333
   0.05782208  0.53936772  0.52241362
   0.94235749  0.96048617  0.47743077
   0.06329830  0.70828569  0.61156268
   0.55756936  0.03928516  0.52238720
   0.69459599  0.29908651  0.78877003
   0.81752624  0.36287645  0.16657208
   0.43395897  0.12479787  0.43294460
   0.06735069  0.21051577  0.47751209
   0.31037580  0.04086836  0.65592444
   0.43271394  0.78916477  0.52225744
   0.18405447  0.13766802  0.83367643
   0.18607595  0.28215463  0.12435191
   0.93950049  0.45915119  0.34404694
   0.56717150  0.86345127  0.16644468
   0.30401619  0.70073866  0.21124513
   0.93401954  0.62498150  0.43300996
   0.18825566  0.45851066  0.61152008
   0.07143256  0.87645091  0.70031941
   0.06015175  0.54070308  0.65589093
   0.31048799  0.52801926  0.12402719
   0.93661873  0.79153125  0.38843280
   0.94450361  0.29877188  0.78876403
   0.18507550  0.29068341  0.65588863
   0.93807663  0.95822430  0.61143013
   0.81047226  0.71220161  0.74478825
   0.69041595  0.28753877  0.25526729
   0.05990615  0.71232411  0.74490556
   0.67945328  0.45146133  0.21131211
   0.81713191  0.21043188  0.47741560
   0.56727227  0.71040966  0.47751965
   0.06677492  0.86250097  0.16647651
   0.93285106  0.28902086  0.52228890
   0.68508571  0.79055724  0.65586356
   0.05875453  0.87497082  0.43298159
   0.06776596  0.22260176  0.87611068
   0.81023423  0.04068517  0.65589819
   0.55900482  0.02705682  0.12398787
   0.30893378  0.37514352  0.43297094
   0.31618267  0.37473725  0.56681843
   0.31724168  0.71033107  0.47744921
   0.05747685  0.03939833  0.52239742
   0.32130714  0.87634322  0.70047952
   0.06477899  0.53754905  0.25520698
   0.68381577  0.13757344  0.83360129
   0.81454416  0.03735240  0.25524737
   0.18377410  0.12498810  0.43308745
   0.69664941  0.12629609  0.70040309
   0.18294625  0.28940550  0.52246175
   0.43991252  0.78757523  0.25530258
   0.44116019  0.61052798  0.16640388
   0.06328814  0.20840387  0.61149405
   0.18623348  0.79124413  0.38836362
   0.30750078  0.53920751  0.52239082
   0.82121134  0.37638269  0.70028533
   0.68629689  0.29113608  0.38842481
   0.19139266  0.12493345  0.56690862
   0.68968731  0.96885420  0.87599767
   0.69125462  0.12497247  0.56688390
   0.43946452  0.95863712  0.34404517
   0.18441679  0.96264078  0.74471466
   0.94000587  0.78733807  0.25521253
   0.55896223  0.87476275  0.43301265
   0.30889843  0.87487209  0.43305666
   0.80761408  0.53938360  0.52246249
   0.92960763  0.45112147  0.21142634
   0.31492484  0.53767099  0.25524501
   0.56128178  0.04143025  0.38843220
   0.93817481  0.45819842  0.61158009
   0.06157948  0.04145737  0.38843013
   0.06150608  0.54149192  0.38841412
   0.43614433  0.29125750  0.38838630
   0.69203289  0.46038964  0.47743973
   0.06626901  0.37497674  0.56687754
   0.55462219  0.70087168  0.21115638
   0.94024728  0.28733013  0.25544149
   0.81883794  0.04959945  0.78904088
   0.18945947  0.95877733  0.34403174
   0.55331807  0.87370536  0.29964404
   0.05850351  0.37456354  0.43299432
   0.31437313  0.70867617  0.34402598
   0.31428588  0.20853149  0.34398208
   0.94112145  0.12498452  0.56684656
   0.43848322  0.95856928  0.61150833
   0.56484946  0.03749655  0.25522907
   0.18628591  0.78252744  0.12428282
   0.06530614  0.03747680  0.25530597
   0.69124574  0.62494840  0.56688795
   0.05748088  0.52801717  0.12406811
   0.30778642  0.03886464  0.52223881
   0.68731223  0.28134592  0.12427130
   0.81733059  0.71049779  0.47752304
   0.43388277  0.13754957  0.83359112
   0.32163337  0.37641298  0.70038282
   0.68405994  0.63754927  0.83358845
   0.56036140  0.71214442  0.74481036
   0.93631866  0.29123700  0.38843773
   0.93968079  0.96882635  0.87604585
   0.56296535  0.20807336  0.61134132
   0.81629805  0.87501402  0.56688391
   0.80368846  0.87342476  0.29950926
   0.31471576  0.03771604  0.25529689
   0.43682283  0.28288015  0.12404887
   0.31327695  0.70846031  0.61153363
   0.43389020  0.62483713  0.43305775
   0.94141150  0.61181729  0.16586032
   0.31801961  0.86320484  0.16580936
   0.07022158  0.54949994  0.78878492
   0.93352893  0.12476858  0.43312373
   0.31811583  0.36338077  0.16574738
   0.93387398  0.96236048  0.74467317
   0.81547518  0.53777518  0.25546069
Direct configuration=     3
   0.05647059  0.70105364  0.21118670
   0.31704545  0.72183380  0.87596738
   0.68823612  0.95820465  0.61145047
   0.43829647  0.45815297  0.61151528
   0.43829855  0.28705495  0.25540389
   0.05986117  0.38748379  0.83389404
   0.31006282  0.88708900  0.83392677
   0.44429226  0.62643551  0.70039454
   0.06202525  0.21301260  0.74467811
   0.18070128  0.45120806  0.21129462
   0.56548671  0.20975781  0.47767113
   0.06522527  0.87490005  0.56685973
   0.56674105  0.22158641  0.87588208
   0.81054270  0.52952720  0.12415538
   0.43133317  0.95128298  0.21126405
   0.56528129  0.37481617  0.56677662
   0.81143405  0.04179165  0.38836153
   0.68446147  0.78991575  0.52218769
   0.44049052  0.45967578  0.47767176
   0.43617515  0.96273586  0.74460540
   0.44016057  0.62486139  0.56683426
   0.56916300  0.87640104  0.70042552
   0.31040664  0.02916823  0.12406519
   0.68791970  0.95825984  0.34397959
   0.68790409  0.78099516  0.12447736
   0.05558074  0.37351771  0.29965793
   0.68928700  0.46986188  0.87573827
   0.43117129  0.45139119  0.21128696
   0.80992090  0.37530519  0.43303553
   0.56331970  0.70817112  0.61151489
   0.56150740  0.54101862  0.65582097
   0.81569336  0.86258974  0.16635396
   0.56294774  0.53727650  0.25537291
   0.68816017  0.45835668  0.34416964
   0.19007083  0.61272229  0.16624086
   0.19296668  0.79937747  0.78877824
   0.44453804  0.12631000  0.70042121
   0.93069531  0.62345906  0.29972258
   0.31625909  0.22153580  0.87588992
   0.31518118  0.87480551  0.56682191
   0.81625124  0.22165569  0.87591194
   0.81145210  0.54125322  0.65579780
   0.55964295  0.52912677  0.12426137
   0.56792227  0.04962607  0.78895197
   0.18842667  0.28712419  0.25533666
   0.80989628  0.87497071  0.43307715
   0.56934606  0.37641263  0.70043038
   0.06037541  0.02930235  0.12436404
   0.31152658  0.54097056  0.65583336
   0.56311872  0.20849887  0.34410360
   0.18827250  0.95817415  0.61145352
   0.30562533  0.37371521  0.29960218
   0.43652367  0.79111327  0.65586865
   0.19307631  0.29868708  0.78884686
   0.06494779  0.36300691  0.16630663
   0.69419826  0.62645392  0.70039846
   0.31146994  0.54155244  0.38844417
   0.06631393  0.72142576  0.87599807
   0.93516881  0.63714676  0.83411953
   0.31837094  0.54972440  0.78893214
   0.30609827  0.20030770  0.21116000
   0.06556765  0.70959754  0.47766346
   0.55586613  0.20099385  0.21117471
   0.31197201  0.21297896  0.74463680
   0.06930152  0.37669020  0.70044188
   0.18495965  0.63715190  0.83384512
   0.06799222  0.04939221  0.78895944
   0.44013921  0.12475881  0.56685130
   0.93668703  0.29126824  0.65575617
   0.80598010  0.20130315  0.21111253
   0.93108638  0.95125195  0.21125365
   0.94014856  0.62496957  0.56677451
   0.80978665  0.38705972  0.83391011
   0.19426766  0.62641770  0.70035043
   0.81001824  0.88708412  0.83396286
   0.68665772  0.29105985  0.65589943
   0.31330003  0.20814550  0.61149407
   0.43662887  0.46268425  0.74460683
   0.43647718  0.79138902  0.38842411
   0.68625780  0.96267324  0.74465720
   0.80525581  0.70140163  0.21133147
   0.81322835  0.70816544  0.61147589
   0.43726711  0.78131464  0.12420200
   0.31166336  0.71261202  0.74457676
   0.31842339  0.04948598  0.78892289
   0.81143693  0.54181496  0.38844461
   0.68431790  0.29008840  0.52225406
   0.69323670  0.79935277  0.78889839
   0.18824155  0.78777000  0.25540586
   0.68973929  0.11318932  0.16636142
   0.69063394  0.95975207  0.47769661
   0.93826035  0.95834007  0.34418375
   0.80942626  0.04004073  0.52227018
   0.68461806  0.62494711  0.43301210
   0.43816451  0.45851033  0.34409585
   0.81204709  0.21261962  0.74454322
   0.43927860  0.96995404  0.87576746
   0.56517425  0.87466276  0.56681639
   0.80953054  0.02970220  0.12432639
   0.43052110  0.62341412  0.29958233
   0.81600742  0.72188772  0.87604832
   0.68818288  0.45815260  0.61144411
   0.55992425  0.38718445  0.83381525
   0.80557795  0.37317891  0.29962004
   0.18615461  0.29142619  0.38840687
   0.81794980  0.54951676  0.78900323
   0.18440354  0.79004862  0.52226197
   0.30549602  0.87355735  0.29963415
   0.18071928  0.95137463  0.21129913
   0.18680757  0.46278286  0.74465703
   0.43436008  0.28989429  0.52222747
   0.06331491  0.70849683  0.34414923
   0.18670317  0.79090535  0.65578058
   0.44298979  0.79942246  0.78881050
   0.68465611  0.12488831  0.43304361
   0.93438778  0.78970481  0.52230094
   0.69016305  0.61339160  0.16639785
   0.81292759  0.70851130  0.34413402
   0.93655448  0.46266826  0.74464940
   0.18818820  0.45844588  0.34412866
   0.56839681  0.54949705  0.78900085
   0.56566629  0.36316147  0.16607603
   0.56285594  0.70839570  0.34416934
   0.55577349  0.37338826  0.29960459
   0.18919516  0.46991563  0.87579063
   0.19031159  0.11215008  0.16620896
   0.44300976  0.29888741  0.78882480
   0.68807510  0.78737995  0.25548706
   0.93538978  0.13719060  0.83386633
   0.44060029  0.95981302  0.47763582
   0.56631914  0.72207371  0.87593509
   0.19058071  0.45967155  0.47768195
   0.93566857  0.28126020  0.12438609
   0.31145661  0.04150308  0.38843593
   0.06169854  0.04079034  0.65586638
   0.55981938  0.37532506  0.43305746
   0.68608230  0.46262026  0.74469579
   0.56202334  0.21307677  0.74461753
   0.94449471  0.12664109  0.70038013
   0.56164024  0.04099088  0.65581211
   0.55934239  0.54008600  0.52224246
   0.18052882  0.12343063  0.29961497
   0.43973776  0.11180540  0.16629402
   0.68027586  0.62343311  0.29971160
   0.93049923  0.12322241  0.29962370
   0.81518335  0.37485855  0.56684618
   0.05557336  0.87344696  0.29963717
   0.19012912  0.62487766  0.56686675
   0.94261284  0.79935716  0.78888065
   0.31002392  0.38708472  0.83390803
   0.93943615  0.47015308  0.87580217
   0.43531689  0.63738886  0.83385956
   0.06292764  0.20844777  0.34404749
   0.18923255  0.96974970  0.87575707
   0.93620053  0.78058516  0.12428599
   0.68625482  0.79175250  0.38841552
   0.93658144  0.79107481  0.65583455
   0.93967091  0.11293875  0.16634949
   0.43661007  0.29119033  0.65593217
   0.05650141  0.20097123  0.21117155
   0.68107427  0.95137093  0.21134411
   0.18068596  0.62355578  0.29964396
   0.81918547  0.87639665  0.70037233
   0.94431903  0.62662031  0.70044452
   0.19434525  0.12660041  0.70036974
   0.94052702  0.45964254  0.47759600
   0.81326364  0.20814942  0.61147664
   0.18522798  0.62490589  0.43306637
   0.43061221  0.12345373  0.29963216
   0.68041890  0.12329034  0.29956107
   0.56148830  0.54158679  0.38845424
   0.81301700  0.20798522  0.34416469
   0.43936632  0.46991126  0.87568050
   0.55996001  0.88701019  0.83390498
   0.31562203  0.20976641  0.47761164
   0.19031455  0.95982987  0.47762937
   0.05988728  0.88723705  0.83388684
   0.05938995  0.53987571  0.52221634
   0.94068858  0.95966598  0.47764429
   0.06330957  0.70811618  0.61147590
   0.55936583  0.03997626  0.52224009
   0.69328771  0.29888224  0.78877180
   0.81616193  0.36332276  0.16633540
   0.43478461  0.12489357  0.43300318
   0.06573501  0.20983225  0.47770384
   0.31167019  0.04108453  0.65585066
   0.43441654  0.78995560  0.52217591
   0.18531702  0.13723025  0.83389274
   0.18622083  0.28056905  0.12440987
   0.93811488  0.45869429  0.34409590
   0.56612199  0.86401994  0.16619162
   0.30574088  0.70046354  0.21118589
   0.93492186  0.62507915  0.43304465
   0.18824341  0.45818808  0.61147076
   0.06934568  0.87659375  0.70029032
   0.06157319  0.54109198  0.65588061
   0.31116170  0.52966220  0.12410918
   0.93640390  0.79175455  0.38844992
   0.94301883  0.29872305  0.78880421
   0.18651543  0.29108790  0.65585382
   0.93827987  0.95820639  0.61145959
   0.81195474  0.71263677  0.74467075
   0.68837840  0.28732790  0.25534403
   0.06191183  0.71268849  0.74467123
   0.68116880  0.45139065  0.21128259
   0.81552943  0.20978859  0.47764063