 288 288   0   0
  0.1280206E+02  0.9726678E-09  0.8423550E-09  0.4500000E-08  0.2500000E-15
  1.000000000000000E-004
  CAR 
 unknown system                          
      6.82155642     -6.01545197  301      4.29515794      1.00000000
     -6.015  0.0000E+00  0.0000E+00
     -5.973  0.0000E+00  0.0000E+00
     -5.930  0.0000E+00  0.0000E+00
     -5.887  0.0000E+00  0.0000E+00
     -5.844  0.0000E+00  0.0000E+00
     -5.802  0.0000E+00  0.0000E+00
     -5.759  0.0000E+00  0.0000E+00
     -5.716  0.0000E+00  0.0000E+00
     -5.673  0.0000E+00  0.0000E+00
     -5.630  0.0000E+00  0.0000E+00
     -5.588  0.0000E+00  0.0000E+00
     -5.545  0.0000E+00  0.0000E+00
     -5.502  0.0000E+00  0.0000E+00
     -5.459  0.0000E+00  0.0000E+00
     -5.416  0.0000E+00  0.0000E+00
     -5.374  0.1622E-15  0.6939E-17
     -5.331  0.4249E-14  0.1887E-15
     -5.288  0.9101E-13  0.4083E-14
     -5.245  0.1663E-11  0.7525E-13
     -5.202  0.2589E-10  0.1183E-11
     -5.160  0.3434E-09  0.1588E-10
     -5.117  0.3882E-08  0.1820E-09
     -5.074  0.3741E-07  0.1783E-08
     -5.031  0.3077E-06  0.1495E-07
     -4.988  0.2161E-05  0.1074E-06
     -4.946  0.1298E-04  0.6629E-06
     -4.903  0.6680E-04  0.3521E-05
     -4.860  0.2951E-03  0.1615E-04
     -4.817  0.1123E-02  0.6421E-04
     -4.775  0.3699E-02  0.2225E-03
     -4.732  0.1061E-01  0.6763E-03
     -4.689  0.2668E-01  0.1818E-02
     -4.646  0.5943E-01  0.4361E-02
     -4.603  0.1185E+00  0.9433E-02
     -4.561  0.2141E+00  0.1860E-01
     -4.518  0.3540E+00  0.3374E-01
     -4.475  0.5399E+00  0.5685E-01
     -4.432  0.7648E+00  0.8957E-01
     -4.389  0.1011E+01  0.1328E+00
     -4.347  0.1253E+01  0.1864E+00
     -4.304  0.1463E+01  0.2490E+00
     -4.261  0.1622E+01  0.3185E+00
     -4.218  0.1725E+01  0.3923E+00
     -4.175  0.1784E+01  0.4686E+00
     -4.133  0.1833E+01  0.5470E+00
     -4.090  0.1913E+01  0.6289E+00
     -4.047  0.2056E+01  0.7169E+00
     -4.004  0.2272E+01  0.8141E+00
     -3.962  0.2540E+01  0.9228E+00
     -3.919  0.2816E+01  0.1043E+01
     -3.876  0.3043E+01  0.1174E+01
     -3.833  0.3176E+01  0.1309E+01
     -3.790  0.3200E+01  0.1446E+01
     -3.748  0.3141E+01  0.1581E+01
     -3.705  0.3056E+01  0.1711E+01
     -3.662  0.3010E+01  0.1840E+01
     -3.619  0.3054E+01  0.1971E+01
     -3.576  0.3203E+01  0.2108E+01
     -3.534  0.3430E+01  0.2255E+01
     -3.491  0.3680E+01  0.2412E+01
     -3.448  0.3895E+01  0.2579E+01
     -3.405  0.4039E+01  0.2752E+01
     -3.362  0.4108E+01  0.2928E+01
     -3.320  0.4127E+01  0.3104E+01
     -3.277  0.4130E+01  0.3281E+01
     -3.234  0.4150E+01  0.3458E+01
     -3.191  0.4211E+01  0.3639E+01
     -3.149  0.4320E+01  0.3823E+01
     -3.106  0.4474E+01  0.4015E+01
     -3.063  0.4660E+01  0.4214E+01
     -3.020  0.4858E+01  0.4422E+01
     -2.977  0.5042E+01  0.4638E+01
     -2.935  0.5186E+01  0.4860E+01
     -2.892  0.5283E+01  0.5086E+01
     -2.849  0.5343E+01  0.5315E+01
     -2.806  0.5392E+01  0.5545E+01
     -2.763  0.5461E+01  0.5779E+01
     -2.721  0.5562E+01  0.6017E+01
     -2.678  0.5671E+01  0.6260E+01
     -2.635  0.5727E+01  0.6505E+01
     -2.592  0.5678E+01  0.6748E+01
     -2.549  0.5533E+01  0.6984E+01
     -2.507  0.5387E+01  0.7215E+01
     -2.464  0.5385E+01  0.7445E+01
     -2.421  0.5638E+01  0.7687E+01
     -2.378  0.6149E+01  0.7950E+01
     -2.336  0.6789E+01  0.8240E+01
     -2.293  0.7348E+01  0.8555E+01
     -2.250  0.7637E+01  0.8881E+01
     -2.207  0.7585E+01  0.9206E+01
     -2.164  0.7281E+01  0.9518E+01
     -2.122  0.6931E+01  0.9814E+01
     -2.079  0.6761E+01  0.1010E+02
     -2.036  0.6902E+01  0.1040E+02
     -1.993  0.7339E+01  0.1071E+02
     -1.950  0.7925E+01  0.1105E+02
     -1.908  0.8464E+01  0.1141E+02
     -1.865  0.8799E+01  0.1179E+02
     -1.822  0.8886E+01  0.1217E+02
     -1.779  0.8802E+01  0.1255E+02
     -1.736  0.8690E+01  0.1292E+02
     -1.694  0.8674E+01  0.1329E+02
     -1.651  0.8798E+01  0.1367E+02
     -1.608  0.9024E+01  0.1405E+02
     -1.565  0.9292E+01  0.1445E+02
     -1.522  0.9566E+01  0.1486E+02
     -1.480  0.9840E+01  0.1528E+02
     -1.437  0.1011E+02  0.1571E+02
     -1.394  0.1033E+02  0.1616E+02
     -1.351  0.1047E+02  0.1660E+02
     -1.309  0.1055E+02  0.1706E+02
     -1.266  0.1074E+02  0.1751E+02
     -1.223  0.1122E+02  0.1799E+02
     -1.180  0.1213E+02  0.1851E+02
     -1.137  0.1334E+02  0.1908E+02
     -1.095  0.1453E+02  0.1971E+02
     -1.052  0.1534E+02  0.2036E+02
     -1.009  0.1562E+02  0.2103E+02
     -0.966  0.1556E+02  0.2170E+02
     -0.923  0.1554E+02  0.2236E+02
     -0.881  0.1598E+02  0.2305E+02
     -0.838  0.1705E+02  0.2378E+02
     -0.795  0.1871E+02  0.2458E+02
     -0.752  0.2083E+02  0.2547E+02
     -0.709  0.2346E+02  0.2647E+02
     -0.667  0.2679E+02  0.2762E+02
     -0.624  0.3096E+02  0.2894E+02
     -0.581  0.3579E+02  0.3047E+02
     -0.538  0.4071E+02  0.3222E+02
     -0.496  0.4505E+02  0.3414E+02
     -0.453  0.4843E+02  0.3622E+02
     -0.410  0.5091E+02  0.3839E+02
     -0.367  0.5278E+02  0.4065E+02
     -0.324  0.5432E+02  0.4298E+02
     -0.282  0.5559E+02  0.4536E+02
     -0.239  0.5649E+02  0.4777E+02
     -0.196  0.5695E+02  0.5021E+02
     -0.153  0.5701E+02  0.5265E+02
     -0.110  0.5689E+02  0.5508E+02
     -0.068  0.5685E+02  0.5752E+02
     -0.025  0.5714E+02  0.5996E+02
      0.018  0.5799E+02  0.6244E+02
      0.061  0.5953E+02  0.6499E+02
      0.104  0.6183E+02  0.6764E+02
      0.146  0.6481E+02  0.7041E+02
      0.189  0.6829E+02  0.7333E+02
      0.232  0.7204E+02  0.7641E+02
      0.275  0.7577E+02  0.7966E+02
      0.317  0.7916E+02  0.8304E+02
      0.360  0.8199E+02  0.8655E+02
      0.403  0.8415E+02  0.9015E+02
      0.446  0.8569E+02  0.9382E+02
      0.489  0.8672E+02  0.9753E+02
      0.531  0.8726E+02  0.1013E+03
      0.574  0.8731E+02  0.1050E+03
      0.617  0.8689E+02  0.1087E+03
      0.660  0.8608E+02  0.1124E+03
      0.703  0.8494E+02  0.1160E+03
      0.745  0.8345E+02  0.1196E+03
      0.788  0.8161E+02  0.1231E+03
      0.831  0.7957E+02  0.1265E+03
      0.874  0.7768E+02  0.1298E+03
      0.917  0.7634E+02  0.1331E+03
      0.959  0.7574E+02  0.1363E+03
      1.002  0.7580E+02  0.1396E+03
      1.045  0.7614E+02  0.1428E+03
      1.088  0.7633E+02  0.1461E+03
      1.130  0.7612E+02  0.1494E+03
      1.173  0.7552E+02  0.1526E+03
      1.216  0.7473E+02  0.1558E+03
      1.259  0.7394E+02  0.1590E+03
      1.302  0.7323E+02  0.1621E+03
      1.344  0.7254E+02  0.1652E+03
      1.387  0.7167E+02  0.1683E+03
      1.430  0.7044E+02  0.1713E+03
      1.473  0.6885E+02  0.1742E+03
      1.516  0.6719E+02  0.1771E+03
      1.558  0.6600E+02  0.1799E+03
      1.601  0.6585E+02  0.1827E+03
      1.644  0.6700E+02  0.1856E+03
      1.687  0.6931E+02  0.1886E+03
      1.730  0.7231E+02  0.1917E+03
      1.772  0.7551E+02  0.1949E+03
      1.815  0.7861E+02  0.1983E+03
      1.858  0.8146E+02  0.2017E+03
      1.901  0.8404E+02  0.2053E+03
      1.943  0.8632E+02  0.2090E+03
      1.986  0.8836E+02  0.2128E+03
      2.029  0.9021E+02  0.2167E+03
      2.072  0.9189E+02  0.2206E+03
      2.115  0.9332E+02  0.2246E+03
      2.157  0.9446E+02  0.2286E+03
      2.200  0.9546E+02  0.2327E+03
      2.243  0.9670E+02  0.2369E+03
      2.286  0.9864E+02  0.2411E+03
      2.329  0.1016E+03  0.2454E+03
      2.371  0.1055E+03  0.2499E+03
      2.414  0.1099E+03  0.2546E+03
      2.457  0.1143E+03  0.2595E+03
      2.500  0.1182E+03  0.2646E+03
      2.543  0.1213E+03  0.2698E+03
      2.585  0.1237E+03  0.2751E+03
      2.628  0.1257E+03  0.2805E+03
      2.671  0.1276E+03  0.2859E+03
      2.714  0.1295E+03  0.2915E+03
      2.757  0.1317E+03  0.2971E+03
      2.799  0.1342E+03  0.3028E+03
      2.842  0.1371E+03  0.3087E+03
      2.885  0.1398E+03  0.3147E+03
      2.928  0.1418E+03  0.3208E+03
      2.970  0.1418E+03  0.3268E+03
      3.013  0.1393E+03  0.3328E+03
      3.056  0.1338E+03  0.3385E+03
      3.099  0.1262E+03  0.3439E+03
      3.142  0.1172E+03  0.3489E+03
      3.184  0.1083E+03  0.3536E+03
      3.227  0.1005E+03  0.3579E+03
      3.270  0.9435E+02  0.3619E+03
      3.313  0.9003E+02  0.3658E+03
      3.356  0.8725E+02  0.3695E+03
      3.398  0.8559E+02  0.3731E+03
      3.441  0.8463E+02  0.3768E+03
      3.484  0.8400E+02  0.3804E+03
      3.527  0.8341E+02  0.3839E+03
      3.570  0.8276E+02  0.3875E+03
      3.612  0.8228E+02  0.3910E+03
      3.655  0.8246E+02  0.3945E+03
      3.698  0.8382E+02  0.3981E+03
      3.741  0.8661E+02  0.4018E+03
      3.783  0.9056E+02  0.4057E+03
      3.826  0.9506E+02  0.4098E+03
      3.869  0.9941E+02  0.4140E+03
      3.912  0.1031E+03  0.4184E+03
      3.955  0.1060E+03  0.4230E+03
      3.997  0.1079E+03  0.4276E+03
      4.040  0.1089E+03  0.4322E+03
      4.083  0.1090E+03  0.4369E+03
      4.126  0.1084E+03  0.4415E+03
      4.169  0.1073E+03  0.4461E+03
      4.211  0.1061E+03  0.4507E+03
      4.254  0.1047E+03  0.4552E+03
      4.297  0.1035E+03  0.4596E+03
      4.340  0.1025E+03  0.4640E+03
      4.383  0.1018E+03  0.4683E+03
      4.425  0.1014E+03  0.4727E+03
      4.468  0.1011E+03  0.4770E+03
      4.511  0.1004E+03  0.4813E+03
      4.554  0.9926E+02  0.4855E+03
      4.596  0.9799E+02  0.4897E+03
      4.639  0.9710E+02  0.4939E+03
      4.682  0.9710E+02  0.4980E+03
      4.725  0.9822E+02  0.5022E+03
      4.768  0.1003E+03  0.5065E+03
      4.810  0.1029E+03  0.5109E+03
      4.853  0.1055E+03  0.5154E+03
      4.896  0.1076E+03  0.5200E+03
      4.939  0.1087E+03  0.5247E+03
      4.982  0.1087E+03  0.5294E+03
      5.024  0.1069E+03  0.5339E+03
      5.067  0.1025E+03  0.5383E+03
      5.110  0.9476E+02  0.5424E+03
      5.153  0.8304E+02  0.5459E+03
      5.196  0.6794E+02  0.5488E+03
      5.238  0.5118E+02  0.5510E+03
      5.281  0.3510E+02  0.5525E+03
      5.324  0.2172E+02  0.5534E+03
      5.367  0.1206E+02  0.5540E+03
      5.409  0.5978E+01  0.5542E+03
      5.452  0.2638E+01  0.5543E+03
      5.495  0.1035E+01  0.5544E+03
      5.538  0.3600E+00  0.5544E+03
      5.581  0.1111E+00  0.5544E+03
      5.623  0.3040E-01  0.5544E+03
      5.666  0.7366E-02  0.5544E+03
      5.709  0.1579E-02  0.5544E+03
      5.752  0.2986E-03  0.5544E+03
      5.795  0.4970E-04  0.5544E+03
      5.837  0.7251E-05  0.5544E+03
      5.880  0.9239E-06  0.5544E+03
      5.923  0.1024E-06  0.5544E+03
      5.966  0.9831E-08  0.5544E+03
      6.009  0.8151E-09  0.5544E+03
      6.051  0.5820E-10  0.5544E+03
      6.094  0.3569E-11  0.5544E+03
      6.137  0.1868E-12  0.5544E+03
      6.180  0.8173E-14  0.5544E+03
      6.222  0.2595E-15  0.5544E+03
      6.265  0.0000E+00  0.5544E+03
      6.308  0.0000E+00  0.5544E+03
      6.351  0.0000E+00  0.5544E+03
      6.394  0.0000E+00  0.5544E+03
      6.436  0.0000E+00  0.5544E+03
      6.479  0.0000E+00  0.5544E+03
      6.522  0.0000E+00  0.5544E+03
      6.565  0.0000E+00  0.5544E+03
      6.608  0.0000E+00  0.5544E+03
      6.650  0.0000E+00  0.5544E+03
      6.693  0.0000E+00  0.5544E+03
      6.736  0.0000E+00  0.5544E+03
      6.779  0.0000E+00  0.5544E+03
      6.822  0.0000E+00  0.5544E+03
