       N       E                     dE             d eps       ncg     rms          rms(c)
DAV:   1     0.292161008166E+05    0.29216E+05   -0.86579E+05 27930   0.197E+03
DAV:   2     0.119343452566E+04   -0.28023E+05   -0.27411E+05 27720   0.604E+02
DAV:   3    -0.193985040294E+04   -0.31333E+04   -0.27224E+04 39018   0.279E+02
DAV:   4    -0.260656329498E+04   -0.66671E+03   -0.60670E+03 50974   0.974E+01
DAV:   5    -0.272687141256E+04   -0.12031E+03   -0.11237E+03 48314   0.397E+01    0.203E+02
RMM:   6    -0.579469495355E+04   -0.30678E+04   -0.11940E+04 48612   0.247E+02    0.646E+02
RMM:   7    -0.368773381518E+04    0.21070E+04   -0.36972E+03 43454   0.103E+02    0.390E+02
RMM:   8    -0.887094450822E+04   -0.51832E+04   -0.16700E+04 46109   0.294E+02    0.101E+03
RMM:   9    -0.993595117180E+04   -0.10650E+04   -0.13571E+04 49652   0.155E+02    0.820E+02
RMM:  10    -0.616551524970E+04    0.37704E+04   -0.65380E+03 38382   0.215E+02    0.531E+02
RMM:  11    -0.692595469341E+04   -0.76044E+03   -0.40398E+03 32966   0.144E+02    0.497E+02
RMM:  12    -0.865698032883E+04   -0.17310E+04   -0.10504E+04 46919   0.223E+02    0.646E+02
RMM:  13    -0.869242631311E+04   -0.35446E+02   -0.91829E+03 49606   0.106E+02    0.584E+02
RMM:  14    -0.650992518993E+04    0.21825E+04   -0.40355E+03 28769   0.133E+02    0.460E+02
RMM:  15    -0.384406605762E+04    0.26659E+04   -0.24107E+03 27815   0.111E+02    0.378E+02
RMM:  16    -0.360026441695E+04    0.24380E+03   -0.16096E+03 37829   0.492E+01    0.344E+02
RMM:  17    -0.365274328632E+04   -0.52479E+02   -0.16056E+03 35320   0.619E+01    0.353E+02
RMM:  18    -0.445346863304E+04   -0.80073E+03   -0.17474E+03 39607   0.817E+01    0.350E+02
RMM:  19    -0.287885857918E+04    0.15746E+04   -0.16232E+03 35013   0.644E+01    0.273E+02
RMM:  20    -0.292314600731E+04   -0.44287E+02   -0.18172E+03 47784   0.487E+01    0.259E+02
RMM:  21    -0.297249536327E+04   -0.49349E+02   -0.11816E+03 37742   0.415E+01    0.225E+02
RMM:  22    -0.264302000266E+04    0.32948E+03   -0.82330E+02 43902   0.266E+01    0.167E+02
RMM:  23    -0.257372254556E+04    0.69297E+02   -0.44917E+02 35963   0.206E+01    0.156E+02
RMM:  24    -0.244964962012E+04    0.12407E+03   -0.19857E+02 37634   0.170E+01    0.135E+02
RMM:  25    -0.235254870323E+04    0.97101E+02   -0.11381E+02 31603   0.157E+01    0.938E+01
RMM:  26    -0.233922342320E+04    0.13325E+02   -0.10312E+02 37814   0.115E+01    0.775E+01
RMM:  27    -0.233167841302E+04    0.75450E+01   -0.45312E+01 36179   0.807E+00    0.667E+01
RMM:  28    -0.232898613014E+04    0.26923E+01   -0.35561E+01 38613   0.583E+00    0.591E+01
RMM:  29    -0.233217170652E+04   -0.31856E+01   -0.23546E+01 40144   0.422E+00    0.618E+01
RMM:  30    -0.233269623050E+04   -0.52452E+00   -0.84032E+00 32286   0.389E+00    0.625E+01
RMM:  31    -0.233159092125E+04    0.11053E+01   -0.92117E+00 38013   0.335E+00    0.585E+01
RMM:  32    -0.233157151446E+04    0.19407E-01   -0.43748E+00 33413   0.287E+00    0.573E+01
RMM:  33    -0.232881048514E+04    0.27610E+01   -0.39300E+00 35045   0.256E+00    0.532E+01
RMM:  34    -0.232624069177E+04    0.25698E+01   -0.40809E+00 32903   0.289E+00    0.492E+01
RMM:  35    -0.232488132116E+04    0.13594E+01   -0.59305E+00 31938   0.375E+00    0.463E+01
RMM:  36    -0.231941247900E+04    0.54688E+01   -0.48452E+00 30288   0.379E+00    0.333E+01
RMM:  37    -0.231962381521E+04   -0.21134E+00   -0.46325E+00 35741   0.269E+00    0.345E+01
RMM:  38    -0.231900134389E+04    0.62247E+00   -0.24898E+00 30306   0.280E+00    0.315E+01
RMM:  39    -0.232191974315E+04   -0.29184E+01   -0.40352E+00 38390   0.217E+00    0.387E+01
RMM:  40    -0.232760815226E+04   -0.56884E+01   -0.45980E+00 32781   0.278E+00    0.492E+01
RMM:  41    -0.232637138369E+04    0.12368E+01   -0.44346E+00 39584   0.207E+00    0.463E+01
RMM:  42    -0.232368065725E+04    0.26907E+01   -0.26034E+00 39583   0.117E+00    0.407E+01
RMM:  43    -0.232228334428E+04    0.13973E+01   -0.11195E+00 37448   0.822E-01    0.377E+01
RMM:  44    -0.232000833909E+04    0.22750E+01   -0.46977E-01 31252   0.102E+00    0.321E+01
RMM:  45    -0.231906480972E+04    0.94353E+00   -0.56811E-01 29627   0.139E+00    0.300E+01
RMM:  46    -0.231822032763E+04    0.84448E+00   -0.10037E+00 31227   0.158E+00    0.279E+01
RMM:  47    -0.231741143169E+04    0.80890E+00   -0.85804E-01 30751   0.153E+00    0.256E+01
RMM:  48    -0.231720152543E+04    0.20991E+00   -0.51415E-01 29819   0.132E+00    0.244E+01
RMM:  49    -0.231665913961E+04    0.54239E+00   -0.41620E-01 33266   0.884E-01    0.213E+01
RMM:  50    -0.231665713343E+04    0.20062E-02   -0.41083E-01 33643   0.858E-01    0.210E+01
RMM:  51    -0.235040327676E+04   -0.33746E+02   -0.23069E+01 32447   0.647E+00    0.746E+01
RMM:  52    -0.233623966899E+04    0.14164E+02   -0.10053E+01 30234   0.568E+00    0.592E+01
RMM:  53    -0.232495481548E+04    0.11285E+02   -0.48519E+00 28830   0.467E+00    0.412E+01
RMM:  54    -0.232469523194E+04    0.25958E+00   -0.48026E+00 29781   0.399E+00    0.399E+01
RMM:  55    -0.232135179055E+04    0.33434E+01   -0.44590E+00 28518   0.430E+00    0.324E+01
RMM:  56    -0.232656987487E+04   -0.52181E+01   -0.51861E+00 29606   0.425E+00    0.465E+01
RMM:  57    -0.232239226548E+04    0.41776E+01   -0.45284E+00 40638   0.208E+00    0.372E+01
RMM:  58    -0.231931929492E+04    0.30730E+01   -0.13548E+00 28994   0.220E+00    0.292E+01
RMM:  59    -0.231845021998E+04    0.86907E+00   -0.22239E+00 28279   0.295E+00    0.261E+01
RMM:  60    -0.231751279397E+04    0.93743E+00   -0.14656E+00 27884   0.268E+00    0.221E+01
RMM:  61    -0.231846288919E+04   -0.95010E+00   -0.51322E+00 32797   0.324E+00    0.250E+01
RMM:  62    -0.231758396285E+04    0.87893E+00   -0.25336E+00 32205   0.236E+00    0.215E+01
RMM:  63    -0.231673821850E+04    0.84574E+00   -0.11754E+00 29832   0.196E+00    0.173E+01
RMM:  64    -0.231617030994E+04    0.56791E+00   -0.89946E-01 34036   0.128E+00    0.140E+01
RMM:  65    -0.231595172284E+04    0.21859E+00   -0.43103E-01 31701   0.103E+00    0.125E+01
RMM:  66    -0.231710922731E+04   -0.11575E+01   -0.75831E-01 29015   0.166E+00    0.194E+01
RMM:  67    -0.231569870251E+04    0.14105E+01   -0.41512E-01 28348   0.139E+00    0.101E+01
RMM:  68    -0.231558004127E+04    0.11866E+00   -0.33359E-01 29218   0.115E+00    0.932E+00
RMM:  69    -0.231537812728E+04    0.20191E+00   -0.35854E-01 30682   0.102E+00    0.690E+00
RMM:  70    -0.231524891475E+04    0.12921E+00   -0.21236E-01 28452   0.965E-01    0.516E+00
RMM:  71    -0.231566561229E+04   -0.41670E+00   -0.45973E-01 30033   0.116E+00    0.100E+01
RMM:  72    -0.231540519281E+04    0.26042E+00   -0.18351E-01 28797   0.888E-01    0.717E+00
RMM:  73    -0.231534296783E+04    0.62225E-01   -0.20660E-01 39190   0.364E-01    0.634E+00
RMM:  74    -0.231533189492E+04    0.11073E-01   -0.45653E-02 37982   0.209E-01    0.620E+00
RMM:  75    -0.231531736291E+04    0.14532E-01   -0.17866E-02 32123   0.184E-01    0.597E+00
RMM:  76    -0.231525878925E+04    0.58574E-01   -0.32118E-02 28129   0.370E-01    0.495E+00
RMM:  77    -0.231519712770E+04    0.61662E-01   -0.29290E-02 28055   0.381E-01    0.362E+00
RMM:  78    -0.231515235727E+04    0.44770E-01   -0.24706E-02 29360   0.295E-01    0.219E+00
RMM:  79    -0.231514360877E+04    0.87485E-02   -0.57906E-02 36642   0.289E-01    0.169E+00
RMM:  80    -0.231514799683E+04   -0.43881E-02   -0.24945E-02 30046   0.284E-01    0.192E+00
RMM:  81    -0.231514337985E+04    0.46170E-02   -0.18430E-02 28147   0.279E-01    0.163E+00
RMM:  82    -0.231513765363E+04    0.57262E-02   -0.98596E-03 28159   0.232E-01    0.127E+00
RMM:  83    -0.231513454850E+04    0.31051E-02   -0.72451E-03 31069   0.134E-01    0.102E+00
RMM:  84    -0.231513237450E+04    0.21740E-02   -0.32251E-03 31290   0.893E-02    0.782E-01
RMM:  85    -0.231513062920E+04    0.17453E-02   -0.32274E-03 31670   0.871E-02    0.496E-01
RMM:  86    -0.231513294368E+04   -0.23145E-02   -0.66605E-03 31171   0.129E-01    0.803E-01
RMM:  87    -0.231513084948E+04    0.20942E-02   -0.24018E-03 28582   0.109E-01    0.486E-01
RMM:  88    -0.231513090470E+04   -0.55223E-04   -0.20903E-03 33765   0.584E-02    0.478E-01
RMM:  89    -0.231513048330E+04    0.42140E-03   -0.12728E-03 33635   0.483E-02    0.356E-01
RMM:  90    -0.231512999839E+04    0.48491E-03   -0.48421E-04 30069   0.388E-02    0.183E-01
RMM:  91    -0.231513106802E+04   -0.10696E-02   -0.16694E-03 28677   0.794E-02    0.481E-01
RMM:  92    -0.231512993655E+04    0.11315E-02   -0.62235E-04 27850   0.659E-02    0.144E-01
RMM:  93    -0.231512991637E+04    0.20181E-04   -0.28985E-04 32658   0.238E-02    0.126E-01
RMM:  94    -0.231512991199E+04    0.43788E-05   -0.17359E-04 32923   0.184E-02    0.787E-02
RMM:  95    -0.231512994363E+04   -0.31642E-04   -0.13921E-04 34228   0.154E-02    0.807E-02
RMM:  96    -0.231513006679E+04   -0.12316E-03   -0.14631E-04 31440   0.187E-02    0.139E-01
RMM:  97    -0.231513001500E+04    0.51787E-04   -0.51275E-05 28975   0.147E-02    0.989E-02
RMM:  98    -0.231513001740E+04   -0.24019E-05   -0.51672E-05 31197   0.109E-02    0.865E-02
RMM:  99    -0.231513001634E+04    0.10633E-05   -0.35147E-05 31047   0.877E-03    0.434E-02
RMM: 100    -0.231513002088E+04   -0.45427E-05   -0.34487E-05 33775   0.628E-03    0.323E-02
RMM: 101    -0.231513003607E+04   -0.15185E-04   -0.19406E-05 29423   0.703E-03    0.323E-02
RMM: 102    -0.231513004086E+04   -0.47895E-05   -0.11432E-05 25301   0.583E-03    0.205E-02
RMM: 103    -0.231513005533E+04   -0.14472E-04   -0.99502E-06 22719   0.366E-03    0.202E-02
RMM: 104    -0.231513006743E+04   -0.12105E-04   -0.58965E-06 18827   0.382E-03    0.106E-02
RMM: 105    -0.231513007350E+04   -0.60702E-05   -0.43208E-06 17693   0.238E-03    0.893E-03
RMM: 106    -0.231513008696E+04   -0.13451E-04   -0.50697E-06 18607   0.312E-03    0.153E-02
RMM: 107    -0.231513008936E+04   -0.24033E-05   -0.38817E-06 16422   0.290E-03    0.733E-03
RMM: 108    -0.231513009846E+04   -0.90980E-05   -0.30785E-06 16432   0.161E-03    0.656E-03
RMM: 109    -0.231513010358E+04   -0.51219E-05   -0.26719E-06 16199   0.158E-03    0.542E-03
RMM: 110    -0.231513011956E+04   -0.15984E-04   -0.34535E-06 16938   0.138E-03    0.405E-03
RMM: 111    -0.231513012208E+04   -0.25218E-05   -0.23686E-06 15865   0.173E-03    0.500E-03
RMM: 112    -0.231513013048E+04   -0.83927E-05   -0.23906E-06 15984   0.159E-03    0.383E-03
RMM: 113    -0.231513013643E+04   -0.59491E-05   -0.21320E-06 15541   0.991E-04    0.334E-03
RMM: 114    -0.231513014118E+04   -0.47583E-05   -0.18620E-06 15517   0.108E-03    0.286E-03
RMM: 115    -0.231513014551E+04   -0.43287E-05   -0.17740E-06 15480   0.928E-04    0.268E-03
RMM: 116    -0.231513014755E+04   -0.20331E-05   -0.15102E-06 15504   0.107E-03    0.336E-03
RMM: 117    -0.231513014981E+04   -0.22676E-05   -0.13695E-06 15350   0.882E-04    0.258E-03
RMM: 118    -0.231513015232E+04   -0.25056E-05   -0.13594E-06 14772   0.700E-04    0.151E-03
RMM: 119    -0.231513015363E+04   -0.13130E-05   -0.11786E-06 14894   0.734E-04    0.163E-03
RMM: 120    -0.231513015465E+04   -0.10162E-05   -0.10833E-06 14418   0.603E-04    0.129E-03
RMM: 121    -0.231513015522E+04   -0.57230E-06   -0.93340E-07 14349   0.577E-04
   1 F= -.23151302E+04 E0= -.23122536E+04  d E =-.231513E+04
       N       E                     dE             d eps       ncg     rms          rms(c)
DAV:   1    -0.231536269610E+04   -0.23254E+00   -0.55180E+01 27944   0.778E+00    0.113E+00
RMM:   2    -0.231587516045E+04   -0.51246E+00   -0.86461E-01 27978   0.192E+00    0.915E+00
RMM:   3    -0.231627116095E+04   -0.39600E+00   -0.32111E-01 39670   0.647E-01    0.126E+01
RMM:   4    -0.231565396565E+04    0.61720E+00   -0.88503E-02 27794   0.608E-01    0.627E+00
RMM:   5    -0.231630008602E+04   -0.64612E+00   -0.13110E-01 38469   0.396E-01    0.129E+01
RMM:   6    -0.231559631069E+04    0.70378E+00   -0.12022E-01 28582   0.623E-01    0.524E+00
RMM:   7    -0.231573003332E+04   -0.13372E+00   -0.15947E-01 28705   0.743E-01    0.761E+00
RMM:   8    -0.231559630599E+04    0.13373E+00   -0.70218E-02 28123   0.522E-01    0.562E+00
RMM:   9    -0.231545404634E+04    0.14226E+00   -0.43630E-02 27735   0.508E-01    0.229E+00
RMM:  10    -0.231545300733E+04    0.10390E-02   -0.42003E-02 28236   0.407E-01    0.233E+00
RMM:  11    -0.231544694995E+04    0.60574E-02   -0.33238E-02 28684   0.345E-01    0.206E+00
RMM:  12    -0.231543044483E+04    0.16505E-01   -0.11897E-02 27724   0.250E-01    0.114E+00
RMM:  13    -0.231542537380E+04    0.50710E-02   -0.61512E-03 28488   0.163E-01    0.677E-01
RMM:  14    -0.231542520698E+04    0.16682E-03   -0.80181E-03 33005   0.124E-01    0.619E-01
RMM:  15    -0.231542379190E+04    0.14151E-02   -0.33967E-03 30677   0.958E-02    0.301E-01
RMM:  16    -0.231542363109E+04    0.16081E-03   -0.24264E-03 35871   0.582E-02    0.204E-01
RMM:  17    -0.231542375739E+04   -0.12630E-03   -0.16010E-03 35171   0.492E-02    0.226E-01
RMM:  18    -0.231542360002E+04    0.15737E-03   -0.62232E-04 30548   0.432E-02    0.143E-01
RMM:  19    -0.231542355825E+04    0.41768E-04   -0.50138E-04 34936   0.264E-02    0.852E-02
RMM:  20    -0.231542359384E+04   -0.35589E-04   -0.36048E-04 38166   0.201E-02    0.102E-01
RMM:  21    -0.231542357627E+04    0.17569E-04   -0.13100E-04 31145   0.186E-02    0.813E-02
RMM:  22    -0.231542356913E+04    0.71412E-05   -0.11212E-04 37625   0.114E-02    0.627E-02
RMM:  23    -0.231542356611E+04    0.30217E-05   -0.67796E-05 36760   0.928E-03    0.507E-02
RMM:  24    -0.231542355518E+04    0.10932E-04   -0.23014E-05 30309   0.768E-03    0.178E-02
RMM:  25    -0.231542355659E+04   -0.14133E-05   -0.21722E-05 30456   0.407E-03    0.173E-02
RMM:  26    -0.231542355714E+04   -0.54936E-06   -0.80628E-06 23967   0.413E-03
   2 F= -.23154236E+04 E0= -.23125425E+04  d E =-.293402E+00
       N       E                     dE             d eps       ncg     rms          rms(c)
DAV:   1    -0.231528328431E+04    0.14027E+00   -0.49536E+02 27720   0.235E+01    0.403E+00
RMM:   2    -0.232022189785E+04   -0.49386E+01   -0.11109E+01 27851   0.680E+00    0.280E+01
RMM:   3    -0.232970344951E+04   -0.94816E+01   -0.37678E+00 39105   0.242E+00    0.481E+01
RMM:   4    -0.232190205191E+04    0.78014E+01   -0.12764E+00 27895   0.219E+00    0.326E+01
RMM:   5    -0.232791225539E+04   -0.60102E+01   -0.24237E+00 39289   0.157E+00    0.485E+01
RMM:   6    -0.231831667413E+04    0.95956E+01   -0.17624E+00 28080   0.249E+00    0.191E+01
RMM:   7    -0.231843873716E+04   -0.12206E+00   -0.13707E+00 27835   0.247E+00    0.214E+01
RMM:   8    -0.231775525811E+04    0.68348E+00   -0.63992E-01 28016   0.160E+00    0.180E+01
RMM:   9    -0.231647189425E+04    0.12834E+01   -0.61392E-01 27734   0.178E+00    0.890E+00
RMM:  10    -0.231680845709E+04   -0.33656E+00   -0.71982E-01 28142   0.170E+00    0.120E+01
RMM:  11    -0.231626680593E+04    0.54165E+00   -0.35935E-01 27735   0.137E+00    0.648E+00
RMM:  12    -0.231606594366E+04    0.20086E+00   -0.14081E-01 27979   0.857E-01    0.282E+00
RMM:  13    -0.231605416126E+04    0.11782E-01   -0.13367E-01 32230   0.503E-01    0.233E+00
RMM:  14    -0.231604660962E+04    0.75516E-02   -0.80216E-02 32709   0.415E-01    0.182E+00
RMM:  15    -0.231603616922E+04    0.10440E-01   -0.32395E-02 29518   0.341E-01    0.124E+00
RMM:  16    -0.231603708664E+04   -0.91741E-03   -0.34233E-02 36521   0.211E-01    0.115E+00
RMM:  17    -0.231603540657E+04    0.16801E-02   -0.14353E-02 30803   0.197E-01    0.962E-01
RMM:  18    -0.231603408852E+04    0.13181E-02   -0.71104E-03 30226   0.154E-01    0.834E-01
RMM:  19    -0.231603317658E+04    0.91194E-03   -0.86651E-03 34952   0.115E-01    0.640E-01
RMM:  20    -0.231603231560E+04    0.86098E-03   -0.35533E-03 31378   0.936E-02    0.485E-01
RMM:  21    -0.231603237968E+04   -0.64085E-04   -0.27740E-03 34006   0.677E-02    0.477E-01
RMM:  22    -0.231603215256E+04    0.22712E-03   -0.26026E-03 36276   0.595E-02    0.382E-01
RMM:  23    -0.231603160569E+04    0.54687E-03   -0.94210E-04 31089   0.497E-02    0.187E-01
RMM:  24    -0.231603162383E+04   -0.18140E-04   -0.95692E-04 39416   0.286E-02    0.170E-01
RMM:  25    -0.231603154661E+04    0.77227E-04   -0.31126E-04 32722   0.243E-02    0.110E-01
RMM:  26    -0.231603151001E+04    0.36600E-04   -0.15877E-04 32796   0.179E-02    0.650E-02
RMM:  27    -0.231603152114E+04   -0.11135E-04   -0.15720E-04 39329   0.128E-02    0.688E-02
RMM:  28    -0.231603150973E+04    0.11414E-04   -0.54223E-05 31377   0.113E-02    0.461E-02
RMM:  29    -0.231603150801E+04    0.17228E-05   -0.39972E-05 34694   0.700E-03    0.365E-02
RMM:  30    -0.231603150774E+04    0.26441E-06   -0.26463E-05 33568   0.597E-03    0.313E-02
RMM:  31    -0.231603150459E+04    0.31480E-05   -0.93038E-06 25172   0.516E-03    0.196E-02
RMM:  32    -0.231603150427E+04    0.32297E-06   -0.53353E-06 20887   0.304E-03
   3 F= -.23160315E+04 E0= -.23131389E+04  d E =-.901349E+00
       N       E                     dE             d eps       ncg     rms          rms(c)
DAV:   1    -0.231213993180E+04    0.38916E+01   -0.19828E+03 27720   0.480E+01    0.848E+00
RMM:   2    -0.233498685672E+04   -0.22847E+02   -0.58254E+01 27811   0.138E+01    0.585E+01
RMM:   3    -0.238896682163E+04   -0.53980E+02   -0.19869E+01 38434   0.594E+00    0.108E+02
RMM:   4    -0.234776770720E+04    0.41199E+02   -0.52758E+00 28338   0.419E+00    0.745E+01
RMM:   5    -0.235832269920E+04   -0.10555E+02   -0.14916E+01 40102   0.347E+00    0.885E+01
RMM:   6    -0.232276528113E+04    0.35557E+02   -0.65800E+00 27864   0.494E+00    0.327E+01
RMM:   7    -0.232028712805E+04    0.24782E+01   -0.49998E+00 27875   0.491E+00    0.279E+01
RMM:   8    -0.232316812777E+04   -0.28810E+01   -0.36336E+00 27770   0.436E+00    0.366E+01
RMM:   9    -0.232226827594E+04    0.89985E+00   -0.31054E+00 30278   0.292E+00    0.338E+01
RMM:  10    -0.232003373855E+04    0.22345E+01   -0.30541E+00 27936   0.349E+00    0.264E+01
RMM:  11    -0.231667951680E+04    0.33542E+01   -0.16238E+00 27732   0.302E+00    0.108E+01
RMM:  12    -0.231620517414E+04    0.47434E+00   -0.90582E-01 29351   0.175E+00    0.629E+00
RMM:  13    -0.231621052079E+04   -0.53466E-02   -0.89077E-01 36021   0.114E+00    0.587E+00
RMM:  14    -0.231615689239E+04    0.53628E-01   -0.24404E-01 28766   0.973E-01    0.516E+00
RMM:  15    -0.231609522854E+04    0.61664E-01   -0.26078E-01 33175   0.707E-01    0.347E+00
RMM:  16    -0.231606980766E+04    0.25421E-01   -0.12312E-01 31479   0.533E-01    0.262E+00
RMM:  17    -0.231606751362E+04    0.22940E-02   -0.64825E-02 31953   0.376E-01    0.247E+00
RMM:  18    -0.231605438278E+04    0.13131E-01   -0.60112E-02 36153   0.295E-01    0.168E+00
RMM:  19    -0.231605364452E+04    0.73827E-03   -0.17707E-02 29615   0.246E-01    0.165E+00
RMM:  20    -0.231605668230E+04   -0.30378E-02   -0.22606E-02 31901   0.228E-01    0.176E+00
RMM:  21    -0.231604686423E+04    0.98181E-02   -0.16713E-02 30704   0.215E-01    0.968E-01
RMM:  22    -0.231604352218E+04    0.33420E-02   -0.10451E-02 30532   0.177E-01    0.581E-01
RMM:  23    -0.231604555369E+04   -0.20315E-02   -0.13165E-02 34088   0.153E-01    0.792E-01
RMM:  24    -0.231604427744E+04    0.12762E-02   -0.49175E-03 30267   0.125E-01    0.618E-01
RMM:  25    -0.231604388692E+04    0.39052E-03   -0.46500E-03 37645   0.650E-02    0.504E-01
RMM:  26    -0.231604344089E+04    0.44603E-03   -0.22620E-03 39868   0.468E-02    0.387E-01
RMM:  27    -0.231604284902E+04    0.59188E-03   -0.62634E-04 31247   0.398E-02    0.186E-01
RMM:  28    -0.231604288954E+04   -0.40527E-04   -0.58951E-04 32417   0.362E-02    0.198E-01
RMM:  29    -0.231604295483E+04   -0.65284E-04   -0.48605E-04 34327   0.299E-02    0.222E-01
RMM:  30    -0.231604290644E+04    0.48388E-04   -0.22239E-04 31728   0.225E-02    0.193E-01
RMM:  31    -0.231604285825E+04    0.48190E-04   -0.22884E-04 37135   0.173E-02    0.164E-01
RMM:  32    -0.231604276327E+04    0.94982E-04   -0.83203E-05 31246   0.145E-02    0.965E-02
RMM:  33    -0.231604275108E+04    0.12190E-04   -0.70796E-05 35125   0.921E-03    0.818E-02
RMM:  34    -0.231604273069E+04    0.20385E-04   -0.49059E-05 34623   0.882E-03    0.513E-02
RMM:  35    -0.231604271861E+04    0.12080E-04   -0.23577E-05 30732   0.752E-03    0.202E-02
RMM:  36    -0.231604271993E+04   -0.13151E-05   -0.21204E-05 30305   0.413E-03    0.197E-02
RMM:  37    -0.231604271935E+04    0.58213E-06   -0.57407E-06 20573   0.360E-03
   4 F= -.23160427E+04 E0= -.23131530E+04  d E =-.912564E+00
       N       E                     dE             d eps       ncg     rms          rms(c)
DAV:   1    -0.231549364752E+04    0.54907E+00   -0.48973E+02 27720   0.234E+01    0.419E+00
RMM:   2    -0.231977032468E+04   -0.42767E+01   -0.12422E+01 27779   0.740E+00    0.268E+01
RMM:   3    -0.232159961694E+04   -0.18293E+01   -0.28753E+00 29971   0.312E+00    0.309E+01
RMM:   4    -0.232555649011E+04   -0.39569E+01   -0.19583E+00 38567   0.166E+00    0.416E+01
RMM:   5    -0.232624649690E+04   -0.69001E+00   -0.14828E+00 30277   0.200E+00    0.433E+01
RMM:   6    -0.232094656527E+04    0.52999E+01   -0.19981E+00 37252   0.168E+00    0.284E+01
RMM:   7    -0.231782584862E+04    0.31207E+01   -0.14106E+00 27772   0.249E+00    0.166E+01
RMM:   8    -0.231821703710E+04   -0.39119E+00   -0.81877E-01 28314   0.172E+00    0.194E+01
RMM:   9    -0.231672137469E+04    0.14957E+01   -0.53582E-01 27910   0.152E+00    0.935E+00
RMM:  10    -0.231693637422E+04   -0.21500E+00   -0.78297E-01 28134   0.169E+00    0.113E+01
RMM:  11    -0.231656195312E+04    0.37442E+00   -0.41176E-01 27752   0.144E+00    0.757E+00
RMM:  12    -0.231631026426E+04    0.25169E+00   -0.16072E-01 27764   0.990E-01    0.368E+00
RMM:  13    -0.231627227130E+04    0.37993E-01   -0.88898E-02 30289   0.496E-01    0.271E+00
RMM:  14    -0.231626805425E+04    0.42171E-02   -0.10465E-01 33086   0.461E-01    0.243E+00
RMM:  15    -0.231624485288E+04    0.23201E-01   -0.31647E-02 27895   0.384E-01    0.130E+00
RMM:  16    -0.231624418297E+04    0.66990E-03   -0.29761E-02 34814   0.228E-01    0.119E+00
RMM:  17    -0.231624374324E+04    0.43974E-03   -0.19264E-02 32101   0.203E-01    0.111E+00
RMM:  18    -0.231624000753E+04    0.37357E-02   -0.77579E-03 29956   0.163E-01    0.723E-01
RMM:  19    -0.231623992249E+04    0.85045E-04   -0.90078E-03 34359   0.120E-01    0.655E-01
RMM:  20    -0.231623981701E+04    0.10547E-03   -0.47468E-03 30914   0.111E-01    0.617E-01
RMM:  21    -0.231623935761E+04    0.45941E-03   -0.22467E-03 30175   0.855E-02    0.534E-01
RMM:  22    -0.231623900270E+04    0.35491E-03   -0.29092E-03 36851   0.591E-02    0.433E-01
RMM:  23    -0.231623842496E+04    0.57774E-03   -0.10049E-03 31864   0.468E-02    0.270E-01
RMM:  24    -0.231623838503E+04    0.39927E-04   -0.84583E-04 37758   0.297E-02    0.233E-01
RMM:  25    -0.231623823291E+04    0.15213E-03   -0.43412E-04 35669   0.252E-02    0.144E-01
RMM:  26    -0.231623816224E+04    0.70662E-04   -0.15968E-04 31055   0.205E-02    0.805E-02
RMM:  27    -0.231623817081E+04   -0.85647E-05   -0.18001E-04 38851   0.133E-02    0.771E-02
RMM:  28    -0.231623816341E+04    0.73965E-05   -0.86428E-05 33820   0.121E-02    0.606E-02
RMM:  29    -0.231623815521E+04    0.82011E-05   -0.34863E-05 31031   0.931E-03    0.444E-02
RMM:  30    -0.231623815499E+04    0.21860E-06   -0.38689E-05 35729   0.594E-03    0.383E-02
RMM:  31    -0.231623814970E+04    0.52890E-05   -0.12803E-05 26900   0.514E-03    0.196E-02
RMM:  32    -0.231623814932E+04    0.38298E-06   -0.63596E-06 21720   0.365E-03
   5 F= -.23162381E+04 E0= -.23133417E+04  d E =-.110799E+01
