unknown system                          
           1
     9.726678    0.000000    0.000000
     0.000000    8.423550    0.000000
     0.000000    0.000000   45.000000
   Fe   Mn
 281   7
Direct configuration=     1
   0.05398560  0.70103054  0.21129686
   0.31819315  0.72382094  0.87624985
   0.68838565  0.95879372  0.61156311
   0.43829068  0.45856997  0.61155272
   0.44065859  0.28740701  0.25520243
   0.05854608  0.38806304  0.83354306
   0.30864493  0.88760770  0.83355184
   0.44708160  0.62632145  0.70036975
   0.05983128  0.21282571  0.74490333
   0.17853135  0.45113009  0.21130513
   0.56766584  0.21060508  0.47749224
   0.06674193  0.87497148  0.56690747
   0.56826978  0.22385890  0.87614845
   0.80809300  0.52802935  0.12397957
   0.42937016  0.95112541  0.21138518
   0.56660364  0.37494023  0.56682902
   0.81101164  0.04161102  0.38827545
   0.68189586  0.78891353  0.52246450
   0.44261303  0.46052853  0.47740406
   0.43387634  0.96254583  0.74476971
   0.44194605  0.62489398  0.56690567
   0.57155071  0.87637314  0.70056171
   0.30893044  0.02578791  0.12391933
   0.68994690  0.95885094  0.34398546
   0.68803749  0.78217179  0.12421722
   0.05269952  0.37404662  0.29952599
   0.68975508  0.46800592  0.87610048
   0.42927694  0.45118141  0.21135634
   0.80859351  0.37527506  0.43306476
   0.56345421  0.70854325  0.61155720
   0.55977315  0.54059415  0.65593339
   0.81770058  0.86173581  0.16668812
   0.56521357  0.53755941  0.25508906
   0.68970998  0.45886205  0.34398381
   0.19179019  0.61147859  0.16644277
   0.19449276  0.79955447  0.78886199
   0.44715237  0.12615663  0.70041114
   0.92795902  0.62353758  0.29960891
   0.31749644  0.22359503  0.87614182
   0.31675996  0.87473379  0.56688896
   0.81741775  0.22377052  0.87621156
   0.80976385  0.54075384  0.65586908
   0.55870759  0.52654176  0.12393719
   0.56920768  0.04985838  0.78896467
   0.19084145  0.28733910  0.25520762
   0.80845658  0.87524327  0.43307854
   0.57220171  0.37614632  0.70043162
   0.05741127  0.02609646  0.12411739
   0.30995596  0.54069181  0.65595970
   0.56486156  0.20891281  0.34388814
   0.18834961  0.95869116  0.61143845
   0.30286446  0.37405863  0.29960496
   0.43457797  0.79047120  0.65598060
   0.19475900  0.29927729  0.78881508
   0.06753948  0.36290459  0.16667354
   0.69707631  0.62619899  0.70045867
   0.31139678  0.54112107  0.38838666
   0.06757741  0.72341186  0.87622324
   0.93371520  0.63762640  0.83395789
   0.31971874  0.54960921  0.78891346
   0.30452472  0.20058308  0.21123688
   0.06801481  0.71062080  0.47735625
   0.55433439  0.20087865  0.21113681
   0.30972208  0.21247689  0.74490581
   0.07197891  0.37626963  0.70053217
   0.18317865  0.63773770  0.83356437
   0.06943217  0.04941754  0.78901888
   0.44167688  0.12482391  0.56692351
   0.93474149  0.29076724  0.65587081
   0.80414221  0.20149552  0.21115720
   0.92940238  0.95130813  0.21130710
   0.94158780  0.62517867  0.56686575
   0.80823382  0.38762962  0.83353775
   0.19700124  0.62626510  0.70035627
   0.80865230  0.88765723  0.83355215
   0.68503560  0.29067937  0.65605876
   0.31347384  0.20842582  0.61155901
   0.43457661  0.46289466  0.74489207
   0.43606266  0.79113498  0.38835599
   0.68436532  0.96262206  0.74493014
   0.80396164  0.70112762  0.21118365
   0.81343315  0.70843225  0.61159933
   0.43686151  0.78336269  0.12403895
   0.30963106  0.71231736  0.74481866
   0.32008177  0.04948357  0.78887914
   0.81110657  0.54158455  0.38831324
   0.68236810  0.28863246  0.52236198
   0.69497229  0.79932805  0.78890854
   0.19071909  0.78739100  0.25521455
   0.69168473  0.11240684  0.16661157
   0.69265490  0.96063486  0.47740748
   0.94009311  0.95928984  0.34403906
   0.80748162  0.03955804  0.52253649
   0.68353134  0.62487574  0.43293085
   0.43999794  0.45873786  0.34400150
   0.81050471  0.21154418  0.74462723
   0.43966370  0.96814684  0.87609109
   0.56675701  0.87494891  0.56677555
   0.80934197  0.02789668  0.12395215
   0.42802503  0.62365320  0.29948403
   0.81701992  0.72380380  0.87636540
   0.68843053  0.45852202  0.61152118
   0.55857440  0.38774778  0.83351098
   0.80291917  0.37357106  0.29947580
   0.18606859  0.29105869  0.38833299
   0.81989358  0.54942747  0.78896511
   0.81516462  0.53764487  0.25516300
   0.30299638  0.87398117  0.29961659
   0.17865309  0.95136347  0.21129687
   0.18436689  0.46267976  0.74491564
   0.43267096  0.28862018  0.52228612
   0.06471954  0.70855099  0.34382963
   0.18478100  0.79064476  0.65588883
   0.44475985  0.79924781  0.78884398
   0.68374781  0.12490476  0.43296172
   0.93235856  0.78916108  0.52252363
   0.69178526  0.61248135  0.16675774
   0.81474619  0.70888887  0.34386926
   0.93426778  0.46256225  0.74493676
   0.19001106  0.45905287  0.34399197
   0.56985998  0.54969463  0.78904630
   0.56632041  0.36250137  0.16646239
   0.56490297  0.70911156  0.34392329
   0.55300023  0.37375728  0.29957997
   0.18968738  0.46808198  0.87611515
   0.19182804  0.11143623  0.16642481
   0.44461747  0.29915561  0.78882632
   0.69099423  0.78757119  0.25540076
   0.93365283  0.13768179  0.83354904
   0.44263975  0.96052303  0.47745923
   0.56749433  0.72466847  0.87624938
   0.19247701  0.46094067  0.47748048
   0.93409818  0.28208945  0.12412088
   0.31149971  0.04123876  0.38841324
   0.06014818  0.04063107  0.65603924
   0.55829279  0.37499903  0.43309378
   0.68427950  0.46289242  0.74498274
   0.56017229  0.21230852  0.74479749
   0.94721675  0.12634427  0.70037866
   0.55967225  0.04083614  0.65583979
   0.55735735  0.53882954  0.52239087
   0.17788082  0.12385251  0.29951947
   0.44142005  0.11045212  0.16640499
   0.67805957  0.62340220  0.29945411
   0.92794168  0.12347690  0.29961896
   0.81652505  0.37512804  0.56692450
   0.05262543  0.87372558  0.29957356
   0.19167521  0.62522227  0.56688285
   0.94451920  0.79967141  0.78884607
   0.30829925  0.38758679  0.83353526
   0.93990906  0.46838798  0.87610483
   0.43373386  0.63786958  0.83351115
   0.06464346  0.20863484  0.34379894
   0.18979249  0.96805354  0.87611174
   0.93463522  0.78200132  0.12417768
   0.68643968  0.79120245  0.38838740
   0.93466300  0.79053889  0.65598156
   0.94125729  0.11202392  0.16657420
   0.43513049  0.29083780  0.65609075
   0.05426390  0.20111041  0.21129516
   0.67915307  0.95115755  0.21124841
   0.17797325  0.62358888  0.29950840
   0.82198948  0.87619386  0.70045910
   0.94690525  0.62655257  0.70049193
   0.19707352  0.12615336  0.70037600
   0.94266780  0.46041787  0.47730174
   0.81353012  0.20859293  0.61156172
   0.18343899  0.62504909  0.43314556
   0.42787234  0.12371259  0.29950235
   0.67802421  0.12365838  0.29947956
   0.56176243  0.54149871  0.38848171
   0.81440759  0.20879146  0.34378831
   0.43989801  0.46797670  0.87596474
   0.55852066  0.88760498  0.83346611
   0.31772687  0.21045338  0.47733294
   0.19252287  0.96100182  0.47737641
   0.05853473  0.88768719  0.83352361
   0.05757423  0.53968821  0.52251348
   0.94264641  0.96059962  0.47732082
   0.06346726  0.70841670  0.61160217
   0.55728226  0.03944107  0.52250905
   0.69498743  0.29910686  0.78879233
   0.81775763  0.36175517  0.16669596
   0.43363751  0.12489509  0.43296945
   0.06800174  0.21073163  0.47742893
   0.30968529  0.04069302  0.65590424
   0.43221992  0.78893455  0.52232892
   0.18375339  0.13783609  0.83359472
   0.18594075  0.28280474  0.12420909
   0.94028586  0.45910609  0.34402724
   0.56652922  0.86254242  0.16645106
   0.30422866  0.70079728  0.21126067
   0.94128460  0.61230495  0.16662204
   0.18880586  0.45840393  0.61157434
   0.07230047  0.87638984  0.70037186
   0.05988013  0.54058881  0.65594005
   0.30778154  0.52564097  0.12401439
   0.93632322  0.79134407  0.38837273
   0.94499497  0.29894115  0.78877195
   0.18452920  0.29060005  0.65586756
   0.93813661  0.95845785  0.61155593
   0.80976216  0.71188738  0.74485903
   0.69077982  0.28743628  0.25530727
   0.05920778  0.71233625  0.74497944
   0.67898981  0.45112795  0.21127057
   0.81784409  0.21072221  0.47745784
   0.56769217  0.71067793  0.47749588
   0.06778278  0.86309576  0.16663757
   0.93214993  0.28902581  0.52251491
   0.68451931  0.79055039  0.65591411
   0.05840193  0.87477102  0.43301258
   0.06818247  0.22331546  0.87620027
   0.80976840  0.04036395  0.65590688
   0.55968991  0.02634314  0.12384659
   0.30872680  0.37523402  0.43284227
   0.31644536  0.37490202  0.56683499
   0.31781651  0.71024181  0.47725445
   0.05735805  0.03927364  0.52249336
   0.32193614  0.87622215  0.70054410
   0.06521783  0.53759757  0.25510340
   0.68345126  0.13776212  0.83353012
   0.81515128  0.03740173  0.25517139
   0.18345921  0.12518792  0.43306095
   0.69731824  0.12636236  0.70049973
   0.18261945  0.28945978  0.52251164
   0.44077842  0.78738391  0.25521950
   0.44139265  0.61055707  0.16646439
   0.06348438  0.20827945  0.61159536
   0.18609094  0.79114553  0.38834646
   0.30676395  0.53937628  0.52242073
   0.82188435  0.37613005  0.70034506
   0.68642886  0.29129708  0.38840212
   0.19164840  0.12492365  0.56678114
   0.68969611  0.96836304  0.87607165
   0.69158538  0.12506302  0.56694311
   0.44013257  0.95877404  0.34400847
   0.18400131  0.96269176  0.74476091
   0.94121566  0.78745289  0.25524977
   0.55828446  0.87504208  0.43303921
   0.30867722  0.87508129  0.43301547
   0.80739695  0.53897744  0.52254552
   0.92932441  0.45121893  0.21129456
   0.31520179  0.53767943  0.25513848
   0.56148884  0.04148608  0.38842763
   0.93844930  0.45846990  0.61162155
   0.06135352  0.04127593  0.38838813
   0.06147483  0.54145521  0.38838114
   0.43618739  0.29108964  0.38833710
   0.69260291  0.46064377  0.47739370
   0.06662153  0.37497877  0.56692072
   0.55391021  0.70106269  0.21116056
   0.94126376  0.28751042  0.25523381
   0.81918365  0.04961809  0.78908036
   0.19014625  0.95897386  0.34400941
   0.55297307  0.87377780  0.29960203
   0.05842673  0.37477428  0.43283669
   0.31499066  0.70908505  0.34394408
   0.31500305  0.20896525  0.34393698
   0.94143141  0.12524583  0.56686019
   0.43879300  0.95882406  0.61159432
   0.56551142  0.03752618  0.25507457
   0.18596766  0.78267695  0.12424641
   0.06534870  0.03756698  0.25516480
   0.69165500  0.62500788  0.56693889
   0.05698999  0.52592601  0.12415511
   0.30659537  0.03866522  0.52231304
   0.68762632  0.28220392  0.12416755
   0.81751740  0.71071830  0.47753977
   0.43356915  0.13787546  0.83351503
   0.32227531  0.37632862  0.70041924
   0.68359563  0.63793327  0.83350862
   0.55977750  0.71205690  0.74485821
   0.93619709  0.29119942  0.38841745
   0.93967554  0.96838441  0.87610425
   0.56277648  0.20798663  0.61137310
   0.81651782  0.87492162  0.56685961
   0.80288434  0.87356140  0.29950454
   0.31526048  0.03784496  0.25509266
   0.43669557  0.28327934  0.12405854
   0.31355758  0.70876678  0.61162458
   0.43385647  0.62489193  0.43297125
   0.93277434  0.62546253  0.43316857
   0.31832405  0.86294406  0.16580729
   0.07050500  0.54932852  0.78875922
   0.93321202  0.12547391  0.43318485
   0.31826049  0.36290983  0.16577504
   0.93342344  0.96217465  0.74468968
   0.18155584  0.78935717  0.52251208
Direct configuration=     2
   0.05458341  0.70106186  0.21127047
   0.31788707  0.72333812  0.87617816
   0.68838368  0.95868603  0.61154382
   0.43832674  0.45849811  0.61154286
   0.44008518  0.28736317  0.25524617
   0.05889558  0.38789314  0.83363419
   0.30900586  0.88748274  0.83364695
   0.44639646  0.62634260  0.70037784
   0.06038658  0.21286469  0.74485185
   0.17912221  0.45118556  0.21130068
   0.56712888  0.21038031  0.47754051
   0.06638674  0.87493448  0.56690216
   0.56790549  0.22329712  0.87608518
   0.80837086  0.52836931  0.12405570
   0.42991927  0.95116554  0.21135311
   0.56626888  0.37488761  0.56681719
   0.81111737  0.04166574  0.38830597
   0.68246340  0.78920029  0.52242004
   0.44207607  0.46033530  0.47745896
   0.43446378  0.96260616  0.74473210
   0.44146917  0.62488625  0.56688536
   0.57096828  0.87638995  0.70053298
   0.30917105  0.02648143  0.12394947
   0.68946590  0.95873499  0.34399455
   0.68798223  0.78180485  0.12428279
   0.05341564  0.37393097  0.29953598
   0.68964521  0.46848780  0.87601526
   0.42982137  0.45121186  0.21132886
   0.80890032  0.37528373  0.43305269
   0.56344796  0.70848510  0.61155280
   0.56024154  0.54068465  0.65590933
   0.81724063  0.86197354  0.16660243
   0.56465159  0.53748447  0.25514857
   0.68927501  0.45873777  0.34398616
   0.19130174  0.61165629  0.16640772
   0.19410577  0.79951544  0.78884690
   0.44648219  0.12620102  0.70040979
   0.92859647  0.62348118  0.29961203
   0.31718888  0.22309872  0.87607911
   0.31638646  0.87473804  0.56687740
   0.81712535  0.22324501  0.87613809
   0.81021297  0.54088634  0.65585579
   0.55889805  0.52695109  0.12400950
   0.56886511  0.04981674  0.78896689
   0.19026681  0.28733941  0.25525038
   0.80878327  0.87526847  0.43306579
   0.57149862  0.37621145  0.70043529
   0.05792768  0.02654368  0.12416955
   0.31038248  0.54078425  0.65593848
   0.56441203  0.20881736  0.34393031
   0.18837047  0.95857676  0.61144260
   0.30354698  0.37398301  0.29960662
   0.43507192  0.79064122  0.65596151
   0.19433966  0.29914416  0.78882236
   0.06699461  0.36301294  0.16657782
   0.69636022  0.62625550  0.70044549
   0.31142152  0.54120824  0.38838933
   0.06727284  0.72291198  0.87617415
   0.93409302  0.63749981  0.83400647
   0.31937329  0.54964357  0.78892108
   0.30496030  0.20054061  0.21121582
   0.06739930  0.71037810  0.47742972
   0.55477010  0.20086835  0.21113585
   0.31029248  0.21261411  0.74484267
   0.07131287  0.37636957  0.70050750
   0.18361346  0.63759720  0.83363530
   0.06906217  0.04940997  0.78900583
   0.44129950  0.12481999  0.56691097
   0.93522692  0.29091349  0.65584783
   0.80462015  0.20138242  0.21114925
   0.92986512  0.95132392  0.21130686
   0.94125890  0.62515650  0.56685385
   0.80862502  0.38748118  0.83363557
   0.19632537  0.62631611  0.70035802
   0.80900093  0.88749219  0.83365739
   0.68545076  0.29078726  0.65602640
   0.31346603  0.20836195  0.61154661
   0.43509204  0.46285793  0.74482274
   0.43614598  0.79120005  0.38836637
   0.68484819  0.96263344  0.74486787
   0.80445852  0.70112216  0.21117562
   0.81341458  0.70837775  0.61157858
   0.43688217  0.78279060  0.12407299
   0.31012502  0.71239590  0.74476480
   0.31966329  0.04949682  0.78889357
   0.81120568  0.54164385  0.38833982
   0.68290023  0.28899946  0.52233655
   0.69453434  0.79933856  0.78890792
   0.19017649  0.78739878  0.25525916
   0.69129939  0.11253788  0.16654481
   0.69210245  0.96040285  0.47748106
   0.93965170  0.95920003  0.34404442
   0.80799046  0.03973845  0.52247844
   0.68375076  0.62493604  0.43294830
   0.43955338  0.45871218  0.34402567
   0.81089322  0.21180116  0.74461273
   0.43958074  0.96862656  0.87600788
   0.56639996  0.87490338  0.56677711
   0.80948454  0.02824138  0.12402710
   0.42867153  0.62360837  0.29950791
   0.81675585  0.72333280  0.87629107
   0.68841662  0.45843670  0.61151018
   0.55892710  0.38762326  0.83359273
   0.80358513  0.37355300  0.29949076
   0.18610403  0.29112621  0.38834792
   0.81941726  0.54945139  0.78898114
   0.81462851  0.53750614  0.25521774
   0.30364076  0.87393459  0.29961577
   0.17921503  0.95137887  0.21129751
   0.18499088  0.46271755  0.74485117
   0.43318337  0.28895448  0.52225847
   0.06432046  0.70856066  0.34387674
   0.18525923  0.79072913  0.65586107
   0.44430953  0.79929541  0.78883547
   0.68392718  0.12493796  0.43297598
   0.93283131  0.78930412  0.52247998
   0.69135631  0.61259369  0.16666983
   0.81433090  0.70880068  0.34391672
   0.93484423  0.46260006  0.74487135
   0.18956541  0.45894675  0.34401115
   0.56948181  0.54964038  0.78903731
   0.56620211  0.36271139  0.16637381
   0.56445193  0.70895353  0.34396081
   0.55367434  0.37371198  0.29958556
   0.18957380  0.46854374  0.87603614
   0.19136771  0.11162649  0.16638299
   0.44421346  0.29911990  0.78882451
   0.69035370  0.78753343  0.25540703
   0.93409683  0.13756537  0.83363148
   0.44206099  0.96030864  0.47751240
   0.56719795  0.72403944  0.87617352
   0.19194247  0.46067495  0.47752848
   0.93440256  0.28170925  0.12419544
   0.31149410  0.04131425  0.38841371
   0.06054009  0.04067861  0.65600305
   0.55869589  0.37500201  0.43308125
   0.68473514  0.46282181  0.74491440
   0.56063294  0.21249595  0.74475038
   0.94654440  0.12641959  0.70038068
   0.56015147  0.04086611  0.65583146
   0.55786271  0.53908054  0.52234502
   0.17856300  0.12375537  0.29952944
   0.44102293  0.11070440  0.16634963
   0.67866925  0.62337429  0.29947650
   0.92858762  0.12343114  0.29961499
   0.81619017  0.37507395  0.56692341
   0.05336978  0.87368705  0.29957826
   0.19131002  0.62515459  0.56688572
   0.94404134  0.79959069  0.78885697
   0.30872973  0.38747291  0.83363005
   0.93980816  0.46882861  0.87602898
   0.43413573  0.63775736  0.83359919
   0.06424357  0.20860915  0.34385022
   0.18966016  0.96849491  0.87602713
   0.93488618  0.78160111  0.12424125
   0.68642707  0.79129407  0.38839274
   0.93514542  0.79067705  0.65595594
   0.94086218  0.11222423  0.16651633
   0.43550678  0.29094289  0.65605683
   0.05483365  0.20108805  0.21126860
   0.67968036  0.95118550  0.21125202
   0.17864444  0.62355689  0.29951788
   0.82128187  0.87624434  0.70044574
   0.94627014  0.62657005  0.70048331
   0.19640007  0.12625006  0.70037985
   0.94212093  0.46021809  0.47737266
   0.81349144  0.20851343  0.61154858
   0.18391512  0.62509164  0.43311774
   0.42854960  0.12363826  0.29952009
   0.67864291  0.12358419  0.29949268
   0.56167030  0.54152046  0.38847569
   0.81404874  0.20875824  0.34384977
   0.43978943  0.46848171  0.87589670
   0.55889066  0.88748203  0.83357662
   0.31718540  0.21031121  0.47740111
   0.19196099  0.96076182  0.47742775
   0.05889261  0.88756327  0.83361908
   0.05806658  0.53980354  0.52245284
   0.94214539  0.96035009  0.47738923
   0.06346674  0.70836486  0.61158068
   0.55779505  0.03966521  0.52245450
   0.69454725  0.29905722  0.78879119
   0.81726641  0.36198663  0.16660337
   0.43391739  0.12492508  0.43297775
   0.06741212  0.21049682  0.47749060
   0.31018011  0.04079046  0.65589005
   0.43282141  0.78918285  0.52229454
   0.18416994  0.13769736  0.83367005
   0.18593674  0.28220690  0.12424116
   0.93978199  0.45903753  0.34403526
   0.56638295  0.86275618  0.16636177
   0.30469743  0.70070478  0.21124079
   0.94085152  0.61243299  0.16656022
   0.18872963  0.45829114  0.61156630
   0.07157479  0.87644521  0.70035772
   0.06032719  0.54071299  0.65593270
   0.30815432  0.52635945  0.12402356
   0.93631058  0.79144274  0.38838458
   0.94449833  0.29889150  0.78878181
   0.18503417  0.29075632  0.65585847
   0.93815495  0.95842031  0.61156483
   0.81030764  0.71206158  0.74481868
   0.69019658  0.28741066  0.25533211
   0.05987070  0.71243826  0.74490618
   0.67952047  0.45116303  0.21127121
   0.81727740  0.21048109  0.47751385
   0.56715799  0.71043684  0.47754736
   0.06720564  0.86318242  0.16654928
   0.93267839  0.28923842  0.52246936
   0.68496301  0.79066245  0.65589916
   0.05880915  0.87480755  0.43299985
   0.06782533  0.22277164  0.87614157
   0.81024872  0.04047023  0.65588223
   0.55975529  0.02676554  0.12393125
   0.30898867  0.37520385  0.43287483
   0.31612477  0.37485603  0.56682291
   0.31728200  0.71010286  0.47732965
   0.05789785  0.03952634  0.52242743
   0.32125891  0.87628136  0.70052280
   0.06469799  0.53751161  0.25516800
   0.68389851  0.13769191  0.83360999
   0.81462989  0.03732649  0.25522200
   0.18392191  0.12524800  0.43304176
   0.69659402  0.12637773  0.70048297
   0.18314967  0.28968265  0.52246651
   0.44016485  0.78736095  0.25526487
   0.44097150  0.61080942  0.16641205
   0.06343018  0.20824188  0.61156914
   0.18612875  0.79121012  0.38836061
   0.30747365  0.53960845  0.52237160
   0.82120210  0.37620639  0.70034164
   0.68641818  0.29135309  0.38840073
   0.19131217  0.12486860  0.56678624
   0.68959269  0.96882803  0.87599338
   0.69122711  0.12502080  0.56693329
   0.43964827  0.95873470  0.34402930
   0.18461510  0.96274009  0.74472784
   0.94052737  0.78742597  0.25529680
   0.55869301  0.87507293  0.43303563
   0.30894147  0.87505211  0.43301322
   0.80792869  0.53916154  0.52248099
   0.92979339  0.45124544  0.21129324
   0.31465232  0.53755327  0.25520275
   0.56147405  0.04150799  0.38843142
   0.93844802  0.45837114  0.61160260
   0.06135661  0.04135618  0.38839054
   0.06146088  0.54150414  0.38838742
   0.43623872  0.29115877  0.38835222
   0.69207141  0.46043449  0.47746207
   0.06628385  0.37493303  0.56691658
   0.55440978  0.70102900  0.21115662
   0.94054484  0.28745804  0.25528230
   0.81881636  0.04958651  0.78905914
   0.18967584  0.95886598  0.34402534
   0.55364196  0.87372713  0.29960244
   0.05880332  0.37482000  0.43285713
   0.31451656  0.70893185  0.34397120
   0.31452300  0.20882260  0.34397010
   0.94108067  0.12520685  0.56685510
   0.43872316  0.95872917  0.61158493
   0.56489739  0.03744764  0.25513685
   0.18600353  0.78211984  0.12427463
   0.06480920  0.03747055  0.25522031
   0.69128916  0.62496873  0.56692594
   0.05750195  0.52639452  0.12420311
   0.30729479  0.03896862  0.52227920
   0.68761244  0.28185130  0.12423899
   0.81700383  0.71044559  0.47758429
   0.43400556  0.13772407  0.83358380
   0.32159510  0.37634012  0.70041300
   0.68406032  0.63780759  0.83359600
   0.56027805  0.71215282  0.74480749
   0.93620354  0.29131311  0.38842006
   0.93961320  0.96880458  0.87602559
   0.56291097  0.20804685  0.61138632
   0.81617228  0.87493431  0.56686789
   0.80357051  0.87355087  0.29951788
   0.31470310  0.03767185  0.25516713
   0.43671655  0.28271495  0.12408392
   0.31352268  0.70866451  0.61160127
   0.43409846  0.62490621  0.43296841
   0.93318998  0.62539440  0.43315218
   0.31785522  0.86296688  0.16576999
   0.07003146  0.54934209  0.78876569
   0.93357588  0.12540825  0.43317129
   0.31778741  0.36292241  0.16574948
   0.93401183  0.96231038  0.74468419
   0.18217719  0.78953033  0.52247950
Direct configuration=     3
   0.05637686  0.70115582  0.21119131
   0.31696883  0.72188967  0.87596311
   0.68837776  0.95836295  0.61148594
   0.43843494  0.45828251  0.61151330
   0.43836496  0.28723164  0.25537739
   0.05994406  0.38738342  0.83390760
   0.31008866  0.88710786  0.83393227
   0.44434103  0.62640607  0.70040212
   0.06205248  0.21298162  0.74469741
   0.18089477  0.45135197  0.21128732
   0.56551800  0.20970599  0.47768531
   0.06532117  0.87482347  0.56688623
   0.56681261  0.22161177  0.87589538
   0.80920442  0.52938917  0.12428411
   0.43156661  0.95128592  0.21125689
   0.56526462  0.37472973  0.56678172
   0.81143458  0.04182991  0.38839750
   0.68416602  0.79006060  0.52228666
   0.44046516  0.45975559  0.47762367
   0.43622609  0.96278715  0.74461927
   0.44003854  0.62486303  0.56682444
   0.56922101  0.87644041  0.70044678
   0.30989288  0.02856199  0.12403987
   0.68802291  0.95838712  0.34402179
   0.68781643  0.78070401  0.12447952
   0.05556401  0.37358401  0.29956596
   0.68931560  0.46993346  0.87575960
   0.43145466  0.45130319  0.21124644
   0.80982074  0.37530974  0.43301646
   0.56342921  0.70831064  0.61153959
   0.56164670  0.54095617  0.65583715
   0.81586079  0.86268675  0.16634539
   0.56296566  0.53725967  0.25532708
   0.68797010  0.45836492  0.34399321
   0.18983640  0.61218940  0.16630255
   0.19294481  0.79939838  0.78880163
   0.44447166  0.12633422  0.70040574
   0.93050884  0.62331200  0.29962140
   0.31626620  0.22160979  0.87589100
   0.31526595  0.87475078  0.56684272
   0.81624813  0.22166849  0.87591767
   0.81156036  0.54128385  0.65581591
   0.55946946  0.52817910  0.12422641
   0.56783740  0.04969183  0.78897352
   0.18854290  0.28734037  0.25537864
   0.80976333  0.87534405  0.43302755
   0.56938936  0.37640686  0.70044630
   0.05947690  0.02788535  0.12432604
   0.31166204  0.54106158  0.65587483
   0.56306344  0.20853101  0.34405682
   0.18843306  0.95823356  0.61145505
   0.30559453  0.37375615  0.29961159
   0.43655376  0.79115130  0.65590427
   0.19308165  0.29874479  0.78884422
   0.06536001  0.36333799  0.16629068
   0.69421195  0.62642504  0.70040596
   0.31149572  0.54146976  0.38839736
   0.06635915  0.72141237  0.87602689
   0.93522648  0.63712002  0.83415221
   0.31833695  0.54974666  0.78894391
   0.30626701  0.20041321  0.21115264
   0.06555277  0.70965000  0.47765016
   0.55607721  0.20083745  0.21113298
   0.31200368  0.21302580  0.74465324
   0.06931474  0.37666938  0.70043350
   0.18491790  0.63717569  0.83384806
   0.06795220  0.04938727  0.78896666
   0.44016737  0.12480824  0.56687334
   0.93668322  0.29135227  0.65577890
   0.80605396  0.20104310  0.21112542
   0.93125335  0.95137128  0.21130615
   0.94027220  0.62508999  0.56681812
   0.80979862  0.38703583  0.83392904
   0.19429775  0.62646912  0.70036327
   0.81004682  0.88699706  0.83397308
   0.68669626  0.29111092  0.65592932
   0.31344259  0.20817034  0.61150942
   0.43663832  0.46274773  0.74461475
   0.43639593  0.79139527  0.38839753
   0.68629679  0.96266757  0.74468108
   0.80594914  0.70110579  0.21115153
   0.81335884  0.70821424  0.61151631
   0.43694415  0.78107432  0.12417513
   0.31160693  0.71263153  0.74460322
   0.31840783  0.04953658  0.78893687
   0.81150302  0.54182174  0.38841958
   0.68449660  0.29010046  0.52226026
   0.69322048  0.79937009  0.78890607
   0.18854870  0.78742215  0.25539298
   0.69014338  0.11293102  0.16634453
   0.69044511  0.95970681  0.47770182
   0.93832748  0.95893061  0.34406051
   0.80951699  0.04027968  0.52230430
   0.68440901  0.62511694  0.43300066
   0.43821969  0.45863515  0.34409817
   0.81205874  0.21257209  0.74456923
   0.43933186  0.97006571  0.87575825
   0.56532880  0.87476679  0.56678177
   0.80991225  0.02927546  0.12425193
   0.43061102  0.62347385  0.29957956
   0.81596365  0.72191983  0.87606808
   0.68837487  0.45818075  0.61147718
   0.55998519  0.38724972  0.83383796
   0.80558303  0.37349881  0.29953564
   0.18621037  0.29132878  0.38839271
   0.81798831  0.54952315  0.78902924
   0.81302019  0.53708994  0.25538196
   0.30557390  0.87379485  0.29961332
   0.18090085  0.95142505  0.21129944
   0.18686283  0.46283091  0.74465776
   0.43472061  0.28995740  0.52217555
   0.06312322  0.70858967  0.34401808
   0.18669391  0.79098224  0.65577780
   0.44295859  0.79943820  0.78880995
   0.68446530  0.12503759  0.43301873
   0.93424954  0.78973322  0.52234904
   0.69006949  0.61293071  0.16640611
   0.81308501  0.70853613  0.34405908
   0.93657357  0.46271349  0.74467510
   0.18822846  0.45862838  0.34406871
   0.56834731  0.54947764  0.78901035
   0.56584720  0.36334142  0.16610810
   0.56309882  0.70847945  0.34407338
   0.55569667  0.37357606  0.29960236
   0.18923305  0.46992902  0.87579908
   0.18998674  0.11219724  0.16625755
   0.44300143  0.29901276  0.78881907
   0.68843213  0.78742015  0.25542585
   0.93542883  0.13721612  0.83387881
   0.44032468  0.95966545  0.47767194
   0.56630880  0.72215237  0.87594593
   0.19033886  0.45987779  0.47767246
   0.93531570  0.28056864  0.12441911
   0.31147725  0.04154072  0.38841513
   0.06171582  0.04082122  0.65589448
   0.55990517  0.37501095  0.43304367
   0.68610206  0.46260996  0.74470936
   0.56201488  0.21305823  0.74460908
   0.94452735  0.12664556  0.70038672
   0.56158915  0.04095601  0.65580648
   0.55937879  0.53983352  0.52220746
   0.18060956  0.12346394  0.29955936
   0.43983155  0.11146123  0.16618357
   0.68049830  0.62329054  0.29954366
   0.93052544  0.12329385  0.29960310
   0.81518552  0.37491167  0.56692016
   0.05560284  0.87357145  0.29959238
   0.19021446  0.62495152  0.56689433
   0.94260778  0.79934854  0.78888967
   0.31002116  0.38713129  0.83391442
   0.93950548  0.47015049  0.87580142
   0.43534135  0.63742068  0.83386331
   0.06304389  0.20853208  0.34400405
   0.18926320  0.96981903  0.87577330
   0.93563907  0.78040048  0.12443194
   0.68638921  0.79156893  0.38840877
   0.93659268  0.79109153  0.65587909
   0.93967685  0.11282515  0.16634271
   0.43663566  0.29125813  0.65595508
   0.05654287  0.20102096  0.21118891
   0.68126224  0.95126936  0.21126283
   0.18065803  0.62346090  0.29954632
   0.81915904  0.87639579  0.70040565
   0.94436481  0.62662249  0.70045748
   0.19437971  0.12654018  0.70039141
   0.94048033  0.45961875  0.47758542
   0.81337540  0.20827493  0.61150916
   0.18534351  0.62521928  0.43303427
   0.43058136  0.12341528  0.29957331
   0.68049900  0.12336160  0.29953204
   0.56139390  0.54158570  0.38845763
   0.81297217  0.20865860  0.34403414
   0.43946369  0.46999676  0.87569259
   0.56000065  0.88711319  0.83390812
   0.31556100  0.20988473  0.47760564
   0.19027535  0.96004180  0.47758176
   0.05996625  0.88719151  0.83390550
   0.05954364  0.54014954  0.52227095
   0.94064232  0.95960149  0.47759448
   0.06346516  0.70820932  0.61151620
   0.55933343  0.04033763  0.52229086
   0.69322671  0.29890829  0.78878779
   0.81579278  0.36268102  0.16632560
   0.43475701  0.12501504  0.43300265
   0.06564325  0.20979237  0.47767564
   0.31166457  0.04108278  0.65584748
   0.43462588  0.78992775  0.52219139
   0.18541958  0.13728118  0.83389601
   0.18592471  0.28041337  0.12433739
   0.93827039  0.45883186  0.34405932
   0.56594417  0.86339748  0.16609388
   0.30610372  0.70042726  0.21118115
   0.93955228  0.61281709  0.16637479
   0.18850091  0.45795279  0.61154216
   0.06939774  0.87661131  0.70031532
   0.06166836  0.54108554  0.65591064
   0.30927268  0.52851489  0.12405106
   0.93627266  0.79173876  0.38842014
   0.94300841  0.29874252  0.78881139
   0.18654907  0.29122515  0.65583121
   0.93820994  0.95830767  0.61159154
   0.81194405  0.71258418  0.74469764
   0.68844684  0.28733379  0.25540663
   0.06185945  0.71274429  0.74468639
   0.68111245  0.45126827  0.21127312
   0.81557732  0.20975772  0.47768190