 288 288   0   0
  0.1280206E+02  0.9726678E-09  0.8423550E-09  0.4500000E-08  0.2500000E-15
  1.000000000000000E-004
  CAR 
 unknown system                          
      6.78179777     -6.01872375  301      4.29603663      1.00000000
     -6.019  0.0000E+00  0.0000E+00
     -5.976  0.0000E+00  0.0000E+00
     -5.933  0.0000E+00  0.0000E+00
     -5.891  0.0000E+00  0.0000E+00
     -5.848  0.0000E+00  0.0000E+00
     -5.805  0.0000E+00  0.0000E+00
     -5.763  0.0000E+00  0.0000E+00
     -5.720  0.0000E+00  0.0000E+00
     -5.677  0.0000E+00  0.0000E+00
     -5.635  0.0000E+00  0.0000E+00
     -5.592  0.0000E+00  0.0000E+00
     -5.549  0.0000E+00  0.0000E+00
     -5.507  0.0000E+00  0.0000E+00
     -5.464  0.0000E+00  0.0000E+00
     -5.421  0.0000E+00  0.0000E+00
     -5.379  0.1626E-15  0.6939E-17
     -5.336  0.3643E-14  0.1624E-15
     -5.293  0.7881E-13  0.3525E-14
     -5.251  0.1439E-11  0.6492E-13
     -5.208  0.2240E-10  0.1021E-11
     -5.165  0.2973E-09  0.1370E-10
     -5.123  0.3365E-08  0.1573E-09
     -5.080  0.3250E-07  0.1544E-08
     -5.037  0.2681E-06  0.1298E-07
     -4.995  0.1889E-05  0.9359E-07
     -4.952  0.1139E-04  0.5797E-06
     -4.909  0.5888E-04  0.3092E-05
     -4.867  0.2614E-03  0.1425E-04
     -4.824  0.1000E-02  0.5693E-04
     -4.781  0.3314E-02  0.1983E-03
     -4.739  0.9562E-02  0.6064E-03
     -4.696  0.2421E-01  0.1639E-02
     -4.653  0.5433E-01  0.3958E-02
     -4.611  0.1092E+00  0.8616E-02
     -4.568  0.1987E+00  0.1710E-01
     -4.525  0.3311E+00  0.3122E-01
     -4.483  0.5091E+00  0.5294E-01
     -4.440  0.7271E+00  0.8397E-01
     -4.397  0.9694E+00  0.1253E+00
     -4.355  0.1212E+01  0.1770E+00
     -4.312  0.1428E+01  0.2380E+00
     -4.269  0.1596E+01  0.3061E+00
     -4.227  0.1708E+01  0.3789E+00
     -4.184  0.1774E+01  0.4546E+00
     -4.141  0.1823E+01  0.5324E+00
     -4.099  0.1894E+01  0.6132E+00
     -4.056  0.2023E+01  0.6995E+00
     -4.013  0.2222E+01  0.7943E+00
     -3.971  0.2480E+01  0.9001E+00
     -3.928  0.2755E+01  0.1018E+01
     -3.885  0.2996E+01  0.1146E+01
     -3.843  0.3151E+01  0.1280E+01
     -3.800  0.3200E+01  0.1417E+01
     -3.757  0.3158E+01  0.1551E+01
     -3.715  0.3075E+01  0.1682E+01
     -3.672  0.3014E+01  0.1811E+01
     -3.629  0.3031E+01  0.1940E+01
     -3.587  0.3151E+01  0.2075E+01
     -3.544  0.3358E+01  0.2218E+01
     -3.501  0.3605E+01  0.2372E+01
     -3.459  0.3834E+01  0.2535E+01
     -3.416  0.4002E+01  0.2706E+01
     -3.373  0.4096E+01  0.2881E+01
     -3.331  0.4132E+01  0.3057E+01
     -3.288  0.4138E+01  0.3234E+01
     -3.245  0.4149E+01  0.3411E+01
     -3.203  0.4191E+01  0.3590E+01
     -3.160  0.4280E+01  0.3772E+01
     -3.117  0.4418E+01  0.3961E+01
     -3.075  0.4596E+01  0.4157E+01
     -3.032  0.4797E+01  0.4362E+01
     -2.989  0.4993E+01  0.4575E+01
     -2.947  0.5157E+01  0.4795E+01
     -2.904  0.5272E+01  0.5020E+01
     -2.861  0.5341E+01  0.5248E+01
     -2.819  0.5386E+01  0.5477E+01
     -2.776  0.5439E+01  0.5709E+01
     -2.733  0.5523E+01  0.5945E+01
     -2.691  0.5628E+01  0.6185E+01
     -2.648  0.5704E+01  0.6429E+01
     -2.605  0.5691E+01  0.6671E+01
     -2.563  0.5575E+01  0.6909E+01
     -2.520  0.5424E+01  0.7141E+01
     -2.477  0.5369E+01  0.7370E+01
     -2.435  0.5538E+01  0.7606E+01
     -2.392  0.5974E+01  0.7861E+01
     -2.349  0.6590E+01  0.8142E+01
     -2.307  0.7194E+01  0.8449E+01
     -2.264  0.7581E+01  0.8773E+01
     -2.221  0.7634E+01  0.9098E+01
     -2.179  0.7388E+01  0.9414E+01
     -2.136  0.7023E+01  0.9713E+01
     -2.093  0.6770E+01  0.1000E+02
     -2.051  0.6805E+01  0.1029E+02
     -2.008  0.7162E+01  0.1060E+02
     -1.965  0.7730E+01  0.1093E+02
     -1.923  0.8316E+01  0.1128E+02
     -1.880  0.8735E+01  0.1166E+02
     -1.837  0.8898E+01  0.1203E+02
     -1.795  0.8844E+01  0.1241E+02
     -1.752  0.8706E+01  0.1278E+02
     -1.709  0.8635E+01  0.1315E+02
     -1.667  0.8709E+01  0.1352E+02
     -1.624  0.8918E+01  0.1390E+02
     -1.581  0.9195E+01  0.1430E+02
     -1.539  0.9482E+01  0.1470E+02
     -1.496  0.9758E+01  0.1512E+02
     -1.453  0.1002E+02  0.1555E+02
     -1.411  0.1025E+02  0.1598E+02
     -1.368  0.1041E+02  0.1643E+02
     -1.325  0.1050E+02  0.1687E+02
     -1.283  0.1063E+02  0.1733E+02
     -1.240  0.1099E+02  0.1780E+02
     -1.197  0.1174E+02  0.1830E+02
     -1.155  0.1286E+02  0.1885E+02
     -1.112  0.1410E+02  0.1945E+02
     -1.069  0.1508E+02  0.2009E+02
     -1.027  0.1556E+02  0.2076E+02
     -0.984  0.1559E+02  0.2142E+02
     -0.941  0.1549E+02  0.2208E+02
     -0.899  0.1570E+02  0.2275E+02
     -0.856  0.1650E+02  0.2346E+02
     -0.813  0.1793E+02  0.2422E+02
     -0.771  0.1985E+02  0.2507E+02
     -0.728  0.2223E+02  0.2602E+02
     -0.685  0.2522E+02  0.2709E+02
     -0.643  0.2904E+02  0.2833E+02
     -0.600  0.3365E+02  0.2977E+02
     -0.557  0.3863E+02  0.3142E+02
     -0.514  0.4331E+02  0.3326E+02
     -0.472  0.4712E+02  0.3527E+02
     -0.429  0.4994E+02  0.3740E+02
     -0.386  0.5199E+02  0.3962E+02
     -0.344  0.5363E+02  0.4191E+02
     -0.301  0.5502E+02  0.4426E+02
     -0.258  0.5611E+02  0.4665E+02
     -0.216  0.5679E+02  0.4908E+02
     -0.173  0.5703E+02  0.5151E+02
     -0.130  0.5696E+02  0.5394E+02
     -0.088  0.5682E+02  0.5636E+02
     -0.045  0.5691E+02  0.5879E+02
     -0.002  0.5747E+02  0.6125E+02
      0.040  0.5868E+02  0.6375E+02
      0.083  0.6062E+02  0.6634E+02
      0.126  0.6328E+02  0.6904E+02
      0.168  0.6652E+02  0.7187E+02
      0.211  0.7016E+02  0.7487E+02
      0.254  0.7393E+02  0.7802E+02
      0.296  0.7753E+02  0.8133E+02
      0.339  0.8065E+02  0.8477E+02
      0.382  0.8312E+02  0.8832E+02
      0.424  0.8493E+02  0.9194E+02
      0.467  0.8620E+02  0.9562E+02
      0.510  0.8700E+02  0.9933E+02
      0.552  0.8733E+02  0.1031E+03
      0.595  0.8718E+02  0.1068E+03
      0.638  0.8659E+02  0.1105E+03
      0.680  0.8563E+02  0.1141E+03
      0.723  0.8433E+02  0.1177E+03
      0.766  0.8266E+02  0.1213E+03
      0.808  0.8069E+02  0.1247E+03
      0.851  0.7865E+02  0.1280E+03
      0.894  0.7695E+02  0.1313E+03
      0.936  0.7593E+02  0.1346E+03
      0.979  0.7567E+02  0.1378E+03
      1.022  0.7593E+02  0.1410E+03
      1.064  0.7627E+02  0.1443E+03
      1.107  0.7630E+02  0.1476E+03
      1.150  0.7588E+02  0.1508E+03
      1.192  0.7513E+02  0.1540E+03
      1.235  0.7427E+02  0.1572E+03
      1.278  0.7350E+02  0.1603E+03
      1.320  0.7284E+02  0.1634E+03
      1.363  0.7215E+02  0.1665E+03
      1.406  0.7120E+02  0.1695E+03
      1.448  0.6984E+02  0.1725E+03
      1.491  0.6818E+02  0.1754E+03
      1.534  0.6664E+02  0.1783E+03
      1.576  0.6582E+02  0.1811E+03
      1.619  0.6620E+02  0.1839E+03
      1.662  0.6787E+02  0.1868E+03
      1.704  0.7053E+02  0.1898E+03
      1.747  0.7365E+02  0.1929E+03
      1.790  0.7682E+02  0.1962E+03
      1.832  0.7980E+02  0.1996E+03
      1.875  0.8252E+02  0.2031E+03
      1.918  0.8495E+02  0.2068E+03
      1.960  0.8710E+02  0.2105E+03
      2.003  0.8903E+02  0.2143E+03
      2.046  0.9080E+02  0.2182E+03
      2.088  0.9238E+02  0.2221E+03
      2.131  0.9370E+02  0.2261E+03
      2.174  0.9477E+02  0.2301E+03
      2.216  0.9583E+02  0.2342E+03
      2.259  0.9730E+02  0.2384E+03
      2.302  0.9961E+02  0.2426E+03
      2.344  0.1029E+03  0.2470E+03
      2.387  0.1071E+03  0.2516E+03
      2.430  0.1116E+03  0.2563E+03
      2.472  0.1158E+03  0.2613E+03
      2.515  0.1193E+03  0.2664E+03
      2.558  0.1221E+03  0.2716E+03
      2.600  0.1243E+03  0.2769E+03
      2.643  0.1262E+03  0.2823E+03
      2.686  0.1281E+03  0.2877E+03
      2.728  0.1301E+03  0.2933E+03
      2.771  0.1324E+03  0.2989E+03
      2.814  0.1351E+03  0.3047E+03
      2.856  0.1380E+03  0.3106E+03
      2.899  0.1406E+03  0.3166E+03
      2.942  0.1421E+03  0.3227E+03
      2.984  0.1414E+03  0.3287E+03
      3.027  0.1379E+03  0.3346E+03
      3.070  0.1316E+03  0.3402E+03
      3.112  0.1235E+03  0.3455E+03
      3.155  0.1145E+03  0.3503E+03
      3.198  0.1059E+03  0.3549E+03
      3.240  0.9856E+02  0.3591E+03
      3.283  0.9304E+02  0.3630E+03
      3.326  0.8924E+02  0.3668E+03
      3.368  0.8682E+02  0.3705E+03
      3.411  0.8538E+02  0.3742E+03
      3.454  0.8452E+02  0.3778E+03
      3.496  0.8392E+02  0.3814E+03
      3.539  0.8331E+02  0.3849E+03
      3.582  0.8267E+02  0.3885E+03
      3.624  0.8229E+02  0.3920E+03
      3.667  0.8272E+02  0.3955E+03
      3.710  0.8444E+02  0.3991E+03
      3.752  0.8755E+02  0.4028E+03
      3.795  0.9172E+02  0.4067E+03
      3.838  0.9625E+02  0.4109E+03
      3.880  0.1005E+03  0.4151E+03
      3.923  0.1040E+03  0.4196E+03
      3.966  0.1067E+03  0.4241E+03
      4.008  0.1083E+03  0.4288E+03
      4.051  0.1090E+03  0.4334E+03
      4.094  0.1087E+03  0.4380E+03
      4.136  0.1079E+03  0.4426E+03
      4.179  0.1067E+03  0.4472E+03
      4.222  0.1054E+03  0.4517E+03
      4.264  0.1041E+03  0.4561E+03
      4.307  0.1030E+03  0.4605E+03
      4.350  0.1021E+03  0.4649E+03
      4.392  0.1017E+03  0.4692E+03
      4.435  0.1015E+03  0.4736E+03
      4.478  0.1011E+03  0.4779E+03
      4.520  0.1004E+03  0.4822E+03
      4.563  0.9913E+02  0.4864E+03
      4.606  0.9780E+02  0.4906E+03
      4.648  0.9696E+02  0.4947E+03
      4.691  0.9710E+02  0.4988E+03
      4.734  0.9838E+02  0.5030E+03
      4.776  0.1006E+03  0.5073E+03
      4.819  0.1033E+03  0.5117E+03
      4.862  0.1059E+03  0.5163E+03
      4.904  0.1080E+03  0.5209E+03
      4.947  0.1091E+03  0.5255E+03
      4.990  0.1090E+03  0.5302E+03
      5.032  0.1070E+03  0.5347E+03
      5.075  0.1023E+03  0.5391E+03
      5.118  0.9388E+02  0.5431E+03
      5.160  0.8141E+02  0.5466E+03
      5.203  0.6558E+02  0.5494E+03
      5.246  0.4835E+02  0.5514E+03
      5.288  0.3224E+02  0.5528E+03
      5.331  0.1926E+02  0.5536E+03
      5.374  0.1023E+02  0.5541E+03
      5.416  0.4811E+01  0.5543E+03
      5.459  0.1992E+01  0.5544E+03
      5.502  0.7243E+00  0.5544E+03
      5.544  0.2307E+00  0.5544E+03
      5.587  0.6419E-01  0.5544E+03
      5.630  0.1558E-01  0.5544E+03
      5.672  0.3295E-02  0.5544E+03
      5.715  0.6060E-03  0.5544E+03
      5.758  0.9682E-04  0.5544E+03
      5.800  0.1342E-04  0.5544E+03
      5.843  0.1613E-05  0.5544E+03
      5.886  0.1677E-06  0.5544E+03
      5.928  0.1508E-07  0.5544E+03
      5.971  0.1171E-08  0.5544E+03
      6.014  0.7847E-10  0.5544E+03
      6.056  0.4530E-11  0.5544E+03
      6.099  0.2240E-12  0.5544E+03
      6.142  0.8847E-14  0.5544E+03
      6.184  0.1951E-15  0.5544E+03
      6.227  0.0000E+00  0.5544E+03
      6.270  0.0000E+00  0.5544E+03
      6.312  0.0000E+00  0.5544E+03
      6.355  0.0000E+00  0.5544E+03
      6.398  0.0000E+00  0.5544E+03
      6.440  0.0000E+00  0.5544E+03
      6.483  0.0000E+00  0.5544E+03
      6.526  0.0000E+00  0.5544E+03
      6.568  0.0000E+00  0.5544E+03
      6.611  0.0000E+00  0.5544E+03
      6.654  0.0000E+00  0.5544E+03
      6.696  0.0000E+00  0.5544E+03
      6.739  0.0000E+00  0.5544E+03
      6.782  0.0000E+00  0.5544E+03
