       N       E                     dE             d eps       ncg     rms          rms(c)
DAV:   1     0.292177499248E+05    0.29218E+05   -0.86582E+05 27930   0.197E+03
DAV:   2     0.119368621610E+04   -0.28024E+05   -0.27413E+05 27720   0.604E+02
DAV:   3    -0.194012461344E+04   -0.31338E+04   -0.27235E+04 39060   0.279E+02
DAV:   4    -0.260678554806E+04   -0.66666E+03   -0.60670E+03 50960   0.975E+01
DAV:   5    -0.272687651077E+04   -0.12009E+03   -0.11219E+03 48314   0.397E+01    0.203E+02
RMM:   6    -0.557090543783E+04   -0.28440E+04   -0.11343E+04 48446   0.242E+02    0.628E+02
RMM:   7    -0.360046269225E+04    0.19704E+04   -0.39524E+03 38071   0.106E+02    0.389E+02
RMM:   8    -0.943325810348E+04   -0.58328E+04   -0.17437E+04 44406   0.306E+02    0.108E+03
RMM:   9    -0.115778512578E+05   -0.21446E+04   -0.15818E+04 47073   0.170E+02    0.892E+02
RMM:  10    -0.992165478968E+04    0.16562E+04   -0.66464E+03 47448   0.142E+02    0.656E+02
RMM:  11    -0.996456964958E+04   -0.42915E+02   -0.19977E+04 42160   0.336E+02    0.902E+02
RMM:  12    -0.105688314277E+05   -0.60426E+03   -0.13958E+04 47549   0.171E+02    0.860E+02
RMM:  13    -0.115763155261E+05   -0.10075E+04   -0.10429E+04 49402   0.165E+02    0.960E+02
RMM:  14    -0.118595521536E+05   -0.28324E+03   -0.12965E+04 49196   0.147E+02    0.960E+02
RMM:  15    -0.125761585238E+05   -0.71661E+03   -0.80101E+03 47547   0.138E+02    0.796E+02
RMM:  16    -0.342571142056E+04    0.91504E+04   -0.10756E+04 33727   0.264E+02    0.552E+02
RMM:  17    -0.319954064989E+04    0.22617E+03   -0.37630E+03 39307   0.105E+02    0.438E+02
RMM:  18    -0.331628894660E+04   -0.11675E+03   -0.42013E+03 46784   0.859E+01    0.418E+02
RMM:  19    -0.251677185350E+04    0.79952E+03   -0.22532E+03 28188   0.973E+01    0.274E+02
RMM:  20    -0.243387302644E+04    0.82899E+02   -0.32080E+03 49486   0.499E+01    0.219E+02
RMM:  21    -0.256358796907E+04   -0.12971E+03   -0.21805E+03 48676   0.626E+01    0.255E+02
RMM:  22    -0.238015491874E+04    0.18343E+03   -0.11591E+03 48773   0.543E+01    0.180E+02
RMM:  23    -0.253022913845E+04   -0.15007E+03   -0.12128E+03 46106   0.424E+01    0.198E+02
RMM:  24    -0.251709968048E+04    0.13129E+02   -0.10800E+03 47061   0.358E+01    0.147E+02
RMM:  25    -0.253117120426E+04   -0.14072E+02   -0.83324E+02 48972   0.258E+01    0.122E+02
RMM:  26    -0.254127601659E+04   -0.10105E+02   -0.73650E+02 47175   0.189E+01    0.122E+02
RMM:  27    -0.256359578638E+04   -0.22320E+02   -0.64247E+02 48771   0.129E+01    0.130E+02
RMM:  28    -0.262504164985E+04   -0.61446E+02   -0.49017E+02 49566   0.105E+01    0.145E+02
RMM:  29    -0.260872223593E+04    0.16319E+02   -0.47022E+02 42547   0.149E+01    0.155E+02
RMM:  30    -0.257974753452E+04    0.28975E+02   -0.42583E+02 46319   0.957E+00    0.159E+02
RMM:  31    -0.256609242963E+04    0.13655E+02   -0.34447E+02 41202   0.774E+00    0.167E+02
RMM:  32    -0.256478264821E+04    0.13098E+01   -0.19881E+02 46412   0.513E+00    0.176E+02
RMM:  33    -0.267555352796E+04   -0.11077E+03   -0.19102E+02 37720   0.664E+00    0.197E+02
RMM:  34    -0.268300371967E+04   -0.74502E+01   -0.10717E+02 44536   0.418E+00    0.207E+02
RMM:  35    -0.268792249728E+04   -0.49188E+01   -0.57795E+01 46351   0.214E+00    0.213E+02
RMM:  36    -0.275271709680E+04   -0.64795E+02   -0.51748E+01 37757   0.404E+00    0.220E+02
RMM:  37    -0.275637923317E+04   -0.36621E+01   -0.33554E+01 44690   0.162E+00    0.224E+02
RMM:  38    -0.275027144490E+04    0.61078E+01   -0.13936E+01 37616   0.119E+00    0.227E+02
RMM:  39    -0.273899735474E+04    0.11274E+02   -0.73750E+00 34566   0.118E+00    0.229E+02
RMM:  40    -0.274227994374E+04   -0.32826E+01   -0.66253E+00 43745   0.574E-01    0.230E+02
RMM:  41    -0.273800798447E+04    0.42720E+01   -0.32303E+00 31504   0.160E+00    0.231E+02
RMM:  42    -0.274494185111E+04   -0.69339E+01   -0.39119E+00 40609   0.933E-01    0.233E+02
RMM:  43    -0.277098905700E+04   -0.26047E+02   -0.28297E+00 31994   0.159E+00    0.236E+02
RMM:  44    -0.275229493626E+04    0.18694E+02   -0.20956E+00 35866   0.136E+00    0.236E+02
RMM:  45    -0.276078550051E+04   -0.84906E+01   -0.18858E+00 41044   0.745E-01    0.237E+02
RMM:  46    -0.278576092853E+04   -0.24975E+02   -0.25060E+00 31123   0.214E+00    0.239E+02
RMM:  47    -0.276667554572E+04    0.19085E+02   -0.22913E+00 34620   0.175E+00    0.239E+02
RMM:  48    -0.273249013994E+04    0.34185E+02   -0.25284E+00 33412   0.228E+00    0.236E+02
RMM:  49    -0.278826178676E+04   -0.55772E+02   -0.38835E+00 32164   0.294E+00    0.242E+02
RMM:  50    -0.284005292315E+04   -0.51791E+02   -0.69477E+00 39872   0.229E+00    0.248E+02
RMM:  51    -0.311490526077E+04   -0.27485E+03   -0.18673E+02 33339   0.199E+01    0.300E+02
RMM:  52    -0.283723890825E+04    0.27767E+03   -0.70115E+01 28489   0.178E+01    0.268E+02
RMM:  53    -0.281802187788E+04    0.19217E+02   -0.64250E+01 42436   0.469E+00    0.264E+02
RMM:  54    -0.283233124249E+04   -0.14309E+02   -0.11175E+01 35965   0.334E+00    0.265E+02
RMM:  55    -0.283377793114E+04   -0.14467E+01   -0.51751E+00 32598   0.304E+00    0.263E+02
RMM:  56    -0.276831642362E+04    0.65462E+02   -0.14226E+02 31081   0.199E+01    0.244E+02
RMM:  57    -0.255113119885E+04    0.21719E+03   -0.18742E+02 37386   0.162E+01    0.191E+02
RMM:  58    -0.250124625871E+04    0.49885E+02   -0.15925E+02 43956   0.877E+00    0.170E+02
RMM:  59    -0.250570800493E+04   -0.44617E+01   -0.91151E+01 44704   0.479E+00    0.174E+02
RMM:  60    -0.251182466443E+04   -0.61167E+01   -0.57726E+01 47431   0.270E+00    0.179E+02
RMM:  61    -0.259452442606E+04   -0.82700E+02   -0.12789E+02 33747   0.137E+01    0.200E+02
RMM:  62    -0.251370430907E+04    0.80820E+02   -0.57276E+01 31762   0.114E+01    0.170E+02
RMM:  63    -0.250086839588E+04    0.12836E+02   -0.63586E+01 31830   0.121E+01    0.169E+02
RMM:  64    -0.246909135890E+04    0.31777E+02   -0.56624E+01 40153   0.755E+00    0.161E+02
RMM:  65    -0.245326261430E+04    0.15829E+02   -0.28056E+01 32615   0.730E+00    0.159E+02
RMM:  66    -0.247553250242E+04   -0.22270E+02   -0.10833E+02 34723   0.128E+01    0.166E+02
RMM:  67    -0.249458752552E+04   -0.19055E+02   -0.93295E+01 43060   0.848E+00    0.170E+02
RMM:  68    -0.251658342924E+04   -0.21996E+02   -0.68134E+01 41389   0.570E+00    0.178E+02
RMM:  69    -0.253021434334E+04   -0.13631E+02   -0.54010E+01 44237   0.427E+00    0.182E+02
RMM:  70    -0.254215117138E+04   -0.11937E+02   -0.43689E+01 45849   0.259E+00    0.186E+02
RMM:  71    -0.281487745035E+04   -0.27273E+03   -0.34443E+02 32902   0.273E+01    0.251E+02
RMM:  72    -0.256444051161E+04    0.25044E+03   -0.14379E+02 29165   0.219E+01    0.198E+02
RMM:  73    -0.244858275949E+04    0.11586E+03   -0.93128E+01 27983   0.200E+01    0.152E+02
RMM:  74    -0.241170925274E+04    0.36874E+02   -0.81518E+01 31195   0.138E+01    0.135E+02
RMM:  75    -0.242653297170E+04   -0.14824E+02   -0.10729E+02 37320   0.120E+01    0.143E+02
RMM:  76    -0.255095317095E+04   -0.12442E+03   -0.22896E+02 27750   0.296E+01    0.185E+02
RMM:  77    -0.243624486690E+04    0.11471E+03   -0.19328E+02 39910   0.143E+01    0.137E+02
RMM:  78    -0.241539335637E+04    0.20852E+02   -0.44234E+01 29549   0.119E+01    0.126E+02
RMM:  79    -0.241067238047E+04    0.47210E+01   -0.37860E+01 31332   0.973E+00    0.126E+02
RMM:  80    -0.240414465210E+04    0.65277E+01   -0.32006E+01 30466   0.957E+00    0.123E+02
RMM:  81    -0.262682241091E+04   -0.22268E+03   -0.13690E+02 32200   0.172E+01    0.207E+02
RMM:  82    -0.246493598038E+04    0.16189E+03   -0.51123E+01 29382   0.129E+01    0.148E+02
RMM:  83    -0.244356554657E+04    0.21370E+02   -0.52144E+01 37363   0.852E+00    0.141E+02
RMM:  84    -0.242004502036E+04    0.23521E+02   -0.25790E+01 31493   0.771E+00    0.130E+02
RMM:  85    -0.240471870944E+04    0.15326E+02   -0.33368E+01 39917   0.591E+00    0.119E+02
RMM:  86    -0.240414987364E+04    0.56884E+00   -0.11442E+02 30324   0.185E+01    0.117E+02
RMM:  87    -0.240599505961E+04   -0.18452E+01   -0.40820E+01 27936   0.144E+01    0.120E+02
RMM:  88    -0.239066036098E+04    0.15335E+02   -0.37972E+01 36759   0.592E+00    0.109E+02
RMM:  89    -0.238466506483E+04    0.59953E+01   -0.18830E+01 33590   0.495E+00    0.105E+02
RMM:  90    -0.236780086323E+04    0.16864E+02   -0.14992E+01 33326   0.499E+00    0.935E+01
RMM:  91    -0.234868869896E+04    0.19112E+02   -0.21735E+01 28671   0.918E+00    0.794E+01
RMM:  92    -0.234072883390E+04    0.79599E+01   -0.89893E+00 28556   0.696E+00    0.689E+01
RMM:  93    -0.233839457964E+04    0.23343E+01   -0.84101E+00 33272   0.394E+00    0.664E+01
RMM:  94    -0.233565180500E+04    0.27428E+01   -0.52038E+00 30548   0.383E+00    0.628E+01
RMM:  95    -0.233278064499E+04    0.28712E+01   -0.47341E+00 31324   0.344E+00    0.586E+01
RMM:  96    -0.234258118497E+04   -0.98005E+01   -0.50833E+01 31728   0.109E+01    0.670E+01
RMM:  97    -0.232655936210E+04    0.16022E+02   -0.12917E+01 27904   0.788E+00    0.456E+01
RMM:  98    -0.232453107833E+04    0.20283E+01   -0.10070E+01 31097   0.513E+00    0.419E+01
RMM:  99    -0.232203780441E+04    0.24933E+01   -0.49986E+00 30829   0.369E+00    0.375E+01
RMM: 100    -0.232288527663E+04   -0.84747E+00   -0.36213E+00 29302   0.377E+00    0.390E+01
RMM: 101    -0.234415992251E+04   -0.21275E+02   -0.18135E+01 28429   0.854E+00    0.692E+01
RMM: 102    -0.232551970010E+04    0.18640E+02   -0.82046E+00 27721   0.745E+00    0.443E+01
RMM: 103    -0.232413417832E+04    0.13855E+01   -0.36124E+00 28136   0.437E+00    0.409E+01
RMM: 104    -0.232515834561E+04   -0.10242E+01   -0.34326E+00 28496   0.367E+00    0.423E+01
RMM: 105    -0.232295548291E+04    0.22029E+01   -0.31007E+00 27941   0.376E+00    0.374E+01
RMM: 106    -0.233053006234E+04   -0.75746E+01   -0.11272E+01 28398   0.662E+00    0.529E+01
RMM: 107    -0.232107848721E+04    0.94516E+01   -0.39848E+00 27730   0.497E+00    0.341E+01
RMM: 108    -0.232013162877E+04    0.94686E+00   -0.34015E+00 38360   0.179E+00    0.316E+01
RMM: 109    -0.231901796440E+04    0.11137E+01   -0.90671E-01 32344   0.137E+00    0.282E+01
RMM: 110    -0.231810627699E+04    0.91169E+00   -0.10557E+00 28465   0.206E+00    0.250E+01
RMM: 111    -0.232107074276E+04   -0.29645E+01   -0.94710E+00 29761   0.538E+00    0.327E+01
RMM: 112    -0.231700385707E+04    0.40669E+01   -0.29142E+00 27720   0.420E+00    0.196E+01
RMM: 113    -0.231677739623E+04    0.22646E+00   -0.12727E+00 29274   0.223E+00    0.185E+01
RMM: 114    -0.231620136118E+04    0.57604E+00   -0.86409E-01 30176   0.163E+00    0.147E+01
RMM: 115    -0.231583862927E+04    0.36273E+00   -0.57370E-01 29372   0.147E+00    0.120E+01
RMM: 116    -0.232389932959E+04   -0.80607E+01   -0.10886E+01 28496   0.648E+00    0.395E+01
RMM: 117    -0.231670988098E+04    0.71894E+01   -0.43027E+00 27720   0.561E+00    0.162E+01
RMM: 118    -0.231591034557E+04    0.79954E+00   -0.11386E+00 27931   0.248E+00    0.123E+01
RMM: 119    -0.231565140904E+04    0.25894E+00   -0.71545E-01 28362   0.180E+00    0.979E+00
RMM: 120    -0.231572656184E+04   -0.75153E-01   -0.56875E-01 28108   0.157E+00    0.104E+01
RMM: 121    -0.231683087953E+04   -0.11043E+01   -0.19388E+00 28483   0.271E+00    0.175E+01
RMM: 122    -0.231564809421E+04    0.11828E+01   -0.78232E-01 27721   0.233E+00    0.923E+00
RMM: 123    -0.231552349018E+04    0.12460E+00   -0.25419E-01 29312   0.975E-01    0.794E+00
RMM: 124    -0.231548975164E+04    0.33739E-01   -0.29886E-01 34250   0.668E-01    0.744E+00
RMM: 125    -0.231541782150E+04    0.71930E-01   -0.14084E-01 31170   0.590E-01    0.638E+00
RMM: 126    -0.231592953702E+04   -0.51172E+00   -0.80624E-01 29702   0.156E+00    0.118E+01
RMM: 127    -0.231531942542E+04    0.61011E+00   -0.26283E-01 27745   0.133E+00    0.464E+00
RMM: 128    -0.231528528700E+04    0.34138E-01   -0.10905E-01 30445   0.558E-01    0.398E+00
RMM: 129    -0.231532458775E+04   -0.39301E-01   -0.86247E-02 30265   0.509E-01    0.475E+00
RMM: 130    -0.231529184306E+04    0.32745E-01   -0.65391E-02 31544   0.392E-01    0.389E+00
RMM: 131    -0.231545904930E+04   -0.16721E+00   -0.20920E-01 29561   0.826E-01    0.665E+00
RMM: 132    -0.231528320582E+04    0.17584E+00   -0.74545E-02 27739   0.713E-01    0.349E+00
RMM: 133    -0.231523273211E+04    0.50474E-01   -0.28510E-02 29482   0.317E-01    0.191E+00
RMM: 134    -0.231522938221E+04    0.33499E-02   -0.22274E-02 27991   0.333E-01    0.175E+00
RMM: 135    -0.231522079675E+04    0.85855E-02   -0.14670E-02 29246   0.235E-01    0.120E+00
RMM: 136    -0.231523126146E+04   -0.10465E-01   -0.27964E-02 28655   0.334E-01    0.182E+00
RMM: 137    -0.231521873454E+04    0.12527E-01   -0.12787E-02 27869   0.285E-01    0.946E-01
RMM: 138    -0.231521750802E+04    0.12265E-02   -0.84196E-03 31190   0.144E-01    0.773E-01
RMM: 139    -0.231521651456E+04    0.99346E-03   -0.52367E-03 30719   0.123E-01    0.605E-01
RMM: 140    -0.231521589140E+04    0.62316E-03   -0.50514E-03 34468   0.912E-02    0.443E-01
RMM: 141    -0.231521639907E+04   -0.50767E-03   -0.30514E-03 29507   0.104E-01    0.524E-01
RMM: 142    -0.231521532967E+04    0.10694E-02   -0.12888E-03 28895   0.796E-02    0.269E-01
RMM: 143    -0.231521526126E+04    0.68409E-04   -0.13157E-03 34427   0.419E-02    0.199E-01
RMM: 144    -0.231521525015E+04    0.11113E-04   -0.61243E-04 32456   0.346E-02    0.158E-01
RMM: 145    -0.231521529116E+04   -0.41013E-04   -0.46490E-04 32930   0.293E-02    0.139E-01
RMM: 146    -0.231521540717E+04   -0.11601E-03   -0.43098E-04 31392   0.325E-02    0.181E-01
RMM: 147    -0.231521530024E+04    0.10693E-03   -0.17150E-04 29233   0.275E-02    0.951E-02
RMM: 148    -0.231521533976E+04   -0.39520E-04   -0.18160E-04 32445   0.188E-02    0.933E-02
RMM: 149    -0.231521535035E+04   -0.10597E-04   -0.95691E-05 31562   0.147E-02    0.654E-02
RMM: 150    -0.231521538958E+04   -0.39231E-04   -0.89875E-05 33730   0.125E-02    0.655E-02
RMM: 151    -0.231521542196E+04   -0.32379E-04   -0.57740E-05 30145   0.133E-02    0.694E-02
RMM: 152    -0.231521543866E+04   -0.16699E-04   -0.33405E-05 30080   0.994E-03    0.361E-02
RMM: 153    -0.231521546266E+04   -0.24001E-04   -0.40934E-05 33876   0.669E-03    0.353E-02
RMM: 154    -0.231521548366E+04   -0.20993E-04   -0.18496E-05 28621   0.517E-03    0.291E-02
RMM: 155    -0.231521550170E+04   -0.18049E-04   -0.10916E-05 25408   0.451E-03    0.230E-02
RMM: 156    -0.231521552156E+04   -0.19854E-04   -0.14560E-05 28319   0.634E-03    0.353E-02
RMM: 157    -0.231521552789E+04   -0.63339E-05   -0.63878E-06 21391   0.525E-03    0.191E-02
RMM: 158    -0.231521554922E+04   -0.21324E-04   -0.43729E-06 19075   0.298E-03    0.189E-02
RMM: 159    -0.231521556631E+04   -0.17090E-04   -0.36263E-06 18239   0.301E-03    0.164E-02
RMM: 160    -0.231521559298E+04   -0.26672E-04   -0.38428E-06 18545   0.267E-03    0.111E-02
RMM: 161    -0.231521559929E+04   -0.63146E-05   -0.28122E-06 16422   0.289E-03    0.104E-02
RMM: 162    -0.231521560960E+04   -0.10313E-04   -0.23956E-06 16574   0.250E-03    0.729E-03
RMM: 163    -0.231521562601E+04   -0.16405E-04   -0.25064E-06 16904   0.190E-03    0.717E-03
RMM: 164    -0.231521564223E+04   -0.16217E-04   -0.25573E-06 16979   0.207E-03    0.569E-03
RMM: 165    -0.231521565171E+04   -0.94879E-05   -0.20508E-06 16319   0.163E-03    0.607E-03
RMM: 166    -0.231521564920E+04    0.25109E-05   -0.15510E-06 15561   0.190E-03    0.907E-03
RMM: 167    -0.231521566151E+04   -0.12309E-04   -0.18240E-06 16040   0.192E-03    0.547E-03
RMM: 168    -0.231521566623E+04   -0.47186E-05   -0.14488E-06 15848   0.121E-03    0.482E-03
RMM: 169    -0.231521567570E+04   -0.94691E-05   -0.24134E-06 16783   0.150E-03    0.427E-03
RMM: 170    -0.231521567837E+04   -0.26713E-05   -0.15005E-06 15848   0.137E-03    0.292E-03
RMM: 171    -0.231521567731E+04    0.10669E-05   -0.10308E-06 15446   0.146E-03    0.663E-03
RMM: 172    -0.231521567961E+04   -0.23067E-05   -0.11283E-06 15581   0.154E-03    0.237E-03
RMM: 173    -0.231521568008E+04   -0.46898E-06   -0.83186E-07 14784   0.751E-04
   1 F= -.23152157E+04 E0= -.23123443E+04  d E =-.231522E+04
       N       E                     dE             d eps       ncg     rms          rms(c)
DAV:   1    -0.231544628833E+04   -0.23061E+00   -0.54250E+01 27832   0.771E+00    0.111E+00
RMM:   2    -0.231578372627E+04   -0.33744E+00   -0.81686E-01 27986   0.188E+00    0.730E+00
RMM:   3    -0.231630337496E+04   -0.51965E+00   -0.28116E-01 39477   0.643E-01    0.122E+01
RMM:   4    -0.231565493906E+04    0.64844E+00   -0.76349E-02 28041   0.533E-01    0.507E+00
RMM:   5    -0.231674593746E+04   -0.10910E+01   -0.12674E-01 30519   0.561E-01    0.152E+01
RMM:   6    -0.231573687351E+04    0.10091E+01   -0.15060E-01 38017   0.460E-01    0.608E+00
RMM:   7    -0.231574387067E+04   -0.69972E-02   -0.12745E-01 27885   0.716E-01    0.665E+00
RMM:   8    -0.231564131902E+04    0.10255E+00   -0.57962E-02 28003   0.476E-01    0.502E+00
RMM:   9    -0.231553697568E+04    0.10434E+00   -0.39404E-02 27751   0.446E-01    0.242E+00
RMM:  10    -0.231554153694E+04   -0.45613E-02   -0.48989E-02 28108   0.428E-01    0.255E+00
RMM:  11    -0.231552984122E+04    0.11696E-01   -0.30869E-02 28112   0.350E-01    0.211E+00
RMM:  12    -0.231550942834E+04    0.20413E-01   -0.11556E-02 27724   0.260E-01    0.874E-01
RMM:  13    -0.231550620024E+04    0.32281E-02   -0.53581E-03 28881   0.145E-01    0.538E-01
RMM:  14    -0.231550697934E+04   -0.77909E-03   -0.77668E-03 34020   0.115E-01    0.613E-01
RMM:  15    -0.231550548947E+04    0.14899E-02   -0.28662E-03 29517   0.962E-02    0.285E-01
RMM:  16    -0.231550532290E+04    0.16658E-03   -0.22229E-03 34741   0.590E-02    0.180E-01
RMM:  17    -0.231550554971E+04   -0.22681E-03   -0.16601E-03 35689   0.486E-02    0.248E-01
RMM:  18    -0.231550531037E+04    0.23934E-03   -0.55762E-04 30014   0.426E-02    0.116E-01
RMM:  19    -0.231550531385E+04   -0.34742E-05   -0.57254E-04 37473   0.244E-02    0.897E-02
RMM:  20    -0.231550536169E+04   -0.47846E-04   -0.29186E-04 34408   0.214E-02    0.124E-01
RMM:  21    -0.231550532046E+04    0.41227E-04   -0.12226E-04 30580   0.190E-02    0.794E-02
RMM:  22    -0.231550531335E+04    0.71162E-05   -0.11551E-04 37323   0.116E-02    0.605E-02
RMM:  23    -0.231550531496E+04   -0.16077E-05   -0.68031E-05 35389   0.102E-02    0.575E-02
RMM:  24    -0.231550529996E+04    0.14996E-04   -0.23156E-05 29824   0.853E-03    0.193E-02
RMM:  25    -0.231550530097E+04   -0.10109E-05   -0.23001E-05 30406   0.428E-03    0.158E-02
RMM:  26    -0.231550530223E+04   -0.12580E-05   -0.10176E-05 25828   0.414E-03    0.185E-02
RMM:  27    -0.231550530126E+04    0.97181E-06   -0.39823E-06 19759   0.388E-03
   2 F= -.23155053E+04 E0= -.23126297E+04  d E =-.289621E+00
       N       E                     dE             d eps       ncg     rms          rms(c)
DAV:   1    -0.231538829118E+04    0.11701E+00   -0.48702E+02 27720   0.233E+01    0.397E+00
RMM:   2    -0.231863690434E+04   -0.32486E+01   -0.10550E+01 27869   0.667E+00    0.222E+01
RMM:   3    -0.232853074177E+04   -0.98938E+01   -0.36710E+00 39083   0.251E+00    0.465E+01
RMM:   4    -0.232070975559E+04    0.78210E+01   -0.11765E+00 28494   0.194E+00    0.291E+01
RMM:   5    -0.233732731994E+04   -0.16618E+02   -0.22757E+00 36800   0.183E+00    0.652E+01
RMM:   6    -0.231848649922E+04    0.18841E+02   -0.16383E+00 28988   0.228E+00    0.185E+01
RMM:   7    -0.231784621138E+04    0.64029E+00   -0.12855E+00 27736   0.255E+00    0.179E+01
RMM:   8    -0.231809639379E+04   -0.25018E+00   -0.62842E-01 28032   0.162E+00    0.195E+01
RMM:   9    -0.231681674441E+04    0.12796E+01   -0.67486E-01 27833   0.169E+00    0.115E+01
RMM:  10    -0.231685815355E+04   -0.41409E-01   -0.74583E-01 27852   0.176E+00    0.116E+01
RMM:  11    -0.231630916203E+04    0.54899E+00   -0.32958E-01 27728   0.134E+00    0.586E+00
RMM:  12    -0.231614485555E+04    0.16431E+00   -0.13209E-01 27998   0.804E-01    0.257E+00
RMM:  13    -0.231613762553E+04    0.72300E-02   -0.12809E-01 32464   0.484E-01    0.226E+00
RMM:  14    -0.231613509890E+04    0.25266E-02   -0.79321E-02 32958   0.401E-01    0.195E+00
RMM:  15    -0.231611995356E+04    0.15145E-01   -0.28362E-02 28827   0.335E-01    0.106E+00
RMM:  16    -0.231612058614E+04   -0.63258E-03   -0.33372E-02 36456   0.217E-01    0.984E-01
RMM:  17    -0.231612258558E+04   -0.19994E-02   -0.14456E-02 31048   0.191E-01    0.113E+00
RMM:  18    -0.231612083223E+04    0.17534E-02   -0.77747E-03 30389   0.154E-01    0.948E-01
RMM:  19    -0.231611870876E+04    0.21235E-02   -0.95972E-03 34757   0.126E-01    0.636E-01
RMM:  20    -0.231611864011E+04    0.68648E-04   -0.36981E-03 30503   0.104E-01    0.651E-01
RMM:  21    -0.231611867807E+04   -0.37956E-04   -0.32532E-03 35461   0.671E-02    0.625E-01
RMM:  22    -0.231611789470E+04    0.78337E-03   -0.23892E-03 34903   0.610E-02    0.448E-01
RMM:  23    -0.231611702310E+04    0.87160E-03   -0.84578E-04 30650   0.498E-02    0.157E-01
RMM:  24    -0.231611704805E+04   -0.24955E-04   -0.90062E-04 37930   0.325E-02    0.149E-01
RMM:  25    -0.231611703805E+04    0.10006E-04   -0.40411E-04 31569   0.310E-02    0.133E-01
RMM:  26    -0.231611696907E+04    0.68980E-04   -0.19196E-04 30805   0.238E-02    0.630E-02
RMM:  27    -0.231611697844E+04   -0.93773E-05   -0.21256E-04 39337   0.130E-02    0.547E-02
RMM:  28    -0.231611698922E+04   -0.10778E-04   -0.93159E-05 33248   0.129E-02    0.641E-02
RMM:  29    -0.231611697294E+04    0.16286E-04   -0.33617E-05 30021   0.105E-02    0.303E-02
RMM:  30    -0.231611697465E+04   -0.17137E-05   -0.38467E-05 34454   0.565E-03    0.270E-02
RMM:  31    -0.231611697518E+04   -0.52789E-06   -0.17715E-05 30277   0.524E-03    0.264E-02
RMM:  32    -0.231611697315E+04    0.20252E-05   -0.69027E-06 22614   0.442E-03    0.167E-02
RMM:  33    -0.231611697316E+04   -0.42783E-08   -0.53402E-06 21361   0.250E-03
   3 F= -.23161170E+04 E0= -.23132309E+04  d E =-.901293E+00
       N       E                     dE             d eps       ncg     rms          rms(c)
DAV:   1    -0.231239529204E+04    0.37217E+01   -0.19492E+03 27720   0.476E+01    0.834E+00
RMM:   2    -0.232809392829E+04   -0.15699E+02   -0.54826E+01 27825   0.134E+01    0.479E+01
RMM:   3    -0.235720855455E+04   -0.29115E+02   -0.17080E+01 37506   0.595E+00    0.826E+01
RMM:   4    -0.234563503799E+04    0.11574E+02   -0.57717E+00 33304   0.334E+00    0.736E+01
RMM:   5    -0.239156860810E+04   -0.45934E+02   -0.16535E+01 37355   0.403E+00    0.118E+02
RMM:   6    -0.232384304348E+04    0.67726E+02   -0.61975E+00 29371   0.435E+00    0.338E+01
RMM:   7    -0.232091100346E+04    0.29320E+01   -0.45573E+00 27726   0.483E+00    0.294E+01
RMM:   8    -0.231956264859E+04    0.13484E+01   -0.38472E+00 27733   0.445E+00    0.253E+01
RMM:   9    -0.232036353035E+04   -0.80088E+00   -0.35984E+00 27968   0.377E+00    0.277E+01
RMM:  10    -0.231697458363E+04    0.33889E+01   -0.17193E+00 27739   0.308E+00    0.118E+01
RMM:  11    -0.231687634491E+04    0.98239E-01   -0.99189E-01 29442   0.179E+00    0.118E+01
RMM:  12    -0.231663768761E+04    0.23866E+00   -0.96364E-01 41933   0.782E-01    0.896E+00
RMM:  13    -0.231631252356E+04    0.32516E+00   -0.29332E-01 28937   0.996E-01    0.449E+00
RMM:  14    -0.231628581907E+04    0.26704E-01   -0.13075E-01 27979   0.801E-01    0.411E+00
RMM:  15    -0.231625946053E+04    0.26359E-01   -0.11451E-01 29724   0.619E-01    0.339E+00
RMM:  16    -0.231623390167E+04    0.25559E-01   -0.11005E-01 31712   0.491E-01    0.244E+00
RMM:  17    -0.231623001905E+04    0.38826E-02   -0.60709E-02 30191   0.436E-01    0.224E+00
RMM:  18    -0.231622513394E+04    0.48851E-02   -0.61980E-02 33539   0.346E-01    0.189E+00
RMM:  19    -0.231622479638E+04    0.33755E-03   -0.24954E-02 29331   0.293E-01    0.191E+00
RMM:  20    -0.231622679871E+04   -0.20023E-02   -0.17090E-02 30947   0.217E-01    0.199E+00
RMM:  21    -0.231622332692E+04    0.34718E-02   -0.17396E-02 32630   0.190E-01    0.174E+00
RMM:  22    -0.231621485110E+04    0.84758E-02   -0.82406E-03 29532   0.173E-01    0.112E+00
RMM:  23    -0.231621279889E+04    0.20522E-02   -0.73725E-03 32903   0.123E-01    0.888E-01
RMM:  24    -0.231621128719E+04    0.15117E-02   -0.69488E-03 33822   0.111E-01    0.681E-01
RMM:  25    -0.231620910586E+04    0.21813E-02   -0.21853E-03 29476   0.931E-02    0.265E-01
RMM:  26    -0.231620917082E+04   -0.64965E-04   -0.25353E-03 35755   0.569E-02    0.239E-01
RMM:  27    -0.231620929329E+04   -0.12246E-03   -0.16648E-03 34473   0.518E-02    0.256E-01
RMM:  28    -0.231620906404E+04    0.22925E-03   -0.63492E-04 30684   0.435E-02    0.143E-01
RMM:  29    -0.231620908718E+04   -0.23149E-04   -0.68766E-04 38734   0.241E-02    0.131E-01
RMM:  30    -0.231620909646E+04   -0.92720E-05   -0.29490E-04 32775   0.235E-02    0.129E-01
RMM:  31    -0.231620904932E+04    0.47134E-04   -0.13354E-04 31629   0.179E-02    0.814E-02
RMM:  32    -0.231620905140E+04   -0.20773E-05   -0.14278E-04 41182   0.101E-02    0.742E-02
RMM:  33    -0.231620903243E+04    0.18965E-04   -0.41759E-05 31851   0.909E-03    0.406E-02
RMM:  34    -0.231620903020E+04    0.22352E-05   -0.28492E-05 32968   0.571E-03    0.305E-02
RMM:  35    -0.231620903075E+04   -0.55495E-06   -0.16056E-05 29253   0.472E-03    0.291E-02
RMM:  36    -0.231620902877E+04    0.19846E-05   -0.69254E-06 22660   0.438E-03    0.200E-02
RMM:  37    -0.231620902815E+04    0.61508E-06   -0.37783E-06 19155   0.308E-03
   4 F= -.23162090E+04 E0= -.23133257E+04  d E =-.993348E+00
       N       E                     dE             d eps       ncg     rms          rms(c)
DAV:   1    -0.231580656433E+04    0.40246E+00   -0.38021E+02 27720   0.205E+01    0.355E+00
RMM:   2    -0.231843959730E+04   -0.26330E+01   -0.86769E+00 27800   0.624E+00    0.208E+01
RMM:   3    -0.232235144554E+04   -0.39118E+01   -0.21353E+00 32499   0.245E+00    0.327E+01
RMM:   4    -0.232168816219E+04    0.66328E+00   -0.13423E+00 37643   0.136E+00    0.310E+01
RMM:   5    -0.232632782659E+04   -0.46397E+01   -0.12529E+00 30076   0.182E+00    0.436E+01
RMM:   6    -0.231895862281E+04    0.73692E+01   -0.15577E+00 35919   0.161E+00    0.206E+01
RMM:   7    -0.231790539583E+04    0.10532E+01   -0.10777E+00 27767   0.219E+00    0.167E+01
RMM:   8    -0.231749705851E+04    0.40834E+00   -0.53705E-01 28404   0.141E+00    0.147E+01
RMM:   9    -0.231668114493E+04    0.81591E+00   -0.40070E-01 27787   0.134E+00    0.781E+00
RMM:  10    -0.231685029294E+04   -0.16915E+00   -0.56580E-01 28161   0.143E+00    0.949E+00
RMM:  11    -0.231656025404E+04    0.29004E+00   -0.29362E-01 27761   0.123E+00    0.601E+00
RMM:  12    -0.231640055344E+04    0.15970E+00   -0.10771E-01 27778   0.811E-01    0.302E+00
RMM:  13    -0.231637708235E+04    0.23471E-01   -0.59838E-02 30914   0.382E-01    0.225E+00
RMM:  14    -0.231637679713E+04    0.28522E-03   -0.71450E-02 32523   0.388E-01    0.213E+00
RMM:  15    -0.231635765221E+04    0.19145E-01   -0.23280E-02 27895   0.331E-01    0.102E+00
RMM:  16    -0.231635752731E+04    0.12490E-03   -0.20444E-02 34229   0.191E-01    0.964E-01
RMM:  17    -0.231635857242E+04   -0.10451E-02   -0.14985E-02 33099   0.169E-01    0.101E+00
RMM:  18    -0.231635570609E+04    0.28663E-02   -0.54477E-03 29764   0.140E-01    0.701E-01
RMM:  19    -0.231635533657E+04    0.36952E-03   -0.62236E-03 34759   0.964E-02    0.599E-01
RMM:  20    -0.231635461300E+04    0.72357E-03   -0.33114E-03 31221   0.912E-02    0.443E-01
RMM:  21    -0.231635427470E+04    0.33829E-03   -0.16299E-03 30635   0.703E-02    0.357E-01
RMM:  22    -0.231635434847E+04   -0.73766E-04   -0.19708E-03 37904   0.457E-02    0.346E-01
RMM:  23    -0.231635401393E+04    0.33454E-03   -0.68310E-04 31852   0.391E-02    0.217E-01
RMM:  24    -0.231635390982E+04    0.10411E-03   -0.42246E-04 33537   0.272E-02    0.153E-01
RMM:  25    -0.231635388588E+04    0.23938E-04   -0.35336E-04 39572   0.184E-02    0.122E-01
RMM:  26    -0.231635384652E+04    0.39354E-04   -0.13346E-04 32577   0.163E-02    0.805E-02
RMM:  27    -0.231635383623E+04    0.10294E-04   -0.74024E-05 32584   0.123E-02    0.632E-02
RMM:  28    -0.231635383953E+04   -0.33003E-05   -0.83230E-05 39361   0.935E-03    0.621E-02
RMM:  29    -0.231635382684E+04    0.12690E-04   -0.26526E-05 30442   0.813E-03    0.344E-02
RMM:  30    -0.231635382576E+04    0.10786E-05   -0.20258E-05 30681   0.486E-03    0.274E-02
RMM:  31    -0.231635382482E+04    0.94200E-06   -0.10327E-05 26227   0.428E-03    0.216E-02
RMM:  32    -0.231635382334E+04    0.14844E-05   -0.42765E-06 20113   0.401E-03    0.131E-02
RMM:  33    -0.231635382325E+04    0.81025E-07   -0.27099E-06 18459   0.279E-03
   5 F= -.23163538E+04 E0= -.23134645E+04  d E =-.113814E+01
