unknown system                          
           1
     9.726678    0.000000    0.000000
     0.000000    8.423550    0.000000
     0.000000    0.000000   45.000000
   Fe   Mn
 281   7
Direct configuration=     1
   0.05396466  0.70129080  0.21132306
   0.31810088  0.72386005  0.87613325
   0.68771335  0.95814455  0.61136101
   0.43797619  0.45820356  0.61150644
   0.43991354  0.28802853  0.25544721
   0.05872887  0.38846135  0.83339328
   0.30856470  0.88766796  0.83349182
   0.44697017  0.62598067  0.70019280
   0.06023969  0.21256181  0.74482084
   0.17857339  0.45162053  0.21144138
   0.56766862  0.21046395  0.47750288
   0.06657784  0.87507198  0.56687379
   0.56818756  0.22384089  0.87607536
   0.80982721  0.52862260  0.12401133
   0.42947083  0.95090816  0.21150289
   0.56657839  0.37492692  0.56680330
   0.81195984  0.04182321  0.38845750
   0.68179368  0.78889968  0.52249108
   0.44280805  0.46051598  0.47750841
   0.43395654  0.96237890  0.74454565
   0.44162053  0.62494361  0.56686981
   0.57194463  0.87619272  0.70042760
   0.30973895  0.02813923  0.12403138
   0.69027411  0.95935288  0.34415876
   0.68834301  0.78196629  0.12417410
   0.05260868  0.37377074  0.29967441
   0.68948865  0.46743284  0.87589686
   0.42882928  0.45138737  0.21146057
   0.80848872  0.37513090  0.43312615
   0.56304658  0.70823008  0.61152459
   0.55973487  0.54057587  0.65581723
   0.81679250  0.86198179  0.16695061
   0.56488589  0.53805708  0.25538961
   0.69021850  0.45937574  0.34416629
   0.19139401  0.61199043  0.16643345
   0.19508486  0.79931722  0.78870866
   0.44728911  0.12593820  0.70024230
   0.92742010  0.62337741  0.29970621
   0.31749988  0.22313136  0.87606095
   0.31651985  0.87476879  0.56685536
   0.81729306  0.22355878  0.87611607
   0.80961185  0.54082224  0.65578609
   0.55832950  0.52727365  0.12374506
   0.56996613  0.04931784  0.78881640
   0.19009000  0.28789868  0.25542683
   0.80853315  0.87517088  0.43309216
   0.57235300  0.37603478  0.70026009
   0.05781362  0.02708530  0.12417192
   0.30968110  0.54061930  0.65581907
   0.56521650  0.20939505  0.34410588
   0.18768288  0.95816718  0.61135210
   0.30271535  0.37400566  0.29974801
   0.43461241  0.79053026  0.65584702
   0.19596292  0.29827640  0.78864352
   0.06667929  0.36293726  0.16666854
   0.69715101  0.62630612  0.70035371
   0.31203039  0.54189516  0.38858975
   0.06779696  0.72277737  0.87612567
   0.93363767  0.63757439  0.83366625
   0.32006837  0.54944367  0.78881354
   0.30419422  0.20058413  0.21132948
   0.06787354  0.71056976  0.47747415
   0.55353262  0.20098427  0.21130079
   0.31012534  0.21184361  0.74459057
   0.07212851  0.37634108  0.70037912
   0.18330222  0.63754463  0.83351256
   0.07003208  0.04913212  0.78885899
   0.44160618  0.12492372  0.56690961
   0.93470962  0.29067803  0.65581154
   0.80377231  0.20131918  0.21129167
   0.92911126  0.95145195  0.21133586
   0.94162213  0.62507231  0.56680035
   0.80822985  0.38759638  0.83348205
   0.19718039  0.62586381  0.70015354
   0.80859714  0.88770897  0.83351411
   0.68476836  0.29063820  0.65591331
   0.31263078  0.20793217  0.61136721
   0.43494944  0.46263686  0.74474111
   0.43679356  0.79147244  0.38846440
   0.68474228  0.96260397  0.74454730
   0.80322738  0.70139815  0.21121655
   0.81312017  0.70830095  0.61155438
   0.43705931  0.78319746  0.12408334
   0.31003423  0.71180223  0.74455214
   0.32093743  0.04928355  0.78871277
   0.81181893  0.54177243  0.38839173
   0.68214440  0.28840986  0.52240008
   0.69565098  0.79887459  0.78873830
   0.19008728  0.78763520  0.25545469
   0.69174179  0.11240273  0.16657459
   0.69279898  0.96082446  0.47745950
   0.94038666  0.95945937  0.34412794
   0.80712725  0.03907006  0.52255572
   0.68346410  0.62504026  0.43310407
   0.44035274  0.45932111  0.34417345
   0.81081450  0.21147842  0.74458017
   0.43942833  0.96750587  0.87588574
   0.56652856  0.87480428  0.56686669
   0.81076935  0.02883379  0.12390603
   0.42768570  0.62391803  0.29972669
   0.81686330  0.72296695  0.87618765
   0.68775619  0.45811362  0.61136895
   0.55862067  0.38757584  0.83328556
   0.80272138  0.37362444  0.29962230
   0.18678881  0.29147153  0.38841532
   0.82045592  0.54915686  0.78883937
   0.18219043  0.78924518  0.52255735
   0.30275107  0.87425122  0.29977473
   0.17831857  0.95120147  0.21144893
   0.18479293  0.46230231  0.74480603
   0.43234367  0.28862998  0.52235409
   0.06512212  0.70915779  0.34398589
   0.18462537  0.79060338  0.65579775
   0.44567483  0.79883722  0.78869666
   0.68342060  0.12494073  0.43305978
   0.93212422  0.78828404  0.52248147
   0.69126631  0.61269306  0.16655937
   0.81516686  0.70909309  0.34399075
   0.93459130  0.46248350  0.74493235
   0.19033802  0.45937683  0.34417510
   0.57046821  0.54940354  0.78884253
   0.56644514  0.36273425  0.16645598
   0.56524769  0.70949067  0.34409682
   0.55262733  0.37383880  0.29973270
   0.18925697  0.46735937  0.87589603
   0.19143876  0.11208744  0.16649216
   0.44511747  0.29867293  0.78866385
   0.69000961  0.78769914  0.25544506
   0.93363856  0.13751061  0.83353180
   0.44266819  0.96072819  0.47751667
   0.56763403  0.72420594  0.87608428
   0.19264391  0.46076545  0.47750107
   0.93380646  0.28146323  0.12411897
   0.31226490  0.04183293  0.38865165
   0.05968408  0.04053327  0.65590175
   0.55848273  0.37501520  0.43313042
   0.68442740  0.46255769  0.74493899
   0.56042879  0.21242330  0.74459340
   0.94717761  0.12622700  0.70028489
   0.55964668  0.04065279  0.65581145
   0.55696387  0.53913027  0.52254283
   0.17763880  0.12388613  0.29968180
   0.44098043  0.11036605  0.16630652
   0.67769664  0.62369016  0.29962639
   0.92757870  0.12361879  0.29982552
   0.81658525  0.37504785  0.56688942
   0.05262814  0.87398855  0.29972985
   0.19161727  0.62494220  0.56687612
   0.94525869  0.79952632  0.78871424
   0.30833867  0.38748643  0.83347868
   0.93925002  0.46816908  0.87589572
   0.43358435  0.63790569  0.83348315
   0.06510425  0.20913849  0.34398464
   0.18954254  0.96731435  0.87603112
   0.93478893  0.78180667  0.12414412
   0.68702117  0.79161013  0.38852027
   0.93465019  0.79065389  0.65581728
   0.94105682  0.11204207  0.16670885
   0.43488863  0.29077160  0.65596244
   0.05377745  0.20152881  0.21141330
   0.67886977  0.95134889  0.21129240
   0.17776474  0.62362034  0.29967412
   0.82207985  0.87627188  0.70036356
   0.94704314  0.62638610  0.70038820
   0.19724559  0.12600237  0.70015551
   0.94286092  0.46059320  0.47740046
   0.81284789  0.20815252  0.61142360
   0.18344266  0.62498299  0.43313555
   0.42772559  0.12376220  0.29962236
   0.67776022  0.12363119  0.29962776
   0.56220372  0.54187822  0.38858615
   0.81500196  0.20913228  0.34399436
   0.43942616  0.46753801  0.87580591
   0.55865371  0.88757761  0.83328620
   0.31779288  0.21050685  0.47743611
   0.19251184  0.96077176  0.47749637
   0.05839731  0.88761459  0.83347434
   0.05704819  0.53910402  0.52253539
   0.94282303  0.96059688  0.47738459
   0.06294765  0.70826267  0.61153306
   0.55710325  0.03866826  0.52241255
   0.69580266  0.29868847  0.78868139
   0.81726538  0.36197786  0.16675039
   0.43340867  0.12496848  0.43307746
   0.06801285  0.21058797  0.47750358
   0.30965960  0.04077548  0.65582543
   0.43184683  0.78897087  0.52248302
   0.18359401  0.13759147  0.83353275
   0.18561239  0.28218854  0.12428923
   0.94037332  0.45960020  0.34410882
   0.56648220  0.86214241  0.16644878
   0.30305879  0.70061405  0.21147060
   0.94112667  0.61182999  0.16666734
   0.18769302  0.45810712  0.61135906
   0.07225125  0.87625759  0.70014083
   0.05962207  0.54067330  0.65580742
   0.30984396  0.52728434  0.12391215
   0.93703073  0.79181957  0.38861163
   0.94582613  0.29815269  0.78864828
   0.18456106  0.29053563  0.65585822
   0.93760624  0.95800389  0.61137430
   0.81091733  0.71141616  0.74460248
   0.68998365  0.28771730  0.25544160
   0.05980695  0.71199659  0.74489815
   0.67851374  0.45122953  0.21132980
   0.81774799  0.21069399  0.47757800
   0.56765665  0.71041356  0.47749841
   0.06764281  0.86325468  0.16669147
   0.93224094  0.28833828  0.52244997
   0.68463042  0.79055735  0.65580805
   0.05836492  0.87495678  0.43310644
   0.06780613  0.22281394  0.87606083
   0.80967343  0.04060242  0.65584718
   0.56115910  0.02867032  0.12401744
   0.30843841  0.37505773  0.43307133
   0.31657236  0.37475898  0.56682050
   0.31775691  0.71039358  0.47744247
   0.05695539  0.03873128  0.52250839
   0.32214406  0.87633470  0.70038572
   0.06500221  0.53760713  0.25531579
   0.68347949  0.13763641  0.83351004
   0.81476544  0.03780426  0.25544238
   0.18349554  0.12500008  0.43312789
   0.69734781  0.12642337  0.70034145
   0.18246824  0.28874945  0.52247433
   0.43998329  0.78787314  0.25539620
   0.81496596  0.53805591  0.25543934
   0.06274973  0.20808380  0.61136977
   0.18658364  0.79134058  0.38839569
   0.30688912  0.53879768  0.52251984
   0.82196753  0.37623004  0.70011668
   0.68714850  0.29181690  0.38855163
   0.19168148  0.12502288  0.56688767
   0.68980716  0.96832381  0.87606056
   0.69159614  0.12497130  0.56691247
   0.44031806  0.95930468  0.34418843
   0.18403001  0.96250018  0.74453524
   0.94023264  0.78772984  0.25543912
   0.55851876  0.87494293  0.43311244
   0.30848781  0.87500259  0.43306824
   0.80713602  0.53917537  0.52260324
   0.92883573  0.45154303  0.21139598
   0.31497076  0.53821192  0.25540067
   0.56232459  0.04200617  0.38867878
   0.93789518  0.45817731  0.61152091
   0.06211364  0.04179916  0.38857139
   0.06198603  0.54161861  0.38847242
   0.43680502  0.29151511  0.38846585
   0.69279234  0.46082084  0.47746272
   0.06664359  0.37501973  0.56687208
   0.55361212  0.70102461  0.21133352
   0.94002332  0.28763247  0.25544520
   0.81986630  0.04942537  0.78891020
   0.19040238  0.95954065  0.34411860
   0.55272495  0.87404293  0.29981089
   0.05837289  0.37501642  0.43310853
   0.31525843  0.70938232  0.34410934
   0.31522404  0.20936572  0.34412761
   0.94163630  0.12513955  0.56680288
   0.43804395  0.95842196  0.61151062
   0.56498100  0.03798341  0.25528747
   0.18605325  0.78329111  0.12427274
   0.06506917  0.03774901  0.25526316
   0.69158964  0.62493606  0.56687874
   0.05670951  0.52680319  0.12425722
   0.30704658  0.03844893  0.52236408
   0.68753925  0.28162748  0.12419752
   0.81771014  0.71065288  0.47748955
   0.43356061  0.13766920  0.83345646
   0.32233468  0.37608443  0.70025031
   0.68365816  0.63782060  0.83347062
   0.56028101  0.71169649  0.74457628
   0.93724164  0.29190795  0.38865102
   0.93960503  0.96817833  0.87609945
   0.56268501  0.20791512  0.61132064
   0.81664219  0.87504192  0.56688895
   0.80260824  0.87366178  0.29967267
   0.31501979  0.03796712  0.25520929
   0.43589041  0.28371452  0.12384487
   0.31304274  0.70827640  0.61152388
   0.43335440  0.62496751  0.43307935
   0.93257965  0.62517536  0.43329323
   0.31739575  0.86289494  0.16572942
   0.07142153  0.54913125  0.78863476
   0.93306001  0.12494740  0.43322023
   0.31811717  0.36277726  0.16572101
   0.93365171  0.96236033  0.74450131
   0.44162681  0.60965067  0.16557139
Direct configuration=     2
   0.05447663  0.70127819  0.21131266
   0.31780256  0.72329792  0.87606774
   0.68778106  0.95812040  0.61136941
   0.43799462  0.45812717  0.61149428
   0.43935312  0.28792557  0.25546261
   0.05905177  0.38818448  0.83347755
   0.30894476  0.88752326  0.83356528
   0.44632219  0.62604050  0.70020559
   0.06078881  0.21262415  0.74476162
   0.17913132  0.45162487  0.21142403
   0.56713875  0.21028581  0.47756055
   0.06620726  0.87500776  0.56686723
   0.56780048  0.22324175  0.87600370
   0.81003999  0.52895317  0.12409605
   0.42993344  0.95099514  0.21145636
   0.56623350  0.37486186  0.56679307
   0.81198685  0.04190757  0.38846957
   0.68238167  0.78916094  0.52244231
   0.44224808  0.46032212  0.47755925
   0.43460000  0.96238583  0.74453122
   0.44123381  0.62487864  0.56686261
   0.57128503  0.87620129  0.70039582
   0.30985865  0.02854495  0.12404677
   0.68976938  0.95921995  0.34416851
   0.68819782  0.78169803  0.12424264
   0.05329892  0.37373654  0.29967974
   0.68938976  0.46796365  0.87582919
   0.42939969  0.45134039  0.21142901
   0.80882946  0.37518148  0.43312627
   0.56304724  0.70817664  0.61151676
   0.56017563  0.54067365  0.65579152
   0.81646230  0.86226500  0.16682724
   0.56428590  0.53794432  0.25540635
   0.68973388  0.45922402  0.34417090
   0.19093259  0.61217718  0.16641318
   0.19469522  0.79926195  0.78869085
   0.44662437  0.12599734  0.70024927
   0.92815166  0.62338525  0.29971576
   0.31718699  0.22261782  0.87599519
   0.31614251  0.87475066  0.56684311
   0.81701795  0.22301897  0.87604715
   0.81005866  0.54090885  0.65576658
   0.55857185  0.52772680  0.12379050
   0.56958388  0.04932297  0.78881478
   0.18956508  0.28782885  0.25544138
   0.80885702  0.87521896  0.43309387
   0.57164899  0.37612836  0.70027640
   0.05833268  0.02740724  0.12423162
   0.31012146  0.54069234  0.65579054
   0.56474896  0.20926731  0.34413710
   0.18773916  0.95813569  0.61136199
   0.30339215  0.37395630  0.29975660
   0.43506357  0.79065724  0.65582500
   0.19543410  0.29825892  0.78865467
   0.06621539  0.36306727  0.16659440
   0.69645434  0.62630316  0.70033835
   0.31200527  0.54189209  0.38857853
   0.06744198  0.72232004  0.87607332
   0.93403244  0.63744549  0.83373338
   0.31975450  0.54945363  0.78881498
   0.30461675  0.20060488  0.21131366
   0.06731392  0.71032923  0.47753912
   0.55404234  0.20103645  0.21128229
   0.31068043  0.21203116  0.74455838
   0.07143331  0.37639685  0.70036595
   0.18372473  0.63744441  0.83356693
   0.06965127  0.04910223  0.78885923
   0.44123306  0.12486882  0.56689083
   0.93517574  0.29082723  0.65577624
   0.80426560  0.20130741  0.21128911
   0.92958097  0.95146914  0.21135354
   0.94123540  0.62503894  0.56679520
   0.80862431  0.38743432  0.83355516
   0.19647953  0.62597038  0.70016903
   0.80895750  0.88754301  0.83360549
   0.68524181  0.29075143  0.65588175
   0.31272057  0.20793379  0.61138250
   0.43545360  0.46262077  0.74467998
   0.43681710  0.79155994  0.38847898
   0.68521235  0.96257042  0.74454109
   0.80374837  0.70134726  0.21122173
   0.81308696  0.70822032  0.61152700
   0.43708612  0.78270917  0.12407042
   0.31053863  0.71194254  0.74452476
   0.32045585  0.04925676  0.78872907
   0.81186256  0.54185425  0.38841640
   0.68268876  0.28878452  0.52236858
   0.69518539  0.79892397  0.78873725
   0.18953928  0.78766217  0.25547527
   0.69142623  0.11251785  0.16650744
   0.69221667  0.96056339  0.47753023
   0.93992521  0.95940156  0.34415401
   0.80766545  0.03922651  0.52249350
   0.68369420  0.62505777  0.43311149
   0.43988875  0.45925051  0.34419491
   0.81121810  0.21172653  0.74454808
   0.43940343  0.96805562  0.87582206
   0.56617890  0.87475181  0.56684768
   0.81077894  0.02902643  0.12400983
   0.42837451  0.62385260  0.29973900
   0.81662430  0.72257483  0.87611893
   0.68780051  0.45806630  0.61137491
   0.55894217  0.38745893  0.83337719
   0.80337476  0.37361936  0.29963784
   0.18678787  0.29154015  0.38843422
   0.81995598  0.54916042  0.78885379
   0.18275338  0.78941949  0.52250564
   0.30340134  0.87418461  0.29977253
   0.17888777  0.95130111  0.21144450
   0.18539676  0.46236206  0.74473999
   0.43285261  0.28892609  0.52231600
   0.06468027  0.70909996  0.34403227
   0.18512732  0.79066167  0.65576665
   0.44516576  0.79888711  0.78868394
   0.68367975  0.12498471  0.43307621
   0.93266858  0.78856512  0.52244050
   0.69087863  0.61285984  0.16651039
   0.81472975  0.70905043  0.34404460
   0.93517678  0.46248680  0.74484414
   0.18988331  0.45926901  0.34419290
   0.57005533  0.54936264  0.78884642
   0.56608072  0.36291796  0.16638617
   0.56477801  0.70935142  0.34412946
   0.55333514  0.37379671  0.29974521
   0.18917794  0.46786981  0.87584230
   0.19101795  0.11218265  0.16645806
   0.44472303  0.29866242  0.78866229
   0.68943640  0.78768736  0.25545253
   0.93409420  0.13735283  0.83359760
   0.44212629  0.96047109  0.47756179
   0.56732360  0.72361541  0.87601839
   0.19208418  0.46052786  0.47755481
   0.93414038  0.28124402  0.12419834
   0.31219741  0.04183846  0.38863108
   0.06013486  0.04060275  0.65586521
   0.55885089  0.37505319  0.43313227
   0.68491742  0.46252071  0.74485335
   0.56091649  0.21253153  0.74456401
   0.94652516  0.12632561  0.70028387
   0.56011570  0.04072082  0.65578604
   0.55754047  0.53934914  0.52247634
   0.17832529  0.12381625  0.29968168
   0.44062850  0.11069591  0.16628860
   0.67835811  0.62364875  0.29964676
   0.92827180  0.12356464  0.29981207
   0.81621162  0.37499948  0.56688017
   0.05331958  0.87390196  0.29972493
   0.19123917  0.62490556  0.56687564
   0.94475281  0.79941458  0.78872427
   0.30878614  0.38734850  0.83355435
   0.93925176  0.46859702  0.87583145
   0.43402537  0.63776356  0.83354598
   0.06467019  0.20907815  0.34403494
   0.18942483  0.96784351  0.87594788
   0.93500966  0.78149985  0.12423977
   0.68699097  0.79168190  0.38852114
   0.93511191  0.79075043  0.65579764
   0.94065651  0.11228348  0.16665387
   0.43529683  0.29087075  0.65592534
   0.05432738  0.20146346  0.21139575
   0.67937024  0.95137361  0.21130548
   0.17841886  0.62360949  0.29968450
   0.82140287  0.87629140  0.70034308
   0.94638708  0.62641306  0.70037953
   0.19652129  0.12609987  0.70016922
   0.94231389  0.46033001  0.47746901
   0.81287464  0.20810027  0.61142632
   0.18390725  0.62502693  0.43313545
   0.42840363  0.12372932  0.29964064
   0.67840298  0.12359757  0.29964494
   0.56212413  0.54187627  0.38857841
   0.81458189  0.20909274  0.34405074
   0.43937151  0.46806202  0.87574045
   0.55902769  0.88742266  0.83339567
   0.31723970  0.21032377  0.47749885
   0.19197028  0.96051331  0.47754591
   0.05879771  0.88747732  0.83355985
   0.05762881  0.53927593  0.52246875
   0.94226040  0.96033917  0.47745365
   0.06296468  0.70818244  0.61151300
   0.55765038  0.03897296  0.52236906
   0.69530767  0.29865309  0.78868129
   0.81681587  0.36213742  0.16666679
   0.43374479  0.12498673  0.43308817
   0.06741967  0.21035409  0.47756212
   0.31012693  0.04083774  0.65579630
   0.43245023  0.78917230  0.52242388
   0.18404695  0.13747141  0.83359380
   0.18564175  0.28169695  0.12431096
   0.93990434  0.45951655  0.34412743
   0.56626448  0.86226076  0.16637577
   0.30363696  0.70067012  0.21144710
   0.94071486  0.61209093  0.16660206
   0.18775421  0.45807337  0.61136719
   0.07156405  0.87630339  0.70014619
   0.06010569  0.54075164  0.65579488
   0.30999449  0.52787218  0.12391773
   0.93697519  0.79186724  0.38859970
   0.94527700  0.29817739  0.78865904
   0.18501404  0.29067070  0.65583130
   0.93768073  0.95797925  0.61139064
   0.81131330  0.71164303  0.74458737
   0.68943404  0.28770198  0.25545125
   0.06044162  0.71212953  0.74481785
   0.67904388  0.45126215  0.21134032
   0.81720305  0.21044153  0.47762332
   0.56710349  0.71024449  0.47756081
   0.06701690  0.86340452  0.16661716
   0.93279790  0.28864762  0.52241236
   0.68504257  0.79064343  0.65579154
   0.05880614  0.87494822  0.43310412
   0.06749129  0.22231088  0.87600844
   0.81013504  0.04068387  0.65581593
   0.56116520  0.02884953  0.12408802
   0.30878456  0.37507533  0.43308451
   0.31620146  0.37473866  0.56680859
   0.31720567  0.71022094  0.47750485
   0.05755096  0.03899274  0.52244456
   0.32144053  0.87632194  0.70036785
   0.06442916  0.53755457  0.25535573
   0.68392479  0.13754978  0.83357331
   0.81425431  0.03770910  0.25546343
   0.18395275  0.12503283  0.43313134
   0.69665948  0.12643055  0.70032389
   0.18299065  0.28903987  0.52243807
   0.43940406  0.78776691  0.25542729
   0.81439466  0.53789643  0.25545674
   0.06280157  0.20806188  0.61137419
   0.18660903  0.79144643  0.38841832
   0.30749682  0.53905565  0.52245833
   0.82130172  0.37628695  0.70014164
   0.68709932  0.29184688  0.38854560
   0.19130156  0.12496175  0.56687303
   0.68967489  0.96873428  0.87596914
   0.69121149  0.12492478  0.56689673
   0.43985466  0.95923181  0.34421210
   0.18470342  0.96250130  0.74451989
   0.93963736  0.78768375  0.25546689
   0.55887586  0.87497539  0.43311660
   0.30881349  0.87500574  0.43308174
   0.80766687  0.53931357  0.52253428
   0.92930940  0.45153985  0.21140354
   0.31442343  0.53804898  0.25543385
   0.56222856  0.04198842  0.38865327
   0.93791359  0.45807295  0.61151015
   0.06206372  0.04184132  0.38856221
   0.06196266  0.54169572  0.38848281
   0.43683922  0.29157767  0.38848145
   0.69221558  0.46056549  0.47753350
   0.06627797  0.37497460  0.56686470
   0.55413229  0.70107054  0.21132292
   0.93945029  0.28759691  0.25546963
   0.81944693  0.04935922  0.78889747
   0.18994514  0.95940676  0.34414509
   0.55342919  0.87398043  0.29980470
   0.05880699  0.37501912  0.43310966
   0.31478896  0.70926800  0.34414225
   0.31476445  0.20923190  0.34415426
   0.94124649  0.12508804  0.56679277
   0.43802473  0.95834455  0.61150048
   0.56440383  0.03787943  0.25533229
   0.18612794  0.78275487  0.12429218
   0.06451395  0.03770294  0.25532316
   0.69121614  0.62488998  0.56687532
   0.05724853  0.52719959  0.12429942
   0.30761366  0.03880143  0.52232704
   0.68755053  0.28128210  0.12427088
   0.81714922  0.71041200  0.47755384
   0.43401574  0.13753595  0.83350520
   0.32164861  0.37610839  0.70024947
   0.68411647  0.63770760  0.83353059
   0.56075271  0.71180705  0.74455452
   0.93713785  0.29194025  0.38863159
   0.93952730  0.96854343  0.87600620
   0.56274023  0.20790479  0.61133310
   0.81625291  0.87497919  0.56687959
   0.80329628  0.87362999  0.29967428
   0.31443667  0.03782653  0.25527451
   0.43599949  0.28317662  0.12390678
   0.31303987  0.70820757  0.61150877
   0.43367882  0.62499610  0.43309357
   0.93305719  0.62518079  0.43327980
   0.31691365  0.86297213  0.16574505
   0.07090086  0.54912526  0.78863966
   0.93344958  0.12500559  0.43321792
   0.31763790  0.36269183  0.16571711
   0.93424655  0.96242034  0.74451043
   0.44138531  0.61006762  0.16559100
Direct configuration=     3
   0.05601254  0.70124037  0.21128146
   0.31690762  0.72161154  0.87587122
   0.68798421  0.95804796  0.61139463
   0.43804992  0.45789803  0.61145777
   0.43767186  0.28761670  0.25550883
   0.06002046  0.38735388  0.83373036
   0.31008494  0.88708918  0.83378566
   0.44437825  0.62622000  0.70024395
   0.06243616  0.21281118  0.74458397
   0.18080511  0.45163790  0.21137199
   0.56554914  0.20975140  0.47773358
   0.06509551  0.87481510  0.56684755
   0.56663924  0.22144431  0.87578870
   0.81067834  0.52994490  0.12435020
   0.43132126  0.95125607  0.21131675
   0.56519884  0.37466666  0.56676239
   0.81206787  0.04216068  0.38850578
   0.68414563  0.78994475  0.52229602
   0.44056816  0.45974056  0.47771178
   0.43653040  0.96240663  0.74448794
   0.44007364  0.62468376  0.56684101
   0.56930624  0.87622702  0.70030048
   0.31021775  0.02976209  0.12409296
   0.68825518  0.95882115  0.34419777
   0.68776225  0.78089322  0.12444825
   0.05536963  0.37363394  0.29969574
   0.68909310  0.46955608  0.87562619
   0.43111091  0.45119946  0.21133434
   0.80985171  0.37533323  0.43312662
   0.56304924  0.70801635  0.61149329
   0.56149791  0.54096700  0.65571440
   0.81547167  0.86311464  0.16645713
   0.56248591  0.53760604  0.25545657
   0.68827999  0.45876887  0.34418471
   0.18954836  0.61273742  0.16635238
   0.19352628  0.79909616  0.78863741
   0.44463014  0.12617474  0.70027019
   0.93034633  0.62340875  0.29974440
   0.31624829  0.22107720  0.87579790
   0.31501049  0.87469629  0.56680639
   0.81619263  0.22139953  0.87584040
   0.81139910  0.54116867  0.65570806
   0.55929888  0.52908623  0.12392681
   0.56843715  0.04933837  0.78880992
   0.18799031  0.28761936  0.25548503
   0.80982864  0.87536317  0.43309900
   0.56953695  0.37640908  0.70032534
   0.05988986  0.02837306  0.12441072
   0.31144253  0.54091146  0.65570494
   0.56334636  0.20888408  0.34423078
   0.18790801  0.95804120  0.61139166
   0.30542256  0.37380820  0.29978238
   0.43641703  0.79103818  0.65575896
   0.19384767  0.29820649  0.78868812
   0.06482370  0.36345732  0.16637199
   0.69436432  0.62629427  0.70029226
   0.31192991  0.54188288  0.38854486
   0.06637704  0.72094808  0.87591628
   0.93521675  0.63705878  0.83393478
   0.31881291  0.54948352  0.78881927
   0.30588435  0.20066714  0.21126621
   0.06563506  0.70960762  0.47773402
   0.55557149  0.20119301  0.21122679
   0.31234570  0.21259382  0.74446182
   0.06934771  0.37656416  0.70032643
   0.18499227  0.63714372  0.83373007
   0.06850884  0.04901254  0.78885996
   0.44011369  0.12470410  0.56683452
   0.93657411  0.29127483  0.65567035
   0.80574544  0.20127207  0.21128140
   0.93099011  0.95152070  0.21140656
   0.94007520  0.62493884  0.56677976
   0.80980769  0.38694815  0.83377449
   0.19437694  0.62629008  0.70021548
   0.81003858  0.88704513  0.83387964
   0.68666218  0.29109112  0.65578709
   0.31298993  0.20793865  0.61142835
   0.43696610  0.46257250  0.74449659
   0.43688771  0.79182244  0.38852270
   0.68662256  0.96246975  0.74452243
   0.80531134  0.70119458  0.21123726
   0.81298732  0.70797844  0.61144487
   0.43716654  0.78124430  0.12403166
   0.31205182  0.71236347  0.74444263
   0.31901112  0.04917640  0.78877796
   0.81199344  0.54209972  0.38849044
   0.68432183  0.28990849  0.52227409
   0.69378861  0.79907212  0.78873408
   0.18789530  0.78774306  0.25553699
   0.69047955  0.11286321  0.16630597
   0.69046971  0.95978018  0.47774244
   0.93854083  0.95922813  0.34423222
   0.80928004  0.03969587  0.52230684
   0.68438449  0.62511029  0.43313377
   0.43849680  0.45903870  0.34425929
   0.81242891  0.21247084  0.74445180
   0.43932871  0.96970488  0.87563103
   0.56512989  0.87459442  0.56679065
   0.81080771  0.02960433  0.12432123
   0.43044094  0.62365632  0.29977595
   0.81590729  0.72139848  0.87591277
   0.68793348  0.45792435  0.61139278
   0.55990666  0.38710819  0.83365206
   0.80533490  0.37360412  0.29968446
   0.18678506  0.29174603  0.38849093
   0.81845615  0.54917108  0.78889707
   0.18444222  0.78994239  0.52235053
   0.30535217  0.87398477  0.29976591
   0.18059540  0.95160002  0.21143118
   0.18720822  0.46254130  0.74454186
   0.43437944  0.28981444  0.52220173
   0.06335471  0.70892648  0.34417143
   0.18663318  0.79083655  0.65567333
   0.44363854  0.79903676  0.78864581
   0.68445719  0.12511666  0.43312547
   0.93430166  0.78940836  0.52231760
   0.68971559  0.61336017  0.16636346
   0.81341842  0.70892246  0.34420616
   0.93693322  0.46249670  0.74457952
   0.18851918  0.45894556  0.34424632
   0.56881669  0.54923995  0.78885810
   0.56498748  0.36346908  0.16617674
   0.56336895  0.70893366  0.34422735
   0.55545855  0.37367044  0.29978275
   0.18894083  0.46940112  0.87568112
   0.18975550  0.11246829  0.16635578
   0.44353971  0.29863089  0.78865762
   0.68771676  0.78765202  0.25547493
   0.93546112  0.13687947  0.83379503
   0.44050058  0.95969980  0.47769713
   0.56639230  0.72184383  0.87582071
   0.19040499  0.45981511  0.47771605
   0.93514214  0.28058640  0.12443646
   0.31199493  0.04185507  0.38856940
   0.06148722  0.04081118  0.65575556
   0.55995536  0.37516718  0.43313782
   0.68638749  0.46240977  0.74459645
   0.56237959  0.21285622  0.74447584
   0.94456780  0.12662144  0.70028080
   0.56152277  0.04092490  0.65570982
   0.55927024  0.54000574  0.52227685
   0.18038475  0.12360662  0.29968133
   0.43957270  0.11168548  0.16623483
   0.68034253  0.62352453  0.29970786
   0.93035112  0.12340219  0.29977169
   0.81509073  0.37485437  0.56685241
   0.05539390  0.87364220  0.29971019
   0.19010487  0.62479563  0.56687421
   0.94323517  0.79907936  0.78875436
   0.31012853  0.38693471  0.83378138
   0.93925700  0.46988085  0.87563864
   0.43534842  0.63733718  0.83373445
   0.06336800  0.20889714  0.34418584
   0.18907172  0.96943100  0.87569818
   0.93567186  0.78057941  0.12452671
   0.68690039  0.79189720  0.38852375
   0.93649704  0.79104004  0.65573872
   0.93945557  0.11300773  0.16648893
   0.43652140  0.29116822  0.65581403
   0.05597715  0.20126739  0.21134309
   0.68087163  0.95144777  0.21134469
   0.18038122  0.62357695  0.29971563
   0.81937194  0.87634998  0.70028164
   0.94441889  0.62649397  0.70035351
   0.19434837  0.12639238  0.70021036
   0.94067278  0.45954043  0.47767468
   0.81295490  0.20794352  0.61143447
   0.18530105  0.62515876  0.43313515
   0.43043773  0.12363067  0.29969550
   0.68033123  0.12349671  0.29969648
   0.56188536  0.54187044  0.38855519
   0.81332167  0.20897412  0.34421988
   0.43920757  0.46963406  0.87554407
   0.56014964  0.88695779  0.83372407
   0.31558018  0.20977455  0.47768707
   0.19034557  0.95973797  0.47769451
   0.05999891  0.88706551  0.83381640
   0.05937069  0.53979169  0.52226883
   0.94057248  0.95956605  0.47766085
   0.06301576  0.70794173  0.61145279
   0.55929180  0.03988707  0.52223858
   0.69382270  0.29854694  0.78868096
   0.81546734  0.36261610  0.16641600
   0.43475314  0.12504145  0.43312032
   0.06564011  0.20965246  0.47773775
   0.31152892  0.04102449  0.65570891
   0.43426044  0.78977659  0.52224646
   0.18540577  0.13711125  0.83377696
   0.18572984  0.28022216  0.12437614
   0.93849740  0.45926558  0.34418325
   0.56561132  0.86261582  0.16615674
   0.30537146  0.70083834  0.21137662
   0.93947945  0.61287375  0.16640623
   0.18793776  0.45797213  0.61139157
   0.06950245  0.87644080  0.70016227
   0.06155657  0.54098665  0.65575724
   0.31044607  0.52963570  0.12393444
   0.93680855  0.79201028  0.38856392
   0.94362963  0.29825149  0.78869129
   0.18637299  0.29107592  0.65575057
   0.93790422  0.95790534  0.61143968
   0.81250123  0.71232365  0.74454203
   0.68778522  0.28765602  0.25548021
   0.06234564  0.71252835  0.74457693
   0.68063432  0.45136001  0.21137187
   0.81556823  0.20968413  0.47775927