 288 288   0   0
  0.1280206E+02  0.9726678E-09  0.8423550E-09  0.4500000E-08  0.2500000E-15
  1.000000000000000E-004
  CAR 
 unknown system                          
      6.84434733     -6.02743268  301      4.31716927      1.00000000
     -6.027  0.0000E+00  0.0000E+00
     -5.985  0.0000E+00  0.0000E+00
     -5.942  0.0000E+00  0.0000E+00
     -5.899  0.0000E+00  0.0000E+00
     -5.856  0.0000E+00  0.0000E+00
     -5.813  0.0000E+00  0.0000E+00
     -5.770  0.0000E+00  0.0000E+00
     -5.727  0.0000E+00  0.0000E+00
     -5.684  0.0000E+00  0.0000E+00
     -5.641  0.0000E+00  0.0000E+00
     -5.598  0.0000E+00  0.0000E+00
     -5.555  0.0000E+00  0.0000E+00
     -5.513  0.0000E+00  0.0000E+00
     -5.470  0.0000E+00  0.0000E+00
     -5.427  0.0000E+00  0.0000E+00
     -5.384  0.1941E-15  0.8327E-17
     -5.341  0.4819E-14  0.2151E-15
     -5.298  0.1035E-12  0.4657E-14
     -5.255  0.1889E-11  0.8571E-13
     -5.212  0.2932E-10  0.1344E-11
     -5.169  0.3872E-09  0.1796E-10
     -5.126  0.4351E-08  0.2046E-09
     -5.084  0.4160E-07  0.1990E-08
     -5.041  0.3388E-06  0.1653E-07
     -4.998  0.2351E-05  0.1174E-06
     -4.955  0.1391E-04  0.7144E-06
     -4.912  0.7035E-04  0.3733E-05
     -4.869  0.3046E-03  0.1680E-04
     -4.826  0.1133E-02  0.6542E-04
     -4.783  0.3640E-02  0.2216E-03
     -4.740  0.1017E-01  0.6578E-03
     -4.697  0.2493E-01  0.1728E-02
     -4.654  0.5431E-01  0.4058E-02
     -4.612  0.1065E+00  0.8626E-02
     -4.569  0.1902E+00  0.1679E-01
     -4.526  0.3129E+00  0.3021E-01
     -4.483  0.4779E+00  0.5072E-01
     -4.440  0.6810E+00  0.7994E-01
     -4.397  0.9102E+00  0.1190E+00
     -4.354  0.1146E+01  0.1681E+00
     -4.311  0.1364E+01  0.2267E+00
     -4.268  0.1545E+01  0.2929E+00
     -4.225  0.1675E+01  0.3648E+00
     -4.182  0.1761E+01  0.4404E+00
     -4.140  0.1821E+01  0.5185E+00
     -4.097  0.1886E+01  0.5994E+00
     -4.054  0.1989E+01  0.6847E+00
     -4.011  0.2150E+01  0.7770E+00
     -3.968  0.2370E+01  0.8787E+00
     -3.925  0.2625E+01  0.9913E+00
     -3.882  0.2872E+01  0.1115E+01
     -3.839  0.3066E+01  0.1246E+01
     -3.796  0.3174E+01  0.1382E+01
     -3.753  0.3189E+01  0.1519E+01
     -3.711  0.3136E+01  0.1654E+01
     -3.668  0.3066E+01  0.1785E+01
     -3.625  0.3035E+01  0.1915E+01
     -3.582  0.3087E+01  0.2048E+01
     -3.539  0.3236E+01  0.2187E+01
     -3.496  0.3460E+01  0.2335E+01
     -3.453  0.3714E+01  0.2495E+01
     -3.410  0.3947E+01  0.2664E+01
     -3.367  0.4114E+01  0.2840E+01
     -3.324  0.4197E+01  0.3021E+01
     -3.281  0.4204E+01  0.3201E+01
     -3.239  0.4170E+01  0.3380E+01
     -3.196  0.4144E+01  0.3558E+01
     -3.153  0.4173E+01  0.3737E+01
     -3.110  0.4286E+01  0.3921E+01
     -3.067  0.4481E+01  0.4113E+01
     -3.024  0.4727E+01  0.4316E+01
     -2.981  0.4978E+01  0.4529E+01
     -2.938  0.5186E+01  0.4752E+01
     -2.895  0.5318E+01  0.4980E+01
     -2.852  0.5370E+01  0.5210E+01
     -2.809  0.5372E+01  0.5441E+01
     -2.767  0.5377E+01  0.5672E+01
     -2.724  0.5428E+01  0.5904E+01
     -2.681  0.5530E+01  0.6142E+01
     -2.638  0.5637E+01  0.6384E+01
     -2.595  0.5681E+01  0.6627E+01
     -2.552  0.5628E+01  0.6869E+01
     -2.509  0.5519E+01  0.7106E+01
     -2.466  0.5462E+01  0.7340E+01
     -2.423  0.5581E+01  0.7579E+01
     -2.380  0.5942E+01  0.7834E+01
     -2.338  0.6501E+01  0.8113E+01
     -2.295  0.7100E+01  0.8418E+01
     -2.252  0.7531E+01  0.8741E+01
     -2.209  0.7637E+01  0.9069E+01
     -2.166  0.7417E+01  0.9387E+01
     -2.123  0.7035E+01  0.9689E+01
     -2.080  0.6742E+01  0.9978E+01
     -2.037  0.6742E+01  0.1027E+02
     -1.994  0.7090E+01  0.1057E+02
     -1.951  0.7680E+01  0.1090E+02
     -1.908  0.8303E+01  0.1126E+02
     -1.866  0.8753E+01  0.1163E+02
     -1.823  0.8922E+01  0.1202E+02
     -1.780  0.8852E+01  0.1240E+02
     -1.737  0.8698E+01  0.1277E+02
     -1.694  0.8623E+01  0.1314E+02
     -1.651  0.8707E+01  0.1351E+02
     -1.608  0.8927E+01  0.1390E+02
     -1.565  0.9209E+01  0.1429E+02
     -1.522  0.9492E+01  0.1470E+02
     -1.479  0.9760E+01  0.1512E+02
     -1.436  0.1002E+02  0.1555E+02
     -1.394  0.1026E+02  0.1599E+02
     -1.351  0.1045E+02  0.1643E+02
     -1.308  0.1059E+02  0.1689E+02
     -1.265  0.1077E+02  0.1735E+02
     -1.222  0.1117E+02  0.1783E+02
     -1.179  0.1192E+02  0.1834E+02
     -1.136  0.1300E+02  0.1890E+02
     -1.093  0.1416E+02  0.1951E+02
     -1.050  0.1506E+02  0.2015E+02
     -1.007  0.1549E+02  0.2082E+02
     -0.965  0.1552E+02  0.2148E+02
     -0.922  0.1551E+02  0.2215E+02
     -0.879  0.1590E+02  0.2283E+02
     -0.836  0.1694E+02  0.2356E+02
     -0.793  0.1862E+02  0.2436E+02
     -0.750  0.2080E+02  0.2525E+02
     -0.707  0.2341E+02  0.2625E+02
     -0.664  0.2657E+02  0.2739E+02
     -0.621  0.3042E+02  0.2870E+02
     -0.578  0.3490E+02  0.3020E+02
     -0.535  0.3959E+02  0.3190E+02
     -0.493  0.4389E+02  0.3378E+02
     -0.450  0.4736E+02  0.3581E+02
     -0.407  0.4994E+02  0.3795E+02
     -0.364  0.5190E+02  0.4018E+02
     -0.321  0.5355E+02  0.4248E+02
     -0.278  0.5502E+02  0.4484E+02
     -0.235  0.5624E+02  0.4725E+02
     -0.192  0.5707E+02  0.4970E+02
     -0.149  0.5746E+02  0.5217E+02
     -0.106  0.5754E+02  0.5463E+02
     -0.064  0.5757E+02  0.5710E+02
     -0.021  0.5781E+02  0.5958E+02
      0.022  0.5842E+02  0.6209E+02
      0.065  0.5955E+02  0.6465E+02
      0.108  0.6136E+02  0.6728E+02
      0.151  0.6394E+02  0.7002E+02
      0.194  0.6720E+02  0.7291E+02
      0.237  0.7083E+02  0.7595E+02
      0.280  0.7443E+02  0.7914E+02
      0.323  0.7768E+02  0.8247E+02
      0.366  0.8045E+02  0.8592E+02
      0.408  0.8271E+02  0.8947E+02
      0.451  0.8451E+02  0.9310E+02
      0.494  0.8580E+02  0.9678E+02
      0.537  0.8654E+02  0.1005E+03
      0.580  0.8670E+02  0.1042E+03
      0.623  0.8639E+02  0.1079E+03
      0.666  0.8575E+02  0.1116E+03
      0.709  0.8483E+02  0.1152E+03
      0.752  0.8357E+02  0.1188E+03
      0.795  0.8191E+02  0.1223E+03
      0.838  0.8003E+02  0.1258E+03
      0.880  0.7830E+02  0.1291E+03
      0.923  0.7709E+02  0.1324E+03
      0.966  0.7651E+02  0.1357E+03
      1.009  0.7633E+02  0.1390E+03
      1.052  0.7615E+02  0.1423E+03
      1.095  0.7564E+02  0.1455E+03
      1.138  0.7475E+02  0.1487E+03
      1.181  0.7376E+02  0.1519E+03
      1.224  0.7311E+02  0.1550E+03
      1.267  0.7305E+02  0.1582E+03
      1.309  0.7346E+02  0.1613E+03
      1.352  0.7377E+02  0.1645E+03
      1.395  0.7339E+02  0.1676E+03
      1.438  0.7211E+02  0.1707E+03
      1.481  0.7027E+02  0.1737E+03
      1.524  0.6857E+02  0.1767E+03
      1.567  0.6764E+02  0.1796E+03
      1.610  0.6776E+02  0.1825E+03
      1.653  0.6888E+02  0.1854E+03
      1.696  0.7077E+02  0.1885E+03
      1.739  0.7310E+02  0.1916E+03
      1.781  0.7559E+02  0.1949E+03
      1.824  0.7802E+02  0.1982E+03
      1.867  0.8027E+02  0.2016E+03
      1.910  0.8228E+02  0.2052E+03
      1.953  0.8408E+02  0.2088E+03
      1.996  0.8574E+02  0.2125E+03
      2.039  0.8733E+02  0.2162E+03
      2.082  0.8891E+02  0.2200E+03
      2.125  0.9048E+02  0.2239E+03
      2.168  0.9204E+02  0.2279E+03
      2.211  0.9361E+02  0.2319E+03
      2.253  0.9528E+02  0.2360E+03
      2.296  0.9728E+02  0.2401E+03
      2.339  0.9989E+02  0.2444E+03
      2.382  0.1033E+03  0.2488E+03
      2.425  0.1074E+03  0.2535E+03
      2.468  0.1120E+03  0.2583E+03
      2.511  0.1165E+03  0.2633E+03
      2.554  0.1206E+03  0.2684E+03
      2.597  0.1239E+03  0.2737E+03
      2.640  0.1264E+03  0.2792E+03
      2.682  0.1280E+03  0.2847E+03
      2.725  0.1289E+03  0.2902E+03
      2.768  0.1296E+03  0.2958E+03
      2.811  0.1307E+03  0.3014E+03
      2.854  0.1327E+03  0.3071E+03
      2.897  0.1357E+03  0.3129E+03
      2.940  0.1391E+03  0.3188E+03
      2.983  0.1415E+03  0.3249E+03
      3.026  0.1414E+03  0.3310E+03
      3.069  0.1377E+03  0.3369E+03
      3.112  0.1306E+03  0.3425E+03
      3.154  0.1213E+03  0.3477E+03
      3.197  0.1117E+03  0.3525E+03
      3.240  0.1034E+03  0.3569E+03
      3.283  0.9717E+02  0.3611E+03
      3.326  0.9324E+02  0.3651E+03
      3.369  0.9126E+02  0.3690E+03
      3.412  0.9058E+02  0.3729E+03
      3.455  0.9037E+02  0.3768E+03
      3.498  0.8985E+02  0.3806E+03
      3.541  0.8853E+02  0.3844E+03
      3.583  0.8651E+02  0.3882E+03
      3.626  0.8448E+02  0.3918E+03
      3.669  0.8332E+02  0.3953E+03
      3.712  0.8368E+02  0.3989E+03
      3.755  0.8558E+02  0.4026E+03
      3.798  0.8846E+02  0.4064E+03
      3.841  0.9157E+02  0.4103E+03
      3.884  0.9437E+02  0.4144E+03
      3.927  0.9669E+02  0.4185E+03
      3.970  0.9862E+02  0.4228E+03
      4.013  0.1003E+03  0.4271E+03
      4.055  0.1017E+03  0.4314E+03
      4.098  0.1026E+03  0.4358E+03
      4.141  0.1028E+03  0.4402E+03
      4.184  0.1024E+03  0.4446E+03
      4.227  0.1015E+03  0.4490E+03
      4.270  0.1005E+03  0.4533E+03
      4.313  0.9954E+02  0.4576E+03
      4.356  0.9908E+02  0.4618E+03
      4.399  0.9913E+02  0.4661E+03
      4.442  0.9957E+02  0.4704E+03
      4.485  0.1001E+03  0.4746E+03
      4.527  0.1003E+03  0.4789E+03
      4.570  0.9996E+02  0.4832E+03
      4.613  0.9922E+02  0.4875E+03
      4.656  0.9841E+02  0.4917E+03
      4.699  0.9806E+02  0.4959E+03
      4.742  0.9863E+02  0.5002E+03
      4.785  0.1003E+03  0.5045E+03
      4.828  0.1030E+03  0.5089E+03
      4.871  0.1061E+03  0.5134E+03
      4.914  0.1091E+03  0.5181E+03
      4.956  0.1116E+03  0.5229E+03
      4.999  0.1128E+03  0.5277E+03
      5.042  0.1121E+03  0.5326E+03
      5.085  0.1083E+03  0.5372E+03
      5.128  0.1005E+03  0.5415E+03
      5.171  0.8835E+02  0.5453E+03
      5.214  0.7246E+02  0.5484E+03
      5.257  0.5473E+02  0.5508E+03
      5.300  0.3764E+02  0.5524E+03
      5.343  0.2334E+02  0.5534E+03
      5.386  0.1297E+02  0.5539E+03
      5.428  0.6421E+01  0.5542E+03
      5.471  0.2825E+01  0.5543E+03
      5.514  0.1103E+01  0.5544E+03
      5.557  0.3826E+00  0.5544E+03
      5.600  0.1179E+00  0.5544E+03
      5.643  0.3236E-01  0.5544E+03
      5.686  0.7908E-02  0.5544E+03
      5.729  0.1721E-02  0.5544E+03
      5.772  0.3323E-03  0.5544E+03
      5.815  0.5674E-04  0.5544E+03
      5.858  0.8516E-05  0.5544E+03
      5.900  0.1117E-05  0.5544E+03
      5.943  0.1274E-06  0.5544E+03
      5.986  0.1256E-07  0.5544E+03
      6.029  0.1067E-08  0.5544E+03
      6.072  0.7782E-10  0.5544E+03
      6.115  0.4862E-11  0.5544E+03
      6.158  0.2588E-12  0.5544E+03
      6.201  0.1151E-13  0.5544E+03
      6.244  0.4528E-15  0.5544E+03
      6.287  0.0000E+00  0.5544E+03
      6.329  0.0000E+00  0.5544E+03
      6.372  0.0000E+00  0.5544E+03
      6.415  0.0000E+00  0.5544E+03
      6.458  0.0000E+00  0.5544E+03
      6.501  0.0000E+00  0.5544E+03
      6.544  0.0000E+00  0.5544E+03
      6.587  0.0000E+00  0.5544E+03
      6.630  0.0000E+00  0.5544E+03
      6.673  0.0000E+00  0.5544E+03
      6.716  0.0000E+00  0.5544E+03
      6.759  0.0000E+00  0.5544E+03
      6.801  0.0000E+00  0.5544E+03
      6.844  0.0000E+00  0.5544E+03
