unknown system                          
           1
     9.726678    0.000000    0.000000
     0.000000    8.423550    0.000000
     0.000000    0.000000   45.000000
   Fe   Mn
 274  14
Direct configuration=     1
   0.06189532  0.03122196  0.12437990
   0.31648767  0.87497321  0.65489158
   0.18479610  0.12197485  0.78831741
   0.44161552  0.28796074  0.38915447
   0.31771030  0.71307011  0.83285608
   0.81765176  0.21378472  0.83340216
   0.19168265  0.96362829  0.83333727
   0.56214280  0.20708468  0.56550909
   0.06538301  0.03985025  0.74398247
   0.81160590  0.87153555  0.52135265
   0.19106362  0.29056376  0.74388635
   0.93349891  0.45232481  0.34497421
   0.94107625  0.28616763  0.38895634
   0.81359512  0.04049349  0.87541492
   0.18361560  0.78807289  0.61086945
   0.56652551  0.03780204  0.38906582
   0.94273260  0.96357938  0.83338452
   0.31348882  0.53951159  0.87584125
   0.69046707  0.29041876  0.74392836
   0.18223265  0.61375969  0.16668212
   0.81218813  0.20575110  0.47870173
   0.80870555  0.53802877  0.61090574
   0.31201348  0.87047280  0.43449245
   0.80923915  0.03816214  0.25611504
   0.68336721  0.95162585  0.34492304
   0.93134500  0.11458999  0.16722352
   0.06166939  0.87151508  0.52139013
   0.55850294  0.53796390  0.25608378
   0.68597074  0.79479949  0.87567663
   0.55596780  0.36553003  0.16678176
   0.43984707  0.79077740  0.74405226
   0.81145468  0.70668669  0.56547567
   0.55973628  0.87241632  0.78835028
   0.68661331  0.12167328  0.52136918
   0.81644064  0.37475999  0.65490722
   0.94187202  0.46263363  0.83321554
   0.06033046  0.20795500  0.69957193
   0.43508213  0.95794255  0.69954119
   0.31646402  0.21234347  0.83346375
   0.44135409  0.62497594  0.65491309
   0.30874253  0.53798785  0.61088639
   0.93654310  0.45662278  0.56553988
   0.69004816  0.79112209  0.74408684
   0.93375984  0.78825647  0.12468162
   0.69168954  0.78768255  0.38904451
   0.94049413  0.79036560  0.74419953
   0.05876432  0.20273126  0.34510218
   0.68350280  0.45243615  0.34507210
   0.43448334  0.12226135  0.78849807
   0.06483633  0.20507566  0.21160617
   0.05540636  0.36560914  0.16679129
   0.93316490  0.78832508  0.25574629
   0.56042747  0.20785906  0.69960495
   0.68488936  0.95795237  0.69958760
   0.80937326  0.87255716  0.78828431
   0.43687745  0.95712156  0.56538845
   0.81012795  0.37304786  0.78838070
   0.68398686  0.28929117  0.25613776
   0.18733171  0.45726698  0.56546260
   0.05570131  0.86554521  0.16677438
   0.18378236  0.28800536  0.61095624
   0.06224359  0.20729334  0.56536799
   0.31039399  0.20793416  0.69964546
   0.56297579  0.54043282  0.87574208
   0.06175833  0.70639613  0.56551164
   0.68491215  0.62265080  0.78842868
   0.31605917  0.53857658  0.38898032
   0.18666524  0.62138587  0.52142240
   0.56228158  0.87027054  0.43446337
   0.43687537  0.45703464  0.56548632
   0.43983139  0.29105744  0.74405979
   0.81919537  0.87475582  0.30029407
   0.80871798  0.70269667  0.34505574
   0.44166224  0.46247400  0.83315109
   0.68744337  0.95587185  0.47871097
   0.68512040  0.45813135  0.69964415
   0.56183193  0.87196360  0.52140161
   0.56653701  0.37471830  0.65484192
   0.81640545  0.87491581  0.65495241
   0.81160809  0.37124192  0.43421431
   0.80851768  0.53796111  0.25624683
   0.69214516  0.46204972  0.83316350
   0.18608876  0.78850785  0.12426367
   0.69138493  0.28749476  0.38907711
   0.31658608  0.37499986  0.65486609
   0.30883668  0.20240023  0.34484185
   0.81554344  0.53997986  0.74394525
   0.69132494  0.96252496  0.83312379
   0.56626853  0.87489818  0.65491559
   0.31134181  0.70743028  0.56544680
   0.31251341  0.53122378  0.12425855
   0.68985427  0.95528632  0.21191991
   0.31141349  0.20669467  0.56548639
   0.18747083  0.95575307  0.47873108
   0.68737057  0.95709756  0.56547739
   0.43366284  0.78796571  0.61084904
   0.68216712  0.61174748  0.16671073
   0.32008939  0.87369142  0.30011809
   0.31220295  0.70577590  0.47866519
   0.93368377  0.28800796  0.61087489
   0.44551609  0.62447601  0.30040857
   0.80667800  0.86408860  0.16724660
   0.56681071  0.20292415  0.21170486
   0.93299850  0.61290872  0.16681697
   0.43732126  0.95576755  0.47865395
   0.55960531  0.37210851  0.78837276
   0.06140047  0.37218022  0.52134035
   0.30684350  0.36463115  0.16686524
   0.69542660  0.12383534  0.30027822
   0.44285732  0.96272950  0.83326807
   0.18455258  0.28740663  0.12455523
   0.18422463  0.28923894  0.25608176
   0.31251525  0.37031187  0.43445931
   0.56250416  0.03261522  0.12457239
   0.43373852  0.28792236  0.61088575
   0.18358265  0.45275443  0.34502937
   0.43456325  0.28737320  0.12455756
   0.68397990  0.78925917  0.25598651
   0.43667582  0.12177129  0.52137726
   0.18767108  0.29474228  0.87577552
   0.19155836  0.12505241  0.65490848
   0.94160351  0.12495955  0.65489011
   0.81622940  0.53780669  0.38907303
   0.93876894  0.79288929  0.87559643
   0.18280549  0.11207742  0.16668356
   0.05858235  0.53788613  0.61091561
   0.93424805  0.28862466  0.25612201
   0.55866400  0.53789778  0.61087731
   0.93682466  0.95735242  0.56542985
   0.69483391  0.62424704  0.30017373
   0.93743691  0.62029562  0.43448454
   0.93345210  0.62357921  0.78809047
   0.56036952  0.70773894  0.69957674
   0.06615368  0.71450208  0.83340943
   0.94519325  0.12353529  0.30028681
   0.93369842  0.78758877  0.61091251
   0.43380820  0.78944050  0.25603496
   0.31012114  0.37228158  0.78824421
   0.43992495  0.45502587  0.21176638
   0.18665571  0.12179199  0.52137882
   0.81027697  0.70778218  0.69954863
   0.05866041  0.03796053  0.61086275
   0.56639397  0.21274878  0.83313212
   0.31163704  0.87187319  0.52139321
   0.68642935  0.28656368  0.12437388
   0.19027080  0.95616316  0.21199963
   0.68361255  0.28808651  0.61095361
   0.30865940  0.03793456  0.61094104
   0.93464152  0.12287441  0.78847977
   0.43702075  0.79534623  0.87569582
   0.81572121  0.04055606  0.74391662
   0.93500442  0.45807281  0.69964673
   0.19132317  0.62495879  0.65490258
   0.31028439  0.70786737  0.69956700
   0.93456701  0.28711345  0.12440103
   0.43739294  0.45600206  0.47856357
   0.06223346  0.70580489  0.47858076
   0.93654301  0.11893658  0.43472533
   0.44431874  0.12409065  0.30046038
   0.18758969  0.11970395  0.43439939
   0.56352099  0.03910033  0.87574209
   0.18704371  0.95717941  0.56547490
   0.68413307  0.78841036  0.12476269
   0.55907954  0.70264130  0.34499544
   0.31627497  0.03718914  0.38907069
   0.68234230  0.11420921  0.16716865
   0.81529562  0.20510940  0.21162465
   0.05965757  0.53781933  0.25603998
   0.56229181  0.70570951  0.47860852
   0.43460970  0.78774949  0.12452228
   0.56948628  0.37330144  0.30035428
   0.43378241  0.95274411  0.34508334
   0.18507101  0.95793717  0.69960749
   0.43181598  0.61362349  0.16661906
   0.93988987  0.45540323  0.21197006
   0.06168942  0.53106998  0.12429918
   0.81183559  0.37192219  0.52137587
   0.94447025  0.62468928  0.30001116
   0.30896481  0.03777219  0.25574642
   0.68370091  0.78794546  0.61087967
   0.19159989  0.46270678  0.83330201
   0.43221303  0.11191600  0.16669301
   0.31155647  0.37194107  0.52138341
   0.43391223  0.62204242  0.78861404
   0.05883659  0.03807506  0.25592906
   0.56217427  0.70712628  0.56549737
   0.94013279  0.28981664  0.74393659
   0.68297408  0.12236324  0.78832039
   0.18963776  0.45494620  0.21160735
   0.94144090  0.78780803  0.38905304
   0.68675330  0.29781665  0.87577412
   0.55558495  0.86472406  0.16666994
   0.43516168  0.45825403  0.69966044
   0.93390516  0.95151258  0.34489876
   0.68638214  0.62141702  0.52128861
   0.06643699  0.87485136  0.65491810
   0.05965060  0.87278421  0.78824913
   0.06634582  0.37486185  0.65491552
   0.68727065  0.45570601  0.47864472
   0.18418492  0.78884850  0.25590913
   0.43714776  0.12016224  0.43440276
   0.81356090  0.03149015  0.12433375
   0.93644364  0.62181691  0.52140693
   0.44156264  0.12497693  0.65483668
   0.81271261  0.53054280  0.12436340
   0.43343010  0.45234848  0.34506981
   0.80914823  0.20277958  0.34506997
   0.30893660  0.70202320  0.34490708
   0.69135282  0.12499349  0.65494084
   0.56997716  0.87342551  0.30046731
   0.06556116  0.54005511  0.74400138
   0.94088824  0.95541532  0.21159019
   0.81668805  0.70516831  0.21173066
   0.06943277  0.87411787  0.30047586
   0.19479162  0.12397410  0.30038135
   0.05851087  0.70258200  0.34508589
   0.80877352  0.03785829  0.61086684
   0.06296176  0.37142899  0.43433311
   0.55875340  0.20257552  0.34486349
   0.82048321  0.37364894  0.30026356
   0.55927215  0.03877335  0.25589622
   0.56630241  0.53785698  0.38910510
   0.06250308  0.20592275  0.47864772
   0.31059615  0.87141107  0.78816372
   0.93512381  0.95826183  0.69958696
   0.06921773  0.37493343  0.30016674
   0.69144375  0.62488298  0.65495136
   0.68683120  0.45712426  0.56541924
   0.44032795  0.95650499  0.21223527
   0.31248915  0.20572236  0.47874520
   0.81205594  0.53990992  0.87582625
   0.68757288  0.61997413  0.43443976
   0.81048126  0.20767754  0.69965629
   0.81239260  0.70566155  0.47865494
   0.81165409  0.87086395  0.43433518
   0.93730356  0.95517145  0.47874454
   0.56230955  0.20578388  0.47867979
   0.18700102  0.61926103  0.43447187
   0.31505203  0.04086459  0.74400080
   0.94150311  0.62519993  0.65488006
   0.56662158  0.71274287  0.83316382
   0.32027392  0.37321394  0.30032748
   0.56541367  0.70435961  0.21174544
   0.18735416  0.45570168  0.47868734
   0.31389569  0.04046205  0.87550192
   0.18500911  0.45824160  0.69955600
   0.56168829  0.37171499  0.52136142
   0.19122548  0.28744001  0.38902168
   0.31584081  0.20517191  0.21161018
   0.06740852  0.70557220  0.21158596
   0.56204996  0.37066813  0.43441916
   0.43648261  0.62195763  0.52131221
   0.81644258  0.71365632  0.83297670
   0.05969024  0.37292542  0.78838474
   0.43658995  0.29662447  0.87603387
   0.31117652  0.03155378  0.12441866
   0.68801905  0.11981876  0.43427040
   0.18347054  0.95225472  0.34504148
   0.06665346  0.21346752  0.83359027
   0.55882256  0.03794052  0.61092499
   0.68978040  0.45505871  0.21196423
   0.19039517  0.79027955  0.74399339
   0.19424788  0.62439599  0.30040845
   0.44130922  0.78753729  0.38909096
   0.43382553  0.28944073  0.25606554
   0.06345900  0.54121834  0.87557334
   0.56572786  0.04049960  0.74394963
   0.18639908  0.79484154  0.87566316
   0.93735217  0.45560626  0.47867310
   0.56546128  0.54047832  0.74384557
   0.81119984  0.20691096  0.56544504
   0.18450227  0.62222584  0.78835697
   0.06683185  0.53839564  0.38917969
   0.06040627  0.70777467  0.69956717
   0.30825622  0.53836988  0.25566793
   0.31515345  0.70371724  0.21238060
   0.30526650  0.86508545  0.16612833
   0.43695983  0.62061967  0.43441957
   0.81775130  0.03967815  0.38931816
   0.93474100  0.29692315  0.87525224
   0.06826027  0.04029525  0.38886388
   0.06427914  0.03660453  0.87538554
   0.56276831  0.53002365  0.12489608
   0.80502538  0.36623599  0.16643453
   0.06193639  0.87047037  0.43450781
   0.93647201  0.12172399  0.52149495
   0.19330872  0.78646544  0.38909839
   0.31580601  0.54008685  0.74405949
Direct configuration=     2
   0.06172714  0.03161352  0.12443944
   0.31609352  0.87480723  0.65488736
   0.18506756  0.12223790  0.78828321
   0.44140808  0.28801628  0.38920791
   0.31726035  0.71271888  0.83291494
   0.81728887  0.21335375  0.83342065
   0.19137622  0.96327413  0.83334018
   0.56201875  0.20696351  0.56555519
   0.06504994  0.03998755  0.74397110
   0.81150449  0.87167603  0.52144958
   0.19068296  0.29063944  0.74388518
   0.93404321  0.45263218  0.34496127
   0.94081664  0.28634792  0.38901834
   0.81351454  0.04104025  0.87537731
   0.18396680  0.78816259  0.61079599
   0.56633466  0.03792343  0.38912269
   0.94244064  0.96333503  0.83341100
   0.31347519  0.54010529  0.87575249
   0.69019132  0.29042315  0.74392277
   0.18255327  0.61421527  0.16667694
   0.81218367  0.20566387  0.47864614
   0.80901725  0.53819383  0.61084734
   0.31212078  0.87060715  0.43446297
   0.80965609  0.03810907  0.25609055
   0.68393990  0.95198122  0.34491781
   0.93161593  0.11488925  0.16716055
   0.06183074  0.87171049  0.52147039
   0.55898965  0.53802691  0.25606864
   0.68627583  0.79452480  0.87561301
   0.55636831  0.36566438  0.16674838
   0.43969563  0.79081113  0.74402940
   0.81149877  0.70662183  0.56553193
   0.56003092  0.87260657  0.78830550
   0.68657962  0.12177127  0.52144320
   0.81604249  0.37472932  0.65492170
   0.94162218  0.46244553  0.83326701
   0.06050458  0.20790172  0.69957861
   0.43538160  0.95781927  0.69955535
   0.31624622  0.21206146  0.83350026
   0.44097082  0.62484102  0.65490767
   0.30906700  0.53817903  0.61081324
   0.93663055  0.45651703  0.56559431
   0.68982732  0.79119787  0.74406063
   0.93375135  0.78759391  0.12474483
   0.69151291  0.78761178  0.38909539
   0.94023347  0.79051186  0.74414693
   0.05926770  0.20296785  0.34506368
   0.68412389  0.45264686  0.34503649
   0.43478605  0.12250246  0.78845500
   0.06458540  0.20491413  0.21163194
   0.05565870  0.36575972  0.16675924
   0.93367182  0.78832897  0.25577041
   0.56066401  0.20778735  0.69961244
   0.68519999  0.95783738  0.69961019
   0.80959218  0.87277620  0.78824319
   0.43683744  0.95696983  0.56545825
   0.81029941  0.37313051  0.78831689
   0.68440348  0.28904676  0.25612494
   0.18722872  0.45708289  0.56552949
   0.05613552  0.86578059  0.16674799
   0.18415426  0.28826169  0.61088728
   0.06219542  0.20715420  0.56543536
   0.31063422  0.20791179  0.69965097
   0.56313486  0.54106708  0.87565291
   0.06178061  0.70634119  0.56556741
   0.68512040  0.62292872  0.78839146
   0.31587957  0.53845533  0.38904726
   0.18672771  0.62162779  0.52150368
   0.56231685  0.87044164  0.43442635
   0.43681133  0.45692199  0.56555315
   0.43971276  0.29108143  0.74403907
   0.81873929  0.87441931  0.30025104
   0.80923164  0.70279646  0.34503956
   0.44145881  0.46217691  0.83321961
   0.68744663  0.95569429  0.47864171
   0.68534119  0.45800977  0.69963456
   0.56181662  0.87205349  0.52147827
   0.56614966  0.37466262  0.65484505
   0.81599015  0.87471440  0.65496614
   0.81166446  0.37110302  0.43420112
   0.80902569  0.53792524  0.25621445
   0.69191761  0.46189659  0.83323740
   0.18590632  0.78778376  0.12431136
   0.69105886  0.28759891  0.38912504
   0.31612858  0.37494181  0.65486412
   0.30931201  0.20267054  0.34486514
   0.81525065  0.54009382  0.74392664
   0.69113529  0.96233248  0.83317344
   0.56589625  0.87471205  0.65492799
   0.31140140  0.70722636  0.56551561
   0.31215061  0.53179525  0.12431970
   0.68966418  0.95511314  0.21192949
   0.31145084  0.20667295  0.56554107
   0.18742781  0.95565420  0.47867003
   0.68730875  0.95693481  0.56553894
   0.43396534  0.78807150  0.61078008
   0.68228137  0.61233550  0.16673891
   0.31936224  0.87348328  0.30012200
   0.31215212  0.70564535  0.47858651
   0.93404032  0.28820912  0.61080878
   0.44475810  0.62409249  0.30039788
   0.80683752  0.86436136  0.16717795
   0.56639899  0.20302982  0.21176654
   0.93318343  0.61331956  0.16683395
   0.43733399  0.95558596  0.47859252
   0.55988282  0.37230729  0.78833880
   0.06147344  0.37226907  0.52142682
   0.30705632  0.36485280  0.16680830
   0.69475551  0.12370576  0.30028881
   0.44257762  0.96241045  0.83329818
   0.18457845  0.28679517  0.12462345
   0.18457808  0.28894791  0.25607777
   0.31258100  0.37039984  0.43442494
   0.56226231  0.03279429  0.12460612
   0.43400529  0.28818164  0.61080858
   0.18406678  0.45300462  0.34500631
   0.43443981  0.28667197  0.12462345
   0.68443958  0.78904503  0.25600267
   0.43669112  0.12194501  0.52144885
   0.18789095  0.29440324  0.87574340
   0.19114470  0.12494413  0.65491406
   0.94117199  0.12480271  0.65490848
   0.81590375  0.53783395  0.38911811
   0.93859806  0.79268648  0.87556564
   0.18287808  0.11264564  0.16671230
   0.05895946  0.53806214  0.61084375
   0.93463833  0.28848264  0.25609396
   0.55892559  0.53812874  0.61080881
   0.93684852  0.95709507  0.56549206
   0.69422955  0.62403597  0.30021318
   0.93746612  0.62040891  0.43442357
   0.93386948  0.62381847  0.78807714
   0.56054720  0.70764238  0.69957856
   0.06597627  0.71415838  0.83341809
   0.94452921  0.12341469  0.30027672
   0.93402081  0.78771282  0.61085500
   0.43425377  0.78923251  0.25605848
   0.31032805  0.37244542  0.78821259
   0.43980705  0.45488547  0.21179703
   0.18668579  0.12188879  0.52146146
   0.81046850  0.70776850  0.69956120
   0.05899631  0.03813702  0.61078185
   0.56612199  0.21241213  0.83316157
   0.31166038  0.87195417  0.52148621
   0.68636907  0.28596619  0.12444124
   0.18988920  0.95601950  0.21199290
   0.68388219  0.28833409  0.61089755
   0.30897503  0.03807882  0.61086266
   0.93489599  0.12303042  0.78844180
   0.43719639  0.79490428  0.87562513
   0.81538399  0.04061915  0.74390539
   0.93526488  0.45792777  0.69963924
   0.19095573  0.62481637  0.65490160
   0.31052579  0.70776539  0.69957047
   0.93447365  0.28647489  0.12446130
   0.43736786  0.45574561  0.47850543
   0.06229479  0.70555473  0.47853554
   0.93672300  0.11931464  0.43469489
   0.44383643  0.12382090  0.30043178
   0.18755403  0.11993809  0.43435227
   0.56371602  0.03975744  0.87566950
   0.18694884  0.95702235  0.56553761
   0.68434003  0.78784573  0.12482910
   0.55954807  0.70275429  0.34499566
   0.31597604  0.03729302  0.38913664
   0.68270765  0.11448302  0.16713262
   0.81511862  0.20486354  0.21167111
   0.05990495  0.53785258  0.25602571
   0.56232118  0.70560502  0.47854695
   0.43456715  0.78721132  0.12453679
   0.56889974  0.37323094  0.30033980
   0.43426295  0.95287068  0.34504458
   0.18531086  0.95785312  0.69962395
   0.43214637  0.61403151  0.16664778
   0.93972311  0.45527166  0.21199357
   0.06148030  0.53144872  0.12435628
   0.81181848  0.37207575  0.52144697
   0.94397448  0.62448142  0.30004164
   0.30935891  0.03784688  0.25579083
   0.68398491  0.78804128  0.61081969
   0.19135107  0.46249446  0.83336289
   0.43259092  0.11244515  0.16673858
   0.31156476  0.37205497  0.52146910
   0.43431189  0.62231073  0.78854039
   0.05916514  0.03805913  0.25594224
   0.56203101  0.70696197  0.56555230
   0.93993382  0.28992037  0.74392611
   0.68345804  0.12256735  0.78827455
   0.18930996  0.45486986  0.21165555
   0.94113419  0.78783644  0.38910577
   0.68682762  0.29703408  0.87571455
   0.55587548  0.86495120  0.16668683
   0.43541201  0.45817534  0.69966553
   0.93446704  0.95185026  0.34491054
   0.68640825  0.62162489  0.52137936
   0.06602703  0.87466303  0.65492281
   0.05999158  0.87297867  0.78821995
   0.06595157  0.37479999  0.65491496
   0.68722815  0.45548963  0.47855358
   0.18449327  0.78876688  0.25594209
   0.43717061  0.12034190  0.43437978
   0.81317294  0.03195195  0.12442756
   0.93648473  0.62190288  0.52147343
   0.44118188  0.12484139  0.65484766
   0.81261102  0.53108465  0.12438202
   0.43400537  0.45262379  0.34505407
   0.80962836  0.20289498  0.34505154
   0.30945861  0.70226803  0.34490259
   0.69095475  0.12483290  0.65495683
   0.56938304  0.87328750  0.30043817
   0.06528601  0.54010525  0.74398061
   0.94058228  0.95530478  0.21164319
   0.81629724  0.70492980  0.21176919
   0.06882717  0.87388843  0.30045708
   0.19414453  0.12382953  0.30033929
   0.05905528  0.70281204  0.34506565
   0.80911980  0.03801466  0.61079901
   0.06292751  0.37121587  0.43429796
   0.55932255  0.20274365  0.34489741
   0.81977270  0.37361564  0.30026556
   0.55973858  0.03877266  0.25591990
   0.56596778  0.53777161  0.38915051
   0.06247857  0.20571975  0.47859650
   0.31078145  0.87168623  0.78812746
   0.93531399  0.95812960  0.69959324
   0.06878405  0.37473025  0.30017838
   0.69102242  0.62477652  0.65495462
   0.68678463  0.45698498  0.56548270
   0.44010467  0.95623244  0.21220295
   0.31244204  0.20560093  0.47867306
   0.81221504  0.54054653  0.87573661
   0.68762645  0.62004367  0.43439670
   0.81067016  0.20760877  0.69965308
   0.81235238  0.70552357  0.47858954
   0.81169673  0.87091755  0.43431485
   0.93730404  0.95512344  0.47868870
   0.56234812  0.20560412  0.47860808
   0.18704035  0.61947380  0.43443262
   0.31486827  0.04087289  0.74398966
   0.94107665  0.62504383  0.65488337
   0.56645273  0.71253152  0.83321339
   0.31953134  0.37315393  0.30032790
   0.56523790  0.70430541  0.21174900
   0.18742182  0.45551054  0.47860794
   0.31408184  0.04119941  0.87545633
   0.18527955  0.45814749  0.69956150
   0.56173200  0.37191758  0.52144118
   0.19093964  0.28757299  0.38909066
   0.31552190  0.20503171  0.21164107
   0.06678046  0.70532603  0.21160977
   0.56209954  0.37073588  0.43438870
   0.43654312  0.62208177  0.52138748
   0.81613632  0.71326583  0.83300453
   0.06002417  0.37312907  0.78832932
   0.43672430  0.29603475  0.87594510
   0.31113834  0.03196590  0.12440650
   0.68797599  0.12014025  0.43426415
   0.18395631  0.95239823  0.34502752
   0.06637584  0.21304312  0.83356186
   0.55908523  0.03809135  0.61084963
   0.68954221  0.45494873  0.21197017
   0.19014606  0.79033570  0.74398129
   0.19374046  0.62411663  0.30037609
   0.44107625  0.78743794  0.38913647
   0.43425114  0.28921143  0.25605249
   0.06365165  0.54166544  0.87552385
   0.56553439  0.04057766  0.74395541
   0.18663782  0.79443085  0.87562548
   0.93730838  0.45539010  0.47859324
   0.56521639  0.54059435  0.74383747
   0.81129564  0.20683775  0.56550106
   0.18480302  0.62254990  0.78832783
   0.06657425  0.53835601  0.38923049
   0.06062550  0.70771140  0.69957369
   0.30863314  0.53827457  0.25571927
   0.31497971  0.70372352  0.21234866
   0.30559055  0.86527111  0.16614683
   0.43695900  0.62060356  0.43438452
   0.81738186  0.03934209  0.38933133
   0.93497071  0.29643064  0.87525975
   0.06777960  0.04003208  0.38890278
   0.06421119  0.03737026  0.87535779
   0.56265726  0.53053285  0.12490717
   0.80539341  0.36627119  0.16639726
   0.06196673  0.87051245  0.43447301
   0.93658270  0.12191304  0.52152140
   0.19280844  0.78639434  0.38911831
   0.31558713  0.54018287  0.74403939
Direct configuration=     3
   0.06122259  0.03278821  0.12461809
   0.31491109  0.87430929  0.65487468
   0.18588194  0.12302704  0.78818061
   0.44078575  0.28818290  0.38936820
   0.31591050  0.71166520  0.83309152
   0.81620022  0.21206083  0.83347614
   0.19045694  0.96221164  0.83334890
   0.56164661  0.20659999  0.56569351
   0.06405073  0.04039948  0.74393698
   0.81120025  0.87209747  0.52174039
   0.18954100  0.29086649  0.74388165
   0.93567614  0.45355427  0.34492247
   0.94003779  0.28688879  0.38920435
   0.81327280  0.04268050  0.87526451
   0.18502042  0.78843166  0.61057563
   0.56576210  0.03828761  0.38929329
   0.94156474  0.96260196  0.83349043
   0.31343432  0.54188638  0.87548621
   0.68936407  0.29043633  0.74390601
   0.18351512  0.61558201  0.16666139
   0.81217029  0.20540217  0.47847937
   0.80995235  0.53868902  0.61067213
   0.31244267  0.87101021  0.43437455
   0.81090690  0.03794983  0.25601707
   0.68565794  0.95304732  0.34490210
   0.93242872  0.11578701  0.16697163
   0.06231478  0.87229673  0.52171119
   0.56044979  0.53821594  0.25602320
   0.68719107  0.79370076  0.87542216
   0.55756984  0.36606743  0.16664822
   0.43924131  0.79091232  0.74396085
   0.81163103  0.70642724  0.56570072
   0.56091485  0.87317733  0.78817116
   0.68647855  0.12206524  0.52166526
   0.81484805  0.37463728  0.65496514
   0.94087265  0.46188126  0.83342143
   0.06102695  0.20774188  0.69959865
   0.43628000  0.95744944  0.69959783
   0.31559280  0.21121545  0.83360980
   0.43982102  0.62443626  0.65489141
   0.31004043  0.53875260  0.61059380
   0.93689290  0.45619977  0.56575759
   0.68916482  0.79142521  0.74398200
   0.93372587  0.78560621  0.12493447
   0.69098303  0.78739946  0.38924802
   0.93945146  0.79095065  0.74398913
   0.06077783  0.20367762  0.34494817
   0.68598717  0.45327901  0.34492963
   0.43569417  0.12322579  0.78832579
   0.06383259  0.20442954  0.21170923
   0.05641574  0.36621148  0.16666306
   0.93519261  0.78834066  0.25584277
   0.56137366  0.20757221  0.69963490
   0.68613187  0.95749239  0.69967795
   0.81024891  0.87343330  0.78811982
   0.43671742  0.95651464  0.56566765
   0.81081380  0.37337847  0.78812545
   0.68565333  0.28831351  0.25608651
   0.18691976  0.45653062  0.56573016
   0.05743813  0.86648671  0.16666881
   0.18526995  0.28903065  0.61068041
   0.06205093  0.20673679  0.56563748
   0.31135491  0.20784469  0.69966750
   0.56361205  0.54296986  0.87538542
   0.06184745  0.70617639  0.56573471
   0.68574514  0.62376248  0.78827978
   0.31534079  0.53809157  0.38924806
   0.18691511  0.62235357  0.52174751
   0.56242265  0.87095496  0.43431526
   0.43661920  0.45658403  0.56575363
   0.43935684  0.29115340  0.74397690
   0.81737104  0.87340978  0.30012195
   0.81077263  0.70309584  0.34499103
   0.44084852  0.46128567  0.83342517
   0.68745641  0.95516163  0.47843391
   0.68600358  0.45764503  0.69960580
   0.56177069  0.87232317  0.52170825
   0.56498761  0.37449558  0.65485443
   0.81474426  0.87411017  0.65500732
   0.81183357  0.37068630  0.43416155
   0.81054972  0.53781764  0.25611734
   0.69123498  0.46143721  0.83345908
   0.18535900  0.78561148  0.12445444
   0.69008064  0.28791133  0.38926885
   0.31475608  0.37476764  0.65485822
   0.31073799  0.20348149  0.34493499
   0.81437227  0.54043568  0.74387080
   0.69056634  0.96175504  0.83332239
   0.56477941  0.87415367  0.65496518
   0.31158018  0.70661461  0.56572202
   0.31106222  0.53350965  0.12450315
   0.68909390  0.95459359  0.21195824
   0.31156288  0.20660780  0.56570511
   0.18729876  0.95535760  0.47848689
   0.68712328  0.95644653  0.56572361
   0.43487286  0.78838885  0.61057320
   0.68262411  0.61409957  0.16682343
   0.31718079  0.87285885  0.30013375
   0.31199963  0.70525371  0.47835046
   0.93510997  0.28881259  0.61061045
   0.44248413  0.62294193  0.30036582
   0.80731607  0.86517963  0.16697197
   0.56516381  0.20334684  0.21195158
   0.93373823  0.61455206  0.16688488
   0.43737218  0.95504120  0.47840825
   0.56071535  0.37290361  0.78823691
   0.06169234  0.37253560  0.52168622
   0.30769478  0.36551775  0.16663750
   0.69274225  0.12331699  0.30032058
   0.44173850  0.96145328  0.83338852
   0.18465608  0.28496080  0.12482812
   0.18563841  0.28807483  0.25606579
   0.31277826  0.37066375  0.43432184
   0.56153673  0.03333149  0.12470729
   0.43480558  0.28895949  0.61057706
   0.18551919  0.45375517  0.34493712
   0.43406948  0.28456827  0.12482111
   0.68581864  0.78840261  0.25605114
   0.43673700  0.12246616  0.52166362
   0.18855057  0.29338613  0.87564704
   0.18990372  0.12461932  0.65493079
   0.93987744  0.12433218  0.65496358
   0.81492681  0.53791575  0.38925335
   0.93808544  0.79207806  0.87547327
   0.18309583  0.11435032  0.16679853
   0.06009079  0.53859017  0.61062817
   0.93580916  0.28805658  0.25600980
   0.55971036  0.53882162  0.61060331
   0.93692009  0.95632300  0.56567869
   0.69241648  0.62340277  0.30033153
   0.93755377  0.62074877  0.43424066
   0.93512160  0.62453623  0.78803712
   0.56108026  0.70735269  0.69958401
   0.06544404  0.71312727  0.83344409
   0.94253708  0.12305292  0.30024645
   0.93498798  0.78808498  0.61068248
   0.43559049  0.78860852  0.25612904
   0.31094877  0.37293694  0.78811771
   0.43945332  0.45446426  0.21188898
   0.18677605  0.12217922  0.52170938
   0.81104308  0.70772745  0.69959892
   0.06000399  0.03866647  0.61053916
   0.56530606  0.21140219  0.83324991
   0.31173039  0.87219713  0.52176521
   0.68618823  0.28417371  0.12464332
   0.18874439  0.95558850  0.21197272
   0.68469108  0.28907682  0.61072937
   0.30992191  0.03851162  0.61062749
   0.93565942  0.12349843  0.78832788
   0.43772332  0.79357843  0.87541304
   0.81437235  0.04080841  0.74387169
   0.93604626  0.45749266  0.69961676
   0.18985341  0.62438912  0.65489867
   0.31125000  0.70745946  0.69958090
   0.93419359  0.28455920  0.12464210
   0.43729263  0.45497628  0.47833102
   0.06247879  0.70480426  0.47839985
   0.93726297  0.12044881  0.43460356
   0.44238950  0.12301166  0.30034598
   0.18744706  0.12064054  0.43421093
   0.56430112  0.04172876  0.87545171
   0.18666424  0.95655118  0.56572576
   0.68496090  0.78615182  0.12502833
   0.56095365  0.70309325  0.34499630
   0.31507925  0.03760464  0.38933450
   0.68380370  0.11530447  0.16702452
   0.81458765  0.20412597  0.21181049
   0.06064708  0.53795234  0.25598289
   0.56240930  0.70529156  0.47836223
   0.43443950  0.78559682  0.12458033
   0.56714009  0.37301943  0.30029634
   0.43570458  0.95325040  0.34492831
   0.18603043  0.95760099  0.69967333
   0.43313755  0.61525556  0.16673395
   0.93922282  0.45487697  0.21206410
   0.06085294  0.53258494  0.12452758
   0.81176715  0.37253640  0.52166026
   0.94248717  0.62385782  0.30013309
   0.31054122  0.03807094  0.25592407
   0.68483691  0.78832876  0.61063972
   0.19060460  0.46185751  0.83354551
   0.43372460  0.11403261  0.16687527
   0.31158961  0.37239668  0.52172617
   0.43551087  0.62311566  0.78831942
   0.06015078  0.03801133  0.25598178
   0.56160126  0.70646904  0.56571712
   0.93933693  0.29023154  0.74389466
   0.68490992  0.12317968  0.78813704
   0.18832654  0.45464086  0.21180017
   0.94021403  0.78792166  0.38926397
   0.68705058  0.29468635  0.87553582
   0.55674710  0.86563262  0.16673747
   0.43616298  0.45793926  0.69968078
   0.93615270  0.95286331  0.34494586
   0.68648658  0.62224849  0.52165163
   0.06479716  0.87409801  0.65493695
   0.06101454  0.87356206  0.78813240
   0.06476881  0.37461439  0.65491326
   0.68710064  0.45484046  0.47828017
   0.18541831  0.78852201  0.25604096
   0.43723914  0.12088088  0.43431085
   0.81200906  0.03333734  0.12470901
   0.93660801  0.62216080  0.52167294
   0.44003958  0.12443477  0.65488061
   0.81230627  0.53271021  0.12443789
   0.43573118  0.45344969  0.34500685