       N       E                     dE             d eps       ncg     rms          rms(c)
DAV:   1     0.304375377613E+05    0.30438E+05   -0.91748E+05 27770   0.213E+03
DAV:   2     0.153375799407E+04   -0.28904E+05   -0.28304E+05 27600   0.616E+02
DAV:   3    -0.189636402393E+04   -0.34301E+04   -0.29805E+04 38420   0.298E+02
DAV:   4    -0.260947784294E+04   -0.71311E+03   -0.64940E+03 50690   0.103E+02
DAV:   5    -0.273954994546E+04   -0.13007E+03   -0.12165E+03 48210   0.423E+01    0.207E+02
RMM:   6    -0.690921739033E+04   -0.41697E+04   -0.16127E+04 48323   0.282E+02    0.819E+02
RMM:   7    -0.702031110130E+04   -0.11109E+03   -0.97071E+03 49524   0.136E+02    0.651E+02
RMM:   8    -0.773683781604E+04   -0.71653E+03   -0.21834E+04 39396   0.400E+02    0.126E+03
RMM:   9    -0.964795134724E+04   -0.19111E+04   -0.15138E+04 44932   0.258E+02    0.132E+03
RMM:  10    -0.110085811269E+05   -0.13606E+04   -0.12605E+04 47138   0.271E+02    0.141E+03
RMM:  11    -0.124321427790E+05   -0.14236E+04   -0.12324E+04 47652   0.234E+02    0.130E+03
RMM:  12    -0.100112872892E+05    0.24209E+04   -0.11030E+04 47703   0.228E+02    0.836E+02
RMM:  13    -0.142887344593E+05   -0.42774E+04   -0.18316E+04 37360   0.313E+02    0.101E+03
RMM:  14    -0.737617271963E+04    0.69126E+04   -0.54165E+03 33692   0.131E+02    0.558E+02
RMM:  15    -0.543806860943E+04    0.19381E+04   -0.73263E+03 41522   0.256E+02    0.532E+02
RMM:  16    -0.351368397569E+04    0.19244E+04   -0.57198E+03 49214   0.132E+02    0.430E+02
RMM:  17    -0.366322089998E+04   -0.14954E+03   -0.41483E+03 47820   0.119E+02    0.385E+02
RMM:  18    -0.282390325955E+04    0.83932E+03   -0.26339E+03 49224   0.104E+02    0.257E+02
RMM:  19    -0.275867041204E+04    0.65233E+02   -0.17098E+03 49836   0.678E+01    0.250E+02
RMM:  20    -0.265189981868E+04    0.10677E+03   -0.69696E+02 51152   0.632E+01    0.161E+02
RMM:  21    -0.302942169415E+04   -0.37752E+03   -0.80423E+02 49929   0.585E+01    0.243E+02
RMM:  22    -0.277398943917E+04    0.25543E+03   -0.12503E+03 46978   0.572E+01    0.213E+02
RMM:  23    -0.267820365294E+04    0.95786E+02   -0.69530E+02 46013   0.408E+01    0.179E+02
RMM:  24    -0.254834828812E+04    0.12986E+03   -0.59389E+02 41639   0.344E+01    0.139E+02
RMM:  25    -0.248112230907E+04    0.67226E+02   -0.91803E+02 44984   0.282E+01    0.122E+02
RMM:  26    -0.245591086037E+04    0.25211E+02   -0.49857E+02 41857   0.199E+01    0.120E+02
RMM:  27    -0.242565432272E+04    0.30257E+02   -0.29086E+02 39933   0.157E+01    0.110E+02
RMM:  28    -0.240778032769E+04    0.17874E+02   -0.18133E+02 44579   0.917E+00    0.101E+02
RMM:  29    -0.239567867508E+04    0.12102E+02   -0.72008E+01 43259   0.545E+00    0.969E+01
RMM:  30    -0.239155915431E+04    0.41195E+01   -0.38455E+01 43348   0.354E+00    0.958E+01
RMM:  31    -0.239103354103E+04    0.52561E+00   -0.22371E+01 36666   0.398E+00    0.965E+01
RMM:  32    -0.238517845742E+04    0.58551E+01   -0.12056E+01 32408   0.415E+00    0.935E+01
RMM:  33    -0.237169493828E+04    0.13484E+02   -0.92234E+00 35965   0.332E+00    0.838E+01
RMM:  34    -0.234910185254E+04    0.22593E+02   -0.19453E+01 30437   0.711E+00    0.679E+01
RMM:  35    -0.234710882349E+04    0.19930E+01   -0.12531E+01 29756   0.641E+00    0.670E+01
RMM:  36    -0.234817167638E+04   -0.10629E+01   -0.88104E+00 30716   0.491E+00    0.656E+01
RMM:  37    -0.236165733410E+04   -0.13486E+02   -0.83429E+00 30501   0.486E+00    0.812E+01
RMM:  38    -0.235142788324E+04    0.10229E+02   -0.58835E+00 36834   0.288E+00    0.711E+01
RMM:  39    -0.235043891741E+04    0.98897E+00   -0.35468E+00 30813   0.313E+00    0.703E+01
RMM:  40    -0.234622174817E+04    0.42172E+01   -0.40695E+00 41173   0.185E+00    0.651E+01
RMM:  41    -0.234306725211E+04    0.31545E+01   -0.32037E+00 31187   0.273E+00    0.610E+01
RMM:  42    -0.234109642632E+04    0.19708E+01   -0.30095E+00 33726   0.232E+00    0.584E+01
RMM:  43    -0.234000785454E+04    0.10886E+01   -0.22445E+00 39078   0.151E+00    0.572E+01
RMM:  44    -0.234073267649E+04   -0.72482E+00   -0.10133E+00 33793   0.127E+00    0.590E+01
RMM:  45    -0.234102584392E+04   -0.29317E+00   -0.19558E+00 31009   0.221E+00    0.600E+01
RMM:  46    -0.233832009897E+04    0.27057E+01   -0.27498E+00 34359   0.214E+00    0.564E+01
RMM:  47    -0.233590952045E+04    0.24106E+01   -0.24306E+00 37873   0.155E+00    0.536E+01
RMM:  48    -0.233426187475E+04    0.16476E+01   -0.14448E+00 38487   0.987E-01    0.510E+01
RMM:  49    -0.233355481576E+04    0.70706E+00   -0.72323E-01 34530   0.976E-01    0.501E+01
RMM:  50    -0.233310796510E+04    0.44685E+00   -0.42185E-01 32762   0.874E-01    0.494E+01
RMM:  51    -0.241325372072E+04   -0.80146E+02   -0.56325E+01 31897   0.112E+01    0.116E+02
RMM:  52    -0.240670094482E+04    0.65528E+01   -0.40011E+01 31291   0.971E+00    0.109E+02
RMM:  53    -0.236728558975E+04    0.39415E+02   -0.16081E+01 33332   0.582E+00    0.824E+01
RMM:  54    -0.235453950770E+04    0.12746E+02   -0.10490E+01 28282   0.683E+00    0.710E+01
RMM:  55    -0.235438451602E+04    0.15499E+00   -0.17725E+01 28358   0.863E+00    0.754E+01
RMM:  56    -0.243813831679E+04   -0.83754E+02   -0.11699E+02 28887   0.217E+01    0.125E+02
RMM:  57    -0.242882017275E+04    0.93181E+01   -0.11951E+02 37287   0.135E+01    0.128E+02
RMM:  58    -0.240674499686E+04    0.22075E+02   -0.48727E+01 30554   0.116E+01    0.113E+02
RMM:  59    -0.239378337932E+04    0.12962E+02   -0.54401E+01 32635   0.110E+01    0.105E+02
RMM:  60    -0.236427632334E+04    0.29507E+02   -0.21561E+01 27645   0.106E+01    0.859E+01
RMM:  61    -0.245536143434E+04   -0.91085E+02   -0.27029E+02 31890   0.251E+01    0.130E+02
RMM:  62    -0.245973549590E+04   -0.43741E+01   -0.23181E+02 40635   0.159E+01    0.138E+02
RMM:  63    -0.244614627271E+04    0.13589E+02   -0.89171E+01 32624   0.122E+01    0.128E+02
RMM:  64    -0.243166507710E+04    0.14481E+02   -0.62562E+01 35323   0.943E+00    0.128E+02
RMM:  65    -0.239710417168E+04    0.34561E+02   -0.25535E+01 29949   0.911E+00    0.107E+02
RMM:  66    -0.240213424895E+04   -0.50301E+01   -0.28504E+01 28804   0.106E+01    0.112E+02
RMM:  67    -0.237970164519E+04    0.22433E+02   -0.16959E+01 27796   0.879E+00    0.961E+01
RMM:  68    -0.235363262840E+04    0.26069E+02   -0.21469E+01 31295   0.729E+00    0.661E+01
RMM:  69    -0.234143672772E+04    0.12196E+02   -0.23617E+01 35208   0.645E+00    0.504E+01
RMM:  70    -0.233873807731E+04    0.26987E+01   -0.12236E+01 30213   0.597E+00    0.469E+01
RMM:  71    -0.238145256524E+04   -0.42714E+02   -0.83499E+01 31452   0.139E+01    0.971E+01
RMM:  72    -0.234319147202E+04    0.38261E+02   -0.22140E+01 27930   0.990E+00    0.594E+01
RMM:  73    -0.233430080346E+04    0.88907E+01   -0.14148E+01 30043   0.651E+00    0.425E+01
RMM:  74    -0.233140251997E+04    0.28983E+01   -0.82413E+00 28971   0.538E+00    0.340E+01
RMM:  75    -0.232922684338E+04    0.21757E+01   -0.40391E+00 28162   0.402E+00    0.266E+01
RMM:  76    -0.232843333576E+04    0.79351E+00   -0.54783E+00 27767   0.486E+00    0.227E+01
RMM:  77    -0.232747105644E+04    0.96228E+00   -0.27000E+00 27784   0.375E+00    0.186E+01
RMM:  78    -0.232738023813E+04    0.90818E-01   -0.21232E+00 30613   0.234E+00    0.177E+01
RMM:  79    -0.232675539479E+04    0.62484E+00   -0.11772E+00 29350   0.198E+00    0.139E+01
RMM:  80    -0.232637730598E+04    0.37809E+00   -0.91610E-01 28112   0.198E+00    0.110E+01
RMM:  81    -0.232686417006E+04   -0.48686E+00   -0.11433E+00 29147   0.201E+00    0.140E+01
RMM:  82    -0.232631215453E+04    0.55202E+00   -0.56480E-01 27899   0.162E+00    0.942E+00
RMM:  83    -0.232624893891E+04    0.63216E-01   -0.73937E-01 34872   0.104E+00    0.866E+00
RMM:  84    -0.232628384557E+04   -0.34907E-01   -0.44629E-01 38347   0.774E-01    0.900E+00
RMM:  85    -0.232626197291E+04    0.21873E-01   -0.17756E-01 31107   0.672E-01    0.878E+00
RMM:  86    -0.232675892209E+04   -0.49695E+00   -0.91669E-01 28342   0.190E+00    0.126E+01
RMM:  87    -0.232600099981E+04    0.75792E+00   -0.33958E-01 27604   0.160E+00    0.558E+00
RMM:  88    -0.232597040378E+04    0.30596E-01   -0.12603E-01 29251   0.698E-01    0.482E+00
RMM:  89    -0.232596608538E+04    0.43184E-02   -0.16091E-01 30142   0.699E-01    0.503E+00
RMM:  90    -0.232593549217E+04    0.30593E-01   -0.12111E-01 28757   0.716E-01    0.405E+00
RMM:  91    -0.232596432650E+04   -0.28834E-01   -0.13262E-01 28796   0.737E-01    0.458E+00
RMM:  92    -0.232592622228E+04    0.38104E-01   -0.86209E-02 27924   0.657E-01    0.359E+00
RMM:  93    -0.232590524511E+04    0.20977E-01   -0.84013E-02 31967   0.411E-01    0.279E+00
RMM:  94    -0.232589455081E+04    0.10694E-01   -0.56934E-02 36726   0.245E-01    0.236E+00
RMM:  95    -0.232588426629E+04    0.10285E-01   -0.24131E-02 35202   0.184E-01    0.187E+00
RMM:  96    -0.232590546998E+04   -0.21204E-01   -0.47670E-02 28521   0.427E-01    0.262E+00
RMM:  97    -0.232588923934E+04    0.16231E-01   -0.23101E-02 27660   0.392E-01    0.201E+00
RMM:  98    -0.232588175822E+04    0.74811E-02   -0.12952E-02 29752   0.209E-01    0.167E+00
RMM:  99    -0.232587413904E+04    0.76192E-02   -0.12617E-02 30784   0.184E-01    0.111E+00
RMM: 100    -0.232587363780E+04    0.50124E-03   -0.94169E-03 30187   0.172E-01
   1 F= -.23258736E+04 E0= -.23231150E+04  d E =-.232587E+04
       N       E                     dE             d eps       ncg     rms          rms(c)
DAV:   1    -0.232588909256E+04   -0.14954E-01   -0.48970E-01 41950   0.985E-01    0.190E+00
RMM:   2    -0.250160796357E+04   -0.17572E+03   -0.23607E+01 35536   0.469E+00    0.156E+02
RMM:   3    -0.233022020841E+04    0.17139E+03   -0.28510E+00 28009   0.336E+00    0.224E+01
RMM:   4    -0.233384398456E+04   -0.36238E+01   -0.20912E+00 27761   0.305E+00    0.363E+01
RMM:   5    -0.234402340135E+04   -0.10179E+02   -0.31487E+00 31990   0.265E+00    0.558E+01
RMM:   6    -0.232932395143E+04    0.14699E+02   -0.35523E+00 33057   0.272E+00    0.242E+01
RMM:   7    -0.233197461813E+04   -0.26507E+01   -0.33555E+00 29009   0.323E+00    0.333E+01
RMM:   8    -0.232679090280E+04    0.51837E+01   -0.11245E+00 27657   0.242E+00    0.120E+01
RMM:   9    -0.232621054234E+04    0.58036E+00   -0.62914E-01 27670   0.182E+00    0.804E+00
RMM:  10    -0.232608978736E+04    0.12075E+00   -0.48676E-01 30907   0.112E+00    0.654E+00
RMM:  11    -0.232598057998E+04    0.10921E+00   -0.28481E-01 29213   0.954E-01    0.457E+00
RMM:  12    -0.232595378084E+04    0.26799E-01   -0.15294E-01 29165   0.716E-01    0.431E+00
RMM:  13    -0.232593173644E+04    0.22044E-01   -0.13745E-01 33777   0.466E-01    0.359E+00
RMM:  14    -0.232591762367E+04    0.14113E-01   -0.77688E-02 36052   0.321E-01    0.296E+00
RMM:  15    -0.232590285840E+04    0.14765E-01   -0.32487E-02 34052   0.222E-01    0.242E+00
RMM:  16    -0.232589532552E+04    0.75329E-02   -0.20389E-02 39791   0.136E-01    0.204E+00
RMM:  17    -0.232587951662E+04    0.15809E-01   -0.57499E-03 31757   0.112E-01    0.123E+00
RMM:  18    -0.232587572252E+04    0.37941E-02   -0.31261E-03 30415   0.965E-02    0.927E-01
RMM:  19    -0.232587477740E+04    0.94512E-03   -0.45274E-03 32517   0.974E-02    0.824E-01
RMM:  20    -0.232587349120E+04    0.12862E-02   -0.44911E-03 31970   0.100E-01    0.661E-01
RMM:  21    -0.232587290876E+04    0.58244E-03   -0.24113E-03 29601   0.917E-02    0.560E-01
RMM:  22    -0.232587269944E+04    0.20932E-03   -0.33001E-03 34376   0.765E-02    0.505E-01
RMM:  23    -0.232587266372E+04    0.35722E-04   -0.12240E-03 29044   0.681E-02    0.518E-01
RMM:  24    -0.232587268877E+04   -0.25048E-04   -0.10289E-03 32449   0.461E-02    0.502E-01
RMM:  25    -0.232587220491E+04    0.48386E-03   -0.96415E-04 36121   0.378E-02    0.382E-01
RMM:  26    -0.232587168423E+04    0.52068E-03   -0.36096E-04 29811   0.337E-02    0.213E-01
RMM:  27    -0.232587162108E+04    0.63153E-04   -0.36577E-04 33990   0.241E-02    0.172E-01
RMM:  28    -0.232587157682E+04    0.44254E-04   -0.30255E-04 31933   0.251E-02    0.140E-01
RMM:  29    -0.232587151495E+04    0.61875E-04   -0.13349E-04 27662   0.220E-02    0.845E-02
RMM:  30    -0.232587150565E+04    0.92943E-05   -0.10315E-04 24517   0.128E-02    0.618E-02
RMM:  31    -0.232587150581E+04   -0.15437E-06   -0.52604E-05 21291   0.993E-03
   2 F= -.23258715E+04 E0= -.23231120E+04  d E =0.213199E-02
       N       E                     dE             d eps       ncg     rms          rms(c)
DAV:   1    -0.232587180944E+04   -0.30379E-03   -0.19524E-01 29810   0.464E-01    0.101E-01
RMM:   2    -0.232589571866E+04   -0.23909E-01   -0.94279E-03 30498   0.172E-01    0.204E+00
RMM:   3    -0.232588944561E+04    0.62730E-02   -0.49113E-03 38034   0.823E-02    0.179E+00
RMM:   4    -0.232588980596E+04   -0.36035E-03   -0.16418E-03 27985   0.830E-02    0.180E+00
RMM:   5    -0.232587581899E+04    0.13987E-01   -0.12844E-03 28339   0.682E-02    0.802E-01
RMM:   6    -0.232587357412E+04    0.22449E-02   -0.12809E-03 28539   0.667E-02    0.545E-01
RMM:   7    -0.232587648950E+04   -0.29154E-02   -0.38154E-03 35873   0.788E-02    0.908E-01
RMM:   8    -0.232587352949E+04    0.29600E-02   -0.18556E-03 28854   0.790E-02    0.489E-01
RMM:   9    -0.232587242636E+04    0.11031E-02   -0.78431E-04 27600   0.638E-02    0.270E-01
RMM:  10    -0.232587213104E+04    0.29531E-03   -0.46518E-04 29610   0.352E-02    0.168E-01
RMM:  11    -0.232587211072E+04    0.20325E-04   -0.44594E-04 35837   0.247E-02    0.141E-01
RMM:  12    -0.232587210415E+04    0.65693E-05   -0.24497E-04 29790   0.257E-02    0.130E-01
RMM:  13    -0.232587202821E+04    0.75938E-04   -0.87817E-05 25069   0.205E-02    0.595E-02
RMM:  14    -0.232587201935E+04    0.88647E-05   -0.47543E-05 20567   0.121E-02
   3 F= -.23258720E+04 E0= -.23231127E+04  d E =0.161845E-02
       N       E                     dE             d eps       ncg     rms          rms(c)
DAV:   1    -0.232587249577E+04   -0.46756E-03   -0.14065E-01 28990   0.395E-01    0.882E-02
RMM:   2    -0.232589494164E+04   -0.22446E-01   -0.63346E-03 29589   0.148E-01    0.203E+00
RMM:   3    -0.232588652937E+04    0.84123E-02   -0.43455E-03 39971   0.671E-02    0.156E+00
RMM:   4    -0.232588665397E+04   -0.12460E-03   -0.18684E-03 27804   0.905E-02    0.158E+00
RMM:   5    -0.232587403178E+04    0.12622E-01   -0.12170E-03 29793   0.606E-02    0.472E-01
RMM:   6    -0.232587483360E+04   -0.80182E-03   -0.15250E-03 31516   0.604E-02    0.651E-01
RMM:   7    -0.232587528114E+04   -0.44754E-03   -0.25348E-03 34435   0.690E-02    0.717E-01
RMM:   8    -0.232587433305E+04    0.94809E-03   -0.12719E-03 28216   0.667E-02    0.529E-01
RMM:   9    -0.232587302932E+04    0.13037E-02   -0.53279E-04 27483   0.498E-02    0.264E-01
RMM:  10    -0.232587269626E+04    0.33306E-03   -0.29876E-04 28422   0.326E-02    0.127E-01
RMM:  11    -0.232587270388E+04   -0.76265E-05   -0.35503E-04 34347   0.235E-02    0.127E-01
RMM:  12    -0.232587266934E+04    0.34544E-04   -0.15768E-04 28484   0.216E-02    0.921E-02
RMM:  13    -0.232587262673E+04    0.42609E-04   -0.56823E-05 21712   0.162E-02    0.385E-02
RMM:  14    -0.232587262573E+04    0.10045E-05   -0.33891E-05 19124   0.930E-03
   4 F= -.23258726E+04 E0= -.23231134E+04  d E =-.606381E-03
       N       E                     dE             d eps       ncg     rms          rms(c)
DAV:   1    -0.232587247846E+04    0.14827E-03   -0.12668E+00 28170   0.118E+00    0.229E-01
RMM:   2    -0.232600040568E+04   -0.12793E+00   -0.44841E-02 29884   0.394E-01    0.487E+00
RMM:   3    -0.232594147290E+04    0.58933E-01   -0.23387E-02 36750   0.194E-01    0.340E+00
RMM:   4    -0.232595078981E+04   -0.93169E-02   -0.90055E-03 27647   0.204E-01    0.369E+00
RMM:   5    -0.232588794453E+04    0.62845E-01   -0.60180E-03 32749   0.118E-01    0.156E+00
RMM:   6    -0.232588132575E+04    0.66188E-02   -0.43293E-03 28134   0.127E-01    0.124E+00
RMM:   7    -0.232588467798E+04   -0.33522E-02   -0.13711E-02 31765   0.176E-01    0.145E+00
RMM:   8    -0.232588278441E+04    0.18936E-02   -0.82315E-03 29499   0.161E-01    0.127E+00
RMM:   9    -0.232587609661E+04    0.66878E-02   -0.31190E-03 27625   0.119E-01    0.649E-01
RMM:  10    -0.232587408592E+04    0.20107E-02   -0.16519E-03 28228   0.790E-02    0.326E-01
RMM:  11    -0.232587392064E+04    0.16529E-03   -0.19120E-03 34493   0.553E-02    0.271E-01
RMM:  12    -0.232587394992E+04   -0.29285E-04   -0.13536E-03 31833   0.546E-02    0.263E-01
RMM:  13    -0.232587363202E+04    0.31791E-03   -0.39897E-04 27609   0.434E-02    0.135E-01
RMM:  14    -0.232587358597E+04    0.46045E-04   -0.33962E-04 32151   0.257E-02    0.934E-02
RMM:  15    -0.232587361154E+04   -0.25568E-04   -0.25750E-04 31141   0.244E-02    0.110E-01
RMM:  16    -0.232587356168E+04    0.49857E-04   -0.93320E-05 25046   0.206E-02    0.564E-02
RMM:  17    -0.232587355023E+04    0.11449E-04   -0.39896E-05 19998   0.106E-02    0.321E-02
RMM:  18    -0.232587355256E+04   -0.23294E-05   -0.23190E-05 17079   0.885E-03
   5 F= -.23258736E+04 E0= -.23231147E+04  d E =-.153322E-02
       N       E                     dE             d eps       ncg     rms          rms(c)
DAV:   1    -0.232587379138E+04   -0.24115E-03   -0.21357E-01 28480   0.485E-01    0.807E-02
RMM:   2    -0.232589200588E+04   -0.18215E-01   -0.50382E-03 28356   0.148E-01    0.186E+00
RMM:   3    -0.232587855088E+04    0.13455E-01   -0.20295E-03 35118   0.664E-02    0.839E-01
RMM:   4    -0.232587692819E+04    0.16227E-02   -0.76021E-04 27564   0.618E-02    0.749E-01
RMM:   5    -0.232587886364E+04   -0.19355E-02   -0.90404E-04 38386   0.321E-02    0.926E-01
RMM:   6    -0.232587507629E+04    0.37874E-02   -0.63314E-04 27659   0.498E-02    0.427E-01
RMM:   7    -0.232587568180E+04   -0.60551E-03   -0.14181E-03 32784   0.550E-02    0.550E-01
RMM:   8    -0.232587513696E+04    0.54484E-03   -0.97562E-04 28307   0.595E-02    0.450E-01
RMM:   9    -0.232587427020E+04    0.86676E-03   -0.39314E-04 27474   0.470E-02    0.211E-01
RMM:  10    -0.232587406324E+04    0.20696E-03   -0.15460E-04 27360   0.286E-02    0.120E-01
RMM:  11    -0.232587405470E+04    0.85460E-05   -0.15468E-04 28886   0.198E-02    0.111E-01
RMM:  12    -0.232587402542E+04    0.29274E-04   -0.10896E-04 26267   0.180E-02    0.766E-02
RMM:  13    -0.232587399980E+04    0.25623E-04   -0.35456E-05 18417   0.140E-02    0.441E-02
RMM:  14    -0.232587399539E+04    0.44061E-05   -0.17712E-05 16004   0.900E-03
   6 F= -.23258740E+04 E0= -.23231151E+04  d E =-.442829E-03
       N       E                     dE             d eps       ncg     rms          rms(c)
DAV:   1    -0.232587352321E+04    0.47658E-03   -0.98672E-01 27940   0.104E+00    0.170E-01
RMM:   2    -0.232594061774E+04   -0.67095E-01   -0.21795E-02 28634   0.302E-01    0.356E+00
RMM:   3    -0.232590162985E+04    0.38988E-01   -0.96589E-03 36242   0.136E-01    0.211E+00
RMM:   4    -0.232589977332E+04    0.18565E-02   -0.29587E-03 27647   0.118E-01    0.221E+00
RMM:   5    -0.232588576610E+04    0.14007E-01   -0.32419E-03 34129   0.785E-02    0.136E+00
RMM:   6    -0.232587926911E+04    0.64970E-02   -0.26997E-03 27730   0.105E-01    0.950E-01
RMM:   7    -0.232588276991E+04   -0.35008E-02   -0.72836E-03 33504   0.121E-01    0.123E+00
RMM:   8    -0.232587997000E+04    0.27999E-02   -0.44638E-03 28542   0.125E-01    0.998E-01
RMM:   9    -0.232587557266E+04    0.43973E-02   -0.17101E-03 27604   0.984E-02    0.427E-01
RMM:  10    -0.232587483490E+04    0.73776E-03   -0.70759E-04 27797   0.569E-02    0.298E-01
RMM:  11    -0.232587468524E+04    0.14965E-03   -0.76351E-04 31132   0.419E-02    0.239E-01
RMM:  12    -0.232587462397E+04    0.61275E-04   -0.71132E-04 32504   0.386E-02    0.199E-01
RMM:  13    -0.232587444130E+04    0.18267E-03   -0.21077E-04 27443   0.309E-02    0.102E-01
RMM:  14    -0.232587443466E+04    0.66443E-05   -0.19150E-04 30621   0.167E-02    0.890E-02
RMM:  15    -0.232587442786E+04    0.67952E-05   -0.10354E-04 26617   0.163E-02    0.800E-02
RMM:  16    -0.232587440081E+04    0.27052E-04   -0.39345E-05 19272   0.141E-02    0.391E-02
RMM:  17    -0.232587439583E+04    0.49820E-05   -0.17130E-05 16163   0.785E-03
   7 F= -.23258744E+04 E0= -.23231154E+04  d E =-.843265E-03
       N       E                     dE             d eps       ncg     rms          rms(c)
DAV:   1    -0.232587446203E+04   -0.61220E-04   -0.33244E-01 28080   0.604E-01    0.905E-02
RMM:   2    -0.232588997994E+04   -0.15518E-01   -0.58136E-03 28080   0.164E-01    0.170E+00
RMM:   3    -0.232587811389E+04    0.11866E-01   -0.21435E-03 37372   0.627E-02    0.740E-01
RMM:   4    -0.232587978076E+04   -0.16669E-02   -0.82197E-04 27589   0.636E-02    0.945E-01
RMM:   5    -0.232587698233E+04    0.27984E-02   -0.82992E-04 37622   0.331E-02    0.618E-01
RMM:   6    -0.232587639413E+04    0.58821E-03   -0.77984E-04 27788   0.550E-02    0.561E-01
RMM:   7    -0.232587711971E+04   -0.72559E-03   -0.19442E-03 35978   0.578E-02    0.673E-01
RMM:   8    -0.232587647709E+04    0.64263E-03   -0.10570E-03 27940   0.620E-02    0.542E-01
RMM:   9    -0.232587501821E+04    0.14589E-02   -0.43107E-04 27495   0.493E-02    0.208E-01
RMM:  10    -0.232587481599E+04    0.20222E-03   -0.18677E-04 27455   0.307E-02    0.125E-01
RMM:  11    -0.232587480521E+04    0.10785E-04   -0.23489E-04 32798   0.213E-02    0.112E-01
RMM:  12    -0.232587477556E+04    0.29647E-04   -0.11514E-04 26772   0.191E-02    0.804E-02
RMM:  13    -0.232587475111E+04    0.24452E-04   -0.43206E-05 19547   0.141E-02    0.500E-02
RMM:  14    -0.232587474927E+04    0.18444E-05   -0.23738E-05 16732   0.902E-03
   8 F= -.23258747E+04 E0= -.23231157E+04  d E =-.353437E-03
       N       E                     dE             d eps       ncg     rms          rms(c)
DAV:   1    -0.232587353321E+04    0.12179E-02   -0.18378E+00 27620   0.142E+00    0.213E-01
RMM:   2    -0.232598819766E+04   -0.11466E+00   -0.33594E-02 28268   0.391E-01    0.466E+00
RMM:   3    -0.232589792808E+04    0.90270E-01   -0.11542E-02 34957   0.164E-01    0.188E+00
RMM:   4    -0.232588266633E+04    0.15262E-01   -0.46081E-03 27610   0.155E-01    0.111E+00
RMM:   5    -0.232591112513E+04   -0.28459E-01   -0.49518E-03 38770   0.788E-02    0.256E+00
RMM:   6    -0.232588593017E+04    0.25195E-01   -0.40209E-03 28328   0.119E-01    0.141E+00
RMM:   7    -0.232589308240E+04   -0.71522E-02   -0.11488E-02 34414   0.147E-01    0.186E+00
RMM:   8    -0.232588427887E+04    0.88035E-02   -0.56513E-03 27740   0.149E-01    0.124E+00
RMM:   9    -0.232587615135E+04    0.81275E-02   -0.23977E-03 27606   0.121E-01    0.410E-01
RMM:  10    -0.232587552986E+04    0.62148E-03   -0.12391E-03 28111   0.721E-02    0.317E-01
RMM:  11    -0.232587542016E+04    0.10970E-03   -0.17245E-03 31933   0.609E-02    0.253E-01
RMM:  12    -0.232587521050E+04    0.20966E-03   -0.59860E-04 28062   0.495E-02    0.172E-01
RMM:  13    -0.232587511282E+04    0.97677E-04   -0.38221E-04 31174   0.290E-02    0.104E-01
RMM:  14    -0.232587512371E+04   -0.10885E-04   -0.23768E-04 31316   0.157E-02    0.107E-01
RMM:  15    -0.232587510013E+04    0.23576E-04   -0.84790E-05 25163   0.166E-02    0.783E-02
RMM:  16    -0.232587507366E+04    0.26476E-04   -0.35058E-05 18513   0.140E-02    0.405E-02
RMM:  17    -0.232587507248E+04    0.11744E-05   -0.18519E-05 16073   0.842E-03
   9 F= -.23258751E+04 E0= -.23231158E+04  d E =-.676654E-03
       N       E                     dE             d eps       ncg     rms          rms(c)
DAV:   1    -0.232587502480E+04    0.48852E-04   -0.52721E-01 27880   0.759E-01    0.115E-01
RMM:   2    -0.232590264428E+04   -0.27619E-01   -0.93537E-03 28075   0.210E-01    0.226E+00
RMM:   3    -0.232588317679E+04    0.19467E-01   -0.32466E-03 36874   0.797E-02    0.117E+00
RMM:   4    -0.232589489065E+04   -0.11714E-01   -0.14707E-03 29582   0.664E-02    0.189E+00
RMM:   5    -0.232587788329E+04    0.17007E-01   -0.11366E-03 27691   0.693E-02    0.580E-01
RMM:   6    -0.232587863063E+04   -0.74734E-03   -0.17008E-03 29287   0.723E-02    0.770E-01
RMM:   7    -0.232588043979E+04   -0.18092E-02   -0.35754E-03 31282   0.948E-02    0.947E-01
RMM:   8    -0.232587746587E+04    0.29739E-02   -0.15738E-03 27725   0.811E-02    0.553E-01
RMM:   9    -0.232587587751E+04    0.15884E-02   -0.66008E-04 27609   0.629E-02    0.276E-01
RMM:  10    -0.232587560554E+04    0.27198E-03   -0.27382E-04 28311   0.326E-02    0.185E-01
RMM:  11    -0.232587555452E+04    0.51015E-04   -0.31042E-04 31030   0.270E-02    0.149E-01
RMM:  12    -0.232587550352E+04    0.51005E-04   -0.20977E-04 29554   0.238E-02    0.112E-01
RMM:  13    -0.232587546026E+04    0.43253E-04   -0.79250E-05 24331   0.187E-02    0.749E-02
RMM:  14    -0.232587545916E+04    0.11042E-05   -0.52061E-05 21176   0.106E-02
  10 F= -.23258755E+04 E0= -.23231160E+04  d E =-.386677E-03
       N       E                     dE             d eps       ncg     rms          rms(c)
DAV:   1    -0.232587227035E+04    0.31899E-02   -0.47440E+00 27600   0.228E+00    0.337E-01
RMM:   2    -0.232621879748E+04   -0.34653E+00   -0.83711E-02 28155   0.630E-01    0.808E+00
RMM:   3    -0.232591844365E+04    0.30035E+00   -0.24271E-02 32725   0.266E-01    0.251E+00
RMM:   4    -0.232589552260E+04    0.22921E-01   -0.11002E-02 27623   0.241E-01    0.190E+00
RMM:   5    -0.232598252307E+04   -0.87000E-01   -0.13869E-02 39671   0.126E-01    0.442E+00
RMM:   6    -0.232591445945E+04    0.68064E-01   -0.14017E-02 30530   0.191E-01    0.250E+00
RMM:   7    -0.232592974864E+04   -0.15289E-01   -0.26244E-02 29621   0.270E-01    0.309E+00
RMM:   8    -0.232588880504E+04    0.40944E-01   -0.11548E-02 27653   0.235E-01    0.137E+00
RMM:   9    -0.232587878740E+04    0.10018E-01   -0.48220E-03 27621   0.172E-01    0.706E-01
RMM:  10    -0.232587738189E+04    0.14055E-02   -0.25802E-03 28197   0.102E-01    0.509E-01
RMM:  11    -0.232587714153E+04    0.24037E-03   -0.32561E-03 28295   0.108E-01    0.445E-01
RMM:  12    -0.232587651016E+04    0.63136E-03   -0.15540E-03 28026   0.830E-02    0.305E-01
RMM:  13    -0.232587609315E+04    0.41701E-03   -0.72186E-04 28950   0.526E-02    0.149E-01
RMM:  14    -0.232587609946E+04   -0.63082E-05   -0.63057E-04 35434   0.262E-02    0.139E-01
RMM:  15    -0.232587608906E+04    0.10394E-04   -0.25227E-04 31111   0.245E-02    0.122E-01
RMM:  16    -0.232587603151E+04    0.57551E-04   -0.92499E-05 25761   0.201E-02    0.677E-02
RMM:  17    -0.232587602185E+04    0.96606E-05   -0.51492E-05 21127   0.117E-02
  11 F= -.23258760E+04 E0= -.23231163E+04  d E =-.949369E-03
       N       E                     dE             d eps       ncg     rms          rms(c)
DAV:   1    -0.232587600294E+04    0.28574E-04   -0.69522E-01 27780   0.873E-01    0.142E-01
RMM:   2    -0.232593405321E+04   -0.58050E-01   -0.14965E-02 28264   0.259E-01    0.332E+00
RMM:   3    -0.232589650180E+04    0.37551E-01   -0.60325E-03 35590   0.112E-01    0.185E+00
RMM:   4    -0.232590580974E+04   -0.93079E-02   -0.26715E-03 28946   0.949E-02    0.231E+00
RMM:   5    -0.232588132821E+04    0.24482E-01   -0.19207E-03 27888   0.878E-02    0.832E-01
RMM:   6    -0.232588102654E+04    0.30166E-03   -0.25676E-03 28437   0.943E-02    0.918E-01
RMM:   7    -0.232588688297E+04   -0.58564E-02   -0.70341E-03 33090   0.118E-01    0.137E+00
RMM:   8    -0.232587883123E+04    0.80517E-02   -0.28904E-03 27962   0.109E-01    0.567E-01
RMM:   9    -0.232587696209E+04    0.18691E-02   -0.11075E-03 27604   0.834E-02    0.287E-01
RMM:  10    -0.232587678662E+04    0.17547E-03   -0.55506E-04 31003   0.373E-02    0.225E-01
RMM:  11    -0.232587673716E+04    0.49461E-04   -0.50605E-04 31882   0.325E-02    0.196E-01
RMM:  12    -0.232587663733E+04    0.99831E-04   -0.38500E-04 31264   0.301E-02    0.140E-01
RMM:  13    -0.232587657856E+04    0.58766E-04   -0.15581E-04 28055   0.235E-02    0.988E-02
RMM:  14    -0.232587657709E+04    0.14735E-05   -0.13831E-04 27247   0.128E-02    0.926E-02
RMM:  15    -0.232587654865E+04    0.28438E-04   -0.39859E-05 19537   0.132E-02    0.532E-02
RMM:  16    -0.232587653491E+04    0.13741E-04   -0.19640E-05 15445   0.110E-02    0.224E-02
RMM:  17    -0.232587653376E+04    0.11504E-05   -0.10449E-05 15367   0.640E-03
  12 F= -.23258765E+04 E0= -.23231166E+04  d E =-.511905E-03
       N       E                     dE             d eps       ncg     rms          rms(c)
DAV:   1    -0.232587261120E+04    0.39237E-02   -0.62558E+00 27600   0.262E+00    0.394E-01
RMM:   2    -0.232637814133E+04   -0.50553E+00   -0.11673E-01 28287   0.733E-01    0.978E+00
RMM:   3    -0.232595335762E+04    0.42478E+00   -0.37432E-02 32953   0.319E-01    0.340E+00
RMM:   4    -0.232602095283E+04   -0.67595E-01   -0.14332E-02 27711   0.263E-01    0.521E+00
RMM:   5    -0.232592231806E+04    0.98635E-01   -0.13976E-02 34284   0.167E-01    0.264E+00
RMM:   6    -0.232591622546E+04    0.60926E-02   -0.17500E-02 27960   0.255E-01    0.265E+00
RMM:   7    -0.232596425918E+04   -0.48034E-01   -0.49593E-02 32175   0.310E-01    0.393E+00
RMM:   8    -0.232588901165E+04    0.75248E-01   -0.16703E-02 27649   0.287E-01    0.126E+00
RMM:   9    -0.232587936433E+04    0.96473E-02   -0.61191E-03 27626   0.191E-01    0.575E-01
RMM:  10    -0.232587890188E+04    0.46245E-03   -0.42975E-03 31597   0.982E-02    0.527E-01
RMM:  11    -0.232587882033E+04    0.81555E-04   -0.39999E-03 30585   0.988E-02    0.479E-01
RMM:  12    -0.232587782337E+04    0.99696E-03   -0.16103E-03 28175   0.831E-02    0.244E-01
RMM:  13    -0.232587759520E+04    0.22817E-03   -0.10739E-03 31021   0.503E-02    0.142E-01
RMM:  14    -0.232587762493E+04   -0.29734E-04   -0.75595E-04 35597   0.305E-02    0.145E-01
RMM:  15    -0.232587762833E+04   -0.33982E-05   -0.36503E-04 31326   0.299E-02    0.139E-01
RMM:  16    -0.232587753746E+04    0.90867E-04   -0.12383E-04 26823   0.245E-02    0.592E-02
RMM:  17    -0.232587753446E+04    0.29987E-05   -0.98109E-05 24898   0.118E-02
  13 F= -.23258775E+04 E0= -.23231170E+04  d E =-.151261E-02
       N       E                     dE             d eps       ncg     rms          rms(c)
DAV:   1    -0.232585650868E+04    0.21029E-01   -0.25016E+01 27600   0.523E+00    0.810E-01
RMM:   2    -0.232746437488E+04   -0.16079E+01   -0.46954E-01 28121   0.149E+00    0.173E+01
RMM:   3    -0.232621115108E+04    0.12532E+01   -0.16955E-01 35390   0.612E-01    0.732E+00
RMM:   4    -0.232630794090E+04   -0.96790E-01   -0.61355E-02 27627   0.555E-01    0.905E+00
RMM:   5    -0.232612132797E+04    0.18661E+00   -0.65971E-02 37824   0.310E-01    0.634E+00
RMM:   6    -0.232600712638E+04    0.11420E+00   -0.64400E-02 27987   0.485E-01    0.479E+00
RMM:   7    -0.232618156864E+04   -0.17444E+00   -0.18381E-01 32138   0.600E-01    0.737E+00
RMM:   8    -0.232592612525E+04    0.25544E+00   -0.66649E-02 27725   0.558E-01    0.266E+00
RMM:   9    -0.232588801801E+04    0.38107E-01   -0.26044E-02 27606   0.399E-01    0.135E+00
RMM:  10    -0.232588430260E+04    0.37154E-02   -0.14927E-02 29212   0.219E-01    0.120E+00
RMM:  11    -0.232588327735E+04    0.10252E-02   -0.18098E-02 30786   0.209E-01    0.106E+00
RMM:  12    -0.232587845759E+04    0.48198E-02   -0.69826E-03 27955   0.175E-01    0.530E-01
RMM:  13    -0.232587725878E+04    0.11988E-02   -0.44444E-03 30455   0.109E-01    0.284E-01
RMM:  14    -0.232587741403E+04   -0.15525E-03   -0.33555E-03 35459   0.653E-02    0.295E-01
RMM:  15    -0.232587751367E+04   -0.99641E-04   -0.18138E-03 31746   0.650E-02    0.308E-01
RMM:  16    -0.232587714611E+04    0.36756E-03   -0.63548E-04 28259   0.542E-02    0.174E-01
RMM:  17    -0.232587713115E+04    0.14954E-04   -0.71461E-04 37841   0.262E-02    0.148E-01
RMM:  18    -0.232587707488E+04    0.56276E-04   -0.23974E-04 30246   0.253E-02    0.105E-01
RMM:  19    -0.232587704343E+04    0.31450E-04   -0.14092E-04 28035   0.201E-02    0.694E-02
RMM:  20    -0.232587704746E+04   -0.40327E-05   -0.94606E-05 24956   0.126E-02
  14 F= -.23258770E+04 E0= -.23231153E+04  d E =-.102561E-02
       N       E                     dE             d eps       ncg     rms          rms(c)
DAV:   1    -0.232586918970E+04    0.78537E-02   -0.10859E+01 27600   0.345E+00    0.536E-01
RMM:   2    -0.232708904675E+04   -0.12199E+01   -0.23949E-01 28664   0.102E+00    0.153E+01
RMM:   3    -0.232606352140E+04    0.10255E+01   -0.72296E-02 31116   0.476E-01    0.530E+00
RMM:   4    -0.232630120206E+04   -0.23768E+00   -0.32741E-02 28379   0.355E-01    0.880E+00
RMM:   5    -0.232593515805E+04    0.36604E+00   -0.23300E-02 28338   0.300E-01    0.276E+00
RMM:   6    -0.232597272775E+04   -0.37570E-01   -0.44482E-02 27948   0.413E-01    0.418E+00
RMM:   7    -0.232608222401E+04   -0.10950E+00   -0.10418E-01 32953   0.438E-01    0.617E+00
RMM:   8    -0.232590609283E+04    0.17613E+00   -0.36843E-02 27654   0.419E-01    0.193E+00
RMM:   9    -0.232588227137E+04    0.23821E-01   -0.14545E-02 27626   0.288E-01    0.935E-01
RMM:  10    -0.232588108762E+04    0.11837E-02   -0.11065E-02 31766   0.156E-01    0.831E-01
RMM:  11    -0.232588063628E+04    0.45134E-03   -0.90432E-03 31685   0.140E-01    0.711E-01
RMM:  12    -0.232587896721E+04    0.16691E-02   -0.39051E-03 28683   0.120E-01    0.487E-01
RMM:  13    -0.232587831091E+04    0.65630E-03   -0.21928E-03 30173   0.811E-02    0.364E-01
RMM:  14    -0.232587828089E+04    0.30016E-04   -0.18432E-03 36250   0.476E-02    0.335E-01
RMM:  15    -0.232587786894E+04    0.41195E-03   -0.61019E-04 29187   0.443E-02    0.168E-01
RMM:  16    -0.232587772861E+04    0.14033E-03   -0.26312E-04 28390   0.325E-02    0.753E-02
RMM:  17    -0.232587773858E+04   -0.99700E-05   -0.28309E-04 32877   0.182E-02    0.692E-02
RMM:  18    -0.232587775322E+04   -0.14638E-04   -0.12709E-04 27890   0.187E-02    0.804E-02
RMM:  19    -0.232587773179E+04    0.21425E-04   -0.49553E-05 20865   0.153E-02    0.495E-02
RMM:  20    -0.232587773317E+04   -0.13727E-05   -0.30979E-05 18889   0.101E-02
  15 F= -.23258777E+04 E0= -.23231168E+04  d E =-.171132E-02
       N       E                     dE             d eps       ncg     rms          rms(c)
DAV:   1    -0.232587773288E+04   -0.10864E-05   -0.43123E-01 27800   0.686E-01    0.112E-01
RMM:   2    -0.232601147866E+04   -0.13375E+00   -0.12195E-02 29299   0.212E-01    0.504E+00
RMM:   3    -0.232589323719E+04    0.11824E+00   -0.36626E-03 28879   0.119E-01    0.146E+00
RMM:   4    -0.232589272104E+04    0.51615E-03   -0.22666E-03 28093   0.950E-02    0.161E+00
RMM:   5    -0.232588315674E+04    0.95643E-02   -0.20919E-03 27763   0.953E-02    0.899E-01
RMM:   6    -0.232588675793E+04   -0.36012E-02   -0.48779E-03 28723   0.128E-01    0.126E+00
RMM:   7    -0.232588827741E+04   -0.15195E-02   -0.52064E-03 32244   0.112E-01    0.136E+00
RMM:   8    -0.232587980023E+04    0.84772E-02   -0.21376E-03 27610   0.105E-01    0.514E-01
RMM:   9    -0.232587834774E+04    0.14525E-02   -0.87740E-04 27677   0.679E-02    0.237E-01
RMM:  10    -0.232587820660E+04    0.14114E-03   -0.66080E-04 31552   0.402E-02    0.171E-01
RMM:  11    -0.232587822662E+04   -0.20018E-04   -0.57383E-04 32930   0.347E-02    0.174E-01
RMM:  12    -0.232587809953E+04    0.12709E-03   -0.18754E-04 27372   0.284E-02    0.892E-02
RMM:  13    -0.232587807224E+04    0.27286E-04   -0.11761E-04 26072   0.157E-02    0.527E-02
RMM:  14    -0.232587806784E+04    0.44032E-05   -0.41030E-05 19750   0.985E-03
  16 F= -.23258781E+04 E0= -.23231170E+04  d E =-.334673E-03
       N       E                     dE             d eps       ncg     rms          rms(c)
DAV:   1    -0.232587594861E+04    0.21236E-02   -0.38840E+00 27600   0.206E+00    0.300E-01
RMM:   2    -0.232619574982E+04   -0.31980E+00   -0.67886E-02 28249   0.565E-01    0.780E+00
RMM:   3    -0.232591509410E+04    0.28066E+00   -0.18603E-02 31256   0.246E-01    0.223E+00
RMM:   4    -0.232592032226E+04   -0.52282E-02   -0.90445E-03 27678   0.208E-01    0.267E+00
RMM:   5    -0.232592142709E+04   -0.11048E-02   -0.71810E-03 36195   0.108E-01    0.279E+00
RMM:   6    -0.232590652161E+04    0.14905E-01   -0.11229E-02 29172   0.187E-01    0.231E+00
RMM:   7    -0.232592296688E+04   -0.16445E-01   -0.24926E-02 31817   0.231E-01    0.281E+00
RMM:   8    -0.232588429470E+04    0.38672E-01   -0.84813E-03 27604   0.217E-01    0.865E-01
RMM:   9    -0.232587992736E+04    0.43673E-02   -0.29614E-03 27763   0.124E-01    0.435E-01
RMM:  10    -0.232587986967E+04    0.57687E-04   -0.24447E-03 30957   0.777E-02    0.420E-01
RMM:  11    -0.232587960377E+04    0.26590E-03   -0.21601E-03 29424   0.788E-02    0.334E-01
RMM:  12    -0.232587902457E+04    0.57920E-03   -0.75079E-04 27868   0.622E-02    0.143E-01
RMM:  13    -0.232587896055E+04    0.64017E-04   -0.55061E-04 31914   0.316E-02    0.880E-02
RMM:  14    -0.232587898921E+04   -0.28657E-04   -0.33692E-04 32737   0.233E-02    0.105E-01
RMM:  15    -0.232587898390E+04    0.53153E-05   -0.14069E-04 27902   0.198E-02    0.970E-02
RMM:  16    -0.232587894817E+04    0.35724E-04   -0.48911E-05 20894   0.159E-02    0.558E-02
RMM:  17    -0.232587894348E+04    0.46928E-05   -0.29633E-05 18423   0.101E-02
  17 F= -.23258789E+04 E0= -.23231176E+04  d E =-.121031E-02
       N       E                     dE             d eps       ncg     rms          rms(c)
DAV:   1    -0.232586760131E+04    0.11347E-01   -0.15533E+01 27600   0.412E+00    0.595E-01
RMM:   2    -0.232665310540E+04   -0.78550E+00   -0.25251E-01 28099   0.111E+00    0.122E+01
RMM:   3    -0.232601696711E+04    0.63614E+00   -0.74084E-02 34815   0.427E-01    0.461E+00
RMM:   4    -0.232608297793E+04   -0.66011E-01   -0.26672E-02 27681   0.358E-01    0.623E+00
RMM:   5    -0.232602517077E+04    0.57807E-01   -0.34601E-02 37943   0.222E-01    0.492E+00
RMM:   6    -0.232596190803E+04    0.63263E-01   -0.38006E-02 27971   0.373E-01    0.383E+00
RMM:   7    -0.232604187278E+04   -0.79965E-01   -0.89711E-02 31523   0.442E-01    0.538E+00
RMM:   8    -0.232590141250E+04    0.14046E+00   -0.30446E-02 27611   0.407E-01    0.174E+00
RMM:   9    -0.232588450371E+04    0.16909E-01   -0.11036E-02 27667   0.246E-01    0.897E-01
RMM:  10    -0.232588443622E+04    0.67489E-04   -0.85451E-03 30081   0.155E-01    0.894E-01
RMM:  11    -0.232588260436E+04    0.18319E-02   -0.78080E-03 29063   0.157E-01    0.659E-01
RMM:  12    -0.232588040186E+04    0.22025E-02   -0.28526E-03 27910   0.122E-01    0.292E-01
RMM:  13    -0.232588013289E+04    0.26897E-03   -0.20543E-03 31931   0.618E-02    0.166E-01
RMM:  14    -0.232588030592E+04   -0.17303E-03   -0.14252E-03 33428   0.502E-02    0.228E-01
RMM:  15    -0.232588022410E+04    0.81822E-04   -0.59663E-04 30492   0.413E-02    0.184E-01
RMM:  16    -0.232588013633E+04    0.87770E-04   -0.29030E-04 30094   0.292E-02    0.133E-01
RMM:  17    -0.232588011775E+04    0.18573E-04   -0.27822E-04 33447   0.180E-02    0.106E-01
RMM:  18    -0.232588009188E+04    0.25876E-04   -0.11061E-04 26587   0.176E-02    0.763E-02
RMM:  19    -0.232588008348E+04    0.84025E-05   -0.44526E-05 20674   0.138E-02
  18 F= -.23258801E+04 E0= -.23231182E+04  d E =-.235031E-02
       N       E                     dE             d eps       ncg     rms          rms(c)
DAV:   1    -0.232582463908E+04    0.55453E-01   -0.62089E+01 27600   0.824E+00    0.124E+00
RMM:   2    -0.232895798564E+04   -0.31333E+01   -0.10598E+00 28046   0.227E+00    0.239E+01
RMM:   3    -0.232635025744E+04    0.26077E+01   -0.30143E-01 35574   0.840E-01    0.856E+00
RMM:   4    -0.232662637571E+04   -0.27612E+00   -0.11743E-01 27646   0.750E-01    0.119E+01
RMM:   5    -0.232674061127E+04   -0.11424E+00   -0.17705E-01 39591   0.452E-01    0.121E+01
RMM:   6    -0.232627077506E+04    0.46984E+00   -0.17846E-01 28087   0.791E-01    0.829E+00
RMM:   7    -0.232649350781E+04   -0.22273E+00   -0.31847E-01 30483   0.890E-01    0.104E+01
RMM:   8    -0.232596074338E+04    0.53276E+00   -0.11266E-01 27608   0.806E-01    0.346E+00
RMM:   9    -0.232591712697E+04    0.43616E-01   -0.48900E-02 27764   0.499E-01    0.253E+00
RMM:  10    -0.232592803851E+04   -0.10912E-01   -0.52122E-02 29195   0.410E-01    0.290E+00
RMM:  11    -0.232589113418E+04    0.36904E-01   -0.27365E-02 27754   0.355E-01    0.138E+00
RMM:  12    -0.232588039246E+04    0.10742E-01   -0.10540E-02 27929   0.246E-01    0.514E-01
RMM:  13    -0.232588037442E+04    0.18041E-04   -0.84887E-03 32790   0.118E-01    0.465E-01
RMM:  14    -0.232588037023E+04    0.41885E-05   -0.49473E-03 31580   0.108E-01    0.429E-01
RMM:  15    -0.232587993023E+04    0.44001E-03   -0.18879E-03 29070   0.850E-02    0.330E-01
RMM:  16    -0.232587980845E+04    0.12177E-03   -0.16741E-03 33877   0.539E-02    0.269E-01
RMM:  17    -0.232587979427E+04    0.14183E-04   -0.13419E-03 33552   0.497E-02    0.238E-01
RMM:  18    -0.232587959429E+04    0.19999E-03   -0.47165E-04 29590   0.407E-02    0.143E-01
RMM:  19    -0.232587957490E+04    0.19387E-04   -0.43880E-04 34381   0.245E-02    0.109E-01
RMM:  20    -0.232587959687E+04   -0.21970E-04   -0.27299E-04 31995   0.246E-02    0.117E-01
RMM:  21    -0.232587958619E+04    0.10676E-04   -0.11355E-04 26755   0.206E-02    0.108E-01
RMM:  22    -0.232587958165E+04    0.45410E-05   -0.82831E-05 23579   0.115E-02
  19 F= -.23258796E+04 E0= -.23231167E+04  d E =-.184848E-02
