unknown system                          
            1
     9.726678    0.000000    0.000000
     0.000000    8.423550    0.000000
     0.000000    0.000000   45.000000
   Fe   Mn
 273  15
Direct configuration=     1
   0.06247606  0.70074348  0.21349815
   0.56258711  0.37266057  0.52142118
   0.56235982  0.70280292  0.34633566
   0.81262316  0.04376971  0.87328214
   0.06243747  0.03645137  0.39035016
   0.56297316  0.87701425  0.78625601
   0.18758188  0.12530424  0.65359036
   0.56250337  0.53719903  0.39024057
   0.68780415  0.79311800  0.74222010
   0.81220742  0.03668244  0.39031364
   0.93775187  0.78458891  0.12672058
   0.06229031  0.20689027  0.56526940
   0.31237079  0.53438419  0.25778073
   0.68758737  0.45496474  0.47865689
   0.18747657  0.29094983  0.60983017
   0.68757259  0.29120494  0.60980008
   0.06248248  0.53479998  0.25782419
   0.56262438  0.36764187  0.16881647
   0.81243817  0.53712126  0.39029619
   0.93732790  0.45244057  0.34632008
   0.06248202  0.20926406  0.69806054
   0.56253890  0.54124070  0.60979721
   0.43729256  0.45921808  0.69806143
   0.06252005  0.04338612  0.74216079
   0.68760166  0.12067280  0.43485503
   0.56266438  0.87534527  0.65366627
   0.93727655  0.45480651  0.47879039
   0.56261408  0.19991330  0.21358544
   0.56232829  0.20891015  0.69806841
   0.56259437  0.70545134  0.47871476
   0.93759343  0.12247844  0.52146405
   0.43765117  0.28666309  0.39021661
   0.56243812  0.20709680  0.56522967
   0.43739966  0.79290434  0.87332906
   0.68758497  0.28438248  0.25782544
   0.81238047  0.53367204  0.12652270
   0.68752301  0.95672461  0.56515986
   0.81258036  0.71063971  0.83120706
   0.81250010  0.19966537  0.21359510
   0.06293277  0.21013357  0.83120861
   0.43743951  0.78407607  0.12666384
   0.31255702  0.87770166  0.78645399
   0.31261417  0.20511238  0.47873169
   0.81244176  0.70038589  0.21354628
   0.31261468  0.70042704  0.21350759
   0.68763868  0.78714932  0.39030437
   0.06258386  0.37517150  0.65367579
   0.43812738  0.29316049  0.74213600
   0.81273202  0.20986345  0.69809786
   0.43844091  0.29387669  0.87328403
   0.06243111  0.87090692  0.43473323
   0.56240392  0.70028343  0.21364879
   0.68753813  0.61864080  0.30195495
   0.18779416  0.79292013  0.87333086
   0.31302652  0.36843153  0.30184791
   0.18737720  0.95956049  0.69806811
   0.81257218  0.87758996  0.78645472
   0.68765079  0.62727758  0.78635314
   0.93778961  0.62761461  0.78643491
   0.93721353  0.29357513  0.74217909
   0.31242362  0.86749557  0.16882789
   0.31250979  0.87285015  0.52142670
   0.06247910  0.54081659  0.60970978
   0.06256340  0.87517477  0.65371185
   0.43748680  0.12277972  0.52148655
   0.06259543  0.37734789  0.78628019
   0.56254070  0.20285432  0.34634207
   0.56247853  0.04326123  0.74213522
   0.18750808  0.95044332  0.21362877
   0.81255436  0.37704373  0.78641440
   0.18756395  0.61762785  0.16875392
   0.43724835  0.28407587  0.12673487
   0.18741247  0.95297659  0.34640756
   0.93732656  0.62058392  0.43518509
   0.81238346  0.53444375  0.25782622
   0.43775859  0.62484564  0.65358207
   0.43747830  0.45288655  0.34638466
   0.68755518  0.11830990  0.30188241
   0.43735133  0.61777880  0.16887159
   0.43759743  0.79127949  0.60975880
   0.43749322  0.11820878  0.30183886
   0.18771590  0.12268596  0.52133622
   0.31239058  0.04365054  0.74223052
   0.43779434  0.95510738  0.47861798
   0.18659512  0.29396439  0.87322558
   0.56244599  0.86850798  0.30195006
   0.93678746  0.28444439  0.12646624
   0.93739940  0.45067657  0.21368848
   0.81275643  0.54102302  0.60969335
   0.18835504  0.96120309  0.83128941
   0.68786595  0.28415399  0.12650377
   0.43747687  0.62254295  0.52138319
   0.81250265  0.03431415  0.12665782
   0.18757224  0.95693522  0.56511241
   0.93759893  0.28479001  0.25777535
   0.31231480  0.53374820  0.12663171
   0.56233460  0.36880358  0.30187028
   0.06249359  0.54373172  0.87329460
   0.93717787  0.78624454  0.39021651
   0.43700797  0.79317950  0.74222642
   0.68741174  0.95485624  0.47862305
   0.56255158  0.20525239  0.47869475
   0.31257921  0.04105445  0.60974104
   0.31274328  0.86825872  0.30187056
   0.31238602  0.70921657  0.69795303
   0.31285580  0.37070850  0.43493663
   0.18777597  0.62098515  0.43483113
   0.06266120  0.36773519  0.16879111
   0.43745059  0.62764714  0.78639522
   0.68743696  0.62073332  0.43480063
   0.18770103  0.78703540  0.39025732
   0.56198427  0.86721187  0.16888206
   0.06238897  0.20501403  0.47876248
   0.68742807  0.61645782  0.16892788
   0.31275865  0.20269264  0.34631065
   0.43760042  0.78419727  0.25783753
   0.93690629  0.11747125  0.16878034
   0.31253965  0.54302551  0.74220131
   0.06233360  0.20252862  0.34631052
   0.18759297  0.29339111  0.74218183
   0.18756436  0.12735794  0.78632953
   0.81259104  0.37534604  0.65368729
   0.68737753  0.45283880  0.34640798
   0.43759418  0.94997537  0.21366680
   0.18755515  0.78491027  0.12656050
   0.43707835  0.96136736  0.83133659
   0.93772796  0.45953073  0.69812869
   0.06300227  0.86724994  0.16883350
   0.93753073  0.79089799  0.60973953
   0.31219448  0.20921344  0.69804892
   0.56251790  0.37715491  0.78638697
   0.93727058  0.45695842  0.56526094
   0.81276878  0.70235702  0.34630744
   0.31229056  0.36751700  0.16881860
   0.06267412  0.03384035  0.12665992
   0.93769316  0.29060330  0.60980317
   0.18760402  0.79106380  0.60982156
   0.93758354  0.95679908  0.56517272
   0.93746159  0.62500035  0.65358397
   0.31236588  0.70295834  0.34639480
   0.31276605  0.87085779  0.43489002
   0.18821403  0.28465989  0.12669047
   0.93759308  0.61661569  0.16875222
   0.56265216  0.54371727  0.87332404
   0.93733162  0.78469695  0.25784497
   0.68759175  0.96084056  0.83114338
   0.68732302  0.62522999  0.65364378
   0.56248501  0.04153377  0.60974917
   0.93711502  0.96060878  0.83113943
   0.43746434  0.61865208  0.30200879
   0.68763093  0.12532464  0.65370729
   0.81220629  0.86840272  0.30187980
   0.18760499  0.78449275  0.25780076
   0.68724605  0.12291805  0.52143116
   0.56246388  0.87053395  0.43489338
   0.43769456  0.95284303  0.34627455
   0.18742780  0.46072616  0.83112691
   0.43752520  0.62062992  0.43482540
   0.43744664  0.46094444  0.83109072
   0.93739263  0.95028106  0.21358941
   0.56210705  0.21088756  0.83120827
   0.18762401  0.28446366  0.25775830
   0.06251838  0.54378912  0.74223689
   0.68738235  0.95001978  0.21353829
   0.81252357  0.87303418  0.52139598
   0.31258154  0.70733039  0.56526203
   0.93742990  0.12716564  0.78629421
   0.81251978  0.86703791  0.16884863
   0.93785332  0.95938294  0.69809419
   0.18786724  0.62299742  0.52138245
   0.18722392  0.62783775  0.78630606
   0.43784600  0.78754530  0.39023575
   0.18751468  0.95478879  0.47867030
   0.56264456  0.87266704  0.52136603
   0.31273980  0.20026924  0.21357493
   0.81198636  0.70566112  0.47875587
   0.18740932  0.45741707  0.56497516
   0.06233443  0.70967824  0.69805994
   0.06251680  0.70535226  0.47873535
   0.93761096  0.79371314  0.87325375
   0.56253283  0.54285160  0.74223359
   0.56220676  0.37089089  0.43488142
   0.06226252  0.20104796  0.21352554
   0.43774183  0.45553073  0.47871753
   0.06211766  0.71055805  0.83101835
   0.31246144  0.37515174  0.65369117
   0.06251679  0.04082685  0.60976107
   0.06252335  0.37250030  0.52146039
   0.68779985  0.95923493  0.69809490
   0.31259480  0.54364160  0.87328759
   0.18787915  0.45300246  0.34630984
   0.68733593  0.79351559  0.87332396
   0.93762775  0.46034600  0.83117070
   0.31254627  0.03735705  0.39028773
   0.31219461  0.54090113  0.60976817
   0.68718446  0.45027745  0.21371351
   0.31282226  0.37251213  0.52143144
   0.68759457  0.28665354  0.39022374
   0.81178810  0.36839261  0.30187831
   0.68746130  0.12695107  0.78641017
   0.81243504  0.54312169  0.74214576
   0.31258255  0.37780327  0.78623150
   0.93724576  0.61833750  0.30196258
   0.43741867  0.11691002  0.16888348
   0.68704569  0.62241825  0.52136869
   0.18753862  0.11662841  0.16880522
   0.81240661  0.04108222  0.60979709
   0.06234966  0.87324042  0.52145659
   0.68809403  0.11736352  0.16888962
   0.43746871  0.95707389  0.56515599
   0.81231205  0.20259830  0.34638002
   0.93722984  0.95238737  0.34627441
   0.68779313  0.45700362  0.56515728
   0.43788871  0.45019671  0.21363348
   0.18747824  0.62494248  0.65361306
   0.81214916  0.37253934  0.52144481
   0.81254387  0.21042621  0.83109684
   0.81268472  0.70903032  0.69791861
   0.81252816  0.20705017  0.56515570
   0.31272337  0.20707084  0.56528725
   0.43725472  0.12503526  0.65368053
   0.68710199  0.29317398  0.74216881
   0.06172950  0.37074358  0.43483423
   0.81260956  0.37087870  0.43487421
   0.43759813  0.45704925  0.56520336
   0.56286093  0.71087727  0.83104112
   0.93751357  0.12553072  0.65356400
   0.68737202  0.78420318  0.25777151
   0.81228878  0.70722274  0.56512432
   0.31238746  0.87495024  0.65362122
   0.18764794  0.45935668  0.69812739
   0.06185854  0.04438841  0.87328511
   0.06210275  0.87707684  0.78617265
   0.06254346  0.70749318  0.56525879
   0.56317119  0.04407573  0.87326822
   0.31285614  0.70518681  0.47868656
   0.68712097  0.78433788  0.12678467
   0.31247932  0.71133998  0.83126383
   0.18771256  0.11820504  0.30196875
   0.06250911  0.70257619  0.34626780
   0.56243314  0.03426224  0.25786224
   0.68730250  0.29399836  0.87329333
   0.93779959  0.29400292  0.87324742
   0.56269684  0.53381627  0.12665395
   0.43771649  0.12106258  0.43491317
   0.93737621  0.12119911  0.43492763
   0.31218882  0.53683861  0.39036226
   0.31240800  0.03428345  0.12662694
   0.18760286  0.61841029  0.30185229
   0.43721914  0.29109601  0.60972908
   0.93699843  0.11821535  0.30184157
   0.81241580  0.87532426  0.65370086
   0.93756159  0.28710449  0.39029187
   0.06249488  0.03452358  0.25785669
   0.43726912  0.95888242  0.69812963
   0.81255171  0.03442314  0.25786089
   0.81245977  0.20519373  0.47871857
   0.56245517  0.03329327  0.12670622
   0.68756875  0.46072460  0.83107988
   0.43731509  0.28434680  0.25776182
   0.68726694  0.79160694  0.60973036
   0.56253323  0.53433951  0.25786685
   0.31252989  0.20997459  0.83120998
   0.93729004  0.95500058  0.47866190
   0.68755251  0.95275807  0.34631718
   0.43767092  0.12729833  0.78638678
   0.81267333  0.04372927  0.74225654
   0.56262449  0.70721045  0.56513642
   0.31246900  0.03424663  0.25780069
   0.06249032  0.53394447  0.12655484
   0.81234108  0.87088738  0.43478400
   0.81244618  0.54384045  0.87326649
   0.56252275  0.37516895  0.65372581
   0.06226936  0.53696183  0.39030045
   0.31237501  0.04350957  0.87308856
   0.56232979  0.03661618  0.39012776
   0.18730835  0.45053795  0.21375164
   0.18765505  0.28730492  0.39016668
   0.18858877  0.79357715  0.74222031
   0.18736339  0.45510410  0.47874551
   0.06231958  0.86859229  0.30184832
   0.68779519  0.45873750  0.69809701
   0.93766703  0.62251849  0.52132739
   0.56218085  0.70982932  0.69811806
   0.81243408  0.36717181  0.16817086
   0.18747313  0.12096461  0.43501880
   0.93681683  0.79370823  0.74227913
   0.06255054  0.36847140  0.30191394
Direct configuration=     2
   0.06246313  0.70074340  0.21350031
   0.56258843  0.37262535  0.52141746
   0.56235506  0.70285146  0.34632796
   0.81263911  0.04374151  0.87328707
   0.06245133  0.03645259  0.39034193
   0.56296862  0.87697223  0.78625523
   0.18756843  0.12532628  0.65358760
   0.56248170  0.53720725  0.39024457
   0.68779469  0.79310964  0.74222488
   0.81219228  0.03666470  0.39030882
   0.93776600  0.78459473  0.12672495
   0.06231563  0.20687972  0.56527727
   0.31238460  0.53437286  0.25777375
   0.68761275  0.45502324  0.47867016
   0.18748621  0.29095732  0.60983078
   0.68756060  0.29121577  0.60979948
   0.06244739  0.53480610  0.25781721
   0.56262892  0.36761484  0.16882643
   0.81246231  0.53714926  0.39029556
   0.93734761  0.45243480  0.34631675
   0.06247032  0.20927360  0.69806120
   0.56253923  0.54125519  0.60979887
   0.43729794  0.45922179  0.69806310
   0.06252032  0.04340483  0.74216546
   0.68761308  0.12066640  0.43485604
   0.56268024  0.87532771  0.65365804
   0.93720616  0.45486464  0.47880266
   0.56263049  0.19996826  0.21359278
   0.56233710  0.20893646  0.69807111
   0.56254109  0.70538727  0.47872120
   0.93749060  0.12253648  0.52145260
   0.43763249  0.28663407  0.39021097
   0.56242609  0.20710353  0.56523154
   0.43742453  0.79293797  0.87333334
   0.68759611  0.28438226  0.25782055
   0.81237315  0.53364081  0.12652534
   0.68752258  0.95669941  0.56515958
   0.81257119  0.71062820  0.83119932
   0.81248670  0.19971195  0.21359838
   0.06292531  0.21011224  0.83119908
   0.43745389  0.78410821  0.12666714
   0.31256162  0.87767521  0.78645178
   0.31263613  0.20506453  0.47873925
   0.81244487  0.70041411  0.21355230
   0.31262038  0.70042281  0.21351069
   0.68763514  0.78716732  0.39030183
   0.06257725  0.37517559  0.65367254
   0.43814248  0.29315156  0.74213938
   0.81272554  0.20986779  0.69809709
   0.43845424  0.29386849  0.87328822
   0.06242493  0.87091240  0.43473305
   0.56241771  0.70032531  0.21365466
   0.68753368  0.61866745  0.30193489
   0.18774201  0.79297091  0.87334128
   0.31305889  0.36839832  0.30183993
   0.18737390  0.95955928  0.69807217
   0.81256096  0.87754149  0.78645814
   0.68765436  0.62724234  0.78635337
   0.93778398  0.62754876  0.78643561
   0.93719634  0.29358285  0.74218100
   0.31242310  0.86752785  0.16883299
   0.31257866  0.87282132  0.52141927
   0.06248023  0.54083886  0.60971551
   0.06255381  0.87516471  0.65370570
   0.43756172  0.12275782  0.52147699
   0.06257997  0.37731492  0.78627749
   0.56252017  0.20279498  0.34633413
   0.56248374  0.04328068  0.74214194
   0.18749207  0.95053964  0.21362589
   0.81254527  0.37701829  0.78640967
   0.18756096  0.61756191  0.16876397
   0.43725166  0.28403656  0.12673204
   0.18741849  0.95299189  0.34639612
   0.93732752  0.62062185  0.43519267
   0.81237795  0.53442059  0.25782371
   0.43776951  0.62484448  0.65357659
   0.43743549  0.45285062  0.34637646
   0.68754058  0.11830400  0.30186823
   0.43734965  0.61774769  0.16888029
   0.43761679  0.79125033  0.60976309
   0.43750371  0.11821219  0.30182697
   0.18775349  0.12277594  0.52133314
   0.31240762  0.04364786  0.74223810
   0.43772466  0.95516297  0.47863436
   0.18657264  0.29395535  0.87323510
   0.56243738  0.86855607  0.30193312
   0.93677175  0.28441715  0.12647371
   0.93739878  0.45069941  0.21368570
   0.81272978  0.54103916  0.60969472
   0.18834938  0.96118239  0.83128356
   0.68788103  0.28414618  0.12650958
   0.43746575  0.62261372  0.52138177
   0.81248761  0.03431569  0.12666037
   0.18758109  0.95690837  0.56512608
   0.93756354  0.28479706  0.25776957
   0.31232006  0.53375565  0.12663306
   0.56232933  0.36877975  0.30185409
   0.06245488  0.54377108  0.87330550
   0.93718378  0.78623110  0.39021254
   0.43702573  0.79319085  0.74223420
   0.68746945  0.95497822  0.47863961
   0.56247729  0.20526091  0.47871415
   0.31258868  0.04106864  0.60974231
   0.31277354  0.86829780  0.30186142
   0.31238092  0.70920644  0.69795803
   0.31283878  0.37074364  0.43493468
   0.18777304  0.62099268  0.43482726
   0.06266664  0.36770508  0.16879462
   0.43746009  0.62762734  0.78639245
   0.68745549  0.62075570  0.43480070
   0.18770032  0.78704705  0.39025198
   0.56201290  0.86725026  0.16888216
   0.06238560  0.20496754  0.47876715
   0.68743789  0.61646368  0.16893481
   0.31274364  0.20265670  0.34629938
   0.43763840  0.78420602  0.25784057
   0.93691150  0.11749091  0.16878030
   0.31255457  0.54302122  0.74220111
   0.06233759  0.20249270  0.34630412
   0.18760611  0.29338364  0.74218201
   0.18756276  0.12731503  0.78632403
   0.81258473  0.37533271  0.65367797
   0.68740590  0.45281832  0.34640106
   0.43763470  0.95006944  0.21366964
   0.18755768  0.78492666  0.12657083
   0.43710703  0.96133062  0.83133123
   0.93770983  0.45952873  0.69812811
   0.06298218  0.86727987  0.16884025
   0.93750563  0.79089156  0.60974143
   0.31220114  0.20923360  0.69805095
   0.56252874  0.37714795  0.78638719
   0.93724635  0.45693760  0.56526465
   0.81279962  0.70238476  0.34630338
   0.31227591  0.36748683  0.16882203
   0.06268126  0.03382615  0.12666282
   0.93768852  0.29058100  0.60980669
   0.18762488  0.79106288  0.60982260
   0.93756108  0.95675923  0.56517878
   0.93743162  0.62499788  0.65358069
   0.31233821  0.70297477  0.34639008
   0.31275482  0.87088154  0.43488741
   0.18820455  0.28463942  0.12668641
   0.93759112  0.61659738  0.16876199
   0.56268953  0.54373877  0.87332613
   0.93731507  0.78468245  0.25783888
   0.68757379  0.96078801  0.83113592
   0.68731353  0.62522945  0.65363800
   0.56249870  0.04152884  0.60975308
   0.93711024  0.96056639  0.83112994
   0.43748417  0.61866121  0.30199409
   0.68762216  0.12532893  0.65369896
   0.81217683  0.86844607  0.30186588
   0.18759159  0.78449792  0.25779764
   0.68722972  0.12282239  0.52142629
   0.56244789  0.87055324  0.43488202
   0.43767596  0.95284982  0.34626578
   0.18744195  0.46072904  0.83111976
   0.43750924  0.62066246  0.43482431
   0.43744996  0.46096379  0.83108773
   0.93736125  0.95035936  0.21359225
   0.56211607  0.21087648  0.83120080
   0.18761841  0.28446150  0.25774858
   0.06252304  0.54375773  0.74223702
   0.68739399  0.95009489  0.21354799
   0.81247652  0.87305521  0.52139690
   0.31257750  0.70730179  0.56526270
   0.93742194  0.12712962  0.78629068
   0.81252154  0.86704523  0.16885686
   0.93785301  0.95935932  0.69810046
   0.18785529  0.62291206  0.52138411
   0.18722366  0.62779235  0.78630403
   0.43784129  0.78755197  0.39023403
   0.18751713  0.95484207  0.47866539
   0.56265268  0.87273248  0.52137384
   0.31273013  0.20035862  0.21356970
   0.81209888  0.70559535  0.47876380
   0.18742789  0.45737684  0.56497361
   0.06233418  0.70965841  0.69806314
   0.06244674  0.70539108  0.47874336
   0.93761662  0.79370504  0.87326155
   0.56253707  0.54284650  0.74223779
   0.56218234  0.37090328  0.43488806
   0.06226319  0.20111075  0.21352537
   0.43779133  0.45547529  0.47872347
   0.06212412  0.71055219  0.83101370
   0.31248112  0.37515911  0.65368326
   0.06251623  0.04082413  0.60976401
   0.06260156  0.37254966  0.52146213
   0.68780205  0.95921588  0.69809863
   0.31259160  0.54368356  0.87329561
   0.18787565  0.45298863  0.34630753
   0.68735582  0.79348921  0.87332475
   0.93760899  0.46033809  0.83116145
   0.31255517  0.03735066  0.39027814
   0.31221974  0.54092019  0.60977031
   0.68718725  0.45029291  0.21371574
   0.31271798  0.37254106  0.52143441
   0.68760222  0.28660408  0.39022258
   0.81177535  0.36837937  0.30186162
   0.68747204  0.12691695  0.78641121
   0.81242109  0.54311553  0.74215410
   0.31258137  0.37777665  0.78622527
   0.93722081  0.61835635  0.30195497
   0.43742742  0.11696563  0.16888283
   0.68708461  0.62239471  0.52136976
   0.18752953  0.11668630  0.16880611
   0.81238382  0.04107020  0.60980073
   0.06232161  0.87314514  0.52145132
   0.68808047  0.11739809  0.16889031
   0.43747432  0.95705374  0.56515719
   0.81232970  0.20255902  0.34637118
   0.93724079  0.95240574  0.34626721
   0.68778918  0.45699827  0.56516342
   0.43788099  0.45020645  0.21363385
   0.18749992  0.62494337  0.65361274
   0.81216902  0.37256693  0.52144078
   0.81252445  0.21044288  0.83108980
   0.81268829  0.70901427  0.69792468
   0.81252387  0.20704297  0.56516066
   0.31272004  0.20706947  0.56529354
   0.43728519  0.12504693  0.65367317
   0.68709102  0.29317765  0.74217425
   0.06173682  0.37075814  0.43483114
   0.81264211  0.37090451  0.43487876
   0.43760693  0.45702790  0.56521050
   0.56285709  0.71086912  0.83103972
   0.93750684  0.12553215  0.65356081
   0.68736943  0.78420470  0.25777054
   0.81226618  0.70720416  0.56512925
   0.31240966  0.87492612  0.65361855
   0.18765426  0.45936162  0.69812926
   0.06184919  0.04436795  0.87330235
   0.06210505  0.87704497  0.78617453
   0.06256058  0.70747281  0.56526184
   0.56318660  0.04404300  0.87327195
   0.31287260  0.70522680  0.47869412
   0.68709387  0.78436789  0.12678341
   0.31249527  0.71132703  0.83126175
   0.18772703  0.11819913  0.30196324
   0.06251214  0.70259756  0.34626332
   0.56245769  0.03428583  0.25786441
   0.68732049  0.29403307  0.87330433
   0.93778941  0.29403836  0.87326513
   0.56269423  0.53382050  0.12665844
   0.43772493  0.12106902  0.43491502
   0.93736657  0.12119328  0.43493259
   0.31217300  0.53684630  0.39036198
   0.31242300  0.03426967  0.12662708
   0.18760363  0.61841172  0.30184506
   0.43723632  0.29110538  0.60972893
   0.93699501  0.11822524  0.30182996
   0.81239123  0.87530257  0.65369726
   0.93756151  0.28709382  0.39028430
   0.06246676  0.03454304  0.25785280
   0.43727985  0.95888155  0.69813589
   0.81253418  0.03443537  0.25785474
   0.81251850  0.20513448  0.47873467
   0.56244211  0.03326957  0.12670279
   0.68757540  0.46071801  0.83107483
   0.43735046  0.28435471  0.25776069
   0.68725434  0.79159339  0.60973562
   0.56255085  0.53434997  0.25786659
   0.31254812  0.20995596  0.83120515
   0.93729781  0.95499908  0.47866296
   0.68754699  0.95276979  0.34630852
   0.43767330  0.12725731  0.78638394
   0.81265846  0.04372412  0.74226182
   0.56263444  0.70717213  0.56514397
   0.31248326  0.03424020  0.25779928
   0.06249586  0.53393930  0.12655694
   0.81237150  0.87090022  0.43478275
   0.81244499  0.54388214  0.87327822
   0.56251928  0.37518156  0.65371552
   0.06227696  0.53696314  0.39029401
   0.31235922  0.04346769  0.87309896
   0.56230881  0.03658583  0.39012319
   0.18730710  0.45055412  0.21375070
   0.18769945  0.28729373  0.39016198
   0.18858901  0.79356582  0.74222961
   0.18735205  0.45510158  0.47876668
   0.06232338  0.86862682  0.30184162
   0.68779733  0.45872407  0.69809894
   0.93764414  0.62253038  0.52131487
   0.56218103  0.70982013  0.69812025
   0.81243875  0.36715218  0.16817631
   0.18747057  0.12095811  0.43501946
   0.93680642  0.79368004  0.74228728
   0.06254137  0.36845431  0.30190237
Direct configuration=     3
   0.06245468  0.70074334  0.21350172
   0.56258929  0.37260230  0.52141502
   0.56235195  0.70288321  0.34632292
   0.81264955  0.04372306  0.87329029
   0.06246039  0.03645340  0.39033655
   0.56296565  0.87694473  0.78625473
   0.18755963  0.12534071  0.65358580
   0.56246752  0.53721262  0.39024718
   0.68778850  0.79310417  0.74222800
   0.81218237  0.03665309  0.39030567
   0.93777524  0.78459854  0.12672782
   0.06233220  0.20687281  0.56528241
   0.31239364  0.53436544  0.25776919
   0.68762936  0.45506152  0.47867884
   0.18749252  0.29096221  0.60983118
   0.68755275  0.29122286  0.60979909
   0.06242443  0.53481010  0.25781264
   0.56263189  0.36759715  0.16883295
   0.81247811  0.53716758  0.39029515
   0.93736051  0.45243103  0.34631457
   0.06246267  0.20927984  0.69806164
   0.56253945  0.54126467  0.60979995
   0.43730147  0.45922423  0.69806419
   0.06252049  0.04341708  0.74216851
   0.68762055  0.12066221  0.43485670
   0.56269062  0.87531622  0.65365265
   0.93716009  0.45490267  0.47881070
   0.56264122  0.20000423  0.21359758
   0.56234286  0.20895368  0.69807288
   0.56250622  0.70534534  0.47872542
   0.93742331  0.12257446  0.52144511
   0.43762026  0.28661509  0.39020729
   0.56241822  0.20710793  0.56523276
   0.43744081  0.79295998  0.87333615
   0.68760340  0.28438212  0.25781735
   0.81236837  0.53362037  0.12652707
   0.68752229  0.95668293  0.56515939
   0.81256519  0.71062067  0.83119426
   0.81247794  0.19974243  0.21360052
   0.06292042  0.21009828  0.83119284
   0.43746330  0.78412924  0.12666930
   0.31256462  0.87765790  0.78645034
   0.31265049  0.20503321  0.47874419
   0.81244690  0.70043257  0.21355624
   0.31262410  0.70042004  0.21351272
   0.68763282  0.78717909  0.39030016
   0.06257292  0.37517826  0.65367041
   0.43815236  0.29314572  0.74214158
   0.81272129  0.20987063  0.69809658
   0.43846296  0.29386313  0.87329096
   0.06242088  0.87091599  0.43473293
   0.56242673  0.70035272  0.21365850
   0.68753077  0.61868490  0.30192176
   0.18770789  0.79300414  0.87334810
   0.31308008  0.36837659  0.30183471
   0.18737174  0.95955849  0.69807484
   0.81255362  0.87750977  0.78646037
   0.68765670  0.62721927  0.78635353
   0.93778029  0.62750568  0.78643607
   0.93718509  0.29358790  0.74218225
   0.31242276  0.86754897  0.16883633
   0.31262372  0.87280245  0.52141441
   0.06248097  0.54085344  0.60971926
   0.06254753  0.87515814  0.65370168
   0.43761075  0.12274349  0.52147074
   0.06256986  0.37729335  0.78627572
   0.56250674  0.20275615  0.34632894
   0.56248714  0.04329340  0.74214634
   0.18748158  0.95060267  0.21362401
   0.81253932  0.37700163  0.78640657
   0.18755899  0.61751875  0.16877055
   0.43725383  0.28401083  0.12673018
   0.18742242  0.95300190  0.34638863
   0.93732815  0.62064668  0.43519763
   0.81237434  0.53440544  0.25782207
   0.43777665  0.62484372  0.65357300
   0.43740747  0.45282712  0.34637109
   0.68753103  0.11830014  0.30185894
   0.43734855  0.61772734  0.16888599
   0.43762946  0.79123125  0.60976590
   0.43751057  0.11821442  0.30181919
   0.18777809  0.12283481  0.52133112
   0.31241877  0.04364611  0.74224307
   0.43767907  0.95519934  0.47864508
   0.18655793  0.29394944  0.87324133
   0.56243175  0.86858754  0.30192204
   0.93676147  0.28439933  0.12647859
   0.93739837  0.45071436  0.21368388
   0.81271234  0.54104973  0.60969562
   0.18834568  0.96116884  0.83127973
   0.68789090  0.28414106  0.12651339
   0.43745847  0.62266002  0.52138085
   0.81247777  0.03431669  0.12666204
   0.18758688  0.95689080  0.56513503
   0.93754038  0.28480167  0.25776579
   0.31232350  0.53376052  0.12663395
   0.56232588  0.36876415  0.30184349
   0.06242956  0.54379683  0.87331263
   0.93718764  0.78622230  0.39020994
   0.43703736  0.79319829  0.74223930
   0.68750722  0.95505804  0.47865044
   0.56242868  0.20526649  0.47872685
   0.31259488  0.04107793  0.60974314
   0.31279334  0.86832337  0.30185544
   0.31237758  0.70919981  0.69796130
   0.31282765  0.37076663  0.43493340
   0.18777112  0.62099761  0.43482473
   0.06267020  0.36768538  0.16879691
   0.43746631  0.62761438  0.78639063
   0.68746762  0.62077035  0.43480075
   0.18769985  0.78705468  0.39024848
   0.56203164  0.86727539  0.16888223
   0.06238339  0.20493713  0.47877021
   0.68744432  0.61646751  0.16893934
   0.31273382  0.20263318  0.34629201
   0.43766325  0.78421174  0.25784257
   0.93691491  0.11750377  0.16878028
   0.31256432  0.54301841  0.74220097
   0.06234020  0.20246920  0.34629993
   0.18761471  0.29337876  0.74218213
   0.18756171  0.12728695  0.78632043
   0.81258060  0.37532398  0.65367188
   0.68742447  0.45280492  0.34639653
   0.43766121  0.95013100  0.21367150
   0.18755933  0.78493738  0.12657759
   0.43712580  0.96130658  0.83132772
   0.93769797  0.45952741  0.69812773
   0.06296903  0.86729946  0.16884468
   0.93748921  0.79088736  0.60974268
   0.31220549  0.20924679  0.69805228
   0.56253584  0.37714340  0.78638733
   0.93723049  0.45692397  0.56526708
   0.81281980  0.70240291  0.34630073
   0.31226633  0.36746710  0.16882427
   0.06268594  0.03381686  0.12666471
   0.93768548  0.29056641  0.60980899
   0.18763853  0.79106228  0.60982327
   0.93754637  0.95673315  0.56518275
   0.93741201  0.62499626  0.65357855
   0.31232010  0.70298552  0.34638700
   0.31274747  0.87089708  0.43488570
   0.18819834  0.28462603  0.12668375
   0.93758985  0.61658540  0.16876838
   0.56271398  0.54375284  0.87332749
   0.93730424  0.78467295  0.25783490
   0.68756203  0.96075362  0.83113104
   0.68730732  0.62522909  0.65363421
   0.56250766  0.04152561  0.60975564
   0.93710712  0.96053865  0.83112373
   0.43749715  0.61866718  0.30198447
   0.68761642  0.12533174  0.65369351
   0.81215756  0.86847443  0.30185677
   0.18758282  0.78450130  0.25779559
   0.68721904  0.12275980  0.52142311
   0.56243743  0.87056587  0.43487458
   0.43766378  0.95285426  0.34626005
   0.18745120  0.46073092  0.83111508
   0.43749880  0.62068376  0.43482360
   0.43745213  0.46097645  0.83108578
   0.93734071  0.95041060  0.21359410
   0.56212197  0.21086924  0.83119591
   0.18761474  0.28446009  0.25774222
   0.06252608  0.54373719  0.74223711
   0.68740161  0.95014405  0.21355435
   0.81244572  0.87306898  0.52139750
   0.31257485  0.70728308  0.56526314
   0.93741674  0.12710605  0.78628837
   0.81252270  0.86705002  0.16886224
   0.93785281  0.95934386  0.69810456
   0.18784746  0.62285620  0.52138519
   0.18722349  0.62776264  0.78630270
   0.43783822  0.78755634  0.39023290
   0.18751874  0.95487694  0.47866217
   0.56265800  0.87277530  0.52137895
   0.31272381  0.20041711  0.21356628
   0.81217251  0.70555232  0.47876900
   0.18744004  0.45735051  0.56497260
   0.06233402  0.70964543  0.69806523
   0.06240090  0.70541648  0.47874860
   0.93762032  0.79369974  0.87326665
   0.56253984  0.54284317  0.74224054
   0.56216637  0.37091139  0.43489240
   0.06226362  0.20115183  0.21352526
   0.43782372  0.45543901  0.47872735
   0.06212835  0.71054835  0.83101066
   0.31249400  0.37516393  0.65367809
   0.06251587  0.04082234  0.60976594
   0.06265275  0.37258196  0.52146327
   0.68780350  0.95920341  0.69810108
   0.31258951  0.54371102  0.87330086
   0.18787336  0.45297958  0.34630601
   0.68736883  0.79347194  0.87332527
   0.93759671  0.46033291  0.83115540
   0.31256100  0.03734649  0.39027187
   0.31223618  0.54093266  0.60977171
   0.68718907  0.45030302  0.21371720
   0.31264975  0.37255999  0.52143635
   0.68760723  0.28657171  0.39022183
   0.81176700  0.36837070  0.30185069
   0.68747906  0.12689463  0.78641189
   0.81241196  0.54311150  0.74215957
   0.31258059  0.37775924  0.78622120
   0.93720448  0.61836869  0.30194999
   0.43743314  0.11700201  0.16888241
   0.68711009  0.62237931  0.52137045
   0.18752358  0.11672418  0.16880670