 288 288   0   0
  0.1280206E+02  0.9726678E-09  0.8423550E-09  0.4500000E-08  0.2500000E-15
  1.000000000000000E-004
  CAR 
 unknown system                          
      6.82337963     -6.02113493  301      4.29468880      1.00000000
     -6.021  0.0000E+00  0.0000E+00
     -5.978  0.0000E+00  0.0000E+00
     -5.936  0.0000E+00  0.0000E+00
     -5.893  0.0000E+00  0.0000E+00
     -5.850  0.0000E+00  0.0000E+00
     -5.807  0.0000E+00  0.0000E+00
     -5.764  0.0000E+00  0.0000E+00
     -5.721  0.0000E+00  0.0000E+00
     -5.679  0.0000E+00  0.0000E+00
     -5.636  0.0000E+00  0.0000E+00
     -5.593  0.0000E+00  0.0000E+00
     -5.550  0.0000E+00  0.0000E+00
     -5.507  0.0000E+00  0.0000E+00
     -5.465  0.0000E+00  0.0000E+00
     -5.422  0.0000E+00  0.0000E+00
     -5.379  0.1945E-15  0.8327E-17
     -5.336  0.4311E-14  0.1929E-15
     -5.293  0.9342E-13  0.4192E-14
     -5.250  0.1705E-11  0.7721E-13
     -5.208  0.2652E-10  0.1213E-11
     -5.165  0.3512E-09  0.1625E-10
     -5.122  0.3962E-08  0.1859E-09
     -5.079  0.3809E-07  0.1817E-08
     -5.036  0.3123E-06  0.1519E-07
     -4.994  0.2186E-05  0.1088E-06
     -4.951  0.1307E-04  0.6685E-06
     -4.908  0.6695E-04  0.3535E-05
     -4.865  0.2942E-03  0.1613E-04
     -4.822  0.1114E-02  0.6381E-04
     -4.779  0.3647E-02  0.2200E-03
     -4.737  0.1040E-01  0.6652E-03
     -4.694  0.2604E-01  0.1780E-02
     -4.651  0.5780E-01  0.4255E-02
     -4.608  0.1151E+00  0.9182E-02
     -4.565  0.2077E+00  0.1808E-01
     -4.523  0.3436E+00  0.3279E-01
     -4.480  0.5250E+00  0.5526E-01
     -4.437  0.7455E+00  0.8718E-01
     -4.394  0.9887E+00  0.1295E+00
     -4.351  0.1230E+01  0.1822E+00
     -4.309  0.1444E+01  0.2440E+00
     -4.266  0.1610E+01  0.3129E+00
     -4.223  0.1720E+01  0.3866E+00
     -4.180  0.1787E+01  0.4631E+00
     -4.137  0.1841E+01  0.5419E+00
     -4.094  0.1920E+01  0.6241E+00
     -4.052  0.2056E+01  0.7121E+00
     -4.009  0.2262E+01  0.8090E+00
     -3.966  0.2520E+01  0.9169E+00
     -3.923  0.2790E+01  0.1036E+01
     -3.880  0.3018E+01  0.1166E+01
     -3.838  0.3161E+01  0.1301E+01
     -3.795  0.3199E+01  0.1438E+01
     -3.752  0.3153E+01  0.1573E+01
     -3.709  0.3075E+01  0.1704E+01
     -3.666  0.3027E+01  0.1834E+01
     -3.623  0.3059E+01  0.1965E+01
     -3.581  0.3190E+01  0.2102E+01
     -3.538  0.3400E+01  0.2247E+01
     -3.495  0.3641E+01  0.2403E+01
     -3.452  0.3858E+01  0.2568E+01
     -3.409  0.4015E+01  0.2740E+01
     -3.367  0.4102E+01  0.2916E+01
     -3.324  0.4136E+01  0.3093E+01
     -3.281  0.4146E+01  0.3270E+01
     -3.238  0.4163E+01  0.3449E+01
     -3.195  0.4213E+01  0.3629E+01
     -3.153  0.4309E+01  0.3814E+01
     -3.110  0.4453E+01  0.4004E+01
     -3.067  0.4635E+01  0.4203E+01
     -3.024  0.4835E+01  0.4410E+01
     -2.981  0.5025E+01  0.4625E+01
     -2.938  0.5180E+01  0.4847E+01
     -2.896  0.5286E+01  0.5073E+01
     -2.853  0.5350E+01  0.5302E+01
     -2.810  0.5396E+01  0.5533E+01
     -2.767  0.5459E+01  0.5767E+01
     -2.724  0.5556E+01  0.6005E+01
     -2.682  0.5666E+01  0.6247E+01
     -2.639  0.5729E+01  0.6493E+01
     -2.596  0.5691E+01  0.6736E+01
     -2.553  0.5553E+01  0.6974E+01
     -2.510  0.5402E+01  0.7205E+01
     -2.467  0.5380E+01  0.7436E+01
     -2.425  0.5605E+01  0.7676E+01
     -2.382  0.6093E+01  0.7936E+01
     -2.339  0.6730E+01  0.8225E+01
     -2.296  0.7309E+01  0.8538E+01
     -2.253  0.7631E+01  0.8864E+01
     -2.211  0.7610E+01  0.9190E+01
     -2.168  0.7318E+01  0.9503E+01
     -2.125  0.6959E+01  0.9801E+01
     -2.082  0.6764E+01  0.1009E+02
     -2.039  0.6879E+01  0.1039E+02
     -1.997  0.7300E+01  0.1070E+02
     -1.954  0.7887E+01  0.1104E+02
     -1.911  0.8441E+01  0.1140E+02
     -1.868  0.8797E+01  0.1177E+02
     -1.825  0.8898E+01  0.1215E+02
     -1.782  0.8815E+01  0.1253E+02
     -1.740  0.8694E+01  0.1290E+02
     -1.697  0.8666E+01  0.1328E+02
     -1.654  0.8781E+01  0.1365E+02
     -1.611  0.9008E+01  0.1404E+02
     -1.568  0.9284E+01  0.1443E+02
     -1.526  0.9566E+01  0.1484E+02
     -1.483  0.9842E+01  0.1527E+02
     -1.440  0.1010E+02  0.1570E+02
     -1.397  0.1032E+02  0.1614E+02
     -1.354  0.1045E+02  0.1659E+02
     -1.311  0.1053E+02  0.1704E+02
     -1.269  0.1071E+02  0.1750E+02
     -1.226  0.1119E+02  0.1798E+02
     -1.183  0.1209E+02  0.1849E+02
     -1.140  0.1330E+02  0.1906E+02
     -1.097  0.1451E+02  0.1968E+02
     -1.055  0.1534E+02  0.2034E+02
     -1.012  0.1565E+02  0.2101E+02
     -0.969  0.1558E+02  0.2168E+02
     -0.926  0.1555E+02  0.2234E+02
     -0.883  0.1596E+02  0.2303E+02
     -0.841  0.1700E+02  0.2376E+02
     -0.798  0.1864E+02  0.2455E+02
     -0.755  0.2076E+02  0.2544E+02
     -0.712  0.2339E+02  0.2644E+02
     -0.669  0.2673E+02  0.2759E+02
     -0.626  0.3091E+02  0.2891E+02
     -0.584  0.3575E+02  0.3044E+02
     -0.541  0.4069E+02  0.3218E+02
     -0.498  0.4506E+02  0.3411E+02
     -0.455  0.4845E+02  0.3619E+02
     -0.412  0.5092E+02  0.3837E+02
     -0.370  0.5276E+02  0.4063E+02
     -0.327  0.5428E+02  0.4295E+02
     -0.284  0.5554E+02  0.4533E+02
     -0.241  0.5647E+02  0.4775E+02
     -0.198  0.5695E+02  0.5019E+02
     -0.155  0.5703E+02  0.5263E+02
     -0.113  0.5690E+02  0.5506E+02
     -0.070  0.5683E+02  0.5750E+02
     -0.027  0.5709E+02  0.5994E+02
      0.016  0.5792E+02  0.6242E+02
      0.059  0.5947E+02  0.6497E+02
      0.101  0.6179E+02  0.6761E+02
      0.144  0.6478E+02  0.7039E+02
      0.187  0.6827E+02  0.7331E+02
      0.230  0.7203E+02  0.7639E+02
      0.273  0.7576E+02  0.7964E+02
      0.315  0.7917E+02  0.8303E+02
      0.358  0.8199E+02  0.8654E+02
      0.401  0.8413E+02  0.9014E+02
      0.444  0.8566E+02  0.9381E+02
      0.487  0.8669E+02  0.9752E+02
      0.530  0.8724E+02  0.1013E+03
      0.572  0.8731E+02  0.1050E+03
      0.615  0.8691E+02  0.1087E+03
      0.658  0.8611E+02  0.1124E+03
      0.701  0.8497E+02  0.1160E+03
      0.744  0.8348E+02  0.1196E+03
      0.786  0.8163E+02  0.1231E+03
      0.829  0.7958E+02  0.1265E+03
      0.872  0.7766E+02  0.1298E+03
      0.915  0.7628E+02  0.1331E+03
      0.958  0.7568E+02  0.1363E+03
      1.001  0.7575E+02  0.1396E+03
      1.043  0.7612E+02  0.1428E+03
      1.086  0.7633E+02  0.1461E+03
      1.129  0.7613E+02  0.1494E+03
      1.172  0.7550E+02  0.1526E+03
      1.215  0.7466E+02  0.1558E+03
      1.257  0.7383E+02  0.1590E+03
      1.300  0.7311E+02  0.1621E+03
      1.343  0.7244E+02  0.1652E+03
      1.386  0.7161E+02  0.1683E+03
      1.429  0.7043E+02  0.1713E+03
      1.471  0.6884E+02  0.1742E+03
      1.514  0.6716E+02  0.1771E+03
      1.557  0.6595E+02  0.1799E+03
      1.600  0.6579E+02  0.1827E+03
      1.643  0.6694E+02  0.1856E+03
      1.686  0.6925E+02  0.1886E+03
      1.728  0.7226E+02  0.1917E+03
      1.771  0.7547E+02  0.1949E+03
      1.814  0.7857E+02  0.1983E+03
      1.857  0.8143E+02  0.2017E+03
      1.900  0.8401E+02  0.2053E+03
      1.942  0.8629E+02  0.2090E+03
      1.985  0.8831E+02  0.2128E+03
      2.028  0.9015E+02  0.2167E+03
      2.071  0.9181E+02  0.2206E+03
      2.114  0.9323E+02  0.2246E+03
      2.157  0.9438E+02  0.2286E+03
      2.199  0.9541E+02  0.2327E+03
      2.242  0.9668E+02  0.2369E+03
      2.285  0.9864E+02  0.2411E+03
      2.328  0.1016E+03  0.2454E+03
      2.371  0.1055E+03  0.2500E+03
      2.413  0.1099E+03  0.2547E+03
      2.456  0.1143E+03  0.2596E+03
      2.499  0.1181E+03  0.2646E+03
      2.542  0.1212E+03  0.2698E+03
      2.585  0.1237E+03  0.2751E+03
      2.628  0.1257E+03  0.2805E+03
      2.670  0.1276E+03  0.2859E+03
      2.713  0.1296E+03  0.2915E+03
      2.756  0.1317E+03  0.2971E+03
      2.799  0.1343E+03  0.3029E+03
      2.842  0.1372E+03  0.3088E+03
      2.884  0.1400E+03  0.3147E+03
      2.927  0.1419E+03  0.3208E+03
      2.970  0.1420E+03  0.3269E+03
      3.013  0.1394E+03  0.3329E+03
      3.056  0.1339E+03  0.3386E+03
      3.098  0.1261E+03  0.3440E+03
      3.141  0.1171E+03  0.3490E+03
      3.184  0.1081E+03  0.3536E+03
      3.227  0.1003E+03  0.3579E+03
      3.270  0.9421E+02  0.3620E+03
      3.313  0.8993E+02  0.3658E+03
      3.355  0.8718E+02  0.3696E+03
      3.398  0.8554E+02  0.3732E+03
      3.441  0.8462E+02  0.3768E+03
      3.484  0.8404E+02  0.3804E+03
      3.527  0.8350E+02  0.3840E+03
      3.569  0.8286E+02  0.3876E+03
      3.612  0.8234E+02  0.3911E+03
      3.655  0.8244E+02  0.3946E+03
      3.698  0.8372E+02  0.3982E+03
      3.741  0.8643E+02  0.4019E+03
      3.784  0.9035E+02  0.4058E+03
      3.826  0.9489E+02  0.4098E+03
      3.869  0.9933E+02  0.4141E+03
      3.912  0.1032E+03  0.4185E+03
      3.955  0.1061E+03  0.4230E+03
      3.998  0.1081E+03  0.4277E+03
      4.040  0.1090E+03  0.4323E+03
      4.083  0.1090E+03  0.4370E+03
      4.126  0.1083E+03  0.4416E+03
      4.169  0.1072E+03  0.4462E+03
      4.212  0.1059E+03  0.4508E+03
      4.254  0.1046E+03  0.4552E+03
      4.297  0.1034E+03  0.4597E+03
      4.340  0.1024E+03  0.4640E+03
      4.383  0.1017E+03  0.4684E+03
      4.426  0.1013E+03  0.4727E+03
      4.469  0.1010E+03  0.4771E+03
      4.511  0.1003E+03  0.4814E+03
      4.554  0.9920E+02  0.4856E+03
      4.597  0.9795E+02  0.4898E+03
      4.640  0.9707E+02  0.4940E+03
      4.683  0.9709E+02  0.4981E+03
      4.725  0.9821E+02  0.5023E+03
      4.768  0.1003E+03  0.5066E+03
      4.811  0.1029E+03  0.5110E+03
      4.854  0.1055E+03  0.5155E+03
      4.897  0.1076E+03  0.5201E+03
      4.940  0.1089E+03  0.5248E+03
      4.982  0.1089E+03  0.5295E+03
      5.025  0.1072E+03  0.5341E+03
      5.068  0.1028E+03  0.5385E+03
      5.111  0.9482E+02  0.5425E+03
      5.154  0.8283E+02  0.5461E+03
      5.196  0.6746E+02  0.5489E+03
      5.239  0.5052E+02  0.5511E+03
      5.282  0.3441E+02  0.5526E+03
      5.325  0.2113E+02  0.5535E+03
      5.368  0.1163E+02  0.5540E+03
      5.410  0.5709E+01  0.5542E+03
      5.453  0.2494E+01  0.5543E+03
      5.496  0.9681E+00  0.5544E+03
      5.539  0.3336E+00  0.5544E+03
      5.582  0.1020E+00  0.5544E+03
      5.625  0.2768E-01  0.5544E+03
      5.667  0.6658E-02  0.5544E+03
      5.710  0.1418E-02  0.5544E+03
      5.753  0.2667E-03  0.5544E+03
      5.796  0.4415E-04  0.5544E+03
      5.839  0.6409E-05  0.5544E+03
      5.881  0.8123E-06  0.5544E+03
      5.924  0.8951E-07  0.5544E+03
      5.967  0.8545E-08  0.5544E+03
      6.010  0.7043E-09  0.5544E+03
      6.053  0.4998E-10  0.5544E+03
      6.096  0.3045E-11  0.5544E+03
      6.138  0.1586E-12  0.5544E+03
      6.181  0.6872E-14  0.5544E+03
      6.224  0.2593E-15  0.5544E+03
      6.267  0.0000E+00  0.5544E+03
      6.310  0.0000E+00  0.5544E+03
      6.352  0.0000E+00  0.5544E+03
      6.395  0.0000E+00  0.5544E+03
      6.438  0.0000E+00  0.5544E+03
      6.481  0.0000E+00  0.5544E+03
      6.524  0.0000E+00  0.5544E+03
      6.566  0.0000E+00  0.5544E+03
      6.609  0.0000E+00  0.5544E+03
      6.652  0.0000E+00  0.5544E+03
      6.695  0.0000E+00  0.5544E+03
      6.738  0.0000E+00  0.5544E+03
      6.781  0.0000E+00  0.5544E+03
      6.823  0.0000E+00  0.5544E+03
