<?xml version="1.0" encoding="ISO-8859-1"?>
<modeling>
 <generator>
  <i name="program" type="string">vasp </i>
  <i name="version" type="string">5.4.4.18Apr17-6-g9f103f2a35  </i>
  <i name="subversion" type="string">(build Sep 27 2018 12:46:37) complex + VL-xray_ parallel </i>
  <i name="platform" type="string">LLNL_Quartz_ifc </i>
  <i name="date" type="string">2021 09 26 </i>
  <i name="time" type="string">17:59:29 </i>
 </generator>
 <incar>
  <i type="int" name="ISTART">     2</i>
  <i type="string" name="PREC">accurate</i>
  <i type="string" name="ALGO"> Fast</i>
  <i type="int" name="ICHARG">     2</i>
  <i type="int" name="INIWAV">     1</i>
  <i type="int" name="NELM">   200</i>
  <i type="int" name="NELMIN">     4</i>
  <i type="int" name="IBRION">     2</i>
  <i name="EDIFF">      0.00000100</i>
  <i type="int" name="NSW">     5</i>
  <i type="int" name="ISIF">     2</i>
  <i type="int" name="ISYM">     2</i>
  <i name="ENCUT">    450.00000000</i>
  <i name="POTIM">      0.25000000</i>
  <i type="string" name="LREAL"> Auto</i>
  <i type="int" name="ISMEAR">     0</i>
  <i name="SIGMA">      0.15000000</i>
  <i type="logical" name="LWAVE"> F  </i>
  <i type="logical" name="LCHARG"> F  </i>
  <i type="int" name="ICORELEVEL">     0</i>
  <i type="int" name="CLNT">     1</i>
  <i type="int" name="CLN">     1</i>
  <i type="int" name="INCAR     ">     0</i>
  <i name="CLZ">      0.00000000</i>
  <v type="int" name="KPOINT_BSE">    -1     0     0     0</v>
  <i type="int" name="NELM">   200</i>
 </incar>
 <structure name="primitive_cell" >
  <crystal>
   <varray name="basis" >
    <v>       9.72667804       0.00000000       0.00000000 </v>
    <v>       0.00000000       8.42355028       0.00000000 </v>
    <v>       0.00000000       0.00000000      45.00000000 </v>
   </varray>
   <i name="volume">   3686.99226691 </i>
   <varray name="rec_basis" >
    <v>       0.10281002       0.00000000       0.00000000 </v>
    <v>       0.00000000       0.11871479       0.00000000 </v>
    <v>       0.00000000       0.00000000       0.02222222 </v>
   </varray>
  </crystal>
  <varray name="positions" >
   <v>       0.05339144      -0.29814620       0.21145749 </v>
   <v>      -0.06007086      -0.21174079       0.25544184 </v>
   <v>       0.06559461      -0.46206325       0.25536713 </v>
   <v>      -0.05886073      -0.38795604       0.16658464 </v>
   <v>      -0.07094288      -0.04896252       0.21132041 </v>
   <v>       0.17795679      -0.04864937       0.21143220 </v>
   <v>      -0.19650897      -0.29832194       0.21143780 </v>
   <v>       0.30339633      -0.29828117       0.21147075 </v>
   <v>      -0.07163370       0.45122330       0.21132823 </v>
   <v>       0.06635617      -0.13719074       0.16649617 </v>
   <v>       0.17881165       0.45093551       0.21130619 </v>
   <v>       0.18997270      -0.21172572       0.25546784 </v>
   <v>       0.19208824      -0.38724919       0.16677216 </v>
   <v>      -0.18509540      -0.46197019       0.25545399 </v>
   <v>      -0.18294240      -0.13854329       0.16583711 </v>
   <v>       0.06470979       0.03740189       0.25542241 </v>
   <v>       0.06632692       0.36262434       0.16659275 </v>
   <v>       0.31481382      -0.46235241       0.25552904 </v>
   <v>       0.31749444      -0.13831093       0.16603575 </v>
   <v>      -0.31001954      -0.21171597       0.25545512 </v>
   <v>      -0.30807933      -0.38760381       0.16653157 </v>
   <v>      -0.05863250       0.11147802       0.16666419 </v>
   <v>      -0.18487417       0.03763491       0.25516743 </v>
   <v>      -0.06001686       0.28824518       0.25545830 </v>
   <v>      -0.06797627      -0.22101665       0.12405753 </v>
   <v>       0.06021530      -0.46924972       0.12427981 </v>
   <v>       0.18442426      -0.22060126       0.12417401 </v>
   <v>      -0.18362787       0.36213724       0.16652335 </v>
   <v>       0.17780559      -0.37621320       0.29963405 </v>
   <v>      -0.07222745      -0.37630055       0.29967765 </v>
   <v>       0.05340740       0.20177810       0.21141960 </v>
   <v>      -0.32185710      -0.04872649       0.21136200 </v>
   <v>      -0.32119559       0.45096210       0.21129881 </v>
   <v>       0.42836483       0.45119860       0.21134163 </v>
   <v>       0.42920373      -0.04868980       0.21144371 </v>
   <v>       0.19146700       0.11214172       0.16682531 </v>
   <v>       0.18983395       0.28811131       0.25546753 </v>
   <v>       0.05270561      -0.12612730       0.29980497 </v>
   <v>       0.31519416       0.03770339       0.25544214 </v>
   <v>       0.43999682      -0.21176322       0.25544778 </v>
   <v>       0.31632853       0.36218895       0.16679461 </v>
   <v>       0.44111645      -0.38818464       0.16670585 </v>
   <v>      -0.18975847      -0.46868033       0.12411495 </v>
   <v>       0.06077396       0.03179688       0.12421886 </v>
   <v>       0.05261764       0.37387188       0.29974370 </v>
   <v>      -0.19633331       0.20156469       0.21137310 </v>
   <v>      -0.44650443      -0.29819954       0.21142082 </v>
   <v>       0.30359729       0.20160999       0.21141797 </v>
   <v>       0.30917272      -0.46882341       0.12417040 </v>
   <v>       0.30268666      -0.12611510       0.29979479 </v>
   <v>      -0.19734741      -0.12592841       0.29979774 </v>
   <v>      -0.43424013      -0.46226285       0.25539038 </v>
   <v>      -0.43371591      -0.13694579       0.16659889 </v>
   <v>      -0.30843727       0.11224136       0.16663188 </v>
   <v>      -0.31007942       0.28819474       0.25545321 </v>
   <v>      -0.18919860       0.03156597       0.12427272 </v>
   <v>      -0.31619035      -0.22119508       0.12413879 </v>
   <v>       0.30273817       0.37391682       0.29973352 </v>
   <v>       0.31053929       0.03087745       0.12430816 </v>
   <v>      -0.19717433       0.37368103       0.29965857 </v>
   <v>       0.43129670      -0.22108575       0.12416453 </v>
   <v>      -0.06620735       0.27948980       0.12410296 </v>
   <v>       0.42780547      -0.37620910       0.29970124 </v>
   <v>      -0.32211148      -0.37627336       0.29963288 </v>
   <v>       0.18298043       0.27866937       0.12411948 </v>
   <v>       0.17771044       0.12394418       0.29973905 </v>
   <v>      -0.07239694       0.12403632       0.29981872 </v>
   <v>       0.44132742       0.11185353       0.16674493 </v>
   <v>       0.44012728       0.28816583       0.25546251 </v>
   <v>      -0.43514066       0.03758784       0.25541381 </v>
   <v>      -0.43372983       0.36253925       0.16658125 </v>
   <v>       0.06539561      -0.29052300       0.34412880 </v>
   <v>      -0.44067524      -0.46974931       0.12432183 </v>
   <v>      -0.18462101      -0.29049940       0.34413057 </v>
   <v>      -0.31656159       0.27959957       0.12416059 </v>
   <v>      -0.05967711       0.45937231       0.34418769 </v>
   <v>      -0.44644172       0.20157946       0.21144534 </v>
   <v>      -0.44721431      -0.12623845       0.29986118 </v>
   <v>      -0.05964289      -0.04058095       0.34413322 </v>
   <v>       0.19030924       0.45933981       0.34418312 </v>
   <v>       0.42770824       0.12400597       0.29973721 </v>
   <v>       0.43182779       0.27861204       0.12416442 </v>
   <v>      -0.32213395       0.12408646       0.29978873 </v>
   <v>       0.31533090      -0.29049683       0.34415144 </v>
   <v>       0.19030091      -0.04062488       0.34418857 </v>
   <v>      -0.43988523       0.03183359       0.12426065 </v>
   <v>      -0.44739519       0.37405417       0.29978446 </v>
   <v>      -0.30978882       0.45933860       0.34417276 </v>
   <v>       0.06527432       0.20940096       0.34409804 </v>
   <v>      -0.30974378      -0.04067351       0.34417753 </v>
   <v>       0.44029822       0.45929297       0.34418175 </v>
   <v>       0.44031078      -0.04069658       0.34417562 </v>
   <v>      -0.43456371      -0.29038140       0.34411378 </v>
   <v>      -0.18472509       0.20938949       0.34409657 </v>
   <v>       0.31531962       0.20943645       0.34416876 </v>
   <v>       0.06207253      -0.45831663       0.38847256 </v>
   <v>      -0.06311701      -0.20839555       0.38851360 </v>
   <v>       0.18680523      -0.20856540       0.38844653 </v>
   <v>      -0.18815979      -0.45832938       0.38840910 </v>
   <v>       0.06208679       0.04186201       0.38857127 </v>
   <v>       0.31231628      -0.45820830       0.38864146 </v>
   <v>      -0.43462399       0.20950256       0.34411335 </v>
   <v>      -0.06274700       0.29201490       0.38862642 </v>
   <v>      -0.31297060      -0.20817561       0.38854102 </v>
   <v>       0.18706541       0.29182168       0.38848531 </v>
   <v>      -0.18777539       0.04190858       0.38857604 </v>
   <v>       0.43700223      -0.20822779       0.38850387 </v>
   <v>       0.31214599       0.04189219       0.38857915 </v>
   <v>      -0.31293431       0.29187123       0.38853345 </v>
   <v>      -0.43785769      -0.45819167       0.38854291 </v>
   <v>       0.43701907       0.29179323       0.38852667 </v>
   <v>      -0.43767698       0.04193747       0.38863779 </v>
   <v>      -0.06721891      -0.37485009       0.43324601 </v>
   <v>       0.18337220      -0.37501122       0.43311556 </v>
   <v>       0.05828264      -0.12506030       0.43311379 </v>
   <v>       0.05830765       0.37498073       0.43311711 </v>
   <v>      -0.19151494      -0.12501618       0.43310723 </v>
   <v>       0.30840594      -0.12487615       0.43310102 </v>
   <v>      -0.19150356       0.37508752       0.43309342 </v>
   <v>      -0.31652517      -0.37499446       0.43310388 </v>
   <v>       0.30841586       0.37488906       0.43306349 </v>
   <v>      -0.06655300       0.12497473       0.43311322 </v>
   <v>       0.43339858      -0.37500319       0.43310804 </v>
   <v>       0.18348551       0.12500697       0.43311491 </v>
   <v>      -0.44151827      -0.12497211       0.43310816 </v>
   <v>      -0.31662900       0.12495856       0.43308661 </v>
   <v>       0.43339497       0.12500153       0.43308997 </v>
   <v>      -0.44157131       0.37491901       0.43311082 </v>
   <v>       0.06797370      -0.28938246       0.47747720 </v>
   <v>      -0.18213256      -0.28926605       0.47743400 </v>
   <v>      -0.05707878       0.46074180       0.47744275 </v>
   <v>      -0.05717052      -0.03944226       0.47740644 </v>
   <v>       0.19263253       0.46069794       0.47746274 </v>
   <v>       0.31787681      -0.28941592       0.47739548 </v>
   <v>       0.19285577      -0.03931191       0.47748237 </v>
   <v>      -0.30707051       0.46067880       0.47744889 </v>
   <v>      -0.30720794      -0.03926320       0.47746102 </v>
   <v>       0.06794901       0.21064437       0.47746151 </v>
   <v>       0.44273808       0.46075328       0.47746881 </v>
   <v>       0.44279374      -0.03925846       0.47746539 </v>
   <v>      -0.43223487      -0.28946619       0.47745360 </v>
   <v>      -0.18187666       0.21073712       0.47753328 </v>
   <v>       0.31786953       0.21065567       0.47746842 </v>
   <v>      -0.43208476       0.21062097       0.47748000 </v>
   <v>       0.05739583      -0.46168965      -0.47765251 </v>
   <v>      -0.06753275      -0.21175572      -0.47765571 </v>
   <v>       0.18247991      -0.21148394      -0.47746951 </v>
   <v>      -0.19264598      -0.46166092      -0.47757015 </v>
   <v>       0.30739066      -0.46181054      -0.47762690 </v>
   <v>       0.05741678       0.03818916      -0.47761368 </v>
   <v>      -0.06764605       0.28823428      -0.47760578 </v>
   <v>      -0.31786976      -0.21163059      -0.47763723 </v>
   <v>       0.18240358       0.28828336      -0.47764081 </v>
   <v>      -0.19278271       0.03832068      -0.47756626 </v>
   <v>       0.30718158       0.03822630      -0.47767461 </v>
   <v>       0.43231460      -0.21174945      -0.47764071 </v>
   <v>      -0.31757210       0.28820899      -0.47767768 </v>
   <v>      -0.44264042      -0.46169146      -0.47763926 </v>
   <v>       0.43243168       0.28819591      -0.47767103 </v>
   <v>      -0.44261477       0.03823864      -0.47765374 </v>
   <v>       0.06807504      -0.27694653      -0.12387600 </v>
   <v>      -0.18276151      -0.27683785      -0.12388963 </v>
   <v>      -0.06065583       0.46776570      -0.12411230 </v>
   <v>       0.18943386       0.46743448      -0.12410745 </v>
   <v>      -0.06058056      -0.03228383      -0.12399279 </v>
   <v>       0.31827247      -0.27623558      -0.12383315 </v>
   <v>       0.18954651      -0.03255335      -0.12395191 </v>
   <v>       0.06790061       0.22284343      -0.12389747 </v>
   <v>      -0.31053803       0.46747938      -0.12409791 </v>
   <v>      -0.31020513      -0.03167412      -0.12394830 </v>
   <v>       0.43943229       0.46743455      -0.12415385 </v>
   <v>       0.43966443      -0.03224339      -0.12395931 </v>
   <v>      -0.18270078       0.22339849      -0.12389594 </v>
   <v>      -0.43237507      -0.27580121      -0.12392040 </v>
   <v>       0.31768581       0.22319875      -0.12393471 </v>
   <v>      -0.05846140      -0.37494945      -0.43312914 </v>
   <v>       0.06676628      -0.12507368      -0.43322062 </v>
   <v>       0.19159721      -0.37503830      -0.43310630 </v>
   <v>      -0.18308660      -0.12493597      -0.43324534 </v>
   <v>       0.06663905       0.37471473      -0.43317962 </v>
   <v>       0.31687323      -0.12568083      -0.43322958 </v>
   <v>      -0.43190177       0.22390535      -0.12391520 </v>
   <v>      -0.30817981      -0.37520499      -0.43321905 </v>
   <v>      -0.18334210       0.37500207      -0.43311245 </v>
   <v>      -0.05821869       0.12497906      -0.43327241 </v>
   <v>       0.31649631       0.37482683      -0.43315787 </v>
   <v>       0.44204300      -0.37515171      -0.43326967 </v>
   <v>       0.19162142       0.12505922      -0.43312874 </v>
   <v>      -0.43300137      -0.12516163      -0.43330070 </v>
   <v>      -0.30829814       0.12497537      -0.43319973 </v>
   <v>       0.44166204       0.12496662      -0.43311009 </v>
   <v>      -0.43337803       0.37500192      -0.43312955 </v>
   <v>      -0.06633875      -0.36257404      -0.16636090 </v>
   <v>       0.18332680      -0.36246325      -0.16649624 </v>
   <v>       0.05858549      -0.11226206      -0.16654872 </v>
   <v>       0.05859210       0.38800065      -0.16653128 </v>
   <v>      -0.19148927      -0.11230451      -0.16647436 </v>
   <v>       0.30850508      -0.11237504      -0.16649114 </v>
   <v>      -0.19160094       0.38769459      -0.16650114 </v>
   <v>       0.30832371       0.38750133      -0.16651644 </v>
   <v>      -0.31640597      -0.36220085      -0.16650559 </v>
   <v>       0.43358171      -0.36210079      -0.16649631 </v>
   <v>      -0.06635948       0.13750534      -0.16648847 </v>
   <v>       0.18365704       0.13761803      -0.16646825 </v>
   <v>      -0.44132159      -0.11259839      -0.16650982 </v>
   <v>      -0.31666372       0.13761263      -0.16649952 </v>
   <v>       0.43363362       0.13780300      -0.16650715 </v>
   <v>      -0.44138961       0.38776104      -0.16681532 </v>
   <v>       0.06270396      -0.29209645      -0.38864210 </v>
   <v>      -0.18706515      -0.29200303      -0.38864090 </v>
   <v>      -0.06232786       0.45814663      -0.38859096 </v>
   <v>      -0.06235095      -0.04203084      -0.38866599 </v>
   <v>       0.18774503       0.45813035      -0.38863750 </v>
   <v>       0.31261431      -0.29187574      -0.38863437 </v>
   <v>       0.18771459      -0.04180234      -0.38863672 </v>
   <v>      -0.31231812       0.45812192      -0.38876665 </v>
   <v>      -0.31234570      -0.04182639      -0.38872236 </v>
   <v>       0.06268838       0.20799161      -0.38869118 </v>
   <v>       0.43772425       0.45803358      -0.38871130 </v>
   <v>       0.43776032      -0.04185351      -0.38863465 </v>
   <v>      -0.18728474       0.20810270      -0.38864185 </v>
   <v>      -0.43711880      -0.29172946      -0.38847192 </v>
   <v>       0.31269732       0.20798330      -0.38873032 </v>
   <v>      -0.05414129      -0.20092307      -0.21125175 </v>
   <v>       0.07161264      -0.45093049      -0.21133984 </v>
   <v>      -0.43742891       0.20818460      -0.38879477 </v>
   <v>       0.19575712      -0.20115565      -0.21128492 </v>
   <v>      -0.17892491      -0.45117642      -0.21114513 </v>
   <v>       0.32036580      -0.45055152      -0.21117340 </v>
   <v>       0.07106422       0.04881940      -0.21118297 </v>
   <v>      -0.30428450      -0.20114549      -0.21126193 </v>
   <v>      -0.05352892       0.29812144      -0.21143235 </v>
   <v>      -0.17956989       0.04917515      -0.21112510 </v>
   <v>       0.19612870       0.29834290      -0.21139840 </v>
   <v>       0.44571474      -0.20114195      -0.21126497 </v>
   <v>       0.32096224       0.04921190      -0.21123745 </v>
   <v>      -0.42955866      -0.45085562      -0.21111342 </v>
   <v>      -0.30373977       0.29852259      -0.21127447 </v>
   <v>       0.44501482       0.29867247      -0.21123887 </v>
   <v>      -0.42981427       0.04954534      -0.21128795 </v>
   <v>       0.05972861      -0.45935161      -0.34417505 </v>
   <v>      -0.06536255      -0.20922416      -0.34418436 </v>
   <v>       0.18474277      -0.20936450      -0.34420320 </v>
   <v>      -0.19038369      -0.45886530      -0.34428756 </v>
   <v>       0.30963327      -0.45920234      -0.34419880 </v>
   <v>       0.05964597       0.04049272      -0.34413054 </v>
   <v>      -0.06533242       0.29092046      -0.34423374 </v>
   <v>      -0.31536244      -0.20923389      -0.34423093 </v>
   <v>       0.18464488       0.29071615      -0.34419447 </v>
   <v>      -0.19025872       0.04059214      -0.34421244 </v>
   <v>       0.43430511      -0.20894402      -0.34431697 </v>
   <v>       0.30969049       0.04073946      -0.34426832 </v>
   <v>      -0.44020266      -0.45851895      -0.34428869 </v>
   <v>      -0.31528747       0.29076866      -0.34418121 </v>
   <v>       0.43485027       0.29058972      -0.34410759 </v>
   <v>      -0.44029678       0.04085271      -0.34424175 </v>
   <v>       0.05997775      -0.28796367      -0.25511663 </v>
   <v>      -0.06542166       0.46252528      -0.25505821 </v>
   <v>      -0.18872561      -0.28868164      -0.25538006 </v>
   <v>       0.18560375       0.46214749      -0.25537897 </v>
   <v>       0.31073198      -0.28851018      -0.25539984 </v>
   <v>      -0.06549923      -0.03846394      -0.25559278 </v>
   <v>       0.18523763      -0.03791918      -0.25564925 </v>
   <v>      -0.31548958       0.46237539      -0.25505968 </v>
   <v>       0.06041657       0.21229296      -0.25517671 </v>
   <v>      -0.31498467      -0.03743717      -0.25542945 </v>
   <v>       0.43569725       0.46242137      -0.25553274 </v>
   <v>       0.43482281      -0.03811181      -0.25543500 </v>
   <v>      -0.18907924       0.21200677      -0.25551924 </v>
   <v>      -0.43898436      -0.28818725      -0.25545478 </v>
   <v>       0.31099248       0.21152331      -0.25534883 </v>
   <v>      -0.43953601       0.21150612      -0.25561475 </v>
   <v>      -0.05324089      -0.37353266      -0.29959804 </v>
   <v>       0.19700731      -0.37423579      -0.29994138 </v>
   <v>       0.07235401      -0.12373262      -0.29985367 </v>
   <v>      -0.17796427      -0.12392137      -0.29980744 </v>
   <v>       0.07211210       0.37629541      -0.29967314 </v>
   <v>       0.32209799      -0.12357164      -0.29961841 </v>
   <v>      -0.17803959       0.37623364      -0.29992811 </v>
   <v>      -0.30327164      -0.37357128      -0.29959550 </v>
   <v>      -0.05318240       0.12669163      -0.29964773 </v>
   <v>       0.32218470       0.37631954      -0.29987569 </v>
   <v>       0.19694733       0.12604055      -0.29982272 </v>
   <v>       0.44723455      -0.37375186      -0.29987282 </v>
   <v>      -0.42728918      -0.12270933      -0.29953772 </v>
   <v>      -0.30247461       0.12654129      -0.29977346 </v>
   <v>       0.44726500       0.12610412      -0.29985991 </v>
   <v>      -0.42783298       0.37624372      -0.29978079 </v>
  </varray>
 </structure>
 <varray name="primitive_index" >
  <v type="int" >        1 </v>
  <v type="int" >      238 </v>
  <v type="int" >      220 </v>
  <v type="int" >      193 </v>
  <v type="int" >       71 </v>
  <v type="int" >      109 </v>
  <v type="int" >       81 </v>
  <v type="int" >      192 </v>
  <v type="int" >      242 </v>
  <v type="int" >      208 </v>
  <v type="int" >       10 </v>
  <v type="int" >       89 </v>
  <v type="int" >       35 </v>
  <v type="int" >      227 </v>
  <v type="int" >      285 </v>
  <v type="int" >      263 </v>
  <v type="int" >       55 </v>
  <v type="int" >      243 </v>
  <v type="int" >      283 </v>
  <v type="int" >      128 </v>
  <v type="int" >      117 </v>
  <v type="int" >      158 </v>
  <v type="int" >      222 </v>
  <v type="int" >      252 </v>
  <v type="int" >      155 </v>
  <v type="int" >       22 </v>
  <v type="int" >      262 </v>
  <v type="int" >      183 </v>
  <v type="int" >      162 </v>
  <v type="int" >       38 </v>
  <v type="int" >      160 </v>
  <v type="int" >      161 </v>
  <v type="int" >      205 </v>
  <v type="int" >       28 </v>
  <v type="int" >       15 </v>
  <v type="int" >      126 </v>
  <v type="int" >       45 </v>
  <v type="int" >      147 </v>
  <v type="int" >      278 </v>
  <v type="int" >      226 </v>
  <v type="int" >      138 </v>
  <v type="int" >      265 </v>
  <v type="int" >       14 </v>
  <v type="int" >       48 </v>
  <v type="int" >       26 </v>
  <v type="int" >       70 </v>
  <v type="int" >      251 </v>
  <v type="int" >       61 </v>
  <v type="int" >      197 </v>
  <v type="int" >      108 </v>
  <v type="int" >      277 </v>
  <v type="int" >       33 </v>
  <v type="int" >      191 </v>
  <v type="int" >       90 </v>
  <v type="int" >      203 </v>
  <v type="int" >       99 </v>
  <v type="int" >       25 </v>
  <v type="int" >       52 </v>
  <v type="int" >       23 </v>
  <v type="int" >      104 </v>
  <v type="int" >       83 </v>
  <v type="int" >      133 </v>
  <v type="int" >      100 </v>
  <v type="int" >      144 </v>
  <v type="int" >      189 </v>
  <v type="int" >      142 </v>
  <v type="int" >      145 </v>
  <v type="int" >      143 </v>
  <v type="int" >        5 </v>
  <v type="int" >      261 </v>
  <v type="int" >      122 </v>
  <v type="int" >      112 </v>
  <v type="int" >       43 </v>
  <v type="int" >      118 </v>
  <v type="int" >      267 </v>
  <v type="int" >      190 </v>
  <v type="int" >       63 </v>
  <v type="int" >      255 </v>
  <v type="int" >       92 </v>
  <v type="int" >      120 </v>
  <v type="int" >      169 </v>
  <v type="int" >      279 </v>
  <v type="int" >      170 </v>
  <v type="int" >      257 </v>
  <v type="int" >      254 </v>
  <v type="int" >      214 </v>
  <v type="int" >      124 </v>
  <v type="int" >       34 </v>
  <v type="int" >      153 </v>
  <v type="int" >       24 </v>
  <v type="int" >       95 </v>
  <v type="int" >      236 </v>
  <v type="int" >      123 </v>
  <v type="int" >      172 </v>
  <v type="int" >      258 </v>
  <v type="int" >      247 </v>
  <v type="int" >      198 </v>
  <v type="int" >      229 </v>
  <v type="int" >       86 </v>
  <v type="int" >      246 </v>
  <v type="int" >       57 </v>
  <v type="int" >       50 </v>
  <v type="int" >      273 </v>
  <v type="int" >      156 </v>
  <v type="int" >      105 </v>
  <v type="int" >       17 </v>
  <v type="int" >       79 </v>
  <v type="int" >      134 </v>
  <v type="int" >      232 </v>
  <v type="int" >      171 </v>
  <v type="int" >      248 </v>
  <v type="int" >      244 </v>
  <v type="int" >      282 </v>
  <v type="int" >      168 </v>
  <v type="int" >      211 </v>
  <v type="int" >      256 </v>
  <v type="int" >       46 </v>
  <v type="int" >      240 </v>
  <v type="int" >       29 </v>
  <v type="int" >       94 </v>
  <v type="int" >      215 </v>
  <v type="int" >       32 </v>
  <v type="int" >      281 </v>
  <v type="int" >      223 </v>
  <v type="int" >      239 </v>
  <v type="int" >      115 </v>
  <v type="int" >      184 </v>
  <v type="int" >      136 </v>
  <v type="int" >       62 </v>
  <v type="int" >      268 </v>
  <v type="int" >      166 </v>
  <v type="int" >      179 </v>
  <v type="int" >      132 </v>
  <v type="int" >      217 </v>
  <v type="int" >      176 </v>
  <v type="int" >      249 </v>
  <v type="int" >       91 </v>
  <v type="int" >      185 </v>
  <v type="int" >       19 </v>
  <v type="int" >      130 </v>
  <v type="int" >      207 </v>
  <v type="int" >      206 </v>
  <v type="int" >      175 </v>
  <v type="int" >       11 </v>
  <v type="int" >      178 </v>
  <v type="int" >      116 </v>
  <v type="int" >      107 </v>
  <v type="int" >      241 </v>
  <v type="int" >      230 </v>
  <v type="int" >      218 </v>
  <v type="int" >      209 </v>
  <v type="int" >       18 </v>
  <v type="int" >      225 </v>
  <v type="int" >       93 </v>
  <v type="int" >      266 </v>
  <v type="int" >      187 </v>
  <v type="int" >       87 </v>
  <v type="int" >      141 </v>
  <v type="int" >      111 </v>
  <v type="int" >      181 </v>
  <v type="int" >       58 </v>
  <v type="int" >      101 </v>
  <v type="int" >      151 </v>
  <v type="int" >      125 </v>
  <v type="int" >      274 </v>
  <v type="int" >        2 </v>
  <v type="int" >      154 </v>
  <v type="int" >      212 </v>
  <v type="int" >       27 </v>
  <v type="int" >      234 </v>
  <v type="int" >      173 </v>
  <v type="int" >       97 </v>
  <v type="int" >       41 </v>
  <v type="int" >      131 </v>
  <v type="int" >       39 </v>
  <v type="int" >       72 </v>
  <v type="int" >       12 </v>
  <v type="int" >      148 </v>
  <v type="int" >      276 </v>
  <v type="int" >      250 </v>
  <v type="int" >       40 </v>
  <v type="int" >       13 </v>
  <v type="int" >      264 </v>
  <v type="int" >      146 </v>
  <v type="int" >      259 </v>
  <v type="int" >      216 </v>
  <v type="int" >       21 </v>
  <v type="int" >      233 </v>
  <v type="int" >       98 </v>
  <v type="int" >      235 </v>
  <v type="int" >       68 </v>
  <v type="int" >       16 </v>
  <v type="int" >       59 </v>
  <v type="int" >       66 </v>
  <v type="int" >      177 </v>
  <v type="int" >        6 </v>
  <v type="int" >       75 </v>
  <v type="int" >        7 </v>
  <v type="int" >       73 </v>
  <v type="int" >      150 </v>
  <v type="int" >      271 </v>
  <v type="int" >      152 </v>
  <v type="int" >      129 </v>
  <v type="int" >      188 </v>
  <v type="int" >      174 </v>
  <v type="int" >      221 </v>
  <v type="int" >      269 </v>
  <v type="int" >      103 </v>
  <v type="int" >      180 </v>
  <v type="int" >       82 </v>
  <v type="int" >      245 </v>
  <v type="int" >      201 </v>
  <v type="int" >      194 </v>
  <v type="int" >      280 </v>
  <v type="int" >       51 </v>
  <v type="int" >      102 </v>
  <v type="int" >        3 </v>
  <v type="int" >      228 </v>
  <v type="int" >        4 </v>
  <v type="int" >      260 </v>
  <v type="int" >      167 </v>
  <v type="int" >       30 </v>
  <v type="int" >       77 </v>
  <v type="int" >      149 </v>
  <v type="int" >      284 </v>
  <v type="int" >      275 </v>
  <v type="int" >       36 </v>
  <v type="int" >      106 </v>
  <v type="int" >       60 </v>
  <v type="int" >       67 </v>
  <v type="int" >       88 </v>
  <v type="int" >      199 </v>
  <v type="int" >      253 </v>
  <v type="int" >       54 </v>
  <v type="int" >      114 </v>
  <v type="int" >       85 </v>
  <v type="int" >      121 </v>
  <v type="int" >      182 </v>
  <v type="int" >      127 </v>
  <v type="int" >       44 </v>
  <v type="int" >      196 </v>
  <v type="int" >      157 </v>
  <v type="int" >      113 </v>
  <v type="int" >       42 </v>
  <v type="int" >       49 </v>
  <v type="int" >      135 </v>
  <v type="int" >       69 </v>
  <v type="int" >      210 </v>
  <v type="int" >      200 </v>
  <v type="int" >      213 </v>
  <v type="int" >       53 </v>
  <v type="int" >      186 </v>
  <v type="int" >       31 </v>
  <v type="int" >       76 </v>
  <v type="int" >      159 </v>
  <v type="int" >      140 </v>
  <v type="int" >      204 </v>
  <v type="int" >      119 </v>
  <v type="int" >      202 </v>
  <v type="int" >      110 </v>
  <v type="int" >       84 </v>
  <v type="int" >      287 </v>
  <v type="int" >      237 </v>
  <v type="int" >      137 </v>
  <v type="int" >        9 </v>
  <v type="int" >       80 </v>
  <v type="int" >       78 </v>
  <v type="int" >       20 </v>
  <v type="int" >       96 </v>
  <v type="int" >      272 </v>
  <v type="int" >       64 </v>
  <v type="int" >      286 </v>
  <v type="int" >      164 </v>
  <v type="int" >       74 </v>
  <v type="int" >      195 </v>
  <v type="int" >      163 </v>
  <v type="int" >       65 </v>
  <v type="int" >      219 </v>
  <v type="int" >      231 </v>
  <v type="int" >       56 </v>
  <v type="int" >      139 </v>
  <v type="int" >      270 </v>
  <v type="int" >      165 </v>
  <v type="int" >        8 </v>
  <v type="int" >      288 </v>
  <v type="int" >      224 </v>
  <v type="int" >       37 </v>
  <v type="int" >       47 </v>
 </varray>
 <kpoints>
  <generation param="Gamma">
   <v type="int" name="divisions">       4        4        1 </v>
   <v name="usershift">      0.00000000       0.00000000       0.00000000 </v>
   <v name="genvec1">      0.25000000       0.00000000       0.00000000 </v>
   <v name="genvec2">      0.00000000       0.25000000       0.00000000 </v>
   <v name="genvec3">      0.00000000       0.00000000       1.00000000 </v>
   <v name="shift">      0.00000000       0.00000000       0.00000000 </v>
  </generation>
  <varray name="kpointlist" >
   <v>       0.00000000       0.00000000       0.00000000 </v>
   <v>       0.25000000       0.00000000       0.00000000 </v>
   <v>       0.50000000       0.00000000       0.00000000 </v>
   <v>       0.00000000       0.25000000       0.00000000 </v>
   <v>       0.25000000       0.25000000       0.00000000 </v>
   <v>       0.50000000       0.25000000       0.00000000 </v>
   <v>      -0.25000000       0.25000000       0.00000000 </v>
   <v>       0.00000000       0.50000000       0.00000000 </v>
   <v>       0.25000000       0.50000000       0.00000000 </v>
   <v>       0.50000000       0.50000000       0.00000000 </v>
  </varray>
  <varray name="weights" >
   <v>       0.06250000 </v>
   <v>       0.12500000 </v>
   <v>       0.06250000 </v>
   <v>       0.12500000 </v>
   <v>       0.12500000 </v>
   <v>       0.12500000 </v>
   <v>       0.12500000 </v>
   <v>       0.06250000 </v>
   <v>       0.12500000 </v>
   <v>       0.06250000 </v>
  </varray>
 </kpoints>
 <parameters>
  <separator name="general" >
   <i type="string" name="SYSTEM">unknown system</i>
   <i type="logical" name="LCOMPAT"> F  </i>
  </separator>
  <separator name="electronic" >
   <i type="string" name="PREC">accura</i>
   <i name="ENMAX">    450.00000000</i>
   <i name="ENAUG">    838.43500000</i>
   <i name="EDIFF">      0.00000100</i>
   <i type="int" name="IALGO">    68</i>
   <i type="int" name="IWAVPR">    11</i>
   <i type="int" name="NBANDS">  1386</i>
   <i name="NELECT">   2297.00000000</i>
   <i type="int" name="TURBO">     0</i>
   <i type="int" name="IRESTART">     0</i>
   <i type="int" name="NREBOOT">     0</i>
   <i type="int" name="NMIN">     0</i>
   <i name="EREF">      0.00000000</i>
   <separator name="electronic smearing" >
    <i type="int" name="ISMEAR">     0</i>
    <i name="SIGMA">      0.15000000</i>
    <i name="KSPACING">      0.50000000</i>
    <i type="logical" name="KGAMMA"> T  </i>
   </separator>
   <separator name="electronic projectors" >
    <i type="logical" name="LREAL"> T  </i>
    <v name="ROPT">     -0.00025000     -0.00025000</v>
    <i type="int" name="LMAXPAW">  -100</i>
    <i type="int" name="LMAXMIX">     2</i>
    <i type="logical" name="NLSPLINE"> F  </i>
   </separator>
   <separator name="electronic startup" >
    <i type="int" name="ISTART">     0</i>
    <i type="int" name="ICHARG">     2</i>
    <i type="int" name="INIWAV">     1</i>
   </separator>
   <separator name="electronic spin" >
    <i type="int" name="ISPIN">     1</i>
    <i type="logical" name="LNONCOLLINEAR"> F  </i>
    <v name="MAGMOM">      1.00000000      1.00000000      1.00000000      1.00000000      1.00000000      1.00000000      1.00000000      1.00000000      1.00000000      1.00000000      1.00000000      1.00000000      1.00000000      1.00000000      1.00000000      1.00000000      1.00000000      1.00000000      1.00000000      1.00000000
      1.00000000      1.00000000      1.00000000      1.00000000      1.00000000      1.00000000      1.00000000      1.00000000      1.00000000      1.00000000      1.00000000      1.00000000      1.00000000      1.00000000      1.00000000      1.00000000      1.00000000      1.00000000      1.00000000      1.00000000
      1.00000000      1.00000000      1.00000000      1.00000000      1.00000000      1.00000000      1.00000000      1.00000000      1.00000000      1.00000000      1.00000000      1.00000000      1.00000000      1.00000000      1.00000000      1.00000000      1.00000000      1.00000000      1.00000000      1.00000000
      1.00000000      1.00000000      1.00000000      1.00000000      1.00000000      1.00000000      1.00000000      1.00000000      1.00000000      1.00000000      1.00000000      1.00000000      1.00000000      1.00000000      1.00000000      1.00000000      1.00000000      1.00000000      1.00000000      1.00000000
      1.00000000      1.00000000      1.00000000      1.00000000      1.00000000      1.00000000      1.00000000      1.00000000      1.00000000      1.00000000      1.00000000      1.00000000      1.00000000      1.00000000      1.00000000      1.00000000      1.00000000      1.00000000      1.00000000      1.00000000
      1.00000000      1.00000000      1.00000000      1.00000000      1.00000000      1.00000000      1.00000000      1.00000000      1.00000000      1.00000000      1.00000000      1.00000000      1.00000000      1.00000000      1.00000000      1.00000000      1.00000000      1.00000000      1.00000000      1.00000000
      1.00000000      1.00000000      1.00000000      1.00000000      1.00000000      1.00000000      1.00000000      1.00000000      1.00000000      1.00000000      1.00000000      1.00000000      1.00000000      1.00000000      1.00000000      1.00000000      1.00000000      1.00000000      1.00000000      1.00000000
      1.00000000      1.00000000      1.00000000      1.00000000      1.00000000      1.00000000      1.00000000      1.00000000      1.00000000      1.00000000      1.00000000      1.00000000      1.00000000      1.00000000      1.00000000      1.00000000      1.00000000      1.00000000      1.00000000      1.00000000
      1.00000000      1.00000000      1.00000000      1.00000000      1.00000000      1.00000000      1.00000000      1.00000000      1.00000000      1.00000000      1.00000000      1.00000000      1.00000000      1.00000000      1.00000000      1.00000000      1.00000000      1.00000000      1.00000000      1.00000000
      1.00000000      1.00000000      1.00000000      1.00000000      1.00000000      1.00000000      1.00000000      1.00000000      1.00000000      1.00000000      1.00000000      1.00000000      1.00000000      1.00000000      1.00000000      1.00000000      1.00000000      1.00000000      1.00000000      1.00000000
      1.00000000      1.00000000      1.00000000      1.00000000      1.00000000      1.00000000      1.00000000      1.00000000      1.00000000      1.00000000      1.00000000      1.00000000      1.00000000      1.00000000      1.00000000      1.00000000      1.00000000      1.00000000      1.00000000      1.00000000
      1.00000000      1.00000000      1.00000000      1.00000000      1.00000000      1.00000000      1.00000000      1.00000000      1.00000000      1.00000000      1.00000000      1.00000000      1.00000000      1.00000000      1.00000000      1.00000000      1.00000000      1.00000000      1.00000000      1.00000000
      1.00000000      1.00000000      1.00000000      1.00000000      1.00000000      1.00000000      1.00000000      1.00000000      1.00000000      1.00000000      1.00000000      1.00000000      1.00000000      1.00000000      1.00000000      1.00000000      1.00000000      1.00000000      1.00000000      1.00000000
      1.00000000      1.00000000      1.00000000      1.00000000      1.00000000      1.00000000      1.00000000      1.00000000      1.00000000      1.00000000      1.00000000      1.00000000      1.00000000      1.00000000      1.00000000      1.00000000      1.00000000      1.00000000      1.00000000      1.00000000
      1.00000000      1.00000000      1.00000000      1.00000000      1.00000000      1.00000000      1.00000000      1.00000000</v>
    <i name="NUPDOWN">     -1.00000000</i>
    <i type="logical" name="LSORBIT"> F  </i>
    <v name="SAXIS">      0.00000000      0.00000000      1.00000000</v>
    <i type="logical" name="LSPIRAL"> F  </i>
    <v name="QSPIRAL">      0.00000000      0.00000000      0.00000000</v>
    <i type="logical" name="LZEROZ"> F  </i>
   </separator>
   <separator name="electronic exchange-correlation" >
    <i type="logical" name="LASPH"> F  </i>
    <i type="logical" name="LMETAGGA"> F  </i>
   </separator>
   <separator name="electronic convergence" >
    <i type="int" name="NELM">   200</i>
    <i type="int" name="NELMDL">     0</i>
    <i type="int" name="NELMIN">     4</i>
    <i name="ENINI">    450.00000000</i>
    <separator name="electronic convergence detail" >
     <i type="logical" name="LDIAG"> T  </i>
     <i type="logical" name="LSUBROT"> F  </i>
     <i name="WEIMIN">      0.00100000</i>
     <i name="EBREAK">      0.00000000</i>
     <i name="DEPER">      0.30000000</i>
     <i type="int" name="NRMM">     4</i>
     <i name="TIME">      0.40000000</i>
    </separator>
   </separator>
   <separator name="electronic mixer" >
    <i name="AMIX">      0.40000000</i>
    <i name="BMIX">      1.00000000</i>
    <i name="AMIN">      0.10000000</i>
    <i name="AMIX_MAG">      1.60000000</i>
    <i name="BMIX_MAG">      1.00000000</i>
    <separator name="electronic mixer details" >
     <i type="int" name="IMIX">     4</i>
     <i type="logical" name="MIXFIRST"> F  </i>
     <i type="int" name="MAXMIX">   -45</i>
     <i name="WC">    100.00000000</i>
     <i type="int" name="INIMIX">     1</i>
     <i type="int" name="MIXPRE">     1</i>
     <i type="int" name="MREMOVE">     5</i>
    </separator>
   </separator>
   <separator name="electronic dipolcorrection" >
    <i type="logical" name="LDIPOL"> F  </i>
    <i type="logical" name="LMONO"> F  </i>
    <i type="int" name="IDIPOL">     0</i>
    <i name="EPSILON">      1.00000000</i>
    <v name="DIPOL">   -100.00000000   -100.00000000   -100.00000000</v>
    <i name="EFIELD">      0.00000000</i>
   </separator>
  </separator>
  <separator name="grids" >
   <i type="int" name="NGX">    70</i>
   <i type="int" name="NGY">    60</i>
   <i type="int" name="NGZ">   320</i>
   <i type="int" name="NGXF">   140</i>
   <i type="int" name="NGYF">   120</i>
   <i type="int" name="NGZF">   640</i>
   <i type="logical" name="ADDGRID"> F  </i>
  </separator>
  <separator name="ionic" >
   <i type="int" name="NSW">     5</i>
   <i type="int" name="IBRION">     2</i>
   <i type="int" name="MDALGO">     0</i>
   <i type="int" name="ISIF">     2</i>
   <i name="PSTRESS">      0.00000000</i>
   <i name="EDIFFG">      0.00001000</i>
   <i type="int" name="NFREE">     1</i>
   <i name="POTIM">      0.25000000</i>
   <i name="SMASS">     -3.00000000</i>
   <i name="SCALEE">      1.00000000</i>
  </separator>
  <separator name="ionic md" >
   <i name="TEBEG">      0.00010000</i>
   <i name="TEEND">      0.00010000</i>
   <i type="int" name="NBLOCK">     1</i>
   <i type="int" name="KBLOCK">     5</i>
   <i type="int" name="NPACO">   256</i>
   <i name="APACO">     16.00000000</i>
  </separator>
  <separator name="symmetry" >
   <i type="int" name="ISYM">     2</i>
   <i name="SYMPREC">      0.00001000</i>
  </separator>
  <separator name="dos" >
   <i type="int" name="LORBIT">     0</i>
   <v name="RWIGS">     -1.00000000     -1.00000000</v>
   <i type="int" name="NEDOS">   301</i>
   <i name="EMIN">     10.00000000</i>
   <i name="EMAX">    -10.00000000</i>
   <i name="EFERMI">      0.00000000</i>
  </separator>
  <separator name="writing" >
   <i type="int" name="NWRITE">     2</i>
   <i type="logical" name="LWAVE"> F  </i>
   <i type="logical" name="LDOWNSAMPLE"> F  </i>
   <i type="logical" name="LCHARG"> F  </i>
   <i type="logical" name="LPARD"> F  </i>
   <i type="logical" name="LVTOT"> F  </i>
   <i type="logical" name="LVHAR"> F  </i>
   <i type="logical" name="LELF"> F  </i>
   <i type="logical" name="LOPTICS"> F  </i>
   <v name="STM">      0.00000000      0.00000000      0.00000000      0.00000000      0.00000000      0.00000000      0.00000000</v>
  </separator>
  <separator name="performance" >
   <i type="int" name="NPAR">    14</i>
   <i type="int" name="NSIM">     4</i>
   <i type="int" name="NBLK">    -1</i>
   <i type="logical" name="LPLANE"> T  </i>
   <i type="logical" name="LSCALAPACK"> T  </i>
   <i type="logical" name="LSCAAWARE"> T  </i>
   <i type="logical" name="LSCALU"> F  </i>
   <i type="logical" name="LASYNC"> F  </i>
   <i type="logical" name="LORBITALREAL"> F  </i>
  </separator>
  <separator name="miscellaneous" >
   <i type="int" name="IDIOT">     3</i>
   <i type="int" name="ISPECIAL">     0</i>
   <i type="logical" name="LMUSIC"> F  </i>
   <v name="POMASS">     55.84700000     54.93800000</v>
   <v name="DARWINR">      0.00000000      0.00000000</v>
   <v name="DARWINV">      1.00000000      1.00000000</v>
   <i type="logical" name="LCORR"> T  </i>
  </separator>
  <i type="logical" name="GGA_COMPAT"> T  </i>
  <i type="logical" name="LBERRY"> F  </i>
  <i type="int" name="ICORELEVEL">     0</i>
  <i type="logical" name="LDAU"> F  </i>
  <i type="int" name="I_CONSTRAINED_M">     0</i>
  <separator name="electronic exchange-correlation" >
   <i type="string" name="GGA">--</i>
   <i type="int" name="VOSKOWN">     0</i>
   <i type="logical" name="LHFCALC"> F  </i>
   <i type="string" name="PRECFOCK"></i>
   <i type="logical" name="LSYMGRAD"> F  </i>
   <i type="logical" name="LHFONE"> F  </i>
   <i type="logical" name="LRHFCALC"> F  </i>
   <i type="logical" name="LTHOMAS"> F  </i>
   <i type="logical" name="LMODELHF"> F  </i>
   <i name="ENCUT4O">     -1.00000000</i>
   <i type="int" name="EXXOEP">     0</i>
   <i type="int" name="FOURORBIT">     0</i>
   <i name="AEXX">      0.00000000</i>
   <i name="HFALPHA">      0.00000000</i>
   <i name="MCALPHA">      0.00000000</i>
   <i name="ALDAX">      1.00000000</i>
   <i name="AGGAX">      1.00000000</i>
   <i name="ALDAC">      1.00000000</i>
   <i name="AGGAC">      1.00000000</i>
   <i type="int" name="NKREDX">     1</i>
   <i type="int" name="NKREDY">     1</i>
   <i type="int" name="NKREDZ">     1</i>
   <i type="logical" name="SHIFTRED"> F  </i>
   <i type="logical" name="ODDONLY"> F  </i>
   <i type="logical" name="EVENONLY"> F  </i>
   <i type="int" name="LMAXFOCK">     0</i>
   <i type="int" name="NMAXFOCKAE">     0</i>
   <i type="logical" name="LFOCKAEDFT"> F  </i>
   <i name="HFSCREEN">      0.00000000</i>
   <i name="HFSCREENC">      0.00000000</i>
   <i type="int" name="NBANDSGWLOW">     0</i>
  </separator>
  <separator name="vdW DFT" >
   <i type="logical" name="LUSE_VDW"> F  </i>
   <i name="Zab_VDW">     -0.84910000</i>
   <i name="PARAM1">      0.12340000</i>
   <i name="PARAM2">      1.00000000</i>
   <i name="PARAM3">      0.00000000</i>
  </separator>
  <separator name="model GW" >
   <i type="int" name="MODEL_GW">     0</i>
   <i name="MODEL_EPS0">      7.68123389</i>
   <i name="MODEL_ALPHA">      1.00000000</i>
  </separator>
  <separator name="linear response parameters" >
   <i type="logical" name="LEPSILON"> F  </i>
   <i type="logical" name="LRPA"> F  </i>
   <i type="logical" name="LNABLA"> F  </i>
   <i type="logical" name="LVEL"> F  </i>
   <i type="int" name="KINTER">     0</i>
   <i name="CSHIFT">      0.10000000</i>
   <i name="OMEGAMAX">     -1.00000000</i>
   <i name="DEG_THRESHOLD">      0.00200000</i>
   <i name="RTIME">     -0.10000000</i>
   <i name="WPLASMAI">      0.00000000</i>
   <v name="DFIELD">      0.00000000      0.00000000      0.00000000</v>
   <v name="WPLASMA">      0.00000000      0.00000000      0.00000000      0.00000000      0.00000000      0.00000000      0.00000000      0.00000000      0.00000000</v>
  </separator>
  <separator name="orbital magnetization" >
   <i type="logical" name="NUCIND"> F  </i>
   <v name="MAGPOS">      0.00000000      0.00000000      0.00000000</v>
   <i type="logical" name="LNICSALL"> T  </i>
   <i type="logical" name="ORBITALMAG"> F  </i>
   <i type="logical" name="LMAGBLOCH"> F  </i>
   <i type="logical" name="LCHIMAG"> F  </i>
   <i type="logical" name="LGAUGE"> T  </i>
   <i type="int" name="MAGATOM">     0</i>
   <v name="MAGDIPOL">      0.00000000      0.00000000      0.00000000</v>
   <v name="AVECCONST">      0.00000000      0.00000000      0.00000000</v>
  </separator>
  <separator name="response functions" >
   <i type="logical" name="LADDER"> F  </i>
   <i type="logical" name="LRPAFORCE"> F  </i>
   <i type="logical" name="LFXC"> F  </i>
   <i type="logical" name="LHARTREE"> T  </i>
   <i type="int" name="IBSE">     0</i>
   <v type="int" name="KPOINT">    -1     0     0     0</v>
   <i type="logical" name="LTCTE"> F  </i>
   <i type="logical" name="LTETE"> F  </i>
   <i type="logical" name="LTRIPLET"> F  </i>
   <i type="logical" name="LFXCEPS"> F  </i>
   <i type="logical" name="LFXHEG"> F  </i>
   <i type="int" name="NATURALO">     2</i>
   <i type="logical" name="L2ORDER"> F  </i>
   <i type="logical" name="LMP2LT"> F  </i>
   <i type="logical" name="LUSEW"> F  </i>
   <i name="ENCUTGW">     -2.00000000</i>
   <i name="ENCUTGWSOFT">     -2.00000000</i>
   <i name="ENCUTLF">     -1.00000000</i>
   <i type="int" name="LMAXMP2">    -1</i>
   <i name="SCISSOR">      0.00000000</i>
   <i type="int" name="NOMEGA">     0</i>
   <i type="int" name="NOMEGAR">     0</i>
   <i type="int" name="NBANDSGW">    -1</i>
   <i type="int" name="NBANDSO">    -1</i>
   <i type="int" name="NBANDSV">    -1</i>
   <i type="int" name="NELM">   200</i>
   <i type="int" name="NELMHF">     1</i>
   <i type="int" name="DIM">     3</i>
   <i type="int" name="ANTIRES">     0</i>
   <i name="OMEGAMAX">    -30.00000000</i>
   <i name="OMEGAMIN">    -30.00000000</i>
   <i name="OMEGATL">   -200.00000000</i>
   <i type="int" name="OMEGAGRID">   140</i>
   <i name="CSHIFT">     -0.10000000</i>
   <i type="logical" name="SELFENERGY"> F  </i>
   <i type="logical" name="LSPECTRAL"> F  </i>
   <i type="logical" name="LSPECTRALGW"> F  </i>
   <i type="logical" name="LSINGLES"> F  </i>
   <i type="logical" name="LFERMIGW"> F  </i>
   <i type="logical" name="ODDONLYGW"> F  </i>
   <i type="logical" name="EVENONLYGW"> F  </i>
   <i type="int" name="NKREDLFX">     1</i>
   <i type="int" name="NKREDLFY">     1</i>
   <i type="int" name="NKREDLFZ">     1</i>
   <i type="int" name="MAXMEM">  2800</i>
   <i type="int" name="TELESCOPE">     0</i>
   <i type="int" name="TAUPAR">     1</i>
   <i type="int" name="OMEGAPAR">    -1</i>
   <i name="LAMBDA">      1.00000000</i>
  </separator>
  <separator name="External order field" >
   <i name="OFIELD_KAPPA">      0.00000000</i>
   <v name="OFIELD_K">      0.00000000      0.00000000      0.00000000</v>
   <i name="OFIELD_Q6_NEAR">      0.00000000</i>
   <i name="OFIELD_Q6_FAR">      0.00000000</i>
   <i name="OFIELD_A">      0.00000000</i>
  </separator>
 </parameters>
 <atominfo>
  <atoms>     288 </atoms>
  <types>       2 </types>
  <array name="atoms" >
   <dimension dim="1">ion</dimension>
   <field type="string">element</field>
   <field type="int">atomtype</field>
   <set>
    <rc><c>Fe</c><c>   1</c></rc>
    <rc><c>Fe</c><c>   1</c></rc>
    <rc><c>Fe</c><c>   1</c></rc>
    <rc><c>Fe</c><c>   1</c></rc>
    <rc><c>Fe</c><c>   1</c></rc>
    <rc><c>Fe</c><c>   1</c></rc>
    <rc><c>Fe</c><c>   1</c></rc>
    <rc><c>Fe</c><c>   1</c></rc>
    <rc><c>Fe</c><c>   1</c></rc>
    <rc><c>Fe</c><c>   1</c></rc>
    <rc><c>Fe</c><c>   1</c></rc>
    <rc><c>Fe</c><c>   1</c></rc>
    <rc><c>Fe</c><c>   1</c></rc>
    <rc><c>Fe</c><c>   1</c></rc>
    <rc><c>Fe</c><c>   1</c></rc>
    <rc><c>Fe</c><c>   1</c></rc>
    <rc><c>Fe</c><c>   1</c></rc>
    <rc><c>Fe</c><c>   1</c></rc>
    <rc><c>Fe</c><c>   1</c></rc>
    <rc><c>Fe</c><c>   1</c></rc>
    <rc><c>Fe</c><c>   1</c></rc>
    <rc><c>Fe</c><c>   1</c></rc>
    <rc><c>Fe</c><c>   1</c></rc>
    <rc><c>Fe</c><c>   1</c></rc>
    <rc><c>Fe</c><c>   1</c></rc>
    <rc><c>Fe</c><c>   1</c></rc>
    <rc><c>Fe</c><c>   1</c></rc>
    <rc><c>Fe</c><c>   1</c></rc>
    <rc><c>Fe</c><c>   1</c></rc>
    <rc><c>Fe</c><c>   1</c></rc>
    <rc><c>Fe</c><c>   1</c></rc>
    <rc><c>Fe</c><c>   1</c></rc>
    <rc><c>Fe</c><c>   1</c></rc>
    <rc><c>Fe</c><c>   1</c></rc>
    <rc><c>Fe</c><c>   1</c></rc>
    <rc><c>Fe</c><c>   1</c></rc>
    <rc><c>Fe</c><c>   1</c></rc>
    <rc><c>Fe</c><c>   1</c></rc>
    <rc><c>Fe</c><c>   1</c></rc>
    <rc><c>Fe</c><c>   1</c></rc>
    <rc><c>Fe</c><c>   1</c></rc>
    <rc><c>Fe</c><c>   1</c></rc>
    <rc><c>Fe</c><c>   1</c></rc>
    <rc><c>Fe</c><c>   1</c></rc>
    <rc><c>Fe</c><c>   1</c></rc>
    <rc><c>Fe</c><c>   1</c></rc>
    <rc><c>Fe</c><c>   1</c></rc>
    <rc><c>Fe</c><c>   1</c></rc>
    <rc><c>Fe</c><c>   1</c></rc>
    <rc><c>Fe</c><c>   1</c></rc>
    <rc><c>Fe</c><c>   1</c></rc>
    <rc><c>Fe</c><c>   1</c></rc>
    <rc><c>Fe</c><c>   1</c></rc>
    <rc><c>Fe</c><c>   1</c></rc>
    <rc><c>Fe</c><c>   1</c></rc>
    <rc><c>Fe</c><c>   1</c></rc>
    <rc><c>Fe</c><c>   1</c></rc>
    <rc><c>Fe</c><c>   1</c></rc>
    <rc><c>Fe</c><c>   1</c></rc>
    <rc><c>Fe</c><c>   1</c></rc>
    <rc><c>Fe</c><c>   1</c></rc>
    <rc><c>Fe</c><c>   1</c></rc>
    <rc><c>Fe</c><c>   1</c></rc>
    <rc><c>Fe</c><c>   1</c></rc>
    <rc><c>Fe</c><c>   1</c></rc>
    <rc><c>Fe</c><c>   1</c></rc>
    <rc><c>Fe</c><c>   1</c></rc>
    <rc><c>Fe</c><c>   1</c></rc>
    <rc><c>Fe</c><c>   1</c></rc>
    <rc><c>Fe</c><c>   1</c></rc>
    <rc><c>Fe</c><c>   1</c></rc>
    <rc><c>Fe</c><c>   1</c></rc>
    <rc><c>Fe</c><c>   1</c></rc>
    <rc><c>Fe</c><c>   1</c></rc>
    <rc><c>Fe</c><c>   1</c></rc>
    <rc><c>Fe</c><c>   1</c></rc>
    <rc><c>Fe</c><c>   1</c></rc>
    <rc><c>Fe</c><c>   1</c></rc>
    <rc><c>Fe</c><c>   1</c></rc>
    <rc><c>Fe</c><c>   1</c></rc>
    <rc><c>Fe</c><c>   1</c></rc>
    <rc><c>Fe</c><c>   1</c></rc>
    <rc><c>Fe</c><c>   1</c></rc>
    <rc><c>Fe</c><c>   1</c></rc>
    <rc><c>Fe</c><c>   1</c></rc>
    <rc><c>Fe</c><c>   1</c></rc>
    <rc><c>Fe</c><c>   1</c></rc>
    <rc><c>Fe</c><c>   1</c></rc>
    <rc><c>Fe</c><c>   1</c></rc>
    <rc><c>Fe</c><c>   1</c></rc>
    <rc><c>Fe</c><c>   1</c></rc>
    <rc><c>Fe</c><c>   1</c></rc>
    <rc><c>Fe</c><c>   1</c></rc>
    <rc><c>Fe</c><c>   1</c></rc>
    <rc><c>Fe</c><c>   1</c></rc>
    <rc><c>Fe</c><c>   1</c></rc>
    <rc><c>Fe</c><c>   1</c></rc>
    <rc><c>Fe</c><c>   1</c></rc>
    <rc><c>Fe</c><c>   1</c></rc>
    <rc><c>Fe</c><c>   1</c></rc>
    <rc><c>Fe</c><c>   1</c></rc>
    <rc><c>Fe</c><c>   1</c></rc>
    <rc><c>Fe</c><c>   1</c></rc>
    <rc><c>Fe</c><c>   1</c></rc>
    <rc><c>Fe</c><c>   1</c></rc>
    <rc><c>Fe</c><c>   1</c></rc>
    <rc><c>Fe</c><c>   1</c></rc>
    <rc><c>Fe</c><c>   1</c></rc>
    <rc><c>Fe</c><c>   1</c></rc>
    <rc><c>Fe</c><c>   1</c></rc>
    <rc><c>Fe</c><c>   1</c></rc>
    <rc><c>Fe</c><c>   1</c></rc>
    <rc><c>Fe</c><c>   1</c></rc>
    <rc><c>Fe</c><c>   1</c></rc>
    <rc><c>Fe</c><c>   1</c></rc>
    <rc><c>Fe</c><c>   1</c></rc>
    <rc><c>Fe</c><c>   1</c></rc>
    <rc><c>Fe</c><c>   1</c></rc>
    <rc><c>Fe</c><c>   1</c></rc>
    <rc><c>Fe</c><c>   1</c></rc>
    <rc><c>Fe</c><c>   1</c></rc>
    <rc><c>Fe</c><c>   1</c></rc>
    <rc><c>Fe</c><c>   1</c></rc>
    <rc><c>Fe</c><c>   1</c></rc>
    <rc><c>Fe</c><c>   1</c></rc>
    <rc><c>Fe</c><c>   1</c></rc>
    <rc><c>Fe</c><c>   1</c></rc>
    <rc><c>Fe</c><c>   1</c></rc>
    <rc><c>Fe</c><c>   1</c></rc>
    <rc><c>Fe</c><c>   1</c></rc>
    <rc><c>Fe</c><c>   1</c></rc>
    <rc><c>Fe</c><c>   1</c></rc>
    <rc><c>Fe</c><c>   1</c></rc>
    <rc><c>Fe</c><c>   1</c></rc>
    <rc><c>Fe</c><c>   1</c></rc>
    <rc><c>Fe</c><c>   1</c></rc>
    <rc><c>Fe</c><c>   1</c></rc>
    <rc><c>Fe</c><c>   1</c></rc>
    <rc><c>Fe</c><c>   1</c></rc>
    <rc><c>Fe</c><c>   1</c></rc>
    <rc><c>Fe</c><c>   1</c></rc>
    <rc><c>Fe</c><c>   1</c></rc>
    <rc><c>Fe</c><c>   1</c></rc>
    <rc><c>Fe</c><c>   1</c></rc>
    <rc><c>Fe</c><c>   1</c></rc>
    <rc><c>Fe</c><c>   1</c></rc>
    <rc><c>Fe</c><c>   1</c></rc>
    <rc><c>Fe</c><c>   1</c></rc>
    <rc><c>Fe</c><c>   1</c></rc>
    <rc><c>Fe</c><c>   1</c></rc>
    <rc><c>Fe</c><c>   1</c></rc>
    <rc><c>Fe</c><c>   1</c></rc>
    <rc><c>Fe</c><c>   1</c></rc>
    <rc><c>Fe</c><c>   1</c></rc>
    <rc><c>Fe</c><c>   1</c></rc>
    <rc><c>Fe</c><c>   1</c></rc>
    <rc><c>Fe</c><c>   1</c></rc>
    <rc><c>Fe</c><c>   1</c></rc>
    <rc><c>Fe</c><c>   1</c></rc>
    <rc><c>Fe</c><c>   1</c></rc>
    <rc><c>Fe</c><c>   1</c></rc>
    <rc><c>Fe</c><c>   1</c></rc>
    <rc><c>Fe</c><c>   1</c></rc>
    <rc><c>Fe</c><c>   1</c></rc>
    <rc><c>Fe</c><c>   1</c></rc>
    <rc><c>Fe</c><c>   1</c></rc>
    <rc><c>Fe</c><c>   1</c></rc>
    <rc><c>Fe</c><c>   1</c></rc>
    <rc><c>Fe</c><c>   1</c></rc>
    <rc><c>Fe</c><c>   1</c></rc>
    <rc><c>Fe</c><c>   1</c></rc>
    <rc><c>Fe</c><c>   1</c></rc>
    <rc><c>Fe</c><c>   1</c></rc>
    <rc><c>Fe</c><c>   1</c></rc>
    <rc><c>Fe</c><c>   1</c></rc>
    <rc><c>Fe</c><c>   1</c></rc>
    <rc><c>Fe</c><c>   1</c></rc>
    <rc><c>Fe</c><c>   1</c></rc>
    <rc><c>Fe</c><c>   1</c></rc>
    <rc><c>Fe</c><c>   1</c></rc>
    <rc><c>Fe</c><c>   1</c></rc>
    <rc><c>Fe</c><c>   1</c></rc>
    <rc><c>Fe</c><c>   1</c></rc>
    <rc><c>Fe</c><c>   1</c></rc>
    <rc><c>Fe</c><c>   1</c></rc>
    <rc><c>Fe</c><c>   1</c></rc>
    <rc><c>Fe</c><c>   1</c></rc>
    <rc><c>Fe</c><c>   1</c></rc>
    <rc><c>Fe</c><c>   1</c></rc>
    <rc><c>Fe</c><c>   1</c></rc>
    <rc><c>Fe</c><c>   1</c></rc>
    <rc><c>Fe</c><c>   1</c></rc>
    <rc><c>Fe</c><c>   1</c></rc>
    <rc><c>Fe</c><c>   1</c></rc>
    <rc><c>Fe</c><c>   1</c></rc>
    <rc><c>Fe</c><c>   1</c></rc>
    <rc><c>Fe</c><c>   1</c></rc>
    <rc><c>Fe</c><c>   1</c></rc>
    <rc><c>Fe</c><c>   1</c></rc>
    <rc><c>Fe</c><c>   1</c></rc>
    <rc><c>Fe</c><c>   1</c></rc>
    <rc><c>Fe</c><c>   1</c></rc>
    <rc><c>Fe</c><c>   1</c></rc>
    <rc><c>Fe</c><c>   1</c></rc>
    <rc><c>Fe</c><c>   1</c></rc>
    <rc><c>Fe</c><c>   1</c></rc>
    <rc><c>Fe</c><c>   1</c></rc>
    <rc><c>Fe</c><c>   1</c></rc>
    <rc><c>Fe</c><c>   1</c></rc>
    <rc><c>Fe</c><c>   1</c></rc>
    <rc><c>Fe</c><c>   1</c></rc>
    <rc><c>Fe</c><c>   1</c></rc>
    <rc><c>Fe</c><c>   1</c></rc>
    <rc><c>Fe</c><c>   1</c></rc>
    <rc><c>Fe</c><c>   1</c></rc>
    <rc><c>Fe</c><c>   1</c></rc>
    <rc><c>Fe</c><c>   1</c></rc>
    <rc><c>Fe</c><c>   1</c></rc>
    <rc><c>Fe</c><c>   1</c></rc>
    <rc><c>Fe</c><c>   1</c></rc>
    <rc><c>Fe</c><c>   1</c></rc>
    <rc><c>Fe</c><c>   1</c></rc>
    <rc><c>Fe</c><c>   1</c></rc>
    <rc><c>Fe</c><c>   1</c></rc>
    <rc><c>Fe</c><c>   1</c></rc>
    <rc><c>Fe</c><c>   1</c></rc>
    <rc><c>Fe</c><c>   1</c></rc>
    <rc><c>Fe</c><c>   1</c></rc>
    <rc><c>Fe</c><c>   1</c></rc>
    <rc><c>Fe</c><c>   1</c></rc>
    <rc><c>Fe</c><c>   1</c></rc>
    <rc><c>Fe</c><c>   1</c></rc>
    <rc><c>Fe</c><c>   1</c></rc>
    <rc><c>Fe</c><c>   1</c></rc>
    <rc><c>Fe</c><c>   1</c></rc>
    <rc><c>Fe</c><c>   1</c></rc>
    <rc><c>Fe</c><c>   1</c></rc>
    <rc><c>Fe</c><c>   1</c></rc>
    <rc><c>Fe</c><c>   1</c></rc>
    <rc><c>Fe</c><c>   1</c></rc>
    <rc><c>Fe</c><c>   1</c></rc>
    <rc><c>Fe</c><c>   1</c></rc>
    <rc><c>Fe</c><c>   1</c></rc>
    <rc><c>Fe</c><c>   1</c></rc>
    <rc><c>Fe</c><c>   1</c></rc>
    <rc><c>Fe</c><c>   1</c></rc>
    <rc><c>Fe</c><c>   1</c></rc>
    <rc><c>Fe</c><c>   1</c></rc>
    <rc><c>Fe</c><c>   1</c></rc>
    <rc><c>Fe</c><c>   1</c></rc>
    <rc><c>Fe</c><c>   1</c></rc>
    <rc><c>Fe</c><c>   1</c></rc>
    <rc><c>Fe</c><c>   1</c></rc>
    <rc><c>Fe</c><c>   1</c></rc>
    <rc><c>Fe</c><c>   1</c></rc>
    <rc><c>Fe</c><c>   1</c></rc>
    <rc><c>Fe</c><c>   1</c></rc>
    <rc><c>Fe</c><c>   1</c></rc>
    <rc><c>Fe</c><c>   1</c></rc>
    <rc><c>Fe</c><c>   1</c></rc>
    <rc><c>Fe</c><c>   1</c></rc>
    <rc><c>Fe</c><c>   1</c></rc>
    <rc><c>Fe</c><c>   1</c></rc>
    <rc><c>Fe</c><c>   1</c></rc>
    <rc><c>Fe</c><c>   1</c></rc>
    <rc><c>Fe</c><c>   1</c></rc>
    <rc><c>Fe</c><c>   1</c></rc>
    <rc><c>Fe</c><c>   1</c></rc>
    <rc><c>Fe</c><c>   1</c></rc>
    <rc><c>Fe</c><c>   1</c></rc>
    <rc><c>Fe</c><c>   1</c></rc>
    <rc><c>Fe</c><c>   1</c></rc>
    <rc><c>Fe</c><c>   1</c></rc>
    <rc><c>Fe</c><c>   1</c></rc>
    <rc><c>Fe</c><c>   1</c></rc>
    <rc><c>Fe</c><c>   1</c></rc>
    <rc><c>Fe</c><c>   1</c></rc>
    <rc><c>Fe</c><c>   1</c></rc>
    <rc><c>Fe</c><c>   1</c></rc>
    <rc><c>Fe</c><c>   1</c></rc>
    <rc><c>Fe</c><c>   1</c></rc>
    <rc><c>Mn</c><c>   2</c></rc>
    <rc><c>Mn</c><c>   2</c></rc>
    <rc><c>Mn</c><c>   2</c></rc>
    <rc><c>Mn</c><c>   2</c></rc>
    <rc><c>Mn</c><c>   2</c></rc>
    <rc><c>Mn</c><c>   2</c></rc>
    <rc><c>Mn</c><c>   2</c></rc>
   </set>
  </array>
  <array name="atomtypes" >
   <dimension dim="1">type</dimension>
   <field type="int">atomspertype</field>
   <field type="string">element</field>
   <field>mass</field>
   <field>valence</field>
   <field type="string">pseudopotential</field>
   <set>
    <rc><c> 281</c><c>Fe</c><c>     55.84700000</c><c>      8.00000000</c><c>  PAW_PBE Fe_GW 31Mar2010               </c></rc>
    <rc><c>   7</c><c>Mn</c><c>     54.93800000</c><c>      7.00000000</c><c>  PAW_PBE Mn_GW 31Mar2010               </c></rc>
   </set>
  </array>
 </atominfo>
 <structure name="initialpos" >
  <crystal>
   <varray name="basis" >
    <v>       9.72667804       0.00000000       0.00000000 </v>
    <v>       0.00000000       8.42355028       0.00000000 </v>
    <v>       0.00000000       0.00000000      45.00000000 </v>
   </varray>
   <i name="volume">   3686.99226691 </i>
   <varray name="rec_basis" >
    <v>       0.10281002       0.00000000       0.00000000 </v>
    <v>       0.00000000       0.11871479       0.00000000 </v>
    <v>       0.00000000       0.00000000       0.02222222 </v>
   </varray>
  </crystal>
  <varray name="positions" >
   <v>       0.05339144       0.70185380       0.21145749 </v>
   <v>       0.31827247       0.72376442       0.87616685 </v>
   <v>       0.68765430       0.95817361       0.61127764 </v>
   <v>       0.43772425       0.45803358       0.61128870 </v>
   <v>       0.44012728       0.28816583       0.25546251 </v>
   <v>       0.05859210       0.38800065       0.83346872 </v>
   <v>       0.30850508       0.88762496       0.83350886 </v>
   <v>       0.44723455       0.62624814       0.70012718 </v>
   <v>       0.06041657       0.21229296       0.74482329 </v>
   <v>       0.17881165       0.45093551       0.21130619 </v>
   <v>       0.56791524       0.21062097       0.47748000 </v>
   <v>       0.06676628       0.87492632       0.56677938 </v>
   <v>       0.56809823       0.22390535       0.87608480 </v>
   <v>       0.81024153       0.53131967       0.12411495 </v>
   <v>       0.42920373       0.95131020       0.21144371 </v>
   <v>       0.56662197       0.37500192       0.56687045 </v>
   <v>       0.81222461       0.04190858       0.38857604 </v>
   <v>       0.68213024       0.78836941       0.52236277 </v>
   <v>       0.44273808       0.46075328       0.47746881 </v>
   <v>       0.43482281       0.96188819       0.74456500 </v>
   <v>       0.44204300       0.62484829       0.56673033 </v>
   <v>       0.06021530       0.53075028       0.12427981 </v>
   <v>       0.31053929       0.03087745       0.12430816 </v>
   <v>       0.69025622       0.95932649       0.34417753 </v>
   <v>       0.68380965       0.77880492       0.12413879 </v>
   <v>       0.05261764       0.37387188       0.29974370 </v>
   <v>       0.68946197       0.46747938       0.87590209 </v>
   <v>       0.42836483       0.45119860       0.21134163 </v>
   <v>       0.80849644       0.37508752       0.43309342 </v>
   <v>       0.56288120       0.70827054       0.61152808 </v>
   <v>       0.55979734       0.54148105       0.65571131 </v>
   <v>       0.93344700       0.12497473       0.43311322 </v>
   <v>       0.56575987       0.53773715       0.25539038 </v>
   <v>       0.69021118       0.45933860       0.34417276 </v>
   <v>       0.19208824       0.61275081       0.16677216 </v>
   <v>       0.19575712       0.79884435       0.78871508 </v>
   <v>       0.44726500       0.12610412       0.70014009 </v>
   <v>       0.92777255       0.62369945       0.29967765 </v>
   <v>       0.31768581       0.22319875       0.87606529 </v>
   <v>       0.31687323       0.87431917       0.56677042 </v>
   <v>       0.81729922       0.22339849       0.87610406 </v>
   <v>       0.80961631       0.54113470       0.65571244 </v>
   <v>       0.55932476       0.53025069       0.12432183 </v>
   <v>       0.57018573       0.04954534       0.78871205 </v>
   <v>       0.18983395       0.28811131       0.25546753 </v>
   <v>       0.80848506       0.87498382       0.43310723 </v>
   <v>       0.57216702       0.37624372       0.70021921 </v>
   <v>       0.06077396       0.03179688       0.12421886 </v>
   <v>       0.30963327       0.54079766       0.65580120 </v>
   <v>       0.56537601       0.20950256       0.34411335 </v>
   <v>       0.18771459       0.95819766       0.61136328 </v>
   <v>       0.30273817       0.37391682       0.29973352 </v>
   <v>       0.43430511       0.79105598       0.65568303 </v>
   <v>       0.19612870       0.29834290       0.78860160 </v>
   <v>       0.06632692       0.36262434       0.16659275 </v>
   <v>       0.69672836       0.62642872       0.70040450 </v>
   <v>       0.31231628       0.54179170       0.38864146 </v>
   <v>       0.06807504       0.72305347       0.87612400 </v>
   <v>       0.93366125       0.63742596       0.83363910 </v>
   <v>       0.32036580       0.54944848       0.78882660 </v>
   <v>       0.30359729       0.20160999       0.21141797 </v>
   <v>       0.06797370       0.71061754       0.47747720 </v>
   <v>       0.55355828       0.20157946       0.21144534 </v>
   <v>       0.31099248       0.21152331       0.74465117 </v>
   <v>       0.07211210       0.37629541       0.70032686 </v>
   <v>       0.18332680       0.63753675       0.83350376 </v>
   <v>       0.07106422       0.04881940       0.78881703 </v>
   <v>       0.44166204       0.12496662       0.56688991 </v>
   <v>       0.93466758       0.29092046       0.65576626 </v>
   <v>       0.80366669       0.20156469       0.21137310 </v>
   <v>       0.92905712       0.95103748       0.21132041 </v>
   <v>       0.94153860       0.62505055       0.56687086 </v>
   <v>       0.80839906       0.38769459       0.83349886 </v>
   <v>       0.19700731       0.62576421       0.70005862 </v>
   <v>       0.80851073       0.88769549       0.83352564 </v>
   <v>       0.68471253       0.29076866       0.65581879 </v>
   <v>       0.31269732       0.20798330       0.61126968 </v>
   <v>       0.43569725       0.46242137       0.74446726 </v>
   <v>       0.43700223       0.79177221       0.38850387 </v>
   <v>       0.68501533       0.96256283       0.74457055 </v>
   <v>       0.80349103       0.70167806       0.21143780 </v>
   <v>       0.81293485       0.70799697       0.61135910 </v>
   <v>       0.43129670       0.77891425       0.12416453 </v>
   <v>       0.31073198       0.71148982       0.74460016 </v>
   <v>       0.32096224       0.04921190       0.78876255 </v>
   <v>       0.81184021       0.54167062       0.38840910 </v>
   <v>       0.68242790       0.28820899       0.52232232 </v>
   <v>       0.69571550       0.79885451       0.78873807 </v>
   <v>       0.18997270       0.78827428       0.25546784 </v>
   <v>       0.69156273       0.11224136       0.16663188 </v>
   <v>       0.69279206       0.96073680       0.47746102 </v>
   <v>       0.94035711       0.95941905       0.34413322 </v>
   <v>       0.80721729       0.03832068       0.52243374 </v>
   <v>       0.68347483       0.62500554       0.43310388 </v>
   <v>       0.44029822       0.45929297       0.34418175 </v>
   <v>       0.81092076       0.21200677       0.74448076 </v>
   <v>       0.43966443       0.96775661       0.87604069 </v>
   <v>       0.56699863       0.87483837       0.56669930 </v>
   <v>       0.81080140       0.03156597       0.12427272 </v>
   <v>       0.42780547       0.62379090       0.29970124 </v>
   <v>       0.81723849       0.72316215       0.87611037 </v>
   <v>       0.68768188       0.45812192       0.61123335 </v>
   <v>       0.55861039       0.38776104       0.83318468 </v>
   <v>       0.80282567       0.37368103       0.29965857 </v>
   <v>       0.18706541       0.29182168       0.38848531 </v>
   <v>       0.82107509       0.54882358       0.78885487 </v>
   <v>       0.18247991       0.78851606       0.52253049 </v>
   <v>       0.30268666       0.87388490       0.29979479 </v>
   <v>       0.17795679       0.95135063       0.21143220 </v>
   <v>       0.18560375       0.46214749       0.74462103 </v>
   <v>       0.43243168       0.28819591       0.52232897 </v>
   <v>       0.06539561       0.70947700       0.34412880 </v>
   <v>       0.18474277       0.79063550       0.65579680 </v>
   <v>       0.44571474       0.79885805       0.78873503 </v>
   <v>       0.68337100       0.12495856       0.43308661 </v>
   <v>       0.93246725       0.78824428       0.52234429 </v>
   <v>       0.69192067       0.61239619       0.16653157 </v>
   <v>       0.81537899       0.70950060       0.34413057 </v>
   <v>       0.93457834       0.46252528       0.74494179 </v>
   <v>       0.19030924       0.45933981       0.34418312 </v>
   <v>       0.57044134       0.54914438       0.78888658 </v>
   <v>       0.56627017       0.36253925       0.16658125 </v>
   <v>       0.56543629       0.70961860       0.34411378 </v>
   <v>       0.55260481       0.37405417       0.29978446 </v>
   <v>       0.18943386       0.46743448       0.87589255 </v>
   <v>       0.19146700       0.11214172       0.16682531 </v>
   <v>       0.44501482       0.29867247       0.78876113 </v>
   <v>       0.68998046       0.78828403       0.25545512 </v>
   <v>       0.93364052       0.13750534       0.83351153 </v>
   <v>       0.44279374       0.96074154       0.47746539 </v>
   <v>       0.56762493       0.72419879       0.87607960 </v>
   <v>       0.19263253       0.46069794       0.47746274 </v>
   <v>       0.93379265       0.27948980       0.12410296 </v>
   <v>       0.31214599       0.04189219       0.38857915 </v>
   <v>       0.05964597       0.04049272       0.65586946 </v>
   <v>       0.55842869       0.37491901       0.43311082 </v>
   <v>       0.68451042       0.46237539       0.74494032 </v>
   <v>       0.31632853       0.36218895       0.16679461 </v>
   <v>       0.94681760       0.12669163       0.70035227 </v>
   <v>       0.55970322       0.04085271       0.65575825 </v>
   <v>       0.55735958       0.53830854       0.52236074 </v>
   <v>       0.17771044       0.12394418       0.29973905 </v>
   <v>       0.44132742       0.11185353       0.16674493 </v>
   <v>       0.67788852       0.62372664       0.29963288 </v>
   <v>       0.92760306       0.12403632       0.29981872 </v>
   <v>       0.81665790       0.37500207       0.56688755 </v>
   <v>       0.05270561       0.87387270       0.29980497 </v>
   <v>       0.19159721       0.62496170       0.56689370 </v>
   <v>       0.94585871       0.79907693       0.78874825 </v>
   <v>       0.30832371       0.38750133       0.83348356 </v>
   <v>       0.93934417       0.46776570       0.87588770 </v>
   <v>       0.43358171       0.63789921       0.83350369 </v>
   <v>       0.06527432       0.20940096       0.34409804 </v>
   <v>       0.18954651       0.96744665       0.87604809 </v>
   <v>       0.93202373       0.77898335       0.12405753 </v>
   <v>       0.68702940       0.79182439       0.38854102 </v>
   <v>       0.93463745       0.79077584       0.65581564 </v>
   <v>       0.94136750       0.11147802       0.16666419 </v>
   <v>       0.43485027       0.29058972       0.65589241 </v>
   <v>       0.05340740       0.20177810       0.21141960 </v>
   <v>       0.67814290       0.95127351       0.21136200 </v>
   <v>       0.17780559       0.62378680       0.29963405 </v>
   <v>       0.82203573       0.87607863       0.70019256 </v>
   <v>       0.94675911       0.62646734       0.70040196 </v>
   <v>       0.19694733       0.12604055       0.70017728 </v>
   <v>       0.94292122       0.46074180       0.47744275 </v>
   <v>       0.81271526       0.20810270       0.61135815 </v>
   <v>       0.18337220       0.62498878       0.43311556 </v>
   <v>       0.42770824       0.12400597       0.29973721 </v>
   <v>       0.67786605       0.12408646       0.29978873 </v>
   <v>       0.56214231       0.54180833       0.38854291 </v>
   <v>       0.81527491       0.20938949       0.34409657 </v>
   <v>       0.43943229       0.46743455       0.87584615 </v>
   <v>       0.55867841       0.88740161       0.83349018 </v>
   <v>       0.31786953       0.21065567       0.47746842 </v>
   <v>       0.19285577       0.96068809       0.47748237 </v>
   <v>       0.05858549       0.88773794       0.83345128 </v>
   <v>       0.05739583       0.53831035       0.52234749 </v>
   <v>       0.94282948       0.96055774       0.47740644 </v>
   <v>       0.06270396       0.70790355       0.61135790 </v>
   <v>       0.55738523       0.03823864       0.52234626 </v>
   <v>       0.69626023       0.29852259       0.78872553 </v>
   <v>       0.81637213       0.36213724       0.16652335 </v>
   <v>       0.43339497       0.12500153       0.43308997 </v>
   <v>       0.06794901       0.21064437       0.47746151 </v>
   <v>       0.30969049       0.04073946       0.65573168 </v>
   <v>       0.43231460       0.78825055       0.52235929 </v>
   <v>       0.18365704       0.13761803       0.83353175 </v>
   <v>       0.18298043       0.27866937       0.12411948 </v>
   <v>       0.94032289       0.45937231       0.34418769 </v>
   <v>       0.56628409       0.86305421       0.16659889 </v>
   <v>       0.30339633       0.70171883       0.21147075 </v>
   <v>       0.94113927       0.61204396       0.16658464 </v>
   <v>       0.18774503       0.45813035       0.61136250 </v>
   <v>       0.07235401       0.87626738       0.70014633 </v>
   <v>       0.05972861       0.54064839       0.65582495 </v>
   <v>       0.30917272       0.53117659       0.12417040 </v>
   <v>       0.93688299       0.79160445       0.38851360 </v>
   <v>       0.94647108       0.29812144       0.78856765 </v>
   <v>       0.18464488       0.29071615       0.65580553 </v>
   <v>       0.93764905       0.95796916       0.61133401 </v>
   <v>       0.81127439       0.71131836       0.74461994 </v>
   <v>       0.68992058       0.28819474       0.25545321 </v>
   <v>       0.05997775       0.71203633       0.74488337 </v>
   <v>       0.67880441       0.45096210       0.21129881 </v>
   <v>       0.81812334       0.21073712       0.47753328 </v>
   <v>       0.56776513       0.71053381       0.47745360 </v>
   <v>       0.06635617       0.86280926       0.16649617 </v>
   <v>       0.93235395       0.28823428       0.52239422 </v>
   <v>       0.68463756       0.79076611       0.65576907 </v>
   <v>       0.05828264       0.87493970       0.43311379 </v>
   <v>       0.06790061       0.22284343       0.87610253 </v>
   <v>       0.80974128       0.04059214       0.65578756 </v>
   <v>       0.56011477       0.03183359       0.12426065 </v>
   <v>       0.30841586       0.37488906       0.43306349 </v>
   <v>       0.31649631       0.37482683       0.56684213 </v>
   <v>       0.31787681       0.71058408       0.47739548 </v>
   <v>       0.05741678       0.03818916       0.52238632 </v>
   <v>       0.32209799       0.87642836       0.70038159 </v>
   <v>       0.06559461       0.53793675       0.25536713 </v>
   <v>       0.68333628       0.13761263       0.83350048 </v>
   <v>       0.81512583       0.03763491       0.25516743 </v>
   <v>       0.18348551       0.12500697       0.43311491 </v>
   <v>       0.69752539       0.12654129       0.70022654 </v>
   <v>       0.18240358       0.28828336       0.52235919 </v>
   <v>       0.43999682       0.78823678       0.25544778 </v>
   <v>       0.81490460       0.53802981       0.25545399 </v>
   <v>       0.06268838       0.20799161       0.61130882 </v>
   <v>       0.18680523       0.79143460       0.38844653 </v>
   <v>       0.30739066       0.53818946       0.52237310 </v>
   <v>       0.82196041       0.37623364       0.70007189 </v>
   <v>       0.68706569       0.29187123       0.38853345 </v>
   <v>       0.19162142       0.12505922       0.56687126 </v>
   <v>       0.68979487       0.96832588       0.87605170 </v>
   <v>       0.69170186       0.12497537       0.56680027 </v>
   <v>       0.44031078       0.95930342       0.34417562 </v>
   <v>       0.18523763       0.96208082       0.74435075 </v>
   <v>       0.93992914       0.78825921       0.25544184 </v>
   <v>       0.55848173       0.87502789       0.43310816 </v>
   <v>       0.30840594       0.87512385       0.43310102 </v>
   <v>       0.80735402       0.53833908       0.52242985 </v>
   <v>       0.92836630       0.45122330       0.21132823 </v>
   <v>       0.31481382       0.53764759       0.25552904 </v>
   <v>       0.56232302       0.04193747       0.38863779 </v>
   <v>       0.93767214       0.45814663       0.61140904 </v>
   <v>       0.06208679       0.04186201       0.38857127 </v>
   <v>       0.06207253       0.54168337       0.38847256 </v>
   <v>       0.43701907       0.29179323       0.38852667 </v>
   <v>       0.69292949       0.46067880       0.47744889 </v>
   <v>       0.06663905       0.37471473       0.56682038 </v>
   <v>       0.55349557       0.70180046       0.21142082 </v>
   <v>       0.93998314       0.28824518       0.25545830 </v>
   <v>       0.82043011       0.04917515       0.78887490 </v>
   <v>       0.19030091       0.95937512       0.34418857 </v>
   <v>       0.55278569       0.87376155       0.29986118 </v>
   <v>       0.05830765       0.37498073       0.43311711 </v>
   <v>       0.31533090       0.70950317       0.34415144 </v>
   <v>       0.31531962       0.20943645       0.34416876 </v>
   <v>       0.94178131       0.12497906       0.56672759 </v>
   <v>       0.43776032       0.95814649       0.61136535 </v>
   <v>       0.56485934       0.03758784       0.25541381 </v>
   <v>       0.18442426       0.77939874       0.12417401 </v>
   <v>       0.06470979       0.03740189       0.25542241 </v>
   <v>       0.69182019       0.62479501       0.56678095 </v>
   <v>       0.44111645       0.61181536       0.16670585 </v>
   <v>       0.30718158       0.03822630       0.52232539 </v>
   <v>       0.68343841       0.27959957       0.12416059 </v>
   <v>       0.81786744       0.71073395       0.47743400 </v>
   <v>       0.43363362       0.13780300       0.83349285 </v>
   <v>       0.32218470       0.37631954       0.70012431 </v>
   <v>       0.68359403       0.63779915       0.83349441 </v>
   <v>       0.56101564       0.71181275       0.74454522 </v>
   <v>       0.93725300       0.29201490       0.38862642 </v>
   <v>       0.93941944       0.96771617       0.87600721 </v>
   <v>       0.56257109       0.20818460       0.61120523 </v>
   <v>       0.81691340       0.87506403       0.56675466 </v>
   <v>       0.80265259       0.87407159       0.29979774 </v>
   <v>       0.31519416       0.03770339       0.25544214 </v>
   <v>       0.43182779       0.27861204       0.12416442 </v>
   <v>       0.31261431       0.70812426       0.61136563 </v>
   <v>       0.43339858       0.62499681       0.43310804 </v>
   <v>       0.93278109       0.62514991       0.43324601 </v>
   <v>       0.31749444       0.86168907       0.16603575 </v>
   <v>       0.07161264       0.54906951       0.78866016 </v>
   <v>       0.81705760       0.86145671       0.16583711 </v>
   <v>       0.56046399       0.21150612       0.74438525 </v>
   <v>       0.93450077       0.96153606       0.74440722 </v>
   <v>       0.57271082       0.87729067       0.70046228 </v>
  </varray>
 </structure>
 <calculation>
  <scstep>
   <time name="dav">   54.56   54.57</time>
   <time name="total">   54.72   54.76</time>
   <energy>
    <i name="alphaZ">  16403.00255340 </i>
    <i name="ewald"> 720184.32146496 </i>
    <i name="hartreedc">-911849.70115245 </i>
    <i name="XCdc">  -6389.48149818 </i>
    <i name="pawpsdc"> 163151.95320885 </i>
    <i name="pawaedc">-160818.84594568 </i>
    <i name="eentropy">     -1.04497474 </i>
    <i name="bandstr">  38621.71362866 </i>
    <i name="atom"> 169914.59583762 </i>
    <i name="e_fr_energy">  29216.51312244 </i>
    <i name="e_wo_entrp">  29217.55809717 </i>
    <i name="e_0_energy">  29217.03560980 </i>
   </energy>
  </scstep>
  <scstep>
   <time name="dav">   54.17   54.20</time>
   <time name="total">   54.17   54.20</time>
   <energy>
    <i name="e_fr_energy">   1193.01857231 </i>
    <i name="e_wo_entrp">   1194.47894508 </i>
    <i name="e_0_energy">   1193.74875869 </i>
   </energy>
  </scstep>
  <scstep>
   <time name="dav">   71.16   71.21</time>
   <time name="total">   71.17   71.22</time>
   <energy>
    <i name="e_fr_energy">  -1940.38968210 </i>
    <i name="e_wo_entrp">  -1936.81526329 </i>
    <i name="e_0_energy">  -1938.60247270 </i>
   </energy>
  </scstep>
  <scstep>
   <time name="dav">   89.51   89.56</time>
   <time name="total">   89.51   89.57</time>
   <energy>
    <i name="e_fr_energy">  -2607.03339902 </i>
    <i name="e_wo_entrp">  -2603.42316204 </i>
    <i name="e_0_energy">  -2605.22828053 </i>
   </energy>
  </scstep>
  <scstep>
   <time name="dav">   85.50   85.55</time>
   <time name="total">   87.56   87.61</time>
   <energy>
    <i name="e_fr_energy">  -2727.11193776 </i>
    <i name="e_wo_entrp">  -2723.33120972 </i>
    <i name="e_0_energy">  -2725.22157374 </i>
   </energy>
  </scstep>
  <scstep>
   <time name="diag">    8.27    8.27</time>
   <time name="diis">   37.36   37.36</time>
   <time name="orth">    2.31    2.31</time>
   <time name="total">   50.13   50.18</time>
   <energy>
    <i name="e_fr_energy">  -5467.13070450 </i>
    <i name="e_wo_entrp">  -5463.07822361 </i>
    <i name="e_0_energy">  -5465.10446406 </i>
   </energy>
  </scstep>
  <scstep>
   <time name="diag">    8.32    8.32</time>
   <time name="diis">   28.82   28.82</time>
   <time name="orth">    2.29    2.29</time>
   <time name="total">   41.63   41.67</time>
[...]
       <r>     5.8814     0.0000  2772.0000 </r>
       <r>     5.9243     0.0000  2772.0000 </r>
       <r>     5.9671     0.0000  2772.0000 </r>
       <r>     6.0099     0.0000  2772.0000 </r>
       <r>     6.0527     0.0000  2772.0000 </r>
       <r>     6.0955     0.0000  2772.0000 </r>
       <r>     6.1383     0.0000  2772.0000 </r>
       <r>     6.1812     0.0000  2772.0000 </r>
       <r>     6.2240     0.0000  2772.0000 </r>
       <r>     6.2668     0.0000  2772.0000 </r>
       <r>     6.3096     0.0000  2772.0000 </r>
       <r>     6.3524     0.0000  2772.0000 </r>
       <r>     6.3952     0.0000  2772.0000 </r>
       <r>     6.4380     0.0000  2772.0000 </r>
       <r>     6.4809     0.0000  2772.0000 </r>
       <r>     6.5237     0.0000  2772.0000 </r>
       <r>     6.5665     0.0000  2772.0000 </r>
       <r>     6.6093     0.0000  2772.0000 </r>
       <r>     6.6521     0.0000  2772.0000 </r>
       <r>     6.6949     0.0000  2772.0000 </r>
       <r>     6.7377     0.0000  2772.0000 </r>
       <r>     6.7806     0.0000  2772.0000 </r>
       <r>     6.8234     0.0000  2772.0000 </r>
      </set>
     </set>
    </array>
   </total>
  </dos>
 </calculation>
 <structure name="finalpos" >
  <crystal>
   <varray name="basis" >
    <v>       9.72667804       0.00000000       0.00000000 </v>
    <v>       0.00000000       8.42355028       0.00000000 </v>
    <v>       0.00000000       0.00000000      45.00000000 </v>
   </varray>
   <i name="volume">   3686.99226691 </i>
   <varray name="rec_basis" >
    <v>       0.10281002       0.00000000       0.00000000 </v>
    <v>       0.00000000       0.11871479       0.00000000 </v>
    <v>       0.00000000       0.00000000       0.02222222 </v>
   </varray>
  </crystal>
  <varray name="positions" >
   <v>       0.05762235       0.70143575       0.21138390 </v>
   <v>       0.31597372       0.71976577       0.87566377 </v>
   <v>       0.68816397       0.95769829       0.61132016 </v>
   <v>       0.43824477       0.45793032       0.61137960 </v>
   <v>       0.43580285       0.28726314       0.25572177 </v>
   <v>       0.06133717       0.38629946       0.83401042 </v>
   <v>       0.31182150       0.88650616       0.83412889 </v>
   <v>       0.44170375       0.62672803       0.70016465 </v>
   <v>       0.06476894       0.21281425       0.74435411 </v>
   <v>       0.18217884       0.45153922       0.21130394 </v>
   <v>       0.56368130       0.20901238       0.47786463 </v>
   <v>       0.06394660       0.87450569       0.56669232 </v>
   <v>       0.56535463       0.21924424       0.87553163 </v>
   <v>       0.81065922       0.53023682       0.12460819 </v>
   <v>       0.43253522       0.95161217       0.21134181 </v>
   <v>       0.56395215       0.37417505       0.56668589 </v>
   <v>       0.81187630       0.04241840       0.38855423 </v>
   <v>       0.68637755       0.79062087       0.52209438 </v>
   <v>       0.43874223       0.45877633       0.47786055 </v>
   <v>       0.43888961       0.96239940       0.74449418 </v>
   <v>       0.43864618       0.62434432       0.56672509 </v>
   <v>       0.06092490       0.52826884       0.12477671 </v>
   <v>       0.31119551       0.02926144       0.12452822 </v>
   <v>       0.68689024       0.95884008       0.34441884 </v>
   <v>       0.68607850       0.78084675       0.12439638 </v>
   <v>       0.05785443       0.37358199       0.29975485 </v>
   <v>       0.68897189       0.47144560       0.87533914 </v>
   <v>       0.43266258       0.45148032       0.21133879 </v>
   <v>       0.81124372       0.37521475       0.43312934 </v>
   <v>       0.56282487       0.70783034       0.61136437 </v>
   <v>       0.56297128       0.54175793       0.65550179 </v>
   <v>       0.93619781       0.12526021       0.43313555 </v>
   <v>       0.56051623       0.53764679       0.25559170 </v>
   <v>       0.68658868       0.45852052       0.34421284 </v>
   <v>       0.18873600       0.61331616       0.16611767 </v>
   <v>       0.19230932       0.79892698       0.78855485 </v>
   <v>       0.44172206       0.12644905       0.70021801 </v>
   <v>       0.93295951       0.62364434       0.29979393 </v>
   <v>       0.31515641       0.21938429       0.87558860 </v>
   <v>       0.31377817       0.87465527       0.56666024 </v>
   <v>       0.81534807       0.21936820       0.87559241 </v>
   <v>       0.81303507       0.54144402       0.65555650 </v>
   <v>       0.56075526       0.52809644       0.12473150 </v>
   <v>       0.56737559       0.04904708       0.78880905 </v>
   <v>       0.18569616       0.28718892       0.25568089 </v>
   <v>       0.81120052       0.87550367       0.43309095 </v>
   <v>       0.56703645       0.37691439       0.70025241 </v>
   <v>       0.06074527       0.02942322       0.12468354 </v>
   <v>       0.31312329       0.54143383       0.65552514 </v>
   <v>       0.56178909       0.20852531       0.34437902 </v>
   <v>       0.18812378       0.95790000       0.61141602 </v>
   <v>       0.30775409       0.37369937       0.29983022 </v>
   <v>       0.43787081       0.79129940       0.65553426 </v>
   <v>       0.19215685       0.29827243       0.78871655 </v>
   <v>       0.06306187       0.36336106       0.16613130 </v>
   <v>       0.69208306       0.62630827       0.70020136 </v>
   <v>       0.31172457       0.54201194       0.38853393 </v>
   <v>       0.06520002       0.71933981       0.87570370 </v>
   <v>       0.93678052       0.63661538       0.83413460 </v>
   <v>       0.31793761       0.54913500       0.78877955 </v>
   <v>       0.30727986       0.20100842       0.21140647 </v>
   <v>       0.06379699       0.70889333       0.47792096 </v>
   <v>       0.55760300       0.20149671       0.21144323 </v>
   <v>       0.31406865       0.21334506       0.74429624 </v>
   <v>       0.06690146       0.37664246       0.70027111 </v>
   <v>       0.18662986       0.63681302       0.83389341 </v>
   <v>       0.06717520       0.04879260       0.78877353 </v>
   <v>       0.43889812       0.12435895       0.56662569 </v>
   <v>       0.93816201       0.29177113       0.65548246 </v>
   <v>       0.80727713       0.20123767       0.21128133 </v>
   <v>       0.93268038       0.95172996       0.21123747 </v>
   <v>       0.93891940       0.62473154       0.56671649 </v>
   <v>       0.81137860       0.38645517       0.83411990 </v>
   <v>       0.19216890       0.62648140       0.70022546 </v>
   <v>       0.81123876       0.88635701       0.83413611 </v>
   <v>       0.68844042       0.29181672       0.65556209 </v>
   <v>       0.31317111       0.20780472       0.61142333 </v>
   <v>       0.43882322       0.46236764       0.74430815 </v>
   <v>       0.43692155       0.79208677       0.38859471 </v>
   <v>       0.68910523       0.96245830       0.74452159 </v>
   <v>       0.80737697       0.70093572       0.21136123 </v>
   <v>       0.81330109       0.70764652       0.61122814 </v>
   <v>       0.43445283       0.78071961       0.12428755 </v>
   <v>       0.31370244       0.71258715       0.74425252 </v>
   <v>       0.31788648       0.04935613       0.78894131 </v>
   <v>       0.81215773       0.54231107       0.38859338 </v>
   <v>       0.68661079       0.29058890       0.52205481 </v>
   <v>       0.69242446       0.79912871       0.78872927 </v>
   <v>       0.18586101       0.78738072       0.25569196 </v>
   <v>       0.68802066       0.11366622       0.16628192 </v>
   <v>       0.68839975       0.95895629       0.47790549 </v>
   <v>       0.93677973       0.95915750       0.34432453 </v>
   <v>       0.81144979       0.04024418       0.52203659 </v>
   <v>       0.68585215       0.62516028       0.43311525 </v>
   <v>       0.43680357       0.45890107       0.34434924 </v>
   <v>       0.81498136       0.21308617       0.74437869 </v>
   <v>       0.43910652       0.97156680       0.87542104 </v>
   <v>       0.56384133       0.87440624       0.56664927 </v>
   <v>       0.81117718       0.02929395       0.12437703 </v>
   <v>       0.43296500       0.62360919       0.29979927 </v>
   <v>       0.81506378       0.71968676       0.87573360 </v>
   <v>       0.68812180       0.45790862       0.61140007 </v>
   <v>       0.56125021       0.38681518       0.83401333 </v>
   <v>       0.80781782       0.37370999       0.29977676 </v>
   <v>       0.18704736       0.29211718       0.38856022 </v>
   <v>       0.81668480       0.54917062       0.78896282 </v>
   <v>       0.18668545       0.79047836       0.52214351 </v>
   <v>       0.30789504       0.87366378       0.29980624 </v>
   <v>       0.18208713       0.95191399       0.21141804 </v>
   <v>       0.18961267       0.46280408       0.74435187 </v>
   <v>       0.43640846       0.29049356       0.52205413 </v>
   <v>       0.06183918       0.70844544       0.34432528 </v>
   <v>       0.18822569       0.79085466       0.65546018 </v>
   <v>       0.44234497       0.79907384       0.78866088 </v>
   <v>       0.68568196       0.12524718       0.43315926 </v>
   <v>       0.93662295       0.79027220       0.52209858 </v>
   <v>       0.68900089       0.61323585       0.16614346 </v>
   <v>       0.81193457       0.70856912       0.34429611 </v>
   <v>       0.93957097       0.46275797       0.74426925 </v>
   <v>       0.18700216       0.45866275       0.34431246 </v>
   <v>       0.56770867       0.54838879       0.78885215 </v>
   <v>       0.56315601       0.36330856       0.16613618 </v>
   <v>       0.56185481       0.70846101       0.34438848 </v>
   <v>       0.55793638       0.37361133       0.29978998 </v>
   <v>       0.18887205       0.47104965       0.87545519 </v>
   <v>       0.18807556       0.11373315       0.16626593 </v>
   <v>       0.44238440       0.29842338       0.78854118 </v>
   <v>       0.68588254       0.78757126       0.25566912 </v>
   <v>       0.93707039       0.13623008       0.83386183 </v>
   <v>       0.43848321       0.95879677       0.47788129 </v>
   <v>       0.56542673       0.71991226       0.87561153 </v>
   <v>       0.18839871       0.45903202       0.47787132 </v>
   <v>       0.93552973       0.28085667       0.12459158 </v>
   <v>       0.31186884       0.04222390       0.38854239 </v>
   <v>       0.06298621       0.04122421       0.65560911 </v>
   <v>       0.56129333       0.37480422       0.43310299 </v>
   <v>       0.68875886       0.46197248       0.74433843 </v>
   <v>       0.31272382       0.36354750       0.16627983 </v>
   <v>       0.94236334       0.12691281       0.70024036 </v>
   <v>       0.56329986       0.04152374       0.65548022 </v>
   <v>       0.56151270       0.54062268       0.52201824 </v>
   <v>       0.18280784       0.12333551       0.29968903 </v>
   <v>       0.43845842       0.11378633       0.16620721 </v>
   <v>       0.68288244       0.62368142       0.29978915 </v>
   <v>       0.93291069       0.12316188       0.29970178 </v>
   <v>       0.81388484       0.37438643       0.56668422 </v>
   <v>       0.05787491       0.87362341       0.29978897 </v>
   <v>       0.18896984       0.62439464       0.56677975 </v>
   <v>       0.94159410       0.79893360       0.78881731 </v>
   <v>       0.31157828       0.38668432       0.83412199 </v>
   <v>       0.93910352       0.47142615       0.87542234 </v>
   <v>       0.43682076       0.63671444       0.83400737 </v>
   <v>       0.06180042       0.20876851       0.34435007 </v>
   <v>       0.18872301       0.97123748       0.87542285 </v>
   <v>       0.93406524       0.78119253       0.12418773 </v>
   <v>       0.68697138       0.79210604       0.38855884 </v>
   <v>       0.93819308       0.79114922       0.65551463 </v>
   <v>       0.93847096       0.11397911       0.16617523 </v>
   <v>       0.43823578       0.29195322       0.65556066 </v>
   <v>       0.05770116       0.20131042       0.21141220 </v>
   <v>       0.68203550       0.95196372       0.21141619 </v>
   <v>       0.18299586       0.62359160       0.29980145 </v>
   <v>       0.81749550       0.87661115       0.70017374 </v>
   <v>       0.94211001       0.62602743       0.70027618 </v>
   <v>       0.19209419       0.12699267       0.70023442 </v>
   <v>       0.93874127       0.45880747       0.47790405 </v>
   <v>       0.81311744       0.20763072       0.61137603 </v>
   <v>       0.18651526       0.62527722       0.43311502 </v>
   <v>       0.43296548       0.12341680       0.29977256 </v>
   <v>       0.68277842       0.12325099       0.29967247 </v>
   <v>       0.56176681       0.54199478       0.38855148 </v>
   <v>       0.81172504       0.20880448       0.34445452 </v>
   <v>       0.43902783       0.47135988       0.87527110 </v>
   <v>       0.56142484       0.88634352       0.83417070 </v>
   <v>       0.31371949       0.20881720       0.47789673 </v>
   <v>       0.18866266       0.95876347       0.47787849 </v>
   <v>       0.06150759       0.88629082       0.83410187 </v>
   <v>       0.06152173       0.54052949       0.52203471 </v>
   <v>       0.93863689       0.95859606       0.47783916 </v>
   <v>       0.06318354       0.70766977       0.61136841 </v>
   <v>       0.56137947       0.04065099       0.52206616 </v>
   <v>       0.69242235       0.29820294       0.78871656 </v>
   <v>       0.81286316       0.36361218       0.16630477 </v>
   <v>       0.43621596       0.12511258       0.43314244 </v>
   <v>       0.06360330       0.20859140       0.47787673 </v>
   <v>       0.31311802       0.04103031       0.65548748 </v>
   <v>       0.43648777       0.79049913       0.52202118 </v>
   <v>       0.18727868       0.13668904       0.83395070 </v>
   <v>       0.18486723       0.28046107       0.12469356 </v>
   <v>       0.93684485       0.45895863       0.34430557 </v>
   <v>       0.56298549       0.86439837       0.16621499 </v>
   <v>       0.30750721       0.70113282       0.21148858 </v>
   <v>       0.93778163       0.61300440       0.16617734 </v>
   <v>       0.18799083       0.45753870       0.61140956 </v>
   <v>       0.06734324       0.87664400       0.70010582 </v>
   <v>       0.06317437       0.54137365       0.65565018 </v>
   <v>       0.31099022       0.53000317       0.12477323 </v>
   <v>       0.93689928       0.79221990       0.38854798 </v>
   <v>       0.94185629       0.29818316       0.78871299 </v>
   <v>       0.18772199       0.29147282       0.65557911 </v>
   <v>       0.93793890       0.95772983       0.61147655 </v>
   <v>       0.81475116       0.71303499       0.74447349 </v>
   <v>       0.68580441       0.28720453       0.25562588 </v>
   <v>       0.06521809       0.71278577       0.74426152 </v>
   <v>       0.68226929       0.45147566       0.21121913 </v>
   <v>       0.81341734       0.20861817       0.47786449 </v>
   <v>       0.56365261       0.70894348       0.47791187 </v>
   <v>       0.06296234       0.86451694       0.16630985 </v>
   <v>       0.93655339       0.29028158       0.52215058 </v>
   <v>       0.68757807       0.79143321       0.65561926 </v>
   <v>       0.06132332       0.87491454       0.43311052 </v>
   <v>       0.06547719       0.21901886       0.87571511 </v>
   <v>       0.81345637       0.04119760       0.65540091 </v>
   <v>       0.56098238       0.02954580       0.12471104 </v>
   <v>       0.31114246       0.37481442       0.43310673 </v>
   <v>       0.31393270       0.37456056       0.56663746 </v>
   <v>       0.31361524       0.70891793       0.47786765 </v>
   <v>       0.06152079       0.04027324       0.52201896 </v>
   <v>       0.31655063       0.87615180       0.70015545 </v>
   <v>       0.06055065       0.53745403       0.25559635 </v>
   <v>       0.68691289       0.13695731       0.83398345 </v>
   <v>       0.81071847       0.03742570       0.25584381 </v>
   <v>       0.18677043       0.12511411       0.43313483 </v>
   <v>       0.69229451       0.12669377       0.70009934 </v>
   <v>       0.18648782       0.29058408       0.52208659 </v>
   <v>       0.43553769       0.78691915       0.25571227 </v>
   <v>       0.81090465       0.53737264       0.25561258 </v>
   <v>       0.06299603       0.20778661       0.61136839 </v>
   <v>       0.18675949       0.79213132       0.38860581 </v>
   <v>       0.31150164       0.54050715       0.52207992 </v>
   <v>       0.81724181       0.37718420       0.70028160 </v>
   <v>       0.68676400       0.29209298       0.38852557 </v>
   <v>       0.18892025       0.12434635       0.56668563 </v>
   <v>       0.68886282       0.97148926       0.87541347 </v>
   <v>       0.68880783       0.12455236       0.56666354 </v>
   <v>       0.43686367       0.95883667       0.34441983 </v>
   <v>       0.18895354       0.96210132       0.74441960 </v>
   <v>       0.93536137       0.78709344       0.25568356 </v>
   <v>       0.56121270       0.87560672       0.43312931 </v>
   <v>       0.31109766       0.87539150       0.43314906 </v>
   <v>       0.81154379       0.54041384       0.52208666 </v>
   <v>       0.93262336       0.45160403       0.21126699 </v>
   <v>       0.31106955       0.53751916       0.25562707 </v>
   <v>       0.56165924       0.04213970       0.38852877 </v>
   <v>       0.93816927       0.45737503       0.61144674 </v>
   <v>       0.06184966       0.04223851       0.38857732 </v>
   <v>       0.06190859       0.54210974       0.38857330 </v>
   <v>       0.43692783       0.29202533       0.38855887 </v>
   <v>       0.68870237       0.45881596       0.47791783 </v>
   <v>       0.06400678       0.37445649       0.56671761 </v>
   <v>       0.55756769       0.70143200       0.21142647 </v>
   <v>       0.93576516       0.28744732       0.25570261 </v>
   <v>       0.81691491       0.04920892       0.78881399 </v>
   <v>       0.18679696       0.95872382       0.34438490 </v>
   <v>       0.55794519       0.87364583       0.29977119 </v>
   <v>       0.06146572       0.37523155       0.43308400 </v>
   <v>       0.31192356       0.70849934       0.34435230 </v>
   <v>       0.31185332       0.20852860       0.34442631 </v>
   <v>       0.93882978       0.12459935       0.56667980 </v>
   <v>       0.43816295       0.95779749       0.61134878 </v>
   <v>       0.56088549       0.03793620       0.25567981 </v>
   <v>       0.18600182       0.78066665       0.12446795 </v>
   <v>       0.06082001       0.03803356       0.25565630 </v>
   <v>       0.68883579       0.62456503       0.56671709 </v>
   <v>       0.43763329       0.61311459       0.16617474 </v>
   <v>       0.31161733       0.04053268       0.52206237 </v>
   <v>       0.68442564       0.28047386       0.12455542 </v>
   <v>       0.81363270       0.70877480       0.47790237 </v>
   <v>       0.43726279       0.13638215       0.83388862 </v>
   <v>       0.31690688       0.37640892       0.70020826 </v>
   <v>       0.68741007       0.63677639       0.83390796 </v>
   <v>       0.56389865       0.71247836       0.74441315 </v>
   <v>       0.93675918       0.29216348       0.38856820 </v>
   <v>       0.93930542       0.97119977       0.87539094 </v>
   <v>       0.56312164       0.20795266       0.61129396 </v>
   <v>       0.81380071       0.87440434       0.56673285 </v>
   <v>       0.80791934       0.87371425       0.29971440 </v>
   <v>       0.31062197       0.03732055       0.25574307 </v>
   <v>       0.43595739       0.28087238       0.12466841 </v>
   <v>       0.31306105       0.70765933       0.61132386 </v>
   <v>       0.43587697       0.62527824       0.43312895 </v>
   <v>       0.93614053       0.62512379       0.43316630 </v>
   <v>       0.31355823       0.86304305       0.16586935 </v>
   <v>       0.06792644       0.54882199       0.78860119 </v>
   <v>       0.81385503       0.86300402       0.16574099 </v>
   <v>       0.56385087       0.21275428       0.74442312 </v>
   <v>       0.93863669       0.96280159       0.74455174 </v>
   <v>       0.56758882       0.87656827       0.70022022 </v>
  </varray>
 </structure>
</modeling>
