unknown system                          
           1
     9.726678    0.000000    0.000000
     0.000000    8.423550    0.000000
     0.000000    0.000000   45.000000
   Fe   Mn
 281   7
Direct configuration=     1
   0.05339144  0.70185380  0.21145749
   0.31827247  0.72376442  0.87616685
   0.68765430  0.95817361  0.61127764
   0.43772425  0.45803358  0.61128870
   0.44012728  0.28816583  0.25546251
   0.05859210  0.38800065  0.83346872
   0.30850508  0.88762496  0.83350886
   0.44723455  0.62624814  0.70012718
   0.06041657  0.21229296  0.74482329
   0.17881165  0.45093551  0.21130619
   0.56791524  0.21062097  0.47748000
   0.06676628  0.87492632  0.56677938
   0.56809823  0.22390535  0.87608480
   0.81024153  0.53131967  0.12411495
   0.42920373  0.95131020  0.21144371
   0.56662197  0.37500192  0.56687045
   0.81222461  0.04190858  0.38857604
   0.68213024  0.78836941  0.52236277
   0.44273808  0.46075328  0.47746881
   0.43482281  0.96188819  0.74456500
   0.44204300  0.62484829  0.56673033
   0.06021530  0.53075028  0.12427981
   0.31053929  0.03087745  0.12430816
   0.69025622  0.95932649  0.34417753
   0.68380965  0.77880492  0.12413879
   0.05261764  0.37387188  0.29974370
   0.68946197  0.46747938  0.87590209
   0.42836483  0.45119860  0.21134163
   0.80849644  0.37508752  0.43309342
   0.56288120  0.70827054  0.61152808
   0.55979734  0.54148105  0.65571131
   0.93344700  0.12497473  0.43311322
   0.56575987  0.53773715  0.25539038
   0.69021118  0.45933860  0.34417276
   0.19208824  0.61275081  0.16677216
   0.19575712  0.79884435  0.78871508
   0.44726500  0.12610412  0.70014009
   0.92777255  0.62369945  0.29967765
   0.31768581  0.22319875  0.87606529
   0.31687323  0.87431917  0.56677042
   0.81729922  0.22339849  0.87610406
   0.80961631  0.54113470  0.65571244
   0.55932476  0.53025069  0.12432183
   0.57018573  0.04954534  0.78871205
   0.18983395  0.28811131  0.25546753
   0.80848506  0.87498382  0.43310723
   0.57216702  0.37624372  0.70021921
   0.06077396  0.03179688  0.12421886
   0.30963327  0.54079766  0.65580120
   0.56537601  0.20950256  0.34411335
   0.18771459  0.95819766  0.61136328
   0.30273817  0.37391682  0.29973352
   0.43430511  0.79105598  0.65568303
   0.19612870  0.29834290  0.78860160
   0.06632692  0.36262434  0.16659275
   0.69672836  0.62642872  0.70040450
   0.31231628  0.54179170  0.38864146
   0.06807504  0.72305347  0.87612400
   0.93366125  0.63742596  0.83363910
   0.32036580  0.54944848  0.78882660
   0.30359729  0.20160999  0.21141797
   0.06797370  0.71061754  0.47747720
   0.55355828  0.20157946  0.21144534
   0.31099248  0.21152331  0.74465117
   0.07211210  0.37629541  0.70032686
   0.18332680  0.63753675  0.83350376
   0.07106422  0.04881940  0.78881703
   0.44166204  0.12496662  0.56688991
   0.93466758  0.29092046  0.65576626
   0.80366669  0.20156469  0.21137310
   0.92905712  0.95103748  0.21132041
   0.94153860  0.62505055  0.56687086
   0.80839906  0.38769459  0.83349886
   0.19700731  0.62576421  0.70005862
   0.80851073  0.88769549  0.83352564
   0.68471253  0.29076866  0.65581879
   0.31269732  0.20798330  0.61126968
   0.43569725  0.46242137  0.74446726
   0.43700223  0.79177221  0.38850387
   0.68501533  0.96256283  0.74457055
   0.80349103  0.70167806  0.21143780
   0.81293485  0.70799697  0.61135910
   0.43129670  0.77891425  0.12416453
   0.31073198  0.71148982  0.74460016
   0.32096224  0.04921190  0.78876255
   0.81184021  0.54167062  0.38840910
   0.68242790  0.28820899  0.52232232
   0.69571550  0.79885451  0.78873807
   0.18997270  0.78827428  0.25546784
   0.69156273  0.11224136  0.16663188
   0.69279206  0.96073680  0.47746102
   0.94035711  0.95941905  0.34413322
   0.80721729  0.03832068  0.52243374
   0.68347483  0.62500554  0.43310388
   0.44029822  0.45929297  0.34418175
   0.81092076  0.21200677  0.74448076
   0.43966443  0.96775661  0.87604069
   0.56699863  0.87483837  0.56669930
   0.81080140  0.03156597  0.12427272
   0.42780547  0.62379090  0.29970124
   0.81723849  0.72316215  0.87611037
   0.68768188  0.45812192  0.61123335
   0.55861039  0.38776104  0.83318468
   0.80282567  0.37368103  0.29965857
   0.18706541  0.29182168  0.38848531
   0.82107509  0.54882358  0.78885487
   0.18247991  0.78851606  0.52253049
   0.30268666  0.87388490  0.29979479
   0.17795679  0.95135063  0.21143220
   0.18560375  0.46214749  0.74462103
   0.43243168  0.28819591  0.52232897
   0.06539561  0.70947700  0.34412880
   0.18474277  0.79063550  0.65579680
   0.44571474  0.79885805  0.78873503
   0.68337100  0.12495856  0.43308661
   0.93246725  0.78824428  0.52234429
   0.69192067  0.61239619  0.16653157
   0.81537899  0.70950060  0.34413057
   0.93457834  0.46252528  0.74494179
   0.19030924  0.45933981  0.34418312
   0.57044134  0.54914438  0.78888658
   0.56627017  0.36253925  0.16658125
   0.56543629  0.70961860  0.34411378
   0.55260481  0.37405417  0.29978446
   0.18943386  0.46743448  0.87589255
   0.19146700  0.11214172  0.16682531
   0.44501482  0.29867247  0.78876113
   0.68998046  0.78828403  0.25545512
   0.93364052  0.13750534  0.83351153
   0.44279374  0.96074154  0.47746539
   0.56762493  0.72419879  0.87607960
   0.19263253  0.46069794  0.47746274
   0.93379265  0.27948980  0.12410296
   0.31214599  0.04189219  0.38857915
   0.05964597  0.04049272  0.65586946
   0.55842869  0.37491901  0.43311082
   0.68451042  0.46237539  0.74494032
   0.31632853  0.36218895  0.16679461
   0.94681760  0.12669163  0.70035227
   0.55970322  0.04085271  0.65575825
   0.55735958  0.53830854  0.52236074
   0.17771044  0.12394418  0.29973905
   0.44132742  0.11185353  0.16674493
   0.67788852  0.62372664  0.29963288
   0.92760306  0.12403632  0.29981872
   0.81665790  0.37500207  0.56688755
   0.05270561  0.87387270  0.29980497
   0.19159721  0.62496170  0.56689370
   0.94585871  0.79907693  0.78874825
   0.30832371  0.38750133  0.83348356
   0.93934417  0.46776570  0.87588770
   0.43358171  0.63789921  0.83350369
   0.06527432  0.20940096  0.34409804
   0.18954651  0.96744665  0.87604809
   0.93202373  0.77898335  0.12405753
   0.68702940  0.79182439  0.38854102
   0.93463745  0.79077584  0.65581564
   0.94136750  0.11147802  0.16666419
   0.43485027  0.29058972  0.65589241
   0.05340740  0.20177810  0.21141960
   0.67814290  0.95127351  0.21136200
   0.17780559  0.62378680  0.29963405
   0.82203573  0.87607863  0.70019256
   0.94675911  0.62646734  0.70040196
   0.19694733  0.12604055  0.70017728
   0.94292122  0.46074180  0.47744275
   0.81271526  0.20810270  0.61135815
   0.18337220  0.62498878  0.43311556
   0.42770824  0.12400597  0.29973721
   0.67786605  0.12408646  0.29978873
   0.56214231  0.54180833  0.38854291
   0.81527491  0.20938949  0.34409657
   0.43943229  0.46743455  0.87584615
   0.55867841  0.88740161  0.83349018
   0.31786953  0.21065567  0.47746842
   0.19285577  0.96068809  0.47748237
   0.05858549  0.88773794  0.83345128
   0.05739583  0.53831035  0.52234749
   0.94282948  0.96055774  0.47740644
   0.06270396  0.70790355  0.61135790
   0.55738523  0.03823864  0.52234626
   0.69626023  0.29852259  0.78872553
   0.81637213  0.36213724  0.16652335
   0.43339497  0.12500153  0.43308997
   0.06794901  0.21064437  0.47746151
   0.30969049  0.04073946  0.65573168
   0.43231460  0.78825055  0.52235929
   0.18365704  0.13761803  0.83353175
   0.18298043  0.27866937  0.12411948
   0.94032289  0.45937231  0.34418769
   0.56628409  0.86305421  0.16659889
   0.30339633  0.70171883  0.21147075
   0.94113927  0.61204396  0.16658464
   0.18774503  0.45813035  0.61136250
   0.07235401  0.87626738  0.70014633
   0.05972861  0.54064839  0.65582495
   0.30917272  0.53117659  0.12417040
   0.93688299  0.79160445  0.38851360
   0.94647108  0.29812144  0.78856765
   0.18464488  0.29071615  0.65580553
   0.93764905  0.95796916  0.61133401
   0.81127439  0.71131836  0.74461994
   0.68992058  0.28819474  0.25545321
   0.05997775  0.71203633  0.74488337
   0.67880441  0.45096210  0.21129881
   0.81812334  0.21073712  0.47753328
   0.56776513  0.71053381  0.47745360
   0.06635617  0.86280926  0.16649617
   0.93235395  0.28823428  0.52239422
   0.68463756  0.79076611  0.65576907
   0.05828264  0.87493970  0.43311379
   0.06790061  0.22284343  0.87610253
   0.80974128  0.04059214  0.65578756
   0.56011477  0.03183359  0.12426065
   0.30841586  0.37488906  0.43306349
   0.31649631  0.37482683  0.56684213
   0.31787681  0.71058408  0.47739548
   0.05741678  0.03818916  0.52238632
   0.32209799  0.87642836  0.70038159
   0.06559461  0.53793675  0.25536713
   0.68333628  0.13761263  0.83350048
   0.81512583  0.03763491  0.25516743
   0.18348551  0.12500697  0.43311491
   0.69752539  0.12654129  0.70022654
   0.18240358  0.28828336  0.52235919
   0.43999682  0.78823678  0.25544778
   0.81490460  0.53802981  0.25545399
   0.06268838  0.20799161  0.61130882
   0.18680523  0.79143460  0.38844653
   0.30739066  0.53818946  0.52237310
   0.82196041  0.37623364  0.70007189
   0.68706569  0.29187123  0.38853345
   0.19162142  0.12505922  0.56687126
   0.68979487  0.96832588  0.87605170
   0.69170186  0.12497537  0.56680027
   0.44031078  0.95930342  0.34417562
   0.18523763  0.96208082  0.74435075
   0.93992914  0.78825921  0.25544184
   0.55848173  0.87502789  0.43310816
   0.30840594  0.87512385  0.43310102
   0.80735402  0.53833908  0.52242985
   0.92836630  0.45122330  0.21132823
   0.31481382  0.53764759  0.25552904
   0.56232302  0.04193747  0.38863779
   0.93767214  0.45814663  0.61140904
   0.06208679  0.04186201  0.38857127
   0.06207253  0.54168337  0.38847256
   0.43701907  0.29179323  0.38852667
   0.69292949  0.46067880  0.47744889
   0.06663905  0.37471473  0.56682038
   0.55349557  0.70180046  0.21142082
   0.93998314  0.28824518  0.25545830
   0.82043011  0.04917515  0.78887490
   0.19030091  0.95937512  0.34418857
   0.55278569  0.87376155  0.29986118
   0.05830765  0.37498073  0.43311711
   0.31533090  0.70950317  0.34415144
   0.31531962  0.20943645  0.34416876
   0.94178131  0.12497906  0.56672759
   0.43776032  0.95814649  0.61136535
   0.56485934  0.03758784  0.25541381
   0.18442426  0.77939874  0.12417401
   0.06470979  0.03740189  0.25542241
   0.69182019  0.62479501  0.56678095
   0.44111645  0.61181536  0.16670585
   0.30718158  0.03822630  0.52232539
   0.68343841  0.27959957  0.12416059
   0.81786744  0.71073395  0.47743400
   0.43363362  0.13780300  0.83349285
   0.32218470  0.37631954  0.70012431
   0.68359403  0.63779915  0.83349441
   0.56101564  0.71181275  0.74454522
   0.93725300  0.29201490  0.38862642
   0.93941944  0.96771617  0.87600721
   0.56257109  0.20818460  0.61120523
   0.81691340  0.87506403  0.56675466
   0.80265259  0.87407159  0.29979774
   0.31519416  0.03770339  0.25544214
   0.43182779  0.27861204  0.12416442
   0.31261431  0.70812426  0.61136563
   0.43339858  0.62499681  0.43310804
   0.93278109  0.62514991  0.43324601
   0.31749444  0.86168907  0.16603575
   0.07161264  0.54906951  0.78866016
   0.81705760  0.86145671  0.16583711
   0.56046399  0.21150612  0.74438525
   0.93450077  0.96153606  0.74440722
   0.57271082  0.87729067  0.70046228
Direct configuration=     2
   0.05394896  0.70179871  0.21144779
   0.31796956  0.72323750  0.87610056
   0.68772146  0.95811098  0.61128324
   0.43779284  0.45801997  0.61130068
   0.43955743  0.28804688  0.25549667
   0.05895383  0.38777648  0.83354010
   0.30894210  0.88747753  0.83359057
   0.44650574  0.62631138  0.70013211
   0.06099010  0.21236166  0.74476146
   0.17925535  0.45101507  0.21130590
   0.56735732  0.21040900  0.47753069
   0.06639472  0.87487090  0.56676791
   0.56773669  0.22329114  0.87601191
   0.81029658  0.53117698  0.12417995
   0.42964274  0.95134999  0.21143028
   0.56627015  0.37489296  0.56684613
   0.81217871  0.04197576  0.38857317
   0.68268993  0.78866609  0.52232740
   0.44221153  0.46049276  0.47752043
   0.43535871  0.96195556  0.74455567
   0.44159539  0.62478188  0.56672964
   0.06030881  0.53042329  0.12434529
   0.31062577  0.03066450  0.12433716
   0.68981267  0.95926240  0.34420933
   0.68410863  0.77907398  0.12417273
   0.05330771  0.37383368  0.29974517
   0.68939739  0.46800203  0.87582791
   0.42893116  0.45123572  0.21134126
   0.80885846  0.37510428  0.43309815
   0.56287378  0.70821254  0.61150651
   0.56021558  0.54151754  0.65568370
   0.93380949  0.12501235  0.43311616
   0.56506890  0.53772524  0.25541691
   0.68973383  0.45923080  0.34417804
   0.19164650  0.61282531  0.16668592
   0.19530279  0.79885524  0.78869397
   0.44653458  0.12614957  0.70015036
   0.92845605  0.62369219  0.29969297
   0.31735250  0.22269610  0.87600248
   0.31646538  0.87436346  0.56675590
   0.81704211  0.22286741  0.87603664
   0.81006681  0.54117546  0.65569189
   0.55951326  0.52996682  0.12437582
   0.56981543  0.04947968  0.78872483
   0.18928870  0.28798976  0.25549565
   0.80884289  0.87505232  0.43310509
   0.57149094  0.37633209  0.70022358
   0.06077018  0.03148410  0.12428009
   0.31009316  0.54088149  0.65576483
   0.56490335  0.20937378  0.34414836
   0.18776851  0.95815843  0.61137023
   0.30339914  0.37388817  0.29974627
   0.43477498  0.79108806  0.65566342
   0.19560531  0.29833361  0.78861674
   0.06589668  0.36272142  0.16653194
   0.69611623  0.62641284  0.70037773
   0.31223831  0.54182072  0.38862729
   0.06769619  0.72256410  0.87606862
   0.93407229  0.63731915  0.83370440
   0.32004583  0.54940717  0.78882040
   0.30408256  0.20153072  0.21141645
   0.06742332  0.71039033  0.47753567
   0.55409127  0.20156856  0.21144507
   0.31139784  0.21176337  0.74460440
   0.07142547  0.37634114  0.70031951
   0.18376206  0.63744138  0.83355511
   0.07055174  0.04881587  0.78881130
   0.44129783  0.12488655  0.56685509
   0.93512805  0.29103255  0.65572886
   0.80414245  0.20152160  0.21136100
   0.92953457  0.95112873  0.21130948
   0.94119346  0.62500851  0.56685052
   0.80879169  0.38753127  0.83358070
   0.19636973  0.62585872  0.70008061
   0.80887021  0.88751911  0.83360609
   0.68520377  0.29090677  0.65578496
   0.31275975  0.20795977  0.61128993
   0.43610917  0.46241429  0.74444629
   0.43699160  0.79181366  0.38851584
   0.68555427  0.96254906  0.74456409
   0.80400310  0.70158024  0.21142771
   0.81298311  0.70795079  0.61134184
   0.43171259  0.77915215  0.12418074
   0.31112341  0.71163442  0.74455435
   0.32055693  0.04923090  0.78878610
   0.81188205  0.54175501  0.38843339
   0.68297909  0.28852260  0.52228707
   0.69528183  0.79889065  0.78873691
   0.18943088  0.78815653  0.25549737
   0.69109597  0.11242912  0.16658576
   0.69221327  0.96050217  0.47751959
   0.93988571  0.95938458  0.34415843
   0.80777503  0.03857415  0.52238141
   0.68378810  0.62502593  0.43310538
   0.43983772  0.45924133  0.34420382
   0.81145584  0.21214901  0.74446731
   0.43959091  0.96825870  0.87595904
   0.56658258  0.87478143  0.56669271
   0.81085091  0.03126658  0.12428647
   0.42848536  0.62376695  0.29971416
   0.81695192  0.72270419  0.87606072
   0.68773985  0.45809381  0.61125532
   0.55895825  0.38763640  0.83329387
   0.80348351  0.37368485  0.29967415
   0.18706304  0.29186062  0.38849518
   0.82049657  0.54886932  0.78886910
   0.18303409  0.78877464  0.52247950
   0.30337299  0.87385576  0.29979630
   0.17850106  0.95142486  0.21143033
   0.18613202  0.46223401  0.74458556
   0.43295572  0.28849869  0.52229276
   0.06492696  0.70934107  0.34415469
   0.18520173  0.79066438  0.65575244
   0.44527069  0.79888648  0.78872526
   0.68367553  0.12499659  0.43309618
   0.93301487  0.78851151  0.52231192
   0.69153592  0.61250683  0.16648043
   0.81492510  0.70937785  0.34415238
   0.93523624  0.46255594  0.74485316
   0.18987345  0.45925060  0.34420016
   0.57008124  0.54904481  0.78888204
   0.56585981  0.36264062  0.16652260
   0.56496434  0.70946606  0.34414998
   0.55330737  0.37399582  0.29978519
   0.18935983  0.46791086  0.87583492
   0.19102010  0.11235143  0.16675160
   0.44466820  0.29863965  0.78873215
   0.68944046  0.78819010  0.25548332
   0.93409249  0.13733729  0.83355769
   0.44222572  0.96048527  0.47752020
   0.56733526  0.72363393  0.87601792
   0.19207462  0.46047841  0.47751658
   0.93402155  0.27966991  0.12416734
   0.31210947  0.04193590  0.38857431
   0.06008613  0.04058911  0.65583516
   0.55880617  0.37490388  0.43310979
   0.68507026  0.46232230  0.74486101
   0.31585352  0.36236797  0.16672678
   0.94623064  0.12672077  0.70033753
   0.56017716  0.04094114  0.65572162
   0.55790685  0.53861348  0.52231561
   0.17838215  0.12386397  0.29973246
   0.44094936  0.11210823  0.16667407
   0.67854659  0.62372069  0.29965347
   0.92830247  0.12392109  0.29980331
   0.81629248  0.37492094  0.56686076
   0.05338679  0.87383985  0.29980286
   0.19125099  0.62488698  0.56687869
   0.94529674  0.79905804  0.78875735
   0.30875258  0.38739367  0.83356769
   0.93931246  0.46824805  0.87582637
   0.43400853  0.63774309  0.83357006
   0.06481655  0.20931762  0.34413125
   0.18943800  0.96794619  0.87596570
   0.93229275  0.77927447  0.12407469
   0.68702175  0.79186151  0.38854337
   0.93510599  0.79082504  0.65577598
   0.94098581  0.11180760  0.16659976
   0.43529639  0.29076939  0.65584869
   0.05397321  0.20171647  0.21141862
   0.67865585  0.95136446  0.21136914
   0.17848954  0.62376108  0.29965611
   0.82143744  0.87614880  0.70019008
   0.94614648  0.62640937  0.70038538
   0.19630781  0.12616601  0.70018481
   0.94237041  0.46048691  0.47750354
   0.81276826  0.20804050  0.61136050
   0.18378637  0.62502679  0.43311549
   0.42840101  0.12392833  0.29974187
   0.67851337  0.12397636  0.29977341
   0.56209283  0.54183290  0.38854404
   0.81480713  0.20931240  0.34414373
   0.43937899  0.46795180  0.87577038
   0.55904032  0.88726218  0.83357985
   0.31732266  0.21041340  0.47752486
   0.19230323  0.96043447  0.47753457
   0.05897055  0.88754725  0.83353701
   0.05793952  0.53860277  0.52230627
   0.94227701  0.96029924  0.47746346
   0.06276715  0.70787274  0.61135928
   0.55791157  0.03855652  0.52230935
   0.69575450  0.29848047  0.78872434
   0.81590974  0.36233160  0.16649455
   0.43376670  0.12501617  0.43309689
   0.06737636  0.21037384  0.47751623
   0.31014215  0.04077778  0.65569950
   0.43286452  0.78854685  0.52231474
   0.18413428  0.13749561  0.83358696
   0.18322906  0.27890547  0.12419513
   0.93986458  0.45931780  0.34420322
   0.56584942  0.86323133  0.16654830
   0.30393803  0.70164161  0.21147310
   0.94069682  0.61217052  0.16653097
   0.18777742  0.45805239  0.61136870
   0.07169372  0.87631701  0.70014099
   0.06018267  0.54074396  0.65580192
   0.30941222  0.53102197  0.12424983
   0.93688514  0.79168555  0.38851813
   0.94586297  0.29812957  0.78858681
   0.18505037  0.29081586  0.65577569
   0.93768725  0.95793762  0.61135279
   0.81173254  0.71154457  0.74460065
   0.68937818  0.28806425  0.25547596
   0.06066829  0.71213509  0.74480143
   0.67926099  0.45102977  0.21128831
   0.81750321  0.21045790  0.47757693
   0.56722321  0.71032425  0.47751399
   0.06590895  0.86303429  0.16647162
   0.93290732  0.28850406  0.52236211
   0.68502505  0.79085401  0.65574933
   0.05868332  0.87493639  0.43311336
   0.06758126  0.22233945  0.87605148
   0.81023084  0.04067192  0.65573661
   0.56022910  0.03153212  0.12432000
   0.30877515  0.37487922  0.43306918
   0.31615849  0.37479174  0.56681516
   0.31731524  0.71036453  0.47745770
   0.05795758  0.03846379  0.52233791
   0.32136699  0.87639192  0.70035179
   0.06492994  0.53787314  0.25539733
   0.68380759  0.13752628  0.83356412
   0.81454506  0.03760734  0.25525656
   0.18391837  0.12502109  0.43311754
   0.69683610  0.12656138  0.70020978
   0.18294177  0.28858653  0.52232327
   0.43940922  0.78806315  0.25548263
   0.81437751  0.53794322  0.25547489
   0.06272892  0.20796460  0.61131667
   0.18679920  0.79152641  0.38846752
   0.30793238  0.53849487  0.52233446
   0.82133862  0.37635890  0.70009952
   0.68702593  0.29190045  0.38853241
   0.19126548  0.12496528  0.56684680
   0.68967205  0.96874273  0.87596760
   0.69132050  0.12491963  0.56678225
   0.43985654  0.95924191  0.34420780
   0.18572729  0.96208352  0.74435982
   0.93932723  0.78810559  0.25547370
   0.55884160  0.87510417  0.43311095
   0.30876064  0.87515912  0.43310735
   0.80790612  0.53861248  0.52238463
   0.92892727  0.45127347  0.21132016
   0.31432042  0.53763066  0.25554195
   0.56223555  0.04196411  0.38862342
   0.93773765  0.45804495  0.61141401
   0.06205555  0.04191162  0.38857207
   0.06205092  0.54173955  0.38848583
   0.43700704  0.29182381  0.38853091
   0.69237247  0.46043333  0.47751068
   0.06629219  0.37468070  0.56680683
   0.55403217  0.70175190  0.21142157
   0.93942732  0.28814004  0.25549049
   0.81996690  0.04917960  0.78886687
   0.18983918  0.95928930  0.34421444
   0.55346558  0.87374630  0.29984932
   0.05872380  0.37501378  0.43311275
   0.31488190  0.70937089  0.34417791
   0.31486285  0.20931682  0.34420269
   0.94139237  0.12492902  0.56672130
   0.43781337  0.95810050  0.61136317
   0.56433569  0.03763374  0.25544886
   0.18463214  0.77956582  0.12421275
   0.06419722  0.03748512  0.25545323
   0.69142693  0.62476471  0.56677254
   0.44065746  0.61198656  0.16663587
   0.30776610  0.03853022  0.52229073
   0.68356850  0.27971478  0.12421262
   0.81730941  0.71047579  0.47749572
   0.43411185  0.13761577  0.83354500
   0.32148922  0.37633131  0.70013538
   0.68409689  0.63766437  0.83354891
   0.56139555  0.71190046  0.74452781
   0.93718792  0.29203448  0.38861875
   0.93940441  0.96817522  0.87592600
   0.56264364  0.20815403  0.61121692
   0.81650323  0.87497710  0.56675178
   0.80334661  0.87402451  0.29978676
   0.31459167  0.03765294  0.25548179
   0.43237196  0.27890990  0.12423083
   0.31267318  0.70806299  0.61136013
   0.43372517  0.62503390  0.43311080
   0.93322377  0.62514647  0.43323551
   0.31697575  0.86186749  0.16601383
   0.07112689  0.54903690  0.78865239
   0.81663558  0.86166060  0.16582444
   0.56091030  0.21167059  0.74439024
   0.93504577  0.96170283  0.74442627
   0.57203588  0.87719548  0.70043038
Direct configuration=     3
   0.05562154  0.70163345  0.21141870
   0.31706081  0.72165674  0.87590168
   0.68792294  0.95792307  0.61130005
   0.43799862  0.45797915  0.61133661
   0.43784789  0.28769003  0.25559916
   0.06003902  0.38710396  0.83375425
   0.31025316  0.88703525  0.83383568
   0.44431929  0.62650109  0.70014693
   0.06271069  0.21256773  0.74457599
   0.18058648  0.45125372  0.21130500
   0.56568354  0.20977309  0.47768274
   0.06528004  0.87470461  0.56673349
   0.56665209  0.22144850  0.87579323
   0.81046170  0.53074890  0.12437493
   0.43095975  0.95146936  0.21139000
   0.56521471  0.37456608  0.56677317
   0.81204102  0.04217730  0.38856454
   0.68436898  0.78955615  0.52222130
   0.44063188  0.45971123  0.47767530
   0.43696640  0.96215765  0.74452767
   0.44025255  0.62458265  0.56672757
   0.06058933  0.52944232  0.12454172
   0.31088518  0.03002566  0.12442415
   0.68848203  0.95907011  0.34430472
   0.68500555  0.77988116  0.12427456
   0.05537793  0.37371908  0.29974958
   0.68920365  0.46956996  0.87560536
   0.43063016  0.45134709  0.21134013
   0.80994452  0.37515458  0.43311236
   0.56285151  0.70803851  0.61144179
   0.56147031  0.54162699  0.65560087
   0.93489694  0.12512520  0.43312499
   0.56299597  0.53768952  0.25549650
   0.68830177  0.45890740  0.34419388
   0.19032129  0.61304880  0.16642718
   0.19393979  0.79888791  0.78863063
   0.44434333  0.12628593  0.70018116
   0.93050658  0.62367040  0.29973894
   0.31635257  0.22118816  0.87581403
   0.31524183  0.87449633  0.56671234
   0.81627077  0.22127414  0.87583437
   0.81141833  0.54129774  0.65563025
   0.56007877  0.52911519  0.12453777
   0.56870452  0.04928271  0.78876318
   0.18765294  0.28762512  0.25557999
   0.80991637  0.87525783  0.43309865
   0.56946271  0.37659722  0.70023671
   0.06075884  0.03054574  0.12446379
   0.31147285  0.54113298  0.65565569
   0.56348536  0.20898746  0.34425338
   0.18793027  0.95804076  0.61139108
   0.30538204  0.37380220  0.29978449
   0.43618458  0.79118429  0.65560461
   0.19403515  0.29830576  0.78866219
   0.06460593  0.36301266  0.16634952
   0.69427984  0.62636523  0.70029743
   0.31200439  0.54190779  0.38858478
   0.06655963  0.72109601  0.87590246
   0.93530541  0.63699870  0.83390028
   0.31908591  0.54928324  0.78880180
   0.30553836  0.20129290  0.21141191
   0.06577218  0.70970871  0.47771110
   0.55569024  0.20153584  0.21144423
   0.31261392  0.21248355  0.74446409
   0.06936559  0.37647834  0.70029747
   0.18506783  0.63715527  0.83370914
   0.06901433  0.04880527  0.78879410
   0.44020519  0.12464632  0.56675064
   0.93650948  0.29136884  0.65561667
   0.80556974  0.20139232  0.21132473
   0.93096692  0.95140249  0.21127669
   0.94015803  0.62488240  0.56678949
   0.80996957  0.38704130  0.83382621
   0.19445700  0.62614224  0.70014656
   0.80994867  0.88698998  0.83384742
   0.68667749  0.29132109  0.65568349
   0.31294705  0.20788917  0.61135067
   0.43734494  0.46239305  0.74438339
   0.43695970  0.79193801  0.38855175
   0.68717110  0.96250773  0.74454474
   0.80553930  0.70128677  0.21139744
   0.81312789  0.70781225  0.61129007
   0.43296028  0.77986585  0.12422938
   0.31229770  0.71206822  0.74441692
   0.31934102  0.04928792  0.78885677
   0.81200757  0.54200820  0.38850623
   0.68463268  0.28946343  0.52218132
   0.69398081  0.79899904  0.78873343
   0.18780544  0.78780329  0.25558597
   0.68969572  0.11299240  0.16644742
   0.69047689  0.95979830  0.47769530
   0.93847149  0.95928119  0.34423406
   0.80944823  0.03933455  0.52222441
   0.68472791  0.62508710  0.43310987
   0.43845620  0.45908640  0.34427003
   0.81306109  0.21257572  0.74442696
   0.43937036  0.96976495  0.87571408
   0.56533443  0.87461059  0.56667293
   0.81099947  0.03036840  0.12432770
   0.43052504  0.62369512  0.29975291
   0.81609221  0.72133029  0.87591177
   0.68791376  0.45800949  0.61132123
   0.56000183  0.38726248  0.83362145
   0.80545701  0.37369630  0.29972087
   0.18705590  0.29197743  0.38852479
   0.81876098  0.54900651  0.78891177
   0.18469664  0.78955038  0.52232651
   0.30543198  0.87376835  0.29980083
   0.18013388  0.95164757  0.21142474
   0.18771683  0.46249357  0.74447916
   0.43452782  0.28940700  0.52218410
   0.06352103  0.70893327  0.34423236
   0.18657861  0.79075102  0.65561937
   0.44393855  0.79897179  0.78869595
   0.68458910  0.12511069  0.43312490
   0.93465771  0.78931319  0.52221478
   0.69038167  0.61283877  0.16632700
   0.81356345  0.70900962  0.34421782
   0.93720994  0.46264793  0.74458729
   0.18856609  0.45898294  0.34425129
   0.56900096  0.54874611  0.78886843
   0.56462871  0.36294475  0.16634665
   0.56354850  0.70900844  0.34425857
   0.55541506  0.37382075  0.29978737
   0.18913773  0.46934002  0.87566202
   0.18967939  0.11298056  0.16653046
   0.44362834  0.29854118  0.78864519
   0.68782046  0.78790833  0.25556792
   0.93544839  0.13683315  0.83369617
   0.44052167  0.95971646  0.47768461
   0.56646627  0.72193938  0.87583288
   0.19040090  0.45981984  0.47767810
   0.93470826  0.28021027  0.12436051
   0.31199990  0.04206703  0.38855977
   0.06140660  0.04087828  0.65573223
   0.55993863  0.37485850  0.43310669
   0.68674976  0.46216302  0.74462307
   0.31442850  0.36290504  0.16652327
   0.94446978  0.12680821  0.70029329
   0.56159899  0.04120641  0.65561170
   0.55954867  0.53952831  0.52218021
   0.18039726  0.12362335  0.29971268
   0.43981518  0.11287230  0.16646150
   0.68052080  0.62370281  0.29971525
   0.93040069  0.12357540  0.29975708
   0.81519623  0.37467757  0.56678038
   0.05543033  0.87374130  0.29979654
   0.19021233  0.62466280  0.56683364
   0.94361085  0.79900138  0.78878465
   0.31003918  0.38707068  0.83382008
   0.93921732  0.46969511  0.87564241
   0.43528900  0.63727472  0.83376918
   0.06344324  0.20906760  0.34423088
   0.18911245  0.96944478  0.87571853
   0.93309980  0.78014780  0.12412616
   0.68699882  0.79197285  0.38855042
   0.93651161  0.79097264  0.65565698
   0.93984075  0.11279634  0.16640646
   0.43663476  0.29130842  0.65571754
   0.05567062  0.20153159  0.21141570
   0.68019468  0.95163732  0.21139056
   0.18054136  0.62368391  0.29972228
   0.81964259  0.87635932  0.70018264
   0.94430859  0.62623547  0.70033566
   0.19438926  0.12654241  0.70020740
   0.94071799  0.45972222  0.47768590
   0.81292725  0.20785392  0.61136757
   0.18502890  0.62514082  0.43311527
   0.43047931  0.12369542  0.29975584
   0.68045534  0.12364608  0.29972745
   0.56194439  0.54190661  0.38854742
   0.81340379  0.20908114  0.34428524
   0.43921910  0.46950357  0.87554304
   0.56012604  0.88684390  0.83384888
   0.31568206  0.20968662  0.47769418
   0.19064560  0.95967363  0.47769117
   0.06012572  0.88697517  0.83379420
   0.05957058  0.53948005  0.52218262
   0.94061958  0.95952375  0.47763453
   0.06295674  0.70778032  0.61136344
   0.55949058  0.03951018  0.52219862
   0.69423730  0.29835411  0.78872080
   0.81452256  0.36291467  0.16640814
   0.43488190  0.12506006  0.43311763
   0.06565840  0.20956226  0.47768037
   0.31149713  0.04089276  0.65560296
   0.43451426  0.78943577  0.52218107
   0.18556599  0.13712836  0.83375258
   0.18397496  0.27961377  0.12442208
   0.93848963  0.45915426  0.34424982
   0.56454541  0.86376271  0.16639654
   0.30556316  0.70140995  0.21148015
   0.93936947  0.61255020  0.16636995
   0.18787459  0.45781849  0.61138731
   0.06971286  0.87646590  0.70012497
   0.06154485  0.54103067  0.65573283
   0.31013072  0.53055809  0.12448815
   0.93689158  0.79192885  0.38853172
   0.94403864  0.29815397  0.78864426
   0.18626681  0.29111499  0.65568618
   0.93780183  0.95784301  0.61140914
   0.81310699  0.71222319  0.74454275
   0.68775097  0.28767280  0.25554422
   0.06273992  0.71243136  0.74455560
   0.68063074  0.45123280  0.21125681
   0.81564283  0.20962023  0.47770786