 288 288   0   0
  0.1280206E+02  0.9726678E-09  0.8423550E-09  0.4500000E-08  0.2500000E-15
  1.000000000000000E-004
  CAR 
 unknown system                          
      6.75278200     -6.02129285  301      4.29233996      1.00000000
     -6.021  0.0000E+00  0.0000E+00
     -5.979  0.0000E+00  0.0000E+00
     -5.936  0.0000E+00  0.0000E+00
     -5.894  0.0000E+00  0.0000E+00
     -5.851  0.0000E+00  0.0000E+00
     -5.808  0.0000E+00  0.0000E+00
     -5.766  0.0000E+00  0.0000E+00
     -5.723  0.0000E+00  0.0000E+00
     -5.681  0.0000E+00  0.0000E+00
     -5.638  0.0000E+00  0.0000E+00
     -5.595  0.0000E+00  0.0000E+00
     -5.553  0.0000E+00  0.0000E+00
     -5.510  0.0000E+00  0.0000E+00
     -5.468  0.0000E+00  0.0000E+00
     -5.425  0.0000E+00  0.0000E+00
     -5.383  0.1304E-15  0.5551E-17
     -5.340  0.3357E-14  0.1485E-15
     -5.297  0.7160E-13  0.3197E-14
     -5.255  0.1309E-11  0.5894E-13
     -5.212  0.2043E-10  0.9287E-12
     -5.170  0.2720E-09  0.1251E-10
     -5.127  0.3093E-08  0.1442E-09
     -5.085  0.3004E-07  0.1423E-08
     -5.042  0.2493E-06  0.1204E-07
     -4.999  0.1771E-05  0.8745E-07
     -4.957  0.1077E-04  0.5462E-06
     -4.914  0.5623E-04  0.2940E-05
     -4.872  0.2523E-03  0.1368E-04
     -4.829  0.9762E-03  0.5525E-04
     -4.786  0.3270E-02  0.1945E-03
     -4.744  0.9534E-02  0.6004E-03
     -4.701  0.2437E-01  0.1638E-02
     -4.659  0.5511E-01  0.3985E-02
     -4.616  0.1114E+00  0.8728E-02
     -4.574  0.2036E+00  0.1740E-01
     -4.531  0.3399E+00  0.3187E-01
     -4.488  0.5233E+00  0.5415E-01
     -4.446  0.7476E+00  0.8598E-01
     -4.403  0.9959E+00  0.1284E+00
     -4.361  0.1243E+01  0.1813E+00
     -4.318  0.1460E+01  0.2435E+00
     -4.276  0.1625E+01  0.3126E+00
     -4.233  0.1730E+01  0.3863E+00
     -4.190  0.1786E+01  0.4623E+00
     -4.148  0.1825E+01  0.5400E+00
     -4.105  0.1889E+01  0.6204E+00
     -4.063  0.2016E+01  0.7063E+00
     -4.020  0.2220E+01  0.8008E+00
     -3.977  0.2486E+01  0.9066E+00
     -3.935  0.2772E+01  0.1025E+01
     -3.892  0.3019E+01  0.1153E+01
     -3.850  0.3175E+01  0.1288E+01
     -3.807  0.3216E+01  0.1425E+01
     -3.765  0.3161E+01  0.1560E+01
     -3.722  0.3063E+01  0.1690E+01
     -3.679  0.2992E+01  0.1818E+01
     -3.637  0.3007E+01  0.1946E+01
     -3.594  0.3134E+01  0.2079E+01
     -3.552  0.3355E+01  0.2222E+01
     -3.509  0.3616E+01  0.2376E+01
     -3.466  0.3854E+01  0.2540E+01
     -3.424  0.4021E+01  0.2711E+01
     -3.381  0.4105E+01  0.2886E+01
     -3.339  0.4125E+01  0.3062E+01
     -3.296  0.4115E+01  0.3237E+01
     -3.254  0.4115E+01  0.3412E+01
     -3.211  0.4153E+01  0.3589E+01
     -3.168  0.4242E+01  0.3770E+01
     -3.126  0.4385E+01  0.3956E+01
     -3.083  0.4570E+01  0.4151E+01
     -3.041  0.4778E+01  0.4355E+01
     -2.998  0.4984E+01  0.4567E+01
     -2.956  0.5157E+01  0.4786E+01
     -2.913  0.5279E+01  0.5011E+01
     -2.870  0.5347E+01  0.5239E+01
     -2.828  0.5381E+01  0.5468E+01
     -2.785  0.5415E+01  0.5698E+01
     -2.743  0.5478E+01  0.5932E+01
     -2.700  0.5573E+01  0.6169E+01
     -2.657  0.5657E+01  0.6410E+01
     -2.615  0.5670E+01  0.6651E+01
     -2.572  0.5586E+01  0.6889E+01
     -2.530  0.5456E+01  0.7122E+01
     -2.487  0.5399E+01  0.7351E+01
     -2.445  0.5541E+01  0.7587E+01
     -2.402  0.5937E+01  0.7840E+01
     -2.359  0.6519E+01  0.8118E+01
     -2.317  0.7115E+01  0.8421E+01
     -2.274  0.7524E+01  0.8741E+01
     -2.232  0.7621E+01  0.9066E+01
     -2.189  0.7419E+01  0.9382E+01
     -2.146  0.7073E+01  0.9683E+01
     -2.104  0.6808E+01  0.9973E+01
     -2.061  0.6804E+01  0.1026E+02
     -2.019  0.7117E+01  0.1057E+02
     -1.976  0.7656E+01  0.1089E+02
     -1.934  0.8238E+01  0.1124E+02
     -1.891  0.8679E+01  0.1161E+02
     -1.848  0.8876E+01  0.1199E+02
     -1.806  0.8853E+01  0.1237E+02
     -1.763  0.8733E+01  0.1274E+02
     -1.721  0.8663E+01  0.1311E+02
     -1.678  0.8725E+01  0.1348E+02
     -1.636  0.8910E+01  0.1386E+02
     -1.593  0.9157E+01  0.1425E+02
     -1.550  0.9412E+01  0.1465E+02
     -1.508  0.9666E+01  0.1506E+02
     -1.465  0.9929E+01  0.1548E+02
     -1.423  0.1019E+02  0.1592E+02
     -1.380  0.1041E+02  0.1636E+02
     -1.337  0.1055E+02  0.1681E+02
     -1.295  0.1069E+02  0.1726E+02
     -1.252  0.1100E+02  0.1773E+02
     -1.210  0.1166E+02  0.1823E+02
     -1.167  0.1269E+02  0.1877E+02
     -1.125  0.1389E+02  0.1936E+02
     -1.082  0.1492E+02  0.2000E+02
     -1.039  0.1548E+02  0.2066E+02
     -0.997  0.1558E+02  0.2132E+02
     -0.954  0.1550E+02  0.2198E+02
     -0.912  0.1568E+02  0.2265E+02
     -0.869  0.1645E+02  0.2335E+02
     -0.827  0.1789E+02  0.2411E+02
     -0.784  0.1989E+02  0.2496E+02
     -0.741  0.2233E+02  0.2591E+02
     -0.699  0.2528E+02  0.2698E+02
     -0.656  0.2889E+02  0.2821E+02
     -0.614  0.3319E+02  0.2963E+02
     -0.571  0.3787E+02  0.3124E+02
     -0.528  0.4239E+02  0.3304E+02
     -0.486  0.4624E+02  0.3501E+02
     -0.443  0.4921E+02  0.3711E+02
     -0.401  0.5141E+02  0.3930E+02
     -0.358  0.5310E+02  0.4156E+02
     -0.316  0.5445E+02  0.4388E+02
     -0.273  0.5549E+02  0.4624E+02
     -0.230  0.5618E+02  0.4863E+02
     -0.188  0.5652E+02  0.5104E+02
     -0.145  0.5660E+02  0.5345E+02
     -0.103  0.5659E+02  0.5586E+02
     -0.060  0.5673E+02  0.5827E+02
     -0.017  0.5724E+02  0.6071E+02
      0.025  0.5834E+02  0.6320E+02
      0.068  0.6018E+02  0.6576E+02
      0.110  0.6274E+02  0.6843E+02
      0.153  0.6589E+02  0.7124E+02
      0.195  0.6939E+02  0.7419E+02
      0.238  0.7300E+02  0.7730E+02
      0.281  0.7650E+02  0.8056E+02
      0.323  0.7965E+02  0.8395E+02
      0.366  0.8229E+02  0.8745E+02
      0.408  0.8434E+02  0.9104E+02
      0.451  0.8581E+02  0.9470E+02
      0.493  0.8674E+02  0.9839E+02
      0.536  0.8715E+02  0.1021E+03
      0.579  0.8706E+02  0.1058E+03
      0.621  0.8653E+02  0.1095E+03
      0.664  0.8565E+02  0.1131E+03
      0.706  0.8443E+02  0.1167E+03
      0.749  0.8288E+02  0.1203E+03
      0.792  0.8104E+02  0.1237E+03
      0.834  0.7910E+02  0.1271E+03
      0.877  0.7737E+02  0.1304E+03
      0.919  0.7614E+02  0.1336E+03
      0.962  0.7557E+02  0.1368E+03
      1.004  0.7555E+02  0.1401E+03
      1.047  0.7579E+02  0.1433E+03
      1.090  0.7596E+02  0.1465E+03
      1.132  0.7583E+02  0.1497E+03
      1.175  0.7535E+02  0.1530E+03
      1.217  0.7465E+02  0.1561E+03
      1.260  0.7390E+02  0.1593E+03
      1.303  0.7317E+02  0.1624E+03
      1.345  0.7245E+02  0.1655E+03
      1.388  0.7159E+02  0.1685E+03
      1.430  0.7043E+02  0.1715E+03
      1.473  0.6897E+02  0.1745E+03
      1.515  0.6752E+02  0.1773E+03
      1.558  0.6657E+02  0.1802E+03
      1.601  0.6664E+02  0.1830E+03
      1.643  0.6795E+02  0.1859E+03
      1.686  0.7032E+02  0.1889E+03
      1.728  0.7329E+02  0.1920E+03
      1.771  0.7641E+02  0.1953E+03
      1.813  0.7936E+02  0.1986E+03
      1.856  0.8203E+02  0.2021E+03
      1.899  0.8438E+02  0.2057E+03
      1.941  0.8645E+02  0.2094E+03
      1.984  0.8830E+02  0.2132E+03
      2.026  0.9004E+02  0.2170E+03
      2.069  0.9168E+02  0.2209E+03
      2.112  0.9311E+02  0.2249E+03
      2.154  0.9429E+02  0.2289E+03
      2.197  0.9531E+02  0.2330E+03
      2.239  0.9653E+02  0.2371E+03
      2.282  0.9839E+02  0.2413E+03
      2.324  0.1012E+03  0.2456E+03
      2.367  0.1050E+03  0.2500E+03
      2.410  0.1095E+03  0.2547E+03
      2.452  0.1140E+03  0.2595E+03
      2.495  0.1180E+03  0.2646E+03
      2.537  0.1212E+03  0.2697E+03
      2.580  0.1237E+03  0.2750E+03
      2.622  0.1256E+03  0.2804E+03
      2.665  0.1274E+03  0.2858E+03
      2.708  0.1292E+03  0.2913E+03
      2.750  0.1311E+03  0.2969E+03
      2.793  0.1333E+03  0.3025E+03
      2.835  0.1357E+03  0.3083E+03
      2.878  0.1379E+03  0.3142E+03
      2.921  0.1394E+03  0.3201E+03
      2.963  0.1395E+03  0.3261E+03
      3.006  0.1374E+03  0.3319E+03
      3.048  0.1329E+03  0.3376E+03
      3.091  0.1261E+03  0.3429E+03
      3.133  0.1179E+03  0.3480E+03
      3.176  0.1093E+03  0.3526E+03
      3.219  0.1014E+03  0.3569E+03
      3.261  0.9500E+02  0.3610E+03
      3.304  0.9046E+02  0.3648E+03
      3.346  0.8759E+02  0.3686E+03
      3.389  0.8598E+02  0.3722E+03
      3.432  0.8514E+02  0.3758E+03
      3.474  0.8463E+02  0.3794E+03
      3.517  0.8410E+02  0.3830E+03
      3.559  0.8341E+02  0.3866E+03
      3.602  0.8279E+02  0.3901E+03
      3.644  0.8275E+02  0.3936E+03
      3.687  0.8390E+02  0.3972E+03
      3.730  0.8653E+02  0.4009E+03
      3.772  0.9046E+02  0.4047E+03
      3.815  0.9507E+02  0.4088E+03
      3.857  0.9962E+02  0.4130E+03
      3.900  0.1035E+03  0.4174E+03
      3.942  0.1065E+03  0.4220E+03
      3.985  0.1085E+03  0.4266E+03
      4.028  0.1094E+03  0.4313E+03
      4.070  0.1094E+03  0.4359E+03
      4.113  0.1086E+03  0.4405E+03
      4.155  0.1073E+03  0.4451E+03
      4.198  0.1059E+03  0.4496E+03
      4.241  0.1045E+03  0.4541E+03
      4.283  0.1032E+03  0.4585E+03
      4.326  0.1021E+03  0.4628E+03
      4.368  0.1015E+03  0.4671E+03
      4.411  0.1012E+03  0.4714E+03
      4.453  0.1009E+03  0.4757E+03
      4.496  0.1004E+03  0.4800E+03
      4.539  0.9936E+02  0.4842E+03
      4.581  0.9808E+02  0.4884E+03
      4.624  0.9706E+02  0.4925E+03
      4.666  0.9685E+02  0.4967E+03
      4.709  0.9776E+02  0.5008E+03
      4.752  0.9968E+02  0.5051E+03
      4.794  0.1023E+03  0.5094E+03
      4.837  0.1050E+03  0.5139E+03
      4.879  0.1074E+03  0.5185E+03
      4.922  0.1092E+03  0.5231E+03
      4.964  0.1100E+03  0.5278E+03
      5.007  0.1094E+03  0.5325E+03
      5.050  0.1065E+03  0.5370E+03
      5.092  0.1000E+03  0.5413E+03
      5.135  0.8919E+02  0.5451E+03
      5.177  0.7422E+02  0.5482E+03
      5.220  0.5673E+02  0.5506E+03
      5.262  0.3933E+02  0.5523E+03
      5.305  0.2448E+02  0.5533E+03
      5.348  0.1357E+02  0.5539E+03
      5.390  0.6661E+01  0.5542E+03
      5.433  0.2882E+01  0.5543E+03
      5.475  0.1094E+01  0.5544E+03
      5.518  0.3637E+00  0.5544E+03
      5.561  0.1055E+00  0.5544E+03
      5.603  0.2664E-01  0.5544E+03
      5.646  0.5843E-02  0.5544E+03
      5.688  0.1112E-02  0.5544E+03
      5.731  0.1831E-03  0.5544E+03
      5.773  0.2606E-04  0.5544E+03
      5.816  0.3203E-05  0.5544E+03
      5.859  0.3393E-06  0.5544E+03
      5.901  0.3095E-07  0.5544E+03
      5.944  0.2430E-08  0.5544E+03
      5.986  0.1639E-09  0.5544E+03
      6.029  0.9495E-11  0.5544E+03
      6.071  0.4717E-12  0.5544E+03
      6.114  0.1916E-13  0.5544E+03
      6.157  0.3911E-15  0.5544E+03
      6.199  0.0000E+00  0.5544E+03
      6.242  0.0000E+00  0.5544E+03
      6.284  0.0000E+00  0.5544E+03
      6.327  0.0000E+00  0.5544E+03
      6.370  0.0000E+00  0.5544E+03
      6.412  0.0000E+00  0.5544E+03
      6.455  0.0000E+00  0.5544E+03
      6.497  0.0000E+00  0.5544E+03
      6.540  0.0000E+00  0.5544E+03
      6.582  0.0000E+00  0.5544E+03
      6.625  0.0000E+00  0.5544E+03
      6.668  0.0000E+00  0.5544E+03
      6.710  0.0000E+00  0.5544E+03
      6.753  0.0000E+00  0.5544E+03
