<?xml version="1.0" encoding="ISO-8859-1"?>
<modeling>
 <generator>
  <i name="program" type="string">vasp </i>
  <i name="version" type="string">5.4.4.18Apr17-6-g9f103f2a35  </i>
  <i name="subversion" type="string">(build Sep 27 2018 12:46:37) complex + VL-xray_ parallel </i>
  <i name="platform" type="string">LLNL_Quartz_ifc </i>
  <i name="date" type="string">2021 09 26 </i>
  <i name="time" type="string">17:59:29 </i>
 </generator>
 <incar>
  <i type="int" name="ISTART">     2</i>
  <i type="string" name="PREC">accurate</i>
  <i type="string" name="ALGO"> Fast</i>
  <i type="int" name="ICHARG">     2</i>
  <i type="int" name="INIWAV">     1</i>
  <i type="int" name="NELM">   200</i>
  <i type="int" name="NELMIN">     4</i>
  <i type="int" name="IBRION">     2</i>
  <i name="EDIFF">      0.00000100</i>
  <i type="int" name="NSW">     5</i>
  <i type="int" name="ISIF">     2</i>
  <i type="int" name="ISYM">     2</i>
  <i name="ENCUT">    450.00000000</i>
  <i name="POTIM">      0.25000000</i>
  <i type="string" name="LREAL"> Auto</i>
  <i type="int" name="ISMEAR">     0</i>
  <i name="SIGMA">      0.15000000</i>
  <i type="logical" name="LWAVE"> F  </i>
  <i type="logical" name="LCHARG"> F  </i>
  <i type="int" name="ICORELEVEL">     0</i>
  <i type="int" name="CLNT">     1</i>
  <i type="int" name="CLN">     1</i>
  <i type="int" name="INCAR     ">     0</i>
  <i name="CLZ">      0.00000000</i>
  <v type="int" name="KPOINT_BSE">    -1     0     0     0</v>
  <i type="int" name="NELM">   200</i>
 </incar>
 <structure name="primitive_cell" >
  <crystal>
   <varray name="basis" >
    <v>       9.72667804       0.00000000       0.00000000 </v>
    <v>       0.00000000       8.42355028       0.00000000 </v>
    <v>       0.00000000       0.00000000      45.00000000 </v>
   </varray>
   <i name="volume">   3686.99226691 </i>
   <varray name="rec_basis" >
    <v>       0.10281002       0.00000000       0.00000000 </v>
    <v>       0.00000000       0.11871479       0.00000000 </v>
    <v>       0.00000000       0.00000000       0.02222222 </v>
   </varray>
  </crystal>
  <varray name="positions" >
   <v>       0.05470908      -0.30048036       0.21207654 </v>
   <v>      -0.06166610      -0.21303579       0.25359261 </v>
   <v>       0.06288007      -0.46302897       0.25337322 </v>
   <v>      -0.06089145      -0.38871319       0.16875619 </v>
   <v>       0.18997367      -0.21315012       0.25367015 </v>
   <v>       0.06793370      -0.13652333       0.16835962 </v>
   <v>       0.18073979       0.45132797       0.21165667 </v>
   <v>      -0.07246327       0.45185088       0.21215053 </v>
   <v>       0.30468374      -0.29951666       0.21179768 </v>
   <v>       0.18043605      -0.04976881       0.21205590 </v>
   <v>      -0.19640027      -0.30091210       0.21203551 </v>
   <v>      -0.07120167      -0.04835824       0.21213096 </v>
   <v>       0.19285076      -0.38884220       0.16863334 </v>
   <v>      -0.18639743      -0.46308384       0.25299394 </v>
   <v>      -0.18548975      -0.13677756       0.16881192 </v>
   <v>       0.06416877       0.03764084       0.25350672 </v>
   <v>       0.31483392      -0.46090695       0.25352943 </v>
   <v>       0.06684753       0.36304561       0.16860228 </v>
   <v>       0.31894584      -0.13718860       0.16803393 </v>
   <v>      -0.31033448      -0.21344607       0.25366585 </v>
   <v>      -0.06247363       0.28866796       0.25345379 </v>
   <v>      -0.07217458      -0.37628554       0.29769921 </v>
   <v>      -0.30861109      -0.38840669       0.16881379 </v>
   <v>       0.17907371      -0.37594976       0.29803825 </v>
   <v>      -0.06526265      -0.21662007       0.12540581 </v>
   <v>       0.05350306      -0.12614765       0.29795748 </v>
   <v>      -0.18635349       0.03817559       0.25370225 </v>
   <v>       0.18895621       0.28802764       0.25367479 </v>
   <v>      -0.06129002       0.11381363       0.16832056 </v>
   <v>      -0.18530132       0.36194459       0.16873886 </v>
   <v>       0.18934582      -0.21526979       0.12559523 </v>
   <v>       0.05665260      -0.47526031       0.12536361 </v>
   <v>       0.05408916       0.20208979       0.21201177 </v>
   <v>      -0.31957216       0.45140662       0.21212999 </v>
   <v>       0.42929181       0.45134109       0.21155411 </v>
   <v>       0.42979839      -0.05047026       0.21185911 </v>
   <v>      -0.32028735      -0.04839679       0.21175857 </v>
   <v>       0.19256245       0.11351423       0.16809658 </v>
   <v>       0.31495543       0.03695148       0.25347239 </v>
   <v>       0.43933169      -0.21317789       0.25361418 </v>
   <v>       0.31831461       0.36277541       0.16857154 </v>
   <v>       0.43859663      -0.38929209       0.16779680 </v>
   <v>       0.05379249       0.37387229       0.29780450 </v>
   <v>      -0.19697388      -0.12535581       0.29759682 </v>
   <v>       0.30361674      -0.12653210       0.29805932 </v>
   <v>      -0.18871996      -0.47435311       0.12533501 </v>
   <v>       0.05758467       0.02829396       0.12500752 </v>
   <v>      -0.19600095       0.20237115       0.21181643 </v>
   <v>       0.30572901       0.20223927       0.21141950 </v>
   <v>       0.31087389      -0.47489409       0.12540121 </v>
   <v>      -0.44581520      -0.30022707       0.21194545 </v>
   <v>      -0.43472239      -0.46225662       0.25316354 </v>
   <v>      -0.31008527       0.28934766       0.25319946 </v>
   <v>      -0.19606767       0.37395753       0.29743882 </v>
   <v>       0.30317366       0.37512518       0.29801251 </v>
   <v>       0.42786204      -0.37499609       0.29789447 </v>
   <v>      -0.31303414      -0.21487723       0.12552796 </v>
   <v>      -0.32181116      -0.37487249       0.29753140 </v>
   <v>      -0.30938534       0.11367834       0.16821883 </v>
   <v>      -0.43620411      -0.13605617       0.16799457 </v>
   <v>      -0.18933456       0.03029296       0.12506206 </v>
   <v>       0.18751826       0.28310416       0.12570537 </v>
   <v>      -0.06659961       0.28042460       0.12533269 </v>
   <v>      -0.07207441       0.12318319       0.29774797 </v>
   <v>       0.17842048       0.12370234       0.29795342 </v>
   <v>       0.31227194       0.02671632       0.12519765 </v>
   <v>       0.44015812       0.28841372       0.25346895 </v>
   <v>       0.43670020      -0.21360904       0.12543569 </v>
   <v>       0.43943687       0.11210033       0.16786612 </v>
   <v>      -0.43544248       0.03764055       0.25349809 </v>
   <v>      -0.43545629       0.36115302       0.16860566 </v>
   <v>       0.06591839      -0.29084416       0.34335192 </v>
   <v>      -0.05849940       0.46069625       0.34317373 </v>
   <v>      -0.18495552      -0.28988383       0.34314500 </v>
   <v>      -0.31167364       0.27958442       0.12551025 </v>
   <v>      -0.44649555      -0.12635250       0.29794470 </v>
   <v>       0.18983692       0.46020504       0.34326917 </v>
   <v>      -0.05947487      -0.04181251       0.34304584 </v>
   <v>       0.42818789       0.12297616       0.29790838 </v>
   <v>      -0.44257903      -0.47471594       0.12507198 </v>
   <v>      -0.32125187       0.12235230       0.29766624 </v>
   <v>      -0.44466453       0.20187214       0.21177014 </v>
   <v>       0.31454081      -0.28987369       0.34322217 </v>
   <v>       0.43591914       0.28246218       0.12541080 </v>
   <v>       0.19083408      -0.04166952       0.34326022 </v>
   <v>      -0.44731465       0.37454673       0.29779012 </v>
   <v>      -0.43903568       0.02806546       0.12505490 </v>
   <v>      -0.30982698       0.46027917       0.34316287 </v>
   <v>       0.06586063       0.21006071       0.34307023 </v>
   <v>      -0.31101699      -0.04155174       0.34312060 </v>
   <v>       0.43868786       0.46075892       0.34306094 </v>
   <v>       0.43950225      -0.04140992       0.34336106 </v>
   <v>      -0.18492886       0.20878705       0.34299766 </v>
   <v>      -0.43582561      -0.28927652       0.34323508 </v>
   <v>       0.31387031       0.20942137       0.34321491 </v>
   <v>       0.06285525      -0.45703429       0.38809432 </v>
   <v>      -0.06200688      -0.20815735       0.38866811 </v>
   <v>       0.18664085      -0.20805565       0.38822238 </v>
   <v>      -0.18765494      -0.45654785       0.38836357 </v>
   <v>       0.31054440      -0.45657444       0.38816887 </v>
   <v>       0.06326474       0.04033428       0.38853488 </v>
   <v>      -0.43521540       0.20807310       0.34301686 </v>
   <v>      -0.06171399       0.29200513       0.38861454 </v>
   <v>       0.18639986       0.29169428       0.38816791 </v>
   <v>      -0.31378991      -0.20732133       0.38870038 </v>
   <v>      -0.18896025       0.03968046       0.38867286 </v>
   <v>       0.31179390       0.03972890       0.38837807 </v>
   <v>       0.43667697      -0.20720449       0.38849742 </v>
   <v>      -0.43812783      -0.45601345       0.38848023 </v>
   <v>      -0.31288012       0.29038900       0.38873638 </v>
   <v>       0.43576982       0.29057515       0.38833714 </v>
   <v>      -0.43781870       0.03908143       0.38879557 </v>
   <v>       0.18331025      -0.37357068       0.43319842 </v>
   <v>       0.05873239      -0.12586254       0.43300313 </v>
   <v>      -0.06758549      -0.37335591       0.43364536 </v>
   <v>       0.05841729       0.37517822       0.43329895 </v>
   <v>      -0.19184275      -0.12527365       0.43303267 </v>
   <v>       0.30987727      -0.12544669       0.43300222 </v>
   <v>      -0.31581106      -0.37354234       0.43333390 </v>
   <v>      -0.19127735       0.37524354       0.43356651 </v>
   <v>       0.30828894       0.37482055       0.43337718 </v>
   <v>       0.43428500      -0.37288983       0.43323557 </v>
   <v>       0.18380257       0.12433494       0.43322700 </v>
   <v>      -0.06785838       0.12393939       0.43349422 </v>
   <v>      -0.44092159      -0.12466708       0.43303071 </v>
   <v>      -0.31674347       0.12377843       0.43332709 </v>
   <v>       0.43479559       0.12307101       0.43345269 </v>
   <v>      -0.44004764       0.37471301       0.43357560 </v>
   <v>       0.06710065      -0.29042913       0.47754908 </v>
   <v>      -0.18280996      -0.29026519       0.47748081 </v>
   <v>      -0.05765342       0.46101446       0.47761274 </v>
   <v>      -0.05741865      -0.04016479       0.47742138 </v>
   <v>       0.19175435       0.46035847       0.47774406 </v>
   <v>       0.31725022      -0.28916810       0.47749949 </v>
   <v>       0.19282409      -0.03979723       0.47751976 </v>
   <v>      -0.30764137       0.46054150       0.47755573 </v>
   <v>      -0.30852617      -0.04002807       0.47731412 </v>
   <v>       0.06774273       0.21105620       0.47770299 </v>
   <v>       0.44251808       0.45984158       0.47765654 </v>
   <v>       0.44230023      -0.03990425       0.47734432 </v>
   <v>      -0.18315501       0.21098784       0.47761803 </v>
   <v>      -0.43266020      -0.28931279       0.47745477 </v>
   <v>       0.31750096       0.21019147       0.47768845 </v>
   <v>      -0.43289998       0.21017921       0.47752752 </v>
   <v>       0.05695750      -0.46122743      -0.47756998 </v>
   <v>      -0.06731961      -0.21167242      -0.47749476 </v>
   <v>       0.18198992      -0.21056859      -0.47754056 </v>
   <v>      -0.19161464      -0.46084351      -0.47758530 </v>
   <v>       0.30676438      -0.46141383      -0.47770293 </v>
   <v>       0.05733766       0.03954322      -0.47731306 </v>
   <v>      -0.31717949      -0.21098393      -0.47778410 </v>
   <v>      -0.06703930       0.28926862      -0.47744658 </v>
   <v>       0.18250920       0.28937470      -0.47751250 </v>
   <v>       0.43201272      -0.21033468      -0.47788544 </v>
   <v>       0.30726926       0.03895985      -0.47770407 </v>
   <v>      -0.19185581       0.03952556      -0.47737495 </v>
   <v>      -0.31684330       0.28900412      -0.47779742 </v>
   <v>      -0.44179457      -0.46068760      -0.47787621 </v>
   <v>       0.43238254       0.28890309      -0.47787759 </v>
   <v>      -0.44269501       0.03915685      -0.47789541 </v>
   <v>       0.06595217      -0.27789926      -0.12338912 </v>
   <v>      -0.06020150       0.46894880      -0.12356070 </v>
   <v>      -0.18125552      -0.27818878      -0.12343583 </v>
   <v>       0.18700511       0.46750091      -0.12358739 </v>
   <v>      -0.06029490      -0.03259743      -0.12343682 </v>
   <v>       0.31617120      -0.27722766      -0.12352185 </v>
   <v>       0.18784049      -0.03291471      -0.12368188 </v>
   <v>       0.06650730       0.22465677      -0.12389075 </v>
   <v>      -0.30895181       0.46790445      -0.12386356 </v>
   <v>      -0.30862584      -0.03207084      -0.12362123 </v>
   <v>       0.43849588       0.46777653      -0.12399321 </v>
   <v>       0.43842571      -0.03171926      -0.12389078 </v>
   <v>      -0.18105178       0.22476699      -0.12369360 </v>
   <v>      -0.43163608      -0.27749863      -0.12379571 </v>
   <v>       0.31641384       0.22373755      -0.12398590 </v>
   <v>      -0.05834638      -0.37515876      -0.43329897 </v>
   <v>       0.18999309      -0.37553511      -0.43317215 </v>
   <v>       0.06617667      -0.12423608      -0.43313335 </v>
   <v>      -0.18223201      -0.12484567      -0.43327904 </v>
   <v>       0.06607017       0.37456072      -0.43307939 </v>
   <v>       0.31505119      -0.12373357      -0.43321034 </v>
   <v>      -0.43218752       0.22410926      -0.12405031 </v>
   <v>      -0.30692765      -0.37539511      -0.43328008 </v>
   <v>      -0.18237966       0.37484789      -0.43319004 </v>
   <v>       0.31479686       0.37391099      -0.43310516 </v>
   <v>      -0.05789803       0.12560629      -0.43321043 </v>
   <v>       0.44054100      -0.37528381      -0.43334782 </v>
   <v>       0.19034664       0.12525115      -0.43302193 </v>
   <v>      -0.43355990      -0.12432910      -0.43335062 </v>
   <v>      -0.30764160       0.12583469      -0.43317028 </v>
   <v>       0.44032924       0.12552036      -0.43305044 </v>
   <v>      -0.43319362       0.37420790      -0.43317585 </v>
   <v>      -0.06607735      -0.36403616      -0.16611048 </v>
   <v>       0.18272742      -0.36387698      -0.16616855 </v>
   <v>       0.05806694      -0.11135330      -0.16611193 </v>
   <v>       0.05832290       0.38760586      -0.16632395 </v>
   <v>      -0.19063590      -0.11304115      -0.16608963 </v>
   <v>       0.30926065      -0.11063923      -0.16650420 </v>
   <v>      -0.19057980       0.38801396      -0.16607395 </v>
   <v>       0.30877234       0.38572987      -0.16653759 </v>
   <v>      -0.31529572      -0.36333053      -0.16653952 </v>
   <v>       0.43512571      -0.36325396      -0.16649666 </v>
   <v>      -0.06466810       0.13784695      -0.16635267 </v>
   <v>       0.18382742       0.13839891      -0.16680599 </v>
   <v>      -0.44114785      -0.11171496      -0.16691258 </v>
   <v>      -0.31638425       0.13865548      -0.16654470 </v>
   <v>       0.43381994       0.13882041      -0.16707641 </v>
   <v>      -0.44135900       0.38717089      -0.16678319 </v>
   <v>       0.06272006      -0.29175371      -0.38863780 </v>
   <v>      -0.06152708       0.45733995      -0.38885229 </v>
   <v>      -0.18607283      -0.29212391      -0.38862336 </v>
   <v>      -0.06153121      -0.04145787      -0.38882660 </v>
   <v>       0.18706381       0.45666128      -0.38866029 </v>
   <v>       0.18749376      -0.04086326      -0.38867966 </v>
   <v>       0.31141679      -0.29191253      -0.38841751 </v>
   <v>       0.06345442       0.20815410      -0.38892659 </v>
   <v>      -0.31142139       0.45695876      -0.38870512 </v>
   <v>      -0.31149904      -0.04089321      -0.38854918 </v>
   <v>       0.43682764       0.45627063      -0.38833701 </v>
   <v>       0.43666271      -0.03989475      -0.38838809 </v>
   <v>      -0.18675290       0.20832308      -0.38880769 </v>
   <v>      -0.43619110      -0.29214088      -0.38841012 </v>
   <v>       0.31188801       0.20762789      -0.38848255 </v>
   <v>      -0.43793503       0.20777865      -0.38854065 </v>
   <v>       0.07028126      -0.45299143      -0.21102383 </v>
   <v>      -0.05563693      -0.20173700      -0.21118550 </v>
   <v>       0.19509094      -0.19958942      -0.21136408 </v>
   <v>      -0.17925743      -0.44997309      -0.21094687 </v>
   <v>       0.31931430      -0.45193946      -0.21103152 </v>
   <v>       0.07091480       0.05138233      -0.21108303 </v>
   <v>      -0.05222352       0.29840403      -0.21117883 </v>
   <v>      -0.30457194      -0.20196735      -0.21123100 </v>
   <v>       0.19530114       0.29677462      -0.21116404 </v>
   <v>      -0.18006289       0.04958535      -0.21109982 </v>
   <v>       0.44529820      -0.19983886      -0.21114794 </v>
   <v>       0.32069430       0.05137910      -0.21096352 </v>
   <v>      -0.42929759      -0.45125974      -0.21089533 </v>
   <v>      -0.30588969       0.29936664      -0.21130597 </v>
   <v>       0.44458788       0.29702753      -0.21099609 </v>
   <v>      -0.43237310       0.05020384      -0.21110874 </v>
   <v>      -0.06459256      -0.20886078      -0.34443300 </v>
   <v>       0.06162924      -0.45945904      -0.34433826 </v>
   <v>       0.18549270      -0.20879067      -0.34415336 </v>
   <v>      -0.19006052      -0.45952895      -0.34437168 </v>
   <v>       0.30961614      -0.46045189      -0.34413308 </v>
   <v>       0.06105062       0.04100117      -0.34408665 </v>
   <v>      -0.06474271       0.29018517      -0.34409911 </v>
   <v>       0.18644265       0.29003428      -0.34413919 </v>
   <v>      -0.31489559      -0.20840854      -0.34407865 </v>
   <v>      -0.19045675       0.04123199      -0.34399408 </v>
   <v>       0.30986310       0.04187754      -0.34409586 </v>
   <v>       0.43431116      -0.20830399      -0.34391540 </v>
   <v>      -0.44087929      -0.46028263      -0.34406664 </v>
   <v>      -0.31555269       0.28985407      -0.34396157 </v>
   <v>       0.43418439       0.29009929      -0.34403648 </v>
   <v>      -0.44002275       0.04158565      -0.34396819 </v>
   <v>       0.06049132      -0.28817233      -0.25458215 </v>
   <v>      -0.06604561       0.46144095      -0.25440762 </v>
   <v>       0.18426536       0.46110334      -0.25454558 </v>
   <v>      -0.18901442      -0.28889372      -0.25458911 </v>
   <v>       0.30943471      -0.28782994      -0.25513115 </v>
   <v>      -0.06526226      -0.03557422      -0.25510274 </v>
   <v>       0.18365803      -0.03623075      -0.25500992 </v>
   <v>      -0.31403047       0.46087271      -0.25454567 </v>
   <v>       0.06090036       0.21133666      -0.25470680 </v>
   <v>       0.43557687       0.46069480      -0.25463603 </v>
   <v>      -0.31500638      -0.03658169      -0.25516625 </v>
   <v>       0.43433878      -0.03700873      -0.25490774 </v>
   <v>       0.30965499       0.21146628      -0.25474891 </v>
   <v>      -0.43846070      -0.28769313      -0.25482797 </v>
   <v>      -0.18911677       0.21117078      -0.25539484 </v>
   <v>      -0.43798138       0.21173901      -0.25491166 </v>
   <v>      -0.05288738      -0.37416825      -0.29955324 </v>
   <v>       0.07289800      -0.12191307      -0.29987723 </v>
   <v>       0.19788168      -0.37391777      -0.29979238 </v>
   <v>      -0.17918235      -0.12155191      -0.29959152 </v>
   <v>       0.07220115       0.37398092      -0.29951584 </v>
   <v>       0.32152349      -0.12253331      -0.29974569 </v>
   <v>      -0.30341423      -0.37395339      -0.29955343 </v>
   <v>      -0.17898609       0.37367102      -0.29962805 </v>
   <v>       0.32102737       0.37481886      -0.30003782 </v>
   <v>       0.44528290      -0.37346048      -0.29994613 </v>
   <v>       0.19645050       0.12645370      -0.29989040 </v>
   <v>      -0.05343195       0.12725751      -0.29936923 </v>
   <v>      -0.42916546      -0.12161478      -0.29969280 </v>
   <v>      -0.30283164       0.12686776      -0.29947328 </v>
   <v>       0.44673013       0.12598665      -0.29983989 </v>
   <v>      -0.42779726       0.37401649      -0.29963181 </v>
  </varray>
 </structure>
 <varray name="primitive_index" >
  <v type="int" >        1 </v>
  <v type="int" >      238 </v>
  <v type="int" >      220 </v>
  <v type="int" >      193 </v>
  <v type="int" >       89 </v>
  <v type="int" >      208 </v>
  <v type="int" >       10 </v>
  <v type="int" >      242 </v>
  <v type="int" >      192 </v>
  <v type="int" >      109 </v>
  <v type="int" >       81 </v>
  <v type="int" >       71 </v>
  <v type="int" >       35 </v>
  <v type="int" >      288 </v>
  <v type="int" >       32 </v>
  <v type="int" >      263 </v>
  <v type="int" >      243 </v>
  <v type="int" >       55 </v>
  <v type="int" >      283 </v>
  <v type="int" >      128 </v>
  <v type="int" >      252 </v>
  <v type="int" >       38 </v>
  <v type="int" >      117 </v>
  <v type="int" >      162 </v>
  <v type="int" >      155 </v>
  <v type="int" >      147 </v>
  <v type="int" >      222 </v>
  <v type="int" >       45 </v>
  <v type="int" >      158 </v>
  <v type="int" >      183 </v>
  <v type="int" >      262 </v>
  <v type="int" >      265 </v>
  <v type="int" >      160 </v>
  <v type="int" >      205 </v>
  <v type="int" >       28 </v>
  <v type="int" >       15 </v>
  <v type="int" >      161 </v>
  <v type="int" >      126 </v>
  <v type="int" >      278 </v>
  <v type="int" >      226 </v>
  <v type="int" >      286 </v>
  <v type="int" >      227 </v>
  <v type="int" >       26 </v>
  <v type="int" >      277 </v>
  <v type="int" >      108 </v>
  <v type="int" >       14 </v>
  <v type="int" >       48 </v>
  <v type="int" >       70 </v>
  <v type="int" >       61 </v>
  <v type="int" >      197 </v>
  <v type="int" >      251 </v>
  <v type="int" >       33 </v>
  <v type="int" >      203 </v>
  <v type="int" >      104 </v>
  <v type="int" >       52 </v>
  <v type="int" >      100 </v>
  <v type="int" >       25 </v>
  <v type="int" >      144 </v>
  <v type="int" >       90 </v>
  <v type="int" >      191 </v>
  <v type="int" >       99 </v>
  <v type="int" >      189 </v>
  <v type="int" >      133 </v>
  <v type="int" >      145 </v>
  <v type="int" >      142 </v>
  <v type="int" >       23 </v>
  <v type="int" >        5 </v>
  <v type="int" >       83 </v>
  <v type="int" >      143 </v>
  <v type="int" >      261 </v>
  <v type="int" >      122 </v>
  <v type="int" >      112 </v>
  <v type="int" >      190 </v>
  <v type="int" >      118 </v>
  <v type="int" >      267 </v>
  <v type="int" >      255 </v>
  <v type="int" >      120 </v>
  <v type="int" >       92 </v>
  <v type="int" >      169 </v>
  <v type="int" >       43 </v>
  <v type="int" >      170 </v>
  <v type="int" >       63 </v>
  <v type="int" >      257 </v>
  <v type="int" >      279 </v>
  <v type="int" >      254 </v>
  <v type="int" >      124 </v>
  <v type="int" >      214 </v>
  <v type="int" >       34 </v>
  <v type="int" >      153 </v>
  <v type="int" >       24 </v>
  <v type="int" >       95 </v>
  <v type="int" >      236 </v>
  <v type="int" >      172 </v>
  <v type="int" >      123 </v>
  <v type="int" >      258 </v>
  <v type="int" >      247 </v>
  <v type="int" >      198 </v>
  <v type="int" >      229 </v>
  <v type="int" >       86 </v>
  <v type="int" >       57 </v>
  <v type="int" >      246 </v>
  <v type="int" >       50 </v>
  <v type="int" >      273 </v>
  <v type="int" >      105 </v>
  <v type="int" >      156 </v>
  <v type="int" >       17 </v>
  <v type="int" >      134 </v>
  <v type="int" >       79 </v>
  <v type="int" >      171 </v>
  <v type="int" >      232 </v>
  <v type="int" >      248 </v>
  <v type="int" >      244 </v>
  <v type="int" >      168 </v>
  <v type="int" >      211 </v>
  <v type="int" >      282 </v>
  <v type="int" >      256 </v>
  <v type="int" >       46 </v>
  <v type="int" >      240 </v>
  <v type="int" >       94 </v>
  <v type="int" >       29 </v>
  <v type="int" >      215 </v>
  <v type="int" >      281 </v>
  <v type="int" >      223 </v>
  <v type="int" >      285 </v>
  <v type="int" >      239 </v>
  <v type="int" >      115 </v>
  <v type="int" >      184 </v>
  <v type="int" >      136 </v>
  <v type="int" >       62 </v>
  <v type="int" >      268 </v>
  <v type="int" >      166 </v>
  <v type="int" >      179 </v>
  <v type="int" >      132 </v>
  <v type="int" >      217 </v>
  <v type="int" >      176 </v>
  <v type="int" >      249 </v>
  <v type="int" >       91 </v>
  <v type="int" >      185 </v>
  <v type="int" >       19 </v>
  <v type="int" >      130 </v>
  <v type="int" >      206 </v>
  <v type="int" >      207 </v>
  <v type="int" >      175 </v>
  <v type="int" >       11 </v>
  <v type="int" >      178 </v>
  <v type="int" >      116 </v>
  <v type="int" >      107 </v>
  <v type="int" >      241 </v>
  <v type="int" >      230 </v>
  <v type="int" >      218 </v>
  <v type="int" >       18 </v>
  <v type="int" >      209 </v>
  <v type="int" >      225 </v>
  <v type="int" >      187 </v>
  <v type="int" >      266 </v>
  <v type="int" >       93 </v>
  <v type="int" >       87 </v>
  <v type="int" >      141 </v>
  <v type="int" >      111 </v>
  <v type="int" >      181 </v>
  <v type="int" >       58 </v>
  <v type="int" >      151 </v>
  <v type="int" >      101 </v>
  <v type="int" >      125 </v>
  <v type="int" >      274 </v>
  <v type="int" >        2 </v>
  <v type="int" >      154 </v>
  <v type="int" >      212 </v>
  <v type="int" >       27 </v>
  <v type="int" >      234 </v>
  <v type="int" >      173 </v>
  <v type="int" >       97 </v>
  <v type="int" >       41 </v>
  <v type="int" >      131 </v>
  <v type="int" >       39 </v>
  <v type="int" >       72 </v>
  <v type="int" >      148 </v>
  <v type="int" >       12 </v>
  <v type="int" >      276 </v>
  <v type="int" >      250 </v>
  <v type="int" >       40 </v>
  <v type="int" >       13 </v>
  <v type="int" >      264 </v>
  <v type="int" >      146 </v>
  <v type="int" >      216 </v>
  <v type="int" >      259 </v>
  <v type="int" >       21 </v>
  <v type="int" >      233 </v>
  <v type="int" >       98 </v>
  <v type="int" >      235 </v>
  <v type="int" >       68 </v>
  <v type="int" >       16 </v>
  <v type="int" >       59 </v>
  <v type="int" >       66 </v>
  <v type="int" >      177 </v>
  <v type="int" >        6 </v>
  <v type="int" >       75 </v>
  <v type="int" >        7 </v>
  <v type="int" >       73 </v>
  <v type="int" >      150 </v>
  <v type="int" >      271 </v>
  <v type="int" >      152 </v>
  <v type="int" >      129 </v>
  <v type="int" >      188 </v>
  <v type="int" >      174 </v>
  <v type="int" >      221 </v>
  <v type="int" >      269 </v>
  <v type="int" >      103 </v>
  <v type="int" >      180 </v>
  <v type="int" >      245 </v>
  <v type="int" >       82 </v>
  <v type="int" >      201 </v>
  <v type="int" >      194 </v>
  <v type="int" >       51 </v>
  <v type="int" >      280 </v>
  <v type="int" >      228 </v>
  <v type="int" >      102 </v>
  <v type="int" >        3 </v>
  <v type="int" >        4 </v>
  <v type="int" >      260 </v>
  <v type="int" >      167 </v>
  <v type="int" >       30 </v>
  <v type="int" >       77 </v>
  <v type="int" >      275 </v>
  <v type="int" >      284 </v>
  <v type="int" >      149 </v>
  <v type="int" >       36 </v>
  <v type="int" >      106 </v>
  <v type="int" >       60 </v>
  <v type="int" >       67 </v>
  <v type="int" >      199 </v>
  <v type="int" >       88 </v>
  <v type="int" >       54 </v>
  <v type="int" >      253 </v>
  <v type="int" >      114 </v>
  <v type="int" >       85 </v>
  <v type="int" >      121 </v>
  <v type="int" >      182 </v>
  <v type="int" >      127 </v>
  <v type="int" >       44 </v>
  <v type="int" >      157 </v>
  <v type="int" >      196 </v>
  <v type="int" >      113 </v>
  <v type="int" >       42 </v>
  <v type="int" >       49 </v>
  <v type="int" >      135 </v>
  <v type="int" >       69 </v>
  <v type="int" >      200 </v>
  <v type="int" >      210 </v>
  <v type="int" >      213 </v>
  <v type="int" >      186 </v>
  <v type="int" >       53 </v>
  <v type="int" >       31 </v>
  <v type="int" >       76 </v>
  <v type="int" >      159 </v>
  <v type="int" >      140 </v>
  <v type="int" >      204 </v>
  <v type="int" >      119 </v>
  <v type="int" >      110 </v>
  <v type="int" >      202 </v>
  <v type="int" >       84 </v>
  <v type="int" >      287 </v>
  <v type="int" >      237 </v>
  <v type="int" >      137 </v>
  <v type="int" >        9 </v>
  <v type="int" >       78 </v>
  <v type="int" >       80 </v>
  <v type="int" >       20 </v>
  <v type="int" >       64 </v>
  <v type="int" >      272 </v>
  <v type="int" >       96 </v>
  <v type="int" >      138 </v>
  <v type="int" >      164 </v>
  <v type="int" >      195 </v>
  <v type="int" >       74 </v>
  <v type="int" >      163 </v>
  <v type="int" >       65 </v>
  <v type="int" >      219 </v>
  <v type="int" >       56 </v>
  <v type="int" >      231 </v>
  <v type="int" >      270 </v>
  <v type="int" >        8 </v>
  <v type="int" >      165 </v>
  <v type="int" >      139 </v>
  <v type="int" >       22 </v>
  <v type="int" >      224 </v>
  <v type="int" >       37 </v>
  <v type="int" >       47 </v>
 </varray>
 <kpoints>
  <generation param="Gamma">
   <v type="int" name="divisions">       4        4        1 </v>
   <v name="usershift">      0.00000000       0.00000000       0.00000000 </v>
   <v name="genvec1">      0.25000000       0.00000000       0.00000000 </v>
   <v name="genvec2">      0.00000000       0.25000000       0.00000000 </v>
   <v name="genvec3">      0.00000000       0.00000000       1.00000000 </v>
   <v name="shift">      0.00000000       0.00000000       0.00000000 </v>
  </generation>
  <varray name="kpointlist" >
   <v>       0.00000000       0.00000000       0.00000000 </v>
   <v>       0.25000000       0.00000000       0.00000000 </v>
   <v>       0.50000000       0.00000000       0.00000000 </v>
   <v>       0.00000000       0.25000000       0.00000000 </v>
   <v>       0.25000000       0.25000000       0.00000000 </v>
   <v>       0.50000000       0.25000000       0.00000000 </v>
   <v>      -0.25000000       0.25000000       0.00000000 </v>
   <v>       0.00000000       0.50000000       0.00000000 </v>
   <v>       0.25000000       0.50000000       0.00000000 </v>
   <v>       0.50000000       0.50000000       0.00000000 </v>
  </varray>
  <varray name="weights" >
   <v>       0.06250000 </v>
   <v>       0.12500000 </v>
   <v>       0.06250000 </v>
   <v>       0.12500000 </v>
   <v>       0.12500000 </v>
   <v>       0.12500000 </v>
   <v>       0.12500000 </v>
   <v>       0.06250000 </v>
   <v>       0.12500000 </v>
   <v>       0.06250000 </v>
  </varray>
 </kpoints>
 <parameters>
  <separator name="general" >
   <i type="string" name="SYSTEM">unknown system</i>
   <i type="logical" name="LCOMPAT"> F  </i>
  </separator>
  <separator name="electronic" >
   <i type="string" name="PREC">accura</i>
   <i name="ENMAX">    450.00000000</i>
   <i name="ENAUG">    838.43500000</i>
   <i name="EDIFF">      0.00000100</i>
   <i type="int" name="IALGO">    68</i>
   <i type="int" name="IWAVPR">    11</i>
   <i type="int" name="NBANDS">  1386</i>
   <i name="NELECT">   2297.00000000</i>
   <i type="int" name="TURBO">     0</i>
   <i type="int" name="IRESTART">     0</i>
   <i type="int" name="NREBOOT">     0</i>
   <i type="int" name="NMIN">     0</i>
   <i name="EREF">      0.00000000</i>
   <separator name="electronic smearing" >
    <i type="int" name="ISMEAR">     0</i>
    <i name="SIGMA">      0.15000000</i>
    <i name="KSPACING">      0.50000000</i>
    <i type="logical" name="KGAMMA"> T  </i>
   </separator>
   <separator name="electronic projectors" >
    <i type="logical" name="LREAL"> T  </i>
    <v name="ROPT">     -0.00025000     -0.00025000</v>
    <i type="int" name="LMAXPAW">  -100</i>
    <i type="int" name="LMAXMIX">     2</i>
    <i type="logical" name="NLSPLINE"> F  </i>
   </separator>
   <separator name="electronic startup" >
    <i type="int" name="ISTART">     0</i>
    <i type="int" name="ICHARG">     2</i>
    <i type="int" name="INIWAV">     1</i>
   </separator>
   <separator name="electronic spin" >
    <i type="int" name="ISPIN">     1</i>
    <i type="logical" name="LNONCOLLINEAR"> F  </i>
    <v name="MAGMOM">      1.00000000      1.00000000      1.00000000      1.00000000      1.00000000      1.00000000      1.00000000      1.00000000      1.00000000      1.00000000      1.00000000      1.00000000      1.00000000      1.00000000      1.00000000      1.00000000      1.00000000      1.00000000      1.00000000      1.00000000
      1.00000000      1.00000000      1.00000000      1.00000000      1.00000000      1.00000000      1.00000000      1.00000000      1.00000000      1.00000000      1.00000000      1.00000000      1.00000000      1.00000000      1.00000000      1.00000000      1.00000000      1.00000000      1.00000000      1.00000000
      1.00000000      1.00000000      1.00000000      1.00000000      1.00000000      1.00000000      1.00000000      1.00000000      1.00000000      1.00000000      1.00000000      1.00000000      1.00000000      1.00000000      1.00000000      1.00000000      1.00000000      1.00000000      1.00000000      1.00000000
      1.00000000      1.00000000      1.00000000      1.00000000      1.00000000      1.00000000      1.00000000      1.00000000      1.00000000      1.00000000      1.00000000      1.00000000      1.00000000      1.00000000      1.00000000      1.00000000      1.00000000      1.00000000      1.00000000      1.00000000
      1.00000000      1.00000000      1.00000000      1.00000000      1.00000000      1.00000000      1.00000000      1.00000000      1.00000000      1.00000000      1.00000000      1.00000000      1.00000000      1.00000000      1.00000000      1.00000000      1.00000000      1.00000000      1.00000000      1.00000000
      1.00000000      1.00000000      1.00000000      1.00000000      1.00000000      1.00000000      1.00000000      1.00000000      1.00000000      1.00000000      1.00000000      1.00000000      1.00000000      1.00000000      1.00000000      1.00000000      1.00000000      1.00000000      1.00000000      1.00000000
      1.00000000      1.00000000      1.00000000      1.00000000      1.00000000      1.00000000      1.00000000      1.00000000      1.00000000      1.00000000      1.00000000      1.00000000      1.00000000      1.00000000      1.00000000      1.00000000      1.00000000      1.00000000      1.00000000      1.00000000
      1.00000000      1.00000000      1.00000000      1.00000000      1.00000000      1.00000000      1.00000000      1.00000000      1.00000000      1.00000000      1.00000000      1.00000000      1.00000000      1.00000000      1.00000000      1.00000000      1.00000000      1.00000000      1.00000000      1.00000000
      1.00000000      1.00000000      1.00000000      1.00000000      1.00000000      1.00000000      1.00000000      1.00000000      1.00000000      1.00000000      1.00000000      1.00000000      1.00000000      1.00000000      1.00000000      1.00000000      1.00000000      1.00000000      1.00000000      1.00000000
      1.00000000      1.00000000      1.00000000      1.00000000      1.00000000      1.00000000      1.00000000      1.00000000      1.00000000      1.00000000      1.00000000      1.00000000      1.00000000      1.00000000      1.00000000      1.00000000      1.00000000      1.00000000      1.00000000      1.00000000
      1.00000000      1.00000000      1.00000000      1.00000000      1.00000000      1.00000000      1.00000000      1.00000000      1.00000000      1.00000000      1.00000000      1.00000000      1.00000000      1.00000000      1.00000000      1.00000000      1.00000000      1.00000000      1.00000000      1.00000000
      1.00000000      1.00000000      1.00000000      1.00000000      1.00000000      1.00000000      1.00000000      1.00000000      1.00000000      1.00000000      1.00000000      1.00000000      1.00000000      1.00000000      1.00000000      1.00000000      1.00000000      1.00000000      1.00000000      1.00000000
      1.00000000      1.00000000      1.00000000      1.00000000      1.00000000      1.00000000      1.00000000      1.00000000      1.00000000      1.00000000      1.00000000      1.00000000      1.00000000      1.00000000      1.00000000      1.00000000      1.00000000      1.00000000      1.00000000      1.00000000
      1.00000000      1.00000000      1.00000000      1.00000000      1.00000000      1.00000000      1.00000000      1.00000000      1.00000000      1.00000000      1.00000000      1.00000000      1.00000000      1.00000000      1.00000000      1.00000000      1.00000000      1.00000000      1.00000000      1.00000000
      1.00000000      1.00000000      1.00000000      1.00000000      1.00000000      1.00000000      1.00000000      1.00000000</v>
    <i name="NUPDOWN">     -1.00000000</i>
    <i type="logical" name="LSORBIT"> F  </i>
    <v name="SAXIS">      0.00000000      0.00000000      1.00000000</v>
    <i type="logical" name="LSPIRAL"> F  </i>
    <v name="QSPIRAL">      0.00000000      0.00000000      0.00000000</v>
    <i type="logical" name="LZEROZ"> F  </i>
   </separator>
   <separator name="electronic exchange-correlation" >
    <i type="logical" name="LASPH"> F  </i>
    <i type="logical" name="LMETAGGA"> F  </i>
   </separator>
   <separator name="electronic convergence" >
    <i type="int" name="NELM">   200</i>
    <i type="int" name="NELMDL">     0</i>
    <i type="int" name="NELMIN">     4</i>
    <i name="ENINI">    450.00000000</i>
    <separator name="electronic convergence detail" >
     <i type="logical" name="LDIAG"> T  </i>
     <i type="logical" name="LSUBROT"> F  </i>
     <i name="WEIMIN">      0.00100000</i>
     <i name="EBREAK">      0.00000000</i>
     <i name="DEPER">      0.30000000</i>
     <i type="int" name="NRMM">     4</i>
     <i name="TIME">      0.40000000</i>
    </separator>
   </separator>
   <separator name="electronic mixer" >
    <i name="AMIX">      0.40000000</i>
    <i name="BMIX">      1.00000000</i>
    <i name="AMIN">      0.10000000</i>
    <i name="AMIX_MAG">      1.60000000</i>
    <i name="BMIX_MAG">      1.00000000</i>
    <separator name="electronic mixer details" >
     <i type="int" name="IMIX">     4</i>
     <i type="logical" name="MIXFIRST"> F  </i>
     <i type="int" name="MAXMIX">   -45</i>
     <i name="WC">    100.00000000</i>
     <i type="int" name="INIMIX">     1</i>
     <i type="int" name="MIXPRE">     1</i>
     <i type="int" name="MREMOVE">     5</i>
    </separator>
   </separator>
   <separator name="electronic dipolcorrection" >
    <i type="logical" name="LDIPOL"> F  </i>
    <i type="logical" name="LMONO"> F  </i>
    <i type="int" name="IDIPOL">     0</i>
    <i name="EPSILON">      1.00000000</i>
    <v name="DIPOL">   -100.00000000   -100.00000000   -100.00000000</v>
    <i name="EFIELD">      0.00000000</i>
   </separator>
  </separator>
  <separator name="grids" >
   <i type="int" name="NGX">    70</i>
   <i type="int" name="NGY">    60</i>
   <i type="int" name="NGZ">   320</i>
   <i type="int" name="NGXF">   140</i>
   <i type="int" name="NGYF">   120</i>
   <i type="int" name="NGZF">   640</i>
   <i type="logical" name="ADDGRID"> F  </i>
  </separator>
  <separator name="ionic" >
   <i type="int" name="NSW">     5</i>
   <i type="int" name="IBRION">     2</i>
   <i type="int" name="MDALGO">     0</i>
   <i type="int" name="ISIF">     2</i>
   <i name="PSTRESS">      0.00000000</i>
   <i name="EDIFFG">      0.00001000</i>
   <i type="int" name="NFREE">     1</i>
   <i name="POTIM">      0.25000000</i>
   <i name="SMASS">     -3.00000000</i>
   <i name="SCALEE">      1.00000000</i>
  </separator>
  <separator name="ionic md" >
   <i name="TEBEG">      0.00010000</i>
   <i name="TEEND">      0.00010000</i>
   <i type="int" name="NBLOCK">     1</i>
   <i type="int" name="KBLOCK">     5</i>
   <i type="int" name="NPACO">   256</i>
   <i name="APACO">     16.00000000</i>
  </separator>
  <separator name="symmetry" >
   <i type="int" name="ISYM">     2</i>
   <i name="SYMPREC">      0.00001000</i>
  </separator>
  <separator name="dos" >
   <i type="int" name="LORBIT">     0</i>
   <v name="RWIGS">     -1.00000000     -1.00000000</v>
   <i type="int" name="NEDOS">   301</i>
   <i name="EMIN">     10.00000000</i>
   <i name="EMAX">    -10.00000000</i>
   <i name="EFERMI">      0.00000000</i>
  </separator>
  <separator name="writing" >
   <i type="int" name="NWRITE">     2</i>
   <i type="logical" name="LWAVE"> F  </i>
   <i type="logical" name="LDOWNSAMPLE"> F  </i>
   <i type="logical" name="LCHARG"> F  </i>
   <i type="logical" name="LPARD"> F  </i>
   <i type="logical" name="LVTOT"> F  </i>
   <i type="logical" name="LVHAR"> F  </i>
   <i type="logical" name="LELF"> F  </i>
   <i type="logical" name="LOPTICS"> F  </i>
   <v name="STM">      0.00000000      0.00000000      0.00000000      0.00000000      0.00000000      0.00000000      0.00000000</v>
  </separator>
  <separator name="performance" >
   <i type="int" name="NPAR">    14</i>
   <i type="int" name="NSIM">     4</i>
   <i type="int" name="NBLK">    -1</i>
   <i type="logical" name="LPLANE"> T  </i>
   <i type="logical" name="LSCALAPACK"> T  </i>
   <i type="logical" name="LSCAAWARE"> T  </i>
   <i type="logical" name="LSCALU"> F  </i>
   <i type="logical" name="LASYNC"> F  </i>
   <i type="logical" name="LORBITALREAL"> F  </i>
  </separator>
  <separator name="miscellaneous" >
   <i type="int" name="IDIOT">     3</i>
   <i type="int" name="ISPECIAL">     0</i>
   <i type="logical" name="LMUSIC"> F  </i>
   <v name="POMASS">     55.84700000     54.93800000</v>
   <v name="DARWINR">      0.00000000      0.00000000</v>
   <v name="DARWINV">      1.00000000      1.00000000</v>
   <i type="logical" name="LCORR"> T  </i>
  </separator>
  <i type="logical" name="GGA_COMPAT"> T  </i>
  <i type="logical" name="LBERRY"> F  </i>
  <i type="int" name="ICORELEVEL">     0</i>
  <i type="logical" name="LDAU"> F  </i>
  <i type="int" name="I_CONSTRAINED_M">     0</i>
  <separator name="electronic exchange-correlation" >
   <i type="string" name="GGA">--</i>
   <i type="int" name="VOSKOWN">     0</i>
   <i type="logical" name="LHFCALC"> F  </i>
   <i type="string" name="PRECFOCK"></i>
   <i type="logical" name="LSYMGRAD"> F  </i>
   <i type="logical" name="LHFONE"> F  </i>
   <i type="logical" name="LRHFCALC"> F  </i>
   <i type="logical" name="LTHOMAS"> F  </i>
   <i type="logical" name="LMODELHF"> F  </i>
   <i name="ENCUT4O">     -1.00000000</i>
   <i type="int" name="EXXOEP">     0</i>
   <i type="int" name="FOURORBIT">     0</i>
   <i name="AEXX">      0.00000000</i>
   <i name="HFALPHA">      0.00000000</i>
   <i name="MCALPHA">      0.00000000</i>
   <i name="ALDAX">      1.00000000</i>
   <i name="AGGAX">      1.00000000</i>
   <i name="ALDAC">      1.00000000</i>
   <i name="AGGAC">      1.00000000</i>
   <i type="int" name="NKREDX">     1</i>
   <i type="int" name="NKREDY">     1</i>
   <i type="int" name="NKREDZ">     1</i>
   <i type="logical" name="SHIFTRED"> F  </i>
   <i type="logical" name="ODDONLY"> F  </i>
   <i type="logical" name="EVENONLY"> F  </i>
   <i type="int" name="LMAXFOCK">     0</i>
   <i type="int" name="NMAXFOCKAE">     0</i>
   <i type="logical" name="LFOCKAEDFT"> F  </i>
   <i name="HFSCREEN">      0.00000000</i>
   <i name="HFSCREENC">      0.00000000</i>
   <i type="int" name="NBANDSGWLOW">     0</i>
  </separator>
  <separator name="vdW DFT" >
   <i type="logical" name="LUSE_VDW"> F  </i>
   <i name="Zab_VDW">     -0.84910000</i>
   <i name="PARAM1">      0.12340000</i>
   <i name="PARAM2">      1.00000000</i>
   <i name="PARAM3">      0.00000000</i>
  </separator>
  <separator name="model GW" >
   <i type="int" name="MODEL_GW">     0</i>
   <i name="MODEL_EPS0">      7.68123389</i>
   <i name="MODEL_ALPHA">      1.00000000</i>
  </separator>
  <separator name="linear response parameters" >
   <i type="logical" name="LEPSILON"> F  </i>
   <i type="logical" name="LRPA"> F  </i>
   <i type="logical" name="LNABLA"> F  </i>
   <i type="logical" name="LVEL"> F  </i>
   <i type="int" name="KINTER">     0</i>
   <i name="CSHIFT">      0.10000000</i>
   <i name="OMEGAMAX">     -1.00000000</i>
   <i name="DEG_THRESHOLD">      0.00200000</i>
   <i name="RTIME">     -0.10000000</i>
   <i name="WPLASMAI">      0.00000000</i>
   <v name="DFIELD">      0.00000000      0.00000000      0.00000000</v>
   <v name="WPLASMA">      0.00000000      0.00000000      0.00000000      0.00000000      0.00000000      0.00000000      0.00000000      0.00000000      0.00000000</v>
  </separator>
  <separator name="orbital magnetization" >
   <i type="logical" name="NUCIND"> F  </i>
   <v name="MAGPOS">      0.00000000      0.00000000      0.00000000</v>
   <i type="logical" name="LNICSALL"> T  </i>
   <i type="logical" name="ORBITALMAG"> F  </i>
   <i type="logical" name="LMAGBLOCH"> F  </i>
   <i type="logical" name="LCHIMAG"> F  </i>
   <i type="logical" name="LGAUGE"> T  </i>
   <i type="int" name="MAGATOM">     0</i>
   <v name="MAGDIPOL">      0.00000000      0.00000000      0.00000000</v>
   <v name="AVECCONST">      0.00000000      0.00000000      0.00000000</v>
  </separator>
  <separator name="response functions" >
   <i type="logical" name="LADDER"> F  </i>
   <i type="logical" name="LRPAFORCE"> F  </i>
   <i type="logical" name="LFXC"> F  </i>
   <i type="logical" name="LHARTREE"> T  </i>
   <i type="int" name="IBSE">     0</i>
   <v type="int" name="KPOINT">    -1     0     0     0</v>
   <i type="logical" name="LTCTE"> F  </i>
   <i type="logical" name="LTETE"> F  </i>
   <i type="logical" name="LTRIPLET"> F  </i>
   <i type="logical" name="LFXCEPS"> F  </i>
   <i type="logical" name="LFXHEG"> F  </i>
   <i type="int" name="NATURALO">     2</i>
   <i type="logical" name="L2ORDER"> F  </i>
   <i type="logical" name="LMP2LT"> F  </i>
   <i type="logical" name="LUSEW"> F  </i>
   <i name="ENCUTGW">     -2.00000000</i>
   <i name="ENCUTGWSOFT">     -2.00000000</i>
   <i name="ENCUTLF">     -1.00000000</i>
   <i type="int" name="LMAXMP2">    -1</i>
   <i name="SCISSOR">      0.00000000</i>
   <i type="int" name="NOMEGA">     0</i>
   <i type="int" name="NOMEGAR">     0</i>
   <i type="int" name="NBANDSGW">    -1</i>
   <i type="int" name="NBANDSO">    -1</i>
   <i type="int" name="NBANDSV">    -1</i>
   <i type="int" name="NELM">   200</i>
   <i type="int" name="NELMHF">     1</i>
   <i type="int" name="DIM">     3</i>
   <i type="int" name="ANTIRES">     0</i>
   <i name="OMEGAMAX">    -30.00000000</i>
   <i name="OMEGAMIN">    -30.00000000</i>
   <i name="OMEGATL">   -200.00000000</i>
   <i type="int" name="OMEGAGRID">   140</i>
   <i name="CSHIFT">     -0.10000000</i>
   <i type="logical" name="SELFENERGY"> F  </i>
   <i type="logical" name="LSPECTRAL"> F  </i>
   <i type="logical" name="LSPECTRALGW"> F  </i>
   <i type="logical" name="LSINGLES"> F  </i>
   <i type="logical" name="LFERMIGW"> F  </i>
   <i type="logical" name="ODDONLYGW"> F  </i>
   <i type="logical" name="EVENONLYGW"> F  </i>
   <i type="int" name="NKREDLFX">     1</i>
   <i type="int" name="NKREDLFY">     1</i>
   <i type="int" name="NKREDLFZ">     1</i>
   <i type="int" name="MAXMEM">  2800</i>
   <i type="int" name="TELESCOPE">     0</i>
   <i type="int" name="TAUPAR">     1</i>
   <i type="int" name="OMEGAPAR">    -1</i>
   <i name="LAMBDA">      1.00000000</i>
  </separator>
  <separator name="External order field" >
   <i name="OFIELD_KAPPA">      0.00000000</i>
   <v name="OFIELD_K">      0.00000000      0.00000000      0.00000000</v>
   <i name="OFIELD_Q6_NEAR">      0.00000000</i>
   <i name="OFIELD_Q6_FAR">      0.00000000</i>
   <i name="OFIELD_A">      0.00000000</i>
  </separator>
 </parameters>
 <atominfo>
  <atoms>     288 </atoms>
  <types>       2 </types>
  <array name="atoms" >
   <dimension dim="1">ion</dimension>
   <field type="string">element</field>
   <field type="int">atomtype</field>
   <set>
    <rc><c>Fe</c><c>   1</c></rc>
    <rc><c>Fe</c><c>   1</c></rc>
    <rc><c>Fe</c><c>   1</c></rc>
    <rc><c>Fe</c><c>   1</c></rc>
    <rc><c>Fe</c><c>   1</c></rc>
    <rc><c>Fe</c><c>   1</c></rc>
    <rc><c>Fe</c><c>   1</c></rc>
    <rc><c>Fe</c><c>   1</c></rc>
    <rc><c>Fe</c><c>   1</c></rc>
    <rc><c>Fe</c><c>   1</c></rc>
    <rc><c>Fe</c><c>   1</c></rc>
    <rc><c>Fe</c><c>   1</c></rc>
    <rc><c>Fe</c><c>   1</c></rc>
    <rc><c>Fe</c><c>   1</c></rc>
    <rc><c>Fe</c><c>   1</c></rc>
    <rc><c>Fe</c><c>   1</c></rc>
    <rc><c>Fe</c><c>   1</c></rc>
    <rc><c>Fe</c><c>   1</c></rc>
    <rc><c>Fe</c><c>   1</c></rc>
    <rc><c>Fe</c><c>   1</c></rc>
    <rc><c>Fe</c><c>   1</c></rc>
    <rc><c>Fe</c><c>   1</c></rc>
    <rc><c>Fe</c><c>   1</c></rc>
    <rc><c>Fe</c><c>   1</c></rc>
    <rc><c>Fe</c><c>   1</c></rc>
    <rc><c>Fe</c><c>   1</c></rc>
    <rc><c>Fe</c><c>   1</c></rc>
    <rc><c>Fe</c><c>   1</c></rc>
    <rc><c>Fe</c><c>   1</c></rc>
    <rc><c>Fe</c><c>   1</c></rc>
    <rc><c>Fe</c><c>   1</c></rc>
    <rc><c>Fe</c><c>   1</c></rc>
    <rc><c>Fe</c><c>   1</c></rc>
    <rc><c>Fe</c><c>   1</c></rc>
    <rc><c>Fe</c><c>   1</c></rc>
    <rc><c>Fe</c><c>   1</c></rc>
    <rc><c>Fe</c><c>   1</c></rc>
    <rc><c>Fe</c><c>   1</c></rc>
    <rc><c>Fe</c><c>   1</c></rc>
    <rc><c>Fe</c><c>   1</c></rc>
    <rc><c>Fe</c><c>   1</c></rc>
    <rc><c>Fe</c><c>   1</c></rc>
    <rc><c>Fe</c><c>   1</c></rc>
    <rc><c>Fe</c><c>   1</c></rc>
    <rc><c>Fe</c><c>   1</c></rc>
    <rc><c>Fe</c><c>   1</c></rc>
    <rc><c>Fe</c><c>   1</c></rc>
    <rc><c>Fe</c><c>   1</c></rc>
    <rc><c>Fe</c><c>   1</c></rc>
    <rc><c>Fe</c><c>   1</c></rc>
    <rc><c>Fe</c><c>   1</c></rc>
    <rc><c>Fe</c><c>   1</c></rc>
    <rc><c>Fe</c><c>   1</c></rc>
    <rc><c>Fe</c><c>   1</c></rc>
    <rc><c>Fe</c><c>   1</c></rc>
    <rc><c>Fe</c><c>   1</c></rc>
    <rc><c>Fe</c><c>   1</c></rc>
    <rc><c>Fe</c><c>   1</c></rc>
    <rc><c>Fe</c><c>   1</c></rc>
    <rc><c>Fe</c><c>   1</c></rc>
    <rc><c>Fe</c><c>   1</c></rc>
    <rc><c>Fe</c><c>   1</c></rc>
    <rc><c>Fe</c><c>   1</c></rc>
    <rc><c>Fe</c><c>   1</c></rc>
    <rc><c>Fe</c><c>   1</c></rc>
    <rc><c>Fe</c><c>   1</c></rc>
    <rc><c>Fe</c><c>   1</c></rc>
    <rc><c>Fe</c><c>   1</c></rc>
    <rc><c>Fe</c><c>   1</c></rc>
    <rc><c>Fe</c><c>   1</c></rc>
    <rc><c>Fe</c><c>   1</c></rc>
    <rc><c>Fe</c><c>   1</c></rc>
    <rc><c>Fe</c><c>   1</c></rc>
    <rc><c>Fe</c><c>   1</c></rc>
    <rc><c>Fe</c><c>   1</c></rc>
    <rc><c>Fe</c><c>   1</c></rc>
    <rc><c>Fe</c><c>   1</c></rc>
    <rc><c>Fe</c><c>   1</c></rc>
    <rc><c>Fe</c><c>   1</c></rc>
    <rc><c>Fe</c><c>   1</c></rc>
    <rc><c>Fe</c><c>   1</c></rc>
    <rc><c>Fe</c><c>   1</c></rc>
    <rc><c>Fe</c><c>   1</c></rc>
    <rc><c>Fe</c><c>   1</c></rc>
    <rc><c>Fe</c><c>   1</c></rc>
    <rc><c>Fe</c><c>   1</c></rc>
    <rc><c>Fe</c><c>   1</c></rc>
    <rc><c>Fe</c><c>   1</c></rc>
    <rc><c>Fe</c><c>   1</c></rc>
    <rc><c>Fe</c><c>   1</c></rc>
    <rc><c>Fe</c><c>   1</c></rc>
    <rc><c>Fe</c><c>   1</c></rc>
    <rc><c>Fe</c><c>   1</c></rc>
    <rc><c>Fe</c><c>   1</c></rc>
    <rc><c>Fe</c><c>   1</c></rc>
    <rc><c>Fe</c><c>   1</c></rc>
    <rc><c>Fe</c><c>   1</c></rc>
    <rc><c>Fe</c><c>   1</c></rc>
    <rc><c>Fe</c><c>   1</c></rc>
    <rc><c>Fe</c><c>   1</c></rc>
    <rc><c>Fe</c><c>   1</c></rc>
    <rc><c>Fe</c><c>   1</c></rc>
    <rc><c>Fe</c><c>   1</c></rc>
    <rc><c>Fe</c><c>   1</c></rc>
    <rc><c>Fe</c><c>   1</c></rc>
    <rc><c>Fe</c><c>   1</c></rc>
    <rc><c>Fe</c><c>   1</c></rc>
    <rc><c>Fe</c><c>   1</c></rc>
    <rc><c>Fe</c><c>   1</c></rc>
    <rc><c>Fe</c><c>   1</c></rc>
    <rc><c>Fe</c><c>   1</c></rc>
    <rc><c>Fe</c><c>   1</c></rc>
    <rc><c>Fe</c><c>   1</c></rc>
    <rc><c>Fe</c><c>   1</c></rc>
    <rc><c>Fe</c><c>   1</c></rc>
    <rc><c>Fe</c><c>   1</c></rc>
    <rc><c>Fe</c><c>   1</c></rc>
    <rc><c>Fe</c><c>   1</c></rc>
    <rc><c>Fe</c><c>   1</c></rc>
    <rc><c>Fe</c><c>   1</c></rc>
    <rc><c>Fe</c><c>   1</c></rc>
    <rc><c>Fe</c><c>   1</c></rc>
    <rc><c>Fe</c><c>   1</c></rc>
    <rc><c>Fe</c><c>   1</c></rc>
    <rc><c>Fe</c><c>   1</c></rc>
    <rc><c>Fe</c><c>   1</c></rc>
    <rc><c>Fe</c><c>   1</c></rc>
    <rc><c>Fe</c><c>   1</c></rc>
    <rc><c>Fe</c><c>   1</c></rc>
    <rc><c>Fe</c><c>   1</c></rc>
    <rc><c>Fe</c><c>   1</c></rc>
    <rc><c>Fe</c><c>   1</c></rc>
    <rc><c>Fe</c><c>   1</c></rc>
    <rc><c>Fe</c><c>   1</c></rc>
    <rc><c>Fe</c><c>   1</c></rc>
    <rc><c>Fe</c><c>   1</c></rc>
    <rc><c>Fe</c><c>   1</c></rc>
    <rc><c>Fe</c><c>   1</c></rc>
    <rc><c>Fe</c><c>   1</c></rc>
    <rc><c>Fe</c><c>   1</c></rc>
    <rc><c>Fe</c><c>   1</c></rc>
    <rc><c>Fe</c><c>   1</c></rc>
    <rc><c>Fe</c><c>   1</c></rc>
    <rc><c>Fe</c><c>   1</c></rc>
    <rc><c>Fe</c><c>   1</c></rc>
    <rc><c>Fe</c><c>   1</c></rc>
    <rc><c>Fe</c><c>   1</c></rc>
    <rc><c>Fe</c><c>   1</c></rc>
    <rc><c>Fe</c><c>   1</c></rc>
    <rc><c>Fe</c><c>   1</c></rc>
    <rc><c>Fe</c><c>   1</c></rc>
    <rc><c>Fe</c><c>   1</c></rc>
    <rc><c>Fe</c><c>   1</c></rc>
    <rc><c>Fe</c><c>   1</c></rc>
    <rc><c>Fe</c><c>   1</c></rc>
    <rc><c>Fe</c><c>   1</c></rc>
    <rc><c>Fe</c><c>   1</c></rc>
    <rc><c>Fe</c><c>   1</c></rc>
    <rc><c>Fe</c><c>   1</c></rc>
    <rc><c>Fe</c><c>   1</c></rc>
    <rc><c>Fe</c><c>   1</c></rc>
    <rc><c>Fe</c><c>   1</c></rc>
    <rc><c>Fe</c><c>   1</c></rc>
    <rc><c>Fe</c><c>   1</c></rc>
    <rc><c>Fe</c><c>   1</c></rc>
    <rc><c>Fe</c><c>   1</c></rc>
    <rc><c>Fe</c><c>   1</c></rc>
    <rc><c>Fe</c><c>   1</c></rc>
    <rc><c>Fe</c><c>   1</c></rc>
    <rc><c>Fe</c><c>   1</c></rc>
    <rc><c>Fe</c><c>   1</c></rc>
    <rc><c>Fe</c><c>   1</c></rc>
    <rc><c>Fe</c><c>   1</c></rc>
    <rc><c>Fe</c><c>   1</c></rc>
    <rc><c>Fe</c><c>   1</c></rc>
    <rc><c>Fe</c><c>   1</c></rc>
    <rc><c>Fe</c><c>   1</c></rc>
    <rc><c>Fe</c><c>   1</c></rc>
    <rc><c>Fe</c><c>   1</c></rc>
    <rc><c>Fe</c><c>   1</c></rc>
    <rc><c>Fe</c><c>   1</c></rc>
    <rc><c>Fe</c><c>   1</c></rc>
    <rc><c>Fe</c><c>   1</c></rc>
    <rc><c>Fe</c><c>   1</c></rc>
    <rc><c>Fe</c><c>   1</c></rc>
    <rc><c>Fe</c><c>   1</c></rc>
    <rc><c>Fe</c><c>   1</c></rc>
    <rc><c>Fe</c><c>   1</c></rc>
    <rc><c>Fe</c><c>   1</c></rc>
    <rc><c>Fe</c><c>   1</c></rc>
    <rc><c>Fe</c><c>   1</c></rc>
    <rc><c>Fe</c><c>   1</c></rc>
    <rc><c>Fe</c><c>   1</c></rc>
    <rc><c>Fe</c><c>   1</c></rc>
    <rc><c>Fe</c><c>   1</c></rc>
    <rc><c>Fe</c><c>   1</c></rc>
    <rc><c>Fe</c><c>   1</c></rc>
    <rc><c>Fe</c><c>   1</c></rc>
    <rc><c>Fe</c><c>   1</c></rc>
    <rc><c>Fe</c><c>   1</c></rc>
    <rc><c>Fe</c><c>   1</c></rc>
    <rc><c>Fe</c><c>   1</c></rc>
    <rc><c>Fe</c><c>   1</c></rc>
    <rc><c>Fe</c><c>   1</c></rc>
    <rc><c>Fe</c><c>   1</c></rc>
    <rc><c>Fe</c><c>   1</c></rc>
    <rc><c>Fe</c><c>   1</c></rc>
    <rc><c>Fe</c><c>   1</c></rc>
    <rc><c>Fe</c><c>   1</c></rc>
    <rc><c>Fe</c><c>   1</c></rc>
    <rc><c>Fe</c><c>   1</c></rc>
    <rc><c>Fe</c><c>   1</c></rc>
    <rc><c>Fe</c><c>   1</c></rc>
    <rc><c>Fe</c><c>   1</c></rc>
    <rc><c>Fe</c><c>   1</c></rc>
    <rc><c>Fe</c><c>   1</c></rc>
    <rc><c>Fe</c><c>   1</c></rc>
    <rc><c>Fe</c><c>   1</c></rc>
    <rc><c>Fe</c><c>   1</c></rc>
    <rc><c>Fe</c><c>   1</c></rc>
    <rc><c>Fe</c><c>   1</c></rc>
    <rc><c>Fe</c><c>   1</c></rc>
    <rc><c>Fe</c><c>   1</c></rc>
    <rc><c>Fe</c><c>   1</c></rc>
    <rc><c>Fe</c><c>   1</c></rc>
    <rc><c>Fe</c><c>   1</c></rc>
    <rc><c>Fe</c><c>   1</c></rc>
    <rc><c>Fe</c><c>   1</c></rc>
    <rc><c>Fe</c><c>   1</c></rc>
    <rc><c>Fe</c><c>   1</c></rc>
    <rc><c>Fe</c><c>   1</c></rc>
    <rc><c>Fe</c><c>   1</c></rc>
    <rc><c>Fe</c><c>   1</c></rc>
    <rc><c>Fe</c><c>   1</c></rc>
    <rc><c>Fe</c><c>   1</c></rc>
    <rc><c>Fe</c><c>   1</c></rc>
    <rc><c>Fe</c><c>   1</c></rc>
    <rc><c>Fe</c><c>   1</c></rc>
    <rc><c>Fe</c><c>   1</c></rc>
    <rc><c>Fe</c><c>   1</c></rc>
    <rc><c>Fe</c><c>   1</c></rc>
    <rc><c>Fe</c><c>   1</c></rc>
    <rc><c>Fe</c><c>   1</c></rc>
    <rc><c>Fe</c><c>   1</c></rc>
    <rc><c>Fe</c><c>   1</c></rc>
    <rc><c>Fe</c><c>   1</c></rc>
    <rc><c>Fe</c><c>   1</c></rc>
    <rc><c>Fe</c><c>   1</c></rc>
    <rc><c>Fe</c><c>   1</c></rc>
    <rc><c>Fe</c><c>   1</c></rc>
    <rc><c>Fe</c><c>   1</c></rc>
    <rc><c>Fe</c><c>   1</c></rc>
    <rc><c>Fe</c><c>   1</c></rc>
    <rc><c>Fe</c><c>   1</c></rc>
    <rc><c>Fe</c><c>   1</c></rc>
    <rc><c>Fe</c><c>   1</c></rc>
    <rc><c>Fe</c><c>   1</c></rc>
    <rc><c>Fe</c><c>   1</c></rc>
    <rc><c>Fe</c><c>   1</c></rc>
    <rc><c>Fe</c><c>   1</c></rc>
    <rc><c>Fe</c><c>   1</c></rc>
    <rc><c>Fe</c><c>   1</c></rc>
    <rc><c>Fe</c><c>   1</c></rc>
    <rc><c>Fe</c><c>   1</c></rc>
    <rc><c>Fe</c><c>   1</c></rc>
    <rc><c>Fe</c><c>   1</c></rc>
    <rc><c>Fe</c><c>   1</c></rc>
    <rc><c>Fe</c><c>   1</c></rc>
    <rc><c>Fe</c><c>   1</c></rc>
    <rc><c>Fe</c><c>   1</c></rc>
    <rc><c>Fe</c><c>   1</c></rc>
    <rc><c>Fe</c><c>   1</c></rc>
    <rc><c>Fe</c><c>   1</c></rc>
    <rc><c>Fe</c><c>   1</c></rc>
    <rc><c>Fe</c><c>   1</c></rc>
    <rc><c>Fe</c><c>   1</c></rc>
    <rc><c>Fe</c><c>   1</c></rc>
    <rc><c>Fe</c><c>   1</c></rc>
    <rc><c>Fe</c><c>   1</c></rc>
    <rc><c>Fe</c><c>   1</c></rc>
    <rc><c>Fe</c><c>   1</c></rc>
    <rc><c>Mn</c><c>   2</c></rc>
    <rc><c>Mn</c><c>   2</c></rc>
    <rc><c>Mn</c><c>   2</c></rc>
    <rc><c>Mn</c><c>   2</c></rc>
    <rc><c>Mn</c><c>   2</c></rc>
    <rc><c>Mn</c><c>   2</c></rc>
    <rc><c>Mn</c><c>   2</c></rc>
   </set>
  </array>
  <array name="atomtypes" >
   <dimension dim="1">type</dimension>
   <field type="int">atomspertype</field>
   <field type="string">element</field>
   <field>mass</field>
   <field>valence</field>
   <field type="string">pseudopotential</field>
   <set>
    <rc><c> 281</c><c>Fe</c><c>     55.84700000</c><c>      8.00000000</c><c>  PAW_PBE Fe_GW 31Mar2010               </c></rc>
    <rc><c>   7</c><c>Mn</c><c>     54.93800000</c><c>      7.00000000</c><c>  PAW_PBE Mn_GW 31Mar2010               </c></rc>
   </set>
  </array>
 </atominfo>
 <structure name="initialpos" >
  <crystal>
   <varray name="basis" >
    <v>       9.72667804       0.00000000       0.00000000 </v>
    <v>       0.00000000       8.42355028       0.00000000 </v>
    <v>       0.00000000       0.00000000      45.00000000 </v>
   </varray>
   <i name="volume">   3686.99226691 </i>
   <varray name="rec_basis" >
    <v>       0.10281002       0.00000000       0.00000000 </v>
    <v>       0.00000000       0.11871479       0.00000000 </v>
    <v>       0.00000000       0.00000000       0.02222222 </v>
   </varray>
  </crystal>
  <varray name="positions" >
   <v>       0.05470908       0.69951964       0.21207654 </v>
   <v>       0.31617120       0.72277234       0.87647815 </v>
   <v>       0.68850096       0.95910679       0.61145082 </v>
   <v>       0.43682764       0.45627063       0.61166299 </v>
   <v>       0.44015812       0.28841372       0.25346895 </v>
   <v>       0.05832290       0.38760586       0.83367605 </v>
   <v>       0.30926065       0.88936077       0.83349580 </v>
   <v>       0.44528290       0.62653952       0.70005387 </v>
   <v>       0.06090036       0.21133666       0.74529320 </v>
   <v>       0.18073979       0.45132797       0.21165667 </v>
   <v>       0.56710002       0.21017921       0.47752752 </v>
   <v>       0.06617667       0.87576392       0.56686665 </v>
   <v>       0.56781248       0.22410926       0.87594969 </v>
   <v>       0.81128004       0.52564689       0.12533501 </v>
   <v>       0.42979839       0.94952974       0.21185911 </v>
   <v>       0.56680638       0.37420790       0.56682415 </v>
   <v>       0.81103975       0.03968046       0.38867286 </v>
   <v>       0.68282051       0.78901607       0.52221590 </v>
   <v>       0.44251808       0.45984158       0.47765654 </v>
   <v>       0.43433878       0.96299127       0.74509226 </v>
   <v>       0.44054100       0.62471619       0.56665218 </v>
   <v>       0.57083454       0.87838522       0.70030720 </v>
   <v>       0.31227194       0.02671632       0.12519765 </v>
   <v>       0.68898301       0.95844826       0.34312060 </v>
   <v>       0.68696586       0.78512277       0.12552796 </v>
   <v>       0.05379249       0.37387229       0.29780450 </v>
   <v>       0.69104819       0.46790445       0.87613644 </v>
   <v>       0.42929181       0.45134109       0.21155411 </v>
   <v>       0.80872265       0.37524354       0.43356651 </v>
   <v>       0.56380890       0.70785912       0.61158988 </v>
   <v>       0.55912071       0.53971737       0.65593336 </v>
   <v>       0.81451025       0.86322244       0.16881192 </v>
   <v>       0.56527761       0.53774338       0.25316354 </v>
   <v>       0.69017302       0.46027917       0.34316287 </v>
   <v>       0.19285076       0.61115780       0.16863334 </v>
   <v>       0.19509094       0.80041058       0.78863592 </v>
   <v>       0.44673013       0.12598665       0.70016011 </v>
   <v>       0.92782542       0.62371446       0.29769921 </v>
   <v>       0.31641384       0.22373755       0.87601410 </v>
   <v>       0.31505119       0.87626643       0.56678966 </v>
   <v>       0.81894822       0.22476699       0.87630640 </v>
   <v>       0.80993948       0.54047105       0.65562832 </v>
   <v>       0.55742097       0.52528406       0.12507198 </v>
   <v>       0.56762690       0.05020384       0.78889126 </v>
   <v>       0.18895621       0.28802764       0.25367479 </v>
   <v>       0.80815725       0.87472635       0.43303267 </v>
   <v>       0.57220274       0.37401649       0.70036819 </v>
   <v>       0.05758467       0.02829396       0.12500752 </v>
   <v>       0.30961614       0.53954811       0.65586692 </v>
   <v>       0.56478460       0.20807310       0.34301686 </v>
   <v>       0.18749376       0.95913674       0.61132034 </v>
   <v>       0.30317366       0.37512518       0.29801251 </v>
   <v>       0.43431116       0.79169601       0.65608460 </v>
   <v>       0.19530114       0.29677462       0.78883596 </v>
   <v>       0.06684753       0.36304561       0.16860228 </v>
   <v>       0.69658577       0.62604661       0.70044657 </v>
   <v>       0.31054440       0.54342556       0.38816887 </v>
   <v>       0.06595217       0.72210074       0.87661088 </v>
   <v>       0.93392265       0.63596384       0.83388952 </v>
   <v>       0.31931430       0.54806054       0.78896848 </v>
   <v>       0.30572901       0.20223927       0.21141950 </v>
   <v>       0.06710065       0.70957087       0.47754908 </v>
   <v>       0.55533547       0.20187214       0.21177014 </v>
   <v>       0.30965499       0.21146628       0.74525109 </v>
   <v>       0.07220115       0.37398092       0.70048416 </v>
   <v>       0.18272742       0.63612302       0.83383145 </v>
   <v>       0.07091480       0.05138233       0.78891697 </v>
   <v>       0.44032924       0.12552036       0.56694956 </v>
   <v>       0.93525729       0.29018517       0.65590089 </v>
   <v>       0.80399905       0.20237115       0.21181643 </v>
   <v>       0.92879833       0.95164176       0.21213096 </v>
   <v>       0.94165362       0.62484124       0.56670103 </v>
   <v>       0.80942020       0.38801396       0.83392605 </v>
   <v>       0.19788168       0.62608223       0.70020762 </v>
   <v>       0.80936410       0.88695885       0.83391037 </v>
   <v>       0.68444731       0.28985407       0.65603843 </v>
   <v>       0.31188801       0.20762789       0.61151745 </v>
   <v>       0.43557687       0.46069480       0.74536397 </v>
   <v>       0.43667697       0.79279551       0.38849742 </v>
   <v>       0.68499362       0.96341831       0.74483375 </v>
   <v>       0.80359973       0.69908790       0.21203551 </v>
   <v>       0.81392717       0.70787609       0.61137664 </v>
   <v>       0.43670020       0.78639096       0.12543569 </v>
   <v>       0.30943471       0.71217006       0.74486885 </v>
   <v>       0.32069430       0.05137910       0.78903648 </v>
   <v>       0.81234506       0.54345215       0.38836357 </v>
   <v>       0.68315670       0.28900412       0.52220258 </v>
   <v>       0.69542806       0.79803265       0.78876900 </v>
   <v>       0.18997367       0.78684988       0.25367015 </v>
   <v>       0.69061466       0.11367834       0.16821883 </v>
   <v>       0.69147383       0.95997193       0.47731412 </v>
   <v>       0.94052513       0.95818749       0.34304584 </v>
   <v>       0.80814419       0.03952556       0.52262505 </v>
   <v>       0.68418894       0.62645766       0.43333390 </v>
   <v>       0.43868786       0.46075892       0.34306094 </v>
   <v>       0.81088323       0.21117078       0.74460516 </v>
   <v>       0.43842571       0.96828074       0.87610922 </v>
   <v>       0.56644010       0.87567090       0.56664938 </v>
   <v>       0.81066544       0.03029296       0.12506206 </v>
   <v>       0.42786204       0.62500391       0.29789447 </v>
   <v>       0.81874448       0.72181122       0.87656417 </v>
   <v>       0.68857861       0.45695876       0.61129488 </v>
   <v>       0.55864100       0.38717089       0.83321681 </v>
   <v>       0.80393233       0.37395753       0.29743882 </v>
   <v>       0.18639986       0.29169428       0.38816791 </v>
   <v>       0.82074257       0.55002691       0.78905313 </v>
   <v>       0.18198992       0.78943141       0.52245944 </v>
   <v>       0.30361674       0.87346790       0.29805932 </v>
   <v>       0.18043605       0.95023119       0.21205590 </v>
   <v>       0.18426536       0.46110334       0.74545442 </v>
   <v>       0.43238254       0.28890309       0.52212241 </v>
   <v>       0.06591839       0.70915584       0.34335192 </v>
   <v>       0.18549270       0.79120933       0.65584664 </v>
   <v>       0.44529820       0.80016114       0.78885206 </v>
   <v>       0.68325653       0.12377843       0.43332709 </v>
   <v>       0.93268039       0.78832758       0.52250524 </v>
   <v>       0.69138891       0.61159331       0.16881379 </v>
   <v>       0.81504448       0.71011617       0.34314500 </v>
   <v>       0.93395439       0.46144095       0.74559238 </v>
   <v>       0.18983692       0.46020504       0.34326917 </v>
   <v>       0.57070241       0.54874026       0.78910467 </v>
   <v>       0.56454371       0.36115302       0.16860566 </v>
   <v>       0.56417439       0.71072348       0.34323508 </v>
   <v>       0.55268535       0.37454673       0.29779012 </v>
   <v>       0.18700511       0.46750091       0.87641261 </v>
   <v>       0.19256245       0.11351423       0.16809658 </v>
   <v>       0.44458788       0.29702753       0.78900391 </v>
   <v>       0.68966552       0.78655393       0.25366585 </v>
   <v>       0.93533190       0.13784695       0.83364733 </v>
   <v>       0.44230023       0.96009575       0.47734432 </v>
   <v>       0.56836392       0.72250137       0.87620429 </v>
   <v>       0.19175435       0.46035847       0.47774406 </v>
   <v>       0.93340039       0.28042460       0.12533269 </v>
   <v>       0.31179390       0.03972890       0.38837807 </v>
   <v>       0.06105062       0.04100117       0.65591335 </v>
   <v>       0.55995236       0.37471301       0.43357560 </v>
   <v>       0.68596953       0.46087271       0.74545433 </v>
   <v>       0.56201862       0.21173901       0.74508834 </v>
   <v>       0.94656805       0.12725751       0.70063077 </v>
   <v>       0.55997725       0.04158565       0.65603181 </v>
   <v>       0.55820543       0.53931240       0.52212379 </v>
   <v>       0.17842048       0.12370234       0.29795342 </v>
   <v>       0.43943687       0.11210033       0.16786612 </v>
   <v>       0.67818884       0.62512751       0.29753140 </v>
   <v>       0.92792559       0.12318319       0.29774797 </v>
   <v>       0.81762034       0.37484789       0.56680996 </v>
   <v>       0.05350306       0.87385235       0.29795748 </v>
   <v>       0.18999309       0.62446489       0.56682785 </v>
   <v>       0.94436307       0.79826300       0.78881450 </v>
   <v>       0.30877234       0.38572987       0.83346241 </v>
   <v>       0.93979850       0.46894880       0.87643930 </v>
   <v>       0.43512571       0.63674604       0.83350334 </v>
   <v>       0.06586063       0.21006071       0.34307023 </v>
   <v>       0.18784049       0.96708529       0.87631812 </v>
   <v>       0.93473735       0.78337993       0.12540581 </v>
   <v>       0.68621009       0.79267867       0.38870038 </v>
   <v>       0.93540744       0.79113922       0.65556700 </v>
   <v>       0.93870998       0.11381363       0.16832056 </v>
   <v>       0.43418439       0.29009929       0.65596352 </v>
   <v>       0.05408916       0.20208979       0.21201177 </v>
   <v>       0.67971265       0.95160321       0.21175857 </v>
   <v>       0.17907371       0.62405024       0.29803825 </v>
   <v>       0.82081765       0.87844809       0.70040848 </v>
   <v>       0.94711262       0.62583175       0.70044676 </v>
   <v>       0.19645050       0.12645370       0.70010960 </v>
   <v>       0.94234658       0.46101446       0.47761274 </v>
   <v>       0.81324710       0.20832308       0.61119231 </v>
   <v>       0.18331025       0.62642932       0.43319842 </v>
   <v>       0.42818789       0.12297616       0.29790838 </v>
   <v>       0.67874813       0.12235230       0.29766624 </v>
   <v>       0.56187217       0.54398655       0.38848023 </v>
   <v>       0.81507114       0.20878705       0.34299766 </v>
   <v>       0.43849588       0.46777653       0.87600679 </v>
   <v>       0.55885215       0.88828504       0.83308742 </v>
   <v>       0.31750096       0.21019147       0.47768845 </v>
   <v>       0.19282409       0.96020277       0.47751976 </v>
   <v>       0.05806694       0.88864670       0.83388807 </v>
   <v>       0.05695750       0.53877257       0.52243002 </v>
   <v>       0.94258135       0.95983521       0.47742138 </v>
   <v>       0.06272006       0.70824629       0.61136220 </v>
   <v>       0.55730499       0.03915685       0.52210459 </v>
   <v>       0.69411031       0.29936664       0.78869403 </v>
   <v>       0.81469868       0.36194459       0.16873886 </v>
   <v>       0.43479559       0.12307101       0.43345269 </v>
   <v>       0.06774273       0.21105620       0.47770299 </v>
   <v>       0.30986310       0.04187754       0.65590414 </v>
   <v>       0.43201272       0.78966532       0.52211456 </v>
   <v>       0.18382742       0.13839891       0.83319401 </v>
   <v>       0.18751826       0.28310416       0.12570537 </v>
   <v>       0.94150060       0.46069625       0.34317373 </v>
   <v>       0.56379589       0.86394383       0.16799457 </v>
   <v>       0.30468374       0.70048334       0.21179768 </v>
   <v>       0.93910855       0.61128681       0.16875619 </v>
   <v>       0.18706381       0.45666128       0.61133971 </v>
   <v>       0.07289800       0.87808693       0.70012277 </v>
   <v>       0.06162924       0.54054096       0.65566174 </v>
   <v>       0.31087389       0.52510591       0.12540121 </v>
   <v>       0.93799312       0.79184265       0.38866811 </v>
   <v>       0.94777648       0.29840403       0.78882117 </v>
   <v>       0.18644265       0.29003428       0.65586081 </v>
   <v>       0.93846879       0.95854213       0.61117340 </v>
   <v>       0.81098558       0.71110628       0.74541089 </v>
   <v>       0.68991473       0.28934766       0.25319946 </v>
   <v>       0.06049132       0.71182767       0.74541785 </v>
   <v>       0.68042784       0.45140662       0.21212999 </v>
   <v>       0.81684499       0.21098784       0.47761803 </v>
   <v>       0.56733980       0.71068721       0.47745477 </v>
   <v>       0.06793370       0.86347667       0.16835962 </v>
   <v>       0.93296070       0.28926862       0.52255342 </v>
   <v>       0.68510441       0.79159146       0.65592135 </v>
   <v>       0.05873239       0.87413746       0.43300313 </v>
   <v>       0.06650730       0.22465677       0.87610925 </v>
   <v>       0.80954325       0.04123199       0.65600592 </v>
   <v>       0.56096432       0.02806546       0.12505490 </v>
   <v>       0.30828894       0.37482055       0.43337718 </v>
   <v>       0.31479686       0.37391099       0.56689484 </v>
   <v>       0.31725022       0.71083190       0.47749949 </v>
   <v>       0.05733766       0.03954322       0.52268694 </v>
   <v>       0.32152349       0.87746669       0.70025431 </v>
   <v>       0.06288007       0.53697103       0.25337322 </v>
   <v>       0.68361575       0.13865548       0.83345530 </v>
   <v>       0.81364651       0.03817559       0.25370225 </v>
   <v>       0.18380257       0.12433494       0.43322700 </v>
   <v>       0.69716836       0.12686776       0.70052672 </v>
   <v>       0.18250920       0.28937470       0.52248750 </v>
   <v>       0.43933169       0.78682211       0.25361418 </v>
   <v>       0.43859663       0.61070791       0.16779680 </v>
   <v>       0.06345442       0.20815410       0.61107341 </v>
   <v>       0.18664085       0.79194435       0.38822238 </v>
   <v>       0.30676438       0.53858617       0.52229707 </v>
   <v>       0.82101391       0.37367102       0.70037195 </v>
   <v>       0.68711988       0.29038900       0.38873638 </v>
   <v>       0.19034664       0.12525115       0.56697807 </v>
   <v>       0.69137416       0.96792916       0.87637877 </v>
   <v>       0.69235840       0.12583469       0.56682972 </v>
   <v>       0.43950225       0.95859008       0.34336106 </v>
   <v>       0.18365803       0.96376925       0.74499008 </v>
   <v>       0.93833390       0.78696421       0.25359261 </v>
   <v>       0.55907841       0.87533292       0.43303071 </v>
   <v>       0.30987727       0.87455331       0.43300222 </v>
   <v>       0.80838536       0.53915649       0.52241470 </v>
   <v>       0.92753673       0.45185088       0.21215053 </v>
   <v>       0.31483392       0.53909305       0.25352943 </v>
   <v>       0.56218130       0.03908143       0.38879557 </v>
   <v>       0.93847292       0.45733995       0.61114771 </v>
   <v>       0.06326474       0.04033428       0.38853488 </v>
   <v>       0.06285525       0.54296571       0.38809432 </v>
   <v>       0.43576982       0.29057515       0.38833714 </v>
   <v>       0.69235863       0.46054150       0.47755573 </v>
   <v>       0.06607017       0.37456072       0.56692061 </v>
   <v>       0.55418480       0.69977293       0.21194545 </v>
   <v>       0.93752637       0.28866796       0.25345379 </v>
   <v>       0.81993711       0.04958535       0.78890018 </v>
   <v>       0.19083408       0.95833048       0.34326022 </v>
   <v>       0.55350445       0.87364750       0.29794470 </v>
   <v>       0.05841729       0.37517822       0.43329895 </v>
   <v>       0.31454081       0.71012631       0.34322217 </v>
   <v>       0.31387031       0.20942137       0.34321491 </v>
   <v>       0.94210197       0.12560629       0.56678957 </v>
   <v>       0.43666271       0.96010525       0.61161191 </v>
   <v>       0.56455752       0.03764055       0.25349809 </v>
   <v>       0.18934582       0.78473021       0.12559523 </v>
   <v>       0.06416877       0.03764084       0.25350672 </v>
   <v>       0.69307235       0.62460489       0.56671992 </v>
   <v>       0.05665260       0.52473969       0.12536361 </v>
   <v>       0.30726926       0.03895985       0.52229593 </v>
   <v>       0.68832636       0.27958442       0.12551025 </v>
   <v>       0.81719004       0.70973481       0.47748081 </v>
   <v>       0.43381994       0.13882041       0.83292359 </v>
   <v>       0.32102737       0.37481886       0.69996218 </v>
   <v>       0.68470428       0.63666947       0.83346048 </v>
   <v>       0.56153930       0.71230687       0.74517203 </v>
   <v>       0.93828601       0.29200513       0.38861454 </v>
   <v>       0.93970510       0.96740257       0.87656318 </v>
   <v>       0.56206497       0.20777865       0.61145935 </v>
   <v>       0.81776799       0.87515433       0.56672096 </v>
   <v>       0.80302612       0.87464419       0.29759682 </v>
   <v>       0.31495543       0.03695148       0.25347239 </v>
   <v>       0.43591914       0.28246218       0.12541080 </v>
   <v>       0.31141679       0.70808747       0.61158249 </v>
   <v>       0.43428500       0.62711017       0.43323557 </v>
   <v>       0.93241451       0.62664409       0.43364536 </v>
   <v>       0.31894584       0.86281140       0.16803393 </v>
   <v>       0.07028126       0.54700857       0.78897617 </v>
   <v>       0.93214162       0.12393939       0.43349422 </v>
   <v>       0.31831461       0.36277541       0.16857154 </v>
   <v>       0.93473774       0.96442578       0.74489726 </v>
   <v>       0.81360257       0.53691616       0.25299394 </v>
  </varray>
 </structure>
 <calculation>
  <scstep>
   <time name="dav">   53.84   53.85</time>
   <time name="total">   53.98   54.04</time>
   <energy>
    <i name="alphaZ">  16403.00255340 </i>
    <i name="ewald"> 718287.35410972 </i>
    <i name="hartreedc">-909921.98214575 </i>
    <i name="XCdc">  -6388.17130500 </i>
    <i name="pawpsdc"> 163151.95320885 </i>
    <i name="pawaedc">-160818.84594568 </i>
    <i name="eentropy">     -1.04102514 </i>
    <i name="bandstr">  38611.79858952 </i>
    <i name="atom"> 169914.59583762 </i>
    <i name="e_fr_energy">  29238.66387755 </i>
    <i name="e_wo_entrp">  29239.70490268 </i>
    <i name="e_0_energy">  29239.18439012 </i>
   </energy>
  </scstep>
  <scstep>
   <time name="dav">   53.42   53.46</time>
   <time name="total">   53.42   53.47</time>
   <energy>
    <i name="e_fr_energy">   1199.52939299 </i>
    <i name="e_wo_entrp">   1201.00894371 </i>
    <i name="e_0_energy">   1200.26916835 </i>
   </energy>
  </scstep>
  <scstep>
   <time name="dav">   70.36   70.39</time>
   <time name="total">   70.37   70.40</time>
   <energy>
    <i name="e_fr_energy">  -1939.97101635 </i>
    <i name="e_wo_entrp">  -1936.41010181 </i>
    <i name="e_0_energy">  -1938.19055908 </i>
   </energy>
  </scstep>
  <scstep>
   <time name="dav">   87.66   87.70</time>
   <time name="total">   87.66   87.71</time>
   <energy>
    <i name="e_fr_energy">  -2606.35413140 </i>
    <i name="e_wo_entrp">  -2602.73511153 </i>
    <i name="e_0_energy">  -2604.54462146 </i>
   </energy>
  </scstep>
  <scstep>
   <time name="dav">   83.98   84.02</time>
   <time name="total">   86.03   86.07</time>
   <energy>
    <i name="e_fr_energy">  -2726.54864713 </i>
    <i name="e_wo_entrp">  -2722.76631005 </i>
    <i name="e_0_energy">  -2724.65747859 </i>
   </energy>
  </scstep>
  <scstep>
   <time name="diag">    8.20    8.20</time>
   <time name="diis">   36.44   36.44</time>
   <time name="orth">    2.28    2.28</time>
   <time name="total">   49.11   49.16</time>
   <energy>
    <i name="e_fr_energy">  -4974.14730410 </i>
    <i name="e_wo_entrp">  -4970.03913493 </i>
    <i name="e_0_energy">  -4972.09321951 </i>
   </energy>
  </scstep>
  <scstep>
   <time name="diag">    8.18    8.19</time>
   <time name="diis">   27.08   27.08</time>
   <time name="orth">    2.28    2.28</time>
   <time name="total">   39.68   39.71</time>
[...]
       <r>     5.8160     0.0000  2772.0000 </r>
       <r>     5.8586     0.0000  2772.0000 </r>
       <r>     5.9012     0.0000  2772.0000 </r>
       <r>     5.9438     0.0000  2772.0000 </r>
       <r>     5.9863     0.0000  2772.0000 </r>
       <r>     6.0289     0.0000  2772.0000 </r>
       <r>     6.0715     0.0000  2772.0000 </r>
       <r>     6.1141     0.0000  2772.0000 </r>
       <r>     6.1567     0.0000  2772.0000 </r>
       <r>     6.1992     0.0000  2772.0000 </r>
       <r>     6.2418     0.0000  2772.0000 </r>
       <r>     6.2844     0.0000  2772.0000 </r>
       <r>     6.3270     0.0000  2772.0000 </r>
       <r>     6.3696     0.0000  2772.0000 </r>
       <r>     6.4121     0.0000  2772.0000 </r>
       <r>     6.4547     0.0000  2772.0000 </r>
       <r>     6.4973     0.0000  2772.0000 </r>
       <r>     6.5399     0.0000  2772.0000 </r>
       <r>     6.5825     0.0000  2772.0000 </r>
       <r>     6.6250     0.0000  2772.0000 </r>
       <r>     6.6676     0.0000  2772.0000 </r>
       <r>     6.7102     0.0000  2772.0000 </r>
       <r>     6.7528     0.0000  2772.0000 </r>
      </set>
     </set>
    </array>
   </total>
  </dos>
 </calculation>
 <structure name="finalpos" >
  <crystal>
   <varray name="basis" >
    <v>       9.72667804       0.00000000       0.00000000 </v>
    <v>       0.00000000       8.42355028       0.00000000 </v>
    <v>       0.00000000       0.00000000      45.00000000 </v>
   </varray>
   <i name="volume">   3686.99226691 </i>
   <varray name="rec_basis" >
    <v>       0.10281002       0.00000000       0.00000000 </v>
    <v>       0.00000000       0.11871479       0.00000000 </v>
    <v>       0.00000000       0.00000000       0.02222222 </v>
   </varray>
  </crystal>
  <varray name="positions" >
   <v>       0.05686299       0.70136086       0.21106659 </v>
   <v>       0.31630068       0.72164953       0.87599571 </v>
   <v>       0.68803443       0.95795035       0.61138202 </v>
   <v>       0.43807610       0.45799470       0.61141643 </v>
   <v>       0.43689781       0.28704304       0.25523482 </v>
   <v>       0.06030395       0.38722572       0.83395266 </v>
   <v>       0.31041633       0.88675882       0.83397488 </v>
   <v>       0.44384806       0.62617740       0.70036233 </v>
   <v>       0.06290578       0.21288953       0.74474503 </v>
   <v>       0.18147506       0.45112119       0.21129946 </v>
   <v>       0.56495823       0.20953488       0.47770877 </v>
   <v>       0.06483673       0.87476805       0.56682088 </v>
   <v>       0.56626566       0.22138156       0.87585538 </v>
   <v>       0.81064373       0.52933553       0.12547126 </v>
   <v>       0.43238339       0.95132034       0.21120844 </v>
   <v>       0.56481608       0.37485031       0.56674318 </v>
   <v>       0.81203506       0.04234572       0.38803579 </v>
   <v>       0.68459651       0.79039800       0.52232613 </v>
   <v>       0.43991522       0.45955088       0.47766168 </v>
   <v>       0.43698601       0.96236735       0.74459470 </v>
   <v>       0.43972457       0.62479242       0.56675708 </v>
   <v>       0.56860422       0.87601768       0.70043926 </v>
   <v>       0.31104173       0.02948928       0.12523271 </v>
   <v>       0.68796703       0.95898472       0.34331194 </v>
   <v>       0.68788789       0.78110348       0.12556083 </v>
   <v>       0.05581417       0.37340672       0.29889094 </v>
   <v>       0.68903223       0.46960497       0.87589304 </v>
   <v>       0.43193537       0.45155338       0.21124151 </v>
   <v>       0.81023532       0.37526966       0.43298300 </v>
   <v>       0.56305820       0.70787722       0.61143715 </v>
   <v>       0.56203426       0.54117197       0.65578449 </v>
   <v>       0.81496172       0.86341283       0.16705633 </v>
   <v>       0.56142789       0.53759793       0.25533280 </v>
   <v>       0.68803750       0.45875049       0.34341272 </v>
   <v>       0.18885142       0.61314510       0.16698415 </v>
   <v>       0.19317461       0.79881726       0.78885938 </v>
   <v>       0.44376066       0.12634291       0.70043301 </v>
   <v>       0.93077972       0.62315610       0.29893902 </v>
   <v>       0.31578492       0.22084199       0.87587716 </v>
   <v>       0.31482246       0.87456610       0.56677328 </v>
   <v>       0.81621724       0.22113130       0.87605440 </v>
   <v>       0.81195568       0.54133475       0.65574388 </v>
   <v>       0.55988078       0.52827360       0.12531752 </v>
   <v>       0.56824069       0.04928283       0.78900666 </v>
   <v>       0.18738689       0.28682156       0.25521862 </v>
   <v>       0.81039770       0.87508169       0.43293524 </v>
   <v>       0.56877893       0.37666398       0.70046062 </v>
   <v>       0.06028000       0.02850202       0.12546684 </v>
   <v>       0.31191233       0.54118052       0.65574571 </v>
   <v>       0.56318176       0.20908905       0.34337676 </v>
   <v>       0.18797165       0.95784138       0.61140371 </v>
   <v>       0.30608643       0.37380709       0.29891720 </v>
   <v>       0.43694001       0.79107779       0.65579168 </v>
   <v>       0.19316879       0.29851774       0.78890019 </v>
   <v>       0.06423757       0.36385381       0.16697554 </v>
   <v>       0.69404224       0.62644302       0.70038930 </v>
   <v>       0.31209801       0.54155322       0.38807537 </v>
   <v>       0.06589346       0.72079251       0.87624126 </v>
   <v>       0.93605255       0.63690264       0.83412850 </v>
   <v>       0.31818382       0.54990469       0.78895861 </v>
   <v>       0.30659007       0.20013985       0.21122314 </v>
   <v>       0.06514965       0.70922601       0.47771147 </v>
   <v>       0.55643842       0.20055920       0.21111320 </v>
   <v>       0.31280551       0.21276081       0.74458186 </v>
   <v>       0.06868938       0.37687520       0.70040563 </v>
   <v>       0.18551816       0.63701577       0.83397781 </v>
   <v>       0.06769858       0.04830872       0.78907673 </v>
   <v>       0.43983656       0.12471121       0.56680886 </v>
   <v>       0.93704841       0.29165460       0.65572349 </v>
   <v>       0.80665709       0.20077074       0.21106783 </v>
   <v>       0.93193689       0.95177334       0.21122309 </v>
   <v>       0.93976909       0.62510397       0.56672874 </v>
   <v>       0.81049058       0.38664207       0.83398729 </v>
   <v>       0.19375989       0.62636230       0.70035839 </v>
   <v>       0.81062731       0.88680767       0.83407345 </v>
   <v>       0.68726809       0.29138664       0.65583202 </v>
   <v>       0.31301747       0.20783927       0.61140063 </v>
   <v>       0.43722315       0.46260951       0.74462227 </v>
   <v>       0.43693887       0.79156008       0.38805505 </v>
   <v>       0.68700829       0.96203426       0.74464895 </v>
   <v>       0.80611701       0.70193257       0.21101600 </v>
   <v>       0.81290479       0.70782978       0.61140217 </v>
   <v>       0.43696427       0.78170045       0.12524106 </v>
   <v>       0.31235588       0.71216131       0.74461548 </v>
   <v>       0.31830985       0.04882576       0.78897929 </v>
   <v>       0.81183482       0.54185754       0.38801319 </v>
   <v>       0.68476400       0.29029436       0.52229365 </v>
   <v>       0.69339052       0.79927044       0.78897416 </v>
   <v>       0.18725371       0.78744976       0.25529462 </v>
   <v>       0.68929552       0.11332613       0.16700796 </v>
   <v>       0.69016998       0.95938710       0.47773962 </v>
   <v>       0.93817354       0.95923838       0.34334456 </v>
   <v>       0.80978897       0.03995139       0.52229035 </v>
   <v>       0.68471081       0.62482177       0.43294839 </v>
   <v>       0.43836467       0.45880600       0.34342997 </v>
   <v>       0.81280463       0.21233844       0.74463498 </v>
   <v>       0.43900441       0.96957142       0.87573412 </v>
   <v>       0.56478490       0.87462566       0.56673760 </v>
   <v>       0.81091637       0.02943102       0.12535669 </v>
   <v>       0.43095147       0.62366872       0.29897430 </v>
   <v>       0.81582594       0.72108707       0.87624317 </v>
   <v>       0.68786394       0.45795085       0.61135382 </v>
   <v>       0.56039817       0.38713029       0.83376559 </v>
   <v>       0.80587730       0.37342054       0.29889082 </v>
   <v>       0.18679672       0.29192226       0.38804465 </v>
   <v>       0.81812757       0.54923696       0.78911548 </v>
   <v>       0.18491851       0.79021981       0.52236830 </v>
   <v>       0.30592028       0.87404330       0.29893282 </v>
   <v>       0.18126802       0.95147407       0.21123479 </v>
   <v>       0.18770751       0.46283031       0.74472181 </v>
   <v>       0.43487501       0.29024362       0.52223684 </v>
   <v>       0.06307438       0.70907802       0.34344952 </v>
   <v>       0.18701902       0.79095894       0.65575717 </v>
   <v>       0.44280782       0.79903968       0.78887828 </v>
   <v>       0.68482205       0.12545077       0.43295587 </v>
   <v>       0.93488205       0.78977504       0.52234436 </v>
   <v>       0.68909140       0.61364549       0.16697871 </v>
   <v>       0.81303722       0.70890360       0.34343238 </v>
   <v>       0.93727381       0.46264099       0.74473718 </v>
   <v>       0.18819446       0.45884928       0.34344532 </v>
   <v>       0.56823563       0.54949925       0.78899893 </v>
   <v>       0.56464407       0.36406800       0.16680846 </v>
   <v>       0.56307952       0.70883480       0.34344508 </v>
   <v>       0.55615799       0.37377671       0.29896929 </v>
   <v>       0.18872674       0.46957275       0.87597688 </v>
   <v>       0.18897041       0.11240452       0.16693516 </v>
   <v>       0.44331304       0.29910627       0.78882266 </v>
   <v>       0.68670439       0.78781010       0.25520592 </v>
   <v>       0.93573393       0.13645221       0.83389749 </v>
   <v>       0.43992437       0.95939957       0.47762955 </v>
   <v>       0.56605824       0.72183195       0.87592219 </v>
   <v>       0.18985018       0.45952069       0.47767984 </v>
   <v>       0.93523419       0.28067572       0.12551163 </v>
   <v>       0.31188251       0.04212912       0.38805155 </v>
   <v>       0.06191736       0.04096954       0.65582662 </v>
   <v>       0.56024102       0.37521908       0.43296823 </v>
   <v>       0.68676857       0.46269966       0.74469861 </v>
   <v>       0.56275765       0.21285101       0.74461103 </v>
   <v>       0.94404887       0.12671476       0.70041692 </v>
   <v>       0.56202453       0.04092619       0.65576110 </v>
   <v>       0.55978278       0.54051910       0.52226996 </v>
   <v>       0.18111286       0.12357971       0.29890921 </v>
   <v>       0.43894275       0.11198753       0.16689221 </v>
   <v>       0.68069817       0.62353231       0.29893133 </v>
   <v>       0.93096212       0.12339785       0.29896480 </v>
   <v>       0.81463365       0.37502558       0.56681245 </v>
   <v>       0.05610495       0.87359302       0.29891033 </v>
   <v>       0.18996971       0.62480367       0.56681993 </v>
   <v>       0.94285531       0.79885372       0.78898757 </v>
   <v>       0.31055418       0.38709076       0.83392642 </v>
   <v>       0.93929149       0.47011341       0.87607690 </v>
   <v>       0.43572569       0.63739827       0.83387424 </v>
   <v>       0.06298451       0.20902254       0.34336874 </v>
   <v>       0.18877575       0.96948774       0.87591406 </v>
   <v>       0.93579231       0.78114929       0.12566169 </v>
   <v>       0.68695206       0.79165898       0.38807630 </v>
   <v>       0.93697480       0.79111497       0.65579289 </v>
   <v>       0.93910190       0.11317928       0.16706116 </v>
   <v>       0.43697610       0.29128160       0.65586229 </v>
   <v>       0.05717793       0.20070581       0.21108444 </v>
   <v>       0.68151032       0.95173286       0.21118302 </v>
   <v>       0.18094679       0.62353706       0.29894294 </v>
   <v>       0.81888691       0.87613324       0.70041899 </v>
   <v>       0.94380147       0.62658082       0.70042296 </v>
   <v>       0.19378813       0.12656313       0.70035724 </v>
   <v>       0.94015169       0.45910253       0.47765919 </v>
   <v>       0.81302059       0.20794108       0.61138432 </v>
   <v>       0.18573000       0.62487182       0.43296407 </v>
   <v>       0.43099475       0.12376855       0.29892562 </v>
   <v>       0.68082685       0.12356206       0.29889058 </v>
   <v>       0.56184448       0.54148549       0.38806893 </v>
   <v>       0.81297918       0.20878978       0.34344129 </v>
   <v>       0.43884700       0.46958746       0.87572797 </v>
   <v>       0.56064511       0.88681694       0.83387660 </v>
   <v>       0.31492580       0.20960729       0.47766453 </v>
   <v>       0.18974888       0.95948371       0.47763813 </v>
   <v>       0.06044404       0.88671851       0.83402869 </v>
   <v>       0.06003274       0.54014467       0.52227223 </v>
   <v>       0.94025775       0.95926107       0.47763158 </v>
   <v>       0.06314377       0.70783752       0.61142520 </v>
   <v>       0.55976477       0.04020191       0.52222919 </v>
   <v>       0.69344361       0.29841498       0.78894798 </v>
   <v>       0.81474905       0.36336322       0.16700614 </v>
   <v>       0.43492073       0.12542818       0.43296343 </v>
   <v>       0.06509272       0.20930744       0.47768216 </v>
   <v>       0.31193305       0.04104050       0.65579741 </v>
   <v>       0.43472403       0.79010276       0.52228174 </v>
   <v>       0.18586385       0.13648997       0.83389190 </v>
   <v>       0.18627135       0.28118402       0.12560459 </v>
   <v>       0.93791453       0.45920162       0.34339206 </v>
   <v>       0.56524210       0.86412041       0.16684930 </v>
   <v>       0.30643921       0.70089554       0.21116960 </v>
   <v>       0.93866095       0.61362494       0.16703692 </v>
   <v>       0.18797022       0.45804505       0.61134074 </v>
   <v>       0.06871612       0.87647900       0.70027537 </v>
   <v>       0.06187805       0.54123609       0.65581349 </v>
   <v>       0.31057859       0.52926598       0.12530019 </v>
   <v>       0.93691208       0.79204257       0.38811744 </v>
   <v>       0.94319873       0.29802823       0.78894544 </v>
   <v>       0.18661927       0.29135817       0.65581760 </v>
   <v>       0.93787231       0.95791146       0.61142224 </v>
   <v>       0.81290801       0.71225072       0.74470649 </v>
   <v>       0.68663609       0.28695442       0.25535779 </v>
   <v>       0.06278758       0.71233381       0.74475577 </v>
   <v>       0.68115685       0.45136033       0.21096782 </v>
   <v>       0.81516781       0.20927249       0.47774517 </v>
   <v>       0.56483696       0.70946169       0.47771418 </v>
   <v>       0.06425859       0.86407761       0.16696206 </v>
   <v>       0.93494146       0.28977465       0.52230288 </v>
   <v>       0.68678338       0.79090261       0.65579832 </v>
   <v>       0.06046636       0.87496482       0.43291414 </v>
   <v>       0.06602530       0.22036519       0.87609049 </v>
   <v>       0.81217173       0.04108157       0.65578731 </v>
   <v>       0.56087557       0.02901466       0.12526522 </v>
   <v>       0.31020715       0.37512989       0.43296162 </v>
   <v>       0.31480271       0.37481962       0.56673910 </v>
   <v>       0.31482865       0.70945125       0.47764787 </v>
   <v>       0.05983080       0.03999074       0.52224861 </v>
   <v>       0.31864077       0.87627731       0.70045115 </v>
   <v>       0.06237789       0.53703585       0.25530945 </v>
   <v>       0.68611580       0.13678235       0.83387907 </v>
   <v>       0.81188977       0.03709137       0.25523357 </v>
   <v>       0.18545202       0.12538597       0.43296815 </v>
   <v>       0.69389471       0.12634583       0.70040894 </v>
   <v>       0.18510389       0.29019760       0.52234557 </v>
   <v>       0.43698665       0.78765082       0.25527920 </v>
   <v>       0.43930944       0.61247777       0.16674757 </v>
   <v>       0.06283867       0.20799896       0.61134413 </v>
   <v>       0.18653562       0.79172628       0.38798856 </v>
   <v>       0.30986315       0.54023740       0.52230491 </v>
   <v>       0.81871500       0.37694434       0.70027446 </v>
   <v>       0.68691699       0.29191404       0.38809935 </v>
   <v>       0.18982147       0.12472420       0.56679863 </v>
   <v>       0.68924711       0.96979787       0.87589708 </v>
   <v>       0.68964250       0.12487684       0.56680696 </v>
   <v>       0.43811518       0.95918008       0.34346753 </v>
   <v>       0.18699380       0.96224679       0.74462618 </v>
   <v>       0.93733352       0.78758988       0.25529316 </v>
   <v>       0.56027160       0.87506671       0.43292296 </v>
   <v>       0.31012983       0.87506745       0.43296003 </v>
   <v>       0.80985851       0.54017650       0.52230271 </v>
   <v>       0.93205557       0.45125993       0.21113270 </v>
   <v>       0.31215174       0.53703269       0.25536472 </v>
   <v>       0.56190485       0.04214817       0.38811727 </v>
   <v>       0.93809079       0.45773397       0.61145672 </v>
   <v>       0.06192150       0.04219558       0.38807190 </v>
   <v>       0.06190599       0.54170550       0.38800764 </v>
   <v>       0.43691828       0.29191066       0.38806371 </v>
   <v>       0.68991241       0.45951640       0.47770211 </v>
   <v>       0.06493852       0.37494746       0.56682671 </v>
   <v>       0.55679463       0.70135107       0.21097142 </v>
   <v>       0.93723241       0.28672401       0.25535858 </v>
   <v>       0.81779535       0.04874069       0.78907313 </v>
   <v>       0.18811675       0.95923506       0.34340373 </v>
   <v>       0.55608074       0.87390697       0.29896832 </v>
   <v>       0.06047659       0.37493943       0.43296219 </v>
   <v>       0.31320247       0.70887842       0.34342527 </v>
   <v>       0.31314196       0.20897280       0.34343984 </v>
   <v>       0.93968774       0.12495648       0.56673145 </v>
   <v>       0.43805427       0.95791033       0.61145382 </v>
   <v>       0.56149153       0.03747848       0.25523629 </v>
   <v>       0.18685711       0.78113893       0.12555104 </v>
   <v>       0.06263616       0.03718820       0.25527655 </v>
   <v>       0.68961793       0.62489686       0.56681290 </v>
   <v>       0.05916604       0.52821515       0.12557165 </v>
   <v>       0.30981058       0.04009412       0.52222671 </v>
   <v>       0.68747462       0.28059297       0.12550183 </v>
   <v>       0.81497480       0.70941162       0.47771980 </v>
   <v>       0.43600854       0.13674156       0.83373346 </v>
   <v>       0.31888897       0.37631180       0.70036949 </v>
   <v>       0.68594808       0.63715202       0.83384706 </v>
   <v>       0.56264345       0.71208739       0.74463299 </v>
   <v>       0.93679722       0.29211970       0.38814599 </v>
   <v>       0.93913318       0.96948142       0.87608375 </v>
   <v>       0.56297647       0.20783199       0.61132050 </v>
   <v>       0.81469778       0.87485797       0.56680704 </v>
   <v>       0.80601581       0.87340031       0.29883835 </v>
   <v>       0.31218307       0.03713051       0.25528387 </v>
   <v>       0.43644706       0.28149109       0.12534501 </v>
   <v>       0.31308621       0.70790900       0.61139566 </v>
   <v>       0.43491805       0.62494585       0.43294799 </v>
   <v>       0.93484944       0.62514671       0.43312025 </v>
   <v>       0.31537628       0.86338968       0.16655842 </v>
   <v>       0.06888458       0.54904996       0.78885483 </v>
   <v>       0.93488949       0.12512435       0.43307679 </v>
   <v>       0.31550761       0.36350825       0.16657287 </v>
   <v>       0.93666897       0.96229901       0.74473834 </v>
   <v>       0.81248267       0.53722929       0.25538359 </v>
  </varray>
 </structure>
</modeling>
