unknown system                          
           1
     9.726678    0.000000    0.000000
     0.000000    8.423550    0.000000
     0.000000    0.000000   45.000000
   Fe   Mn
 281   7
Direct configuration=     1
   0.05470908  0.69951964  0.21207654
   0.31617120  0.72277234  0.87647815
   0.68850096  0.95910679  0.61145082
   0.43682764  0.45627063  0.61166299
   0.44015812  0.28841372  0.25346895
   0.05832290  0.38760586  0.83367605
   0.30926065  0.88936077  0.83349580
   0.44528290  0.62653952  0.70005387
   0.06090036  0.21133666  0.74529320
   0.18073979  0.45132797  0.21165667
   0.56710002  0.21017921  0.47752752
   0.06617667  0.87576392  0.56686665
   0.56781248  0.22410926  0.87594969
   0.81128004  0.52564689  0.12533501
   0.42979839  0.94952974  0.21185911
   0.56680638  0.37420790  0.56682415
   0.81103975  0.03968046  0.38867286
   0.68282051  0.78901607  0.52221590
   0.44251808  0.45984158  0.47765654
   0.43433878  0.96299127  0.74509226
   0.44054100  0.62471619  0.56665218
   0.57083454  0.87838522  0.70030720
   0.31227194  0.02671632  0.12519765
   0.68898301  0.95844826  0.34312060
   0.68696586  0.78512277  0.12552796
   0.05379249  0.37387229  0.29780450
   0.69104819  0.46790445  0.87613644
   0.42929181  0.45134109  0.21155411
   0.80872265  0.37524354  0.43356651
   0.56380890  0.70785912  0.61158988
   0.55912071  0.53971737  0.65593336
   0.81451025  0.86322244  0.16881192
   0.56527761  0.53774338  0.25316354
   0.69017302  0.46027917  0.34316287
   0.19285076  0.61115780  0.16863334
   0.19509094  0.80041058  0.78863592
   0.44673013  0.12598665  0.70016011
   0.92782542  0.62371446  0.29769921
   0.31641384  0.22373755  0.87601410
   0.31505119  0.87626643  0.56678966
   0.81894822  0.22476699  0.87630640
   0.80993948  0.54047105  0.65562832
   0.55742097  0.52528406  0.12507198
   0.56762690  0.05020384  0.78889126
   0.18895621  0.28802764  0.25367479
   0.80815725  0.87472635  0.43303267
   0.57220274  0.37401649  0.70036819
   0.05758467  0.02829396  0.12500752
   0.30961614  0.53954811  0.65586692
   0.56478460  0.20807310  0.34301686
   0.18749376  0.95913674  0.61132034
   0.30317366  0.37512518  0.29801251
   0.43431116  0.79169601  0.65608460
   0.19530114  0.29677462  0.78883596
   0.06684753  0.36304561  0.16860228
   0.69658577  0.62604661  0.70044657
   0.31054440  0.54342556  0.38816887
   0.06595217  0.72210074  0.87661088
   0.93392265  0.63596384  0.83388952
   0.31931430  0.54806054  0.78896848
   0.30572901  0.20223927  0.21141950
   0.06710065  0.70957087  0.47754908
   0.55533547  0.20187214  0.21177014
   0.30965499  0.21146628  0.74525109
   0.07220115  0.37398092  0.70048416
   0.18272742  0.63612302  0.83383145
   0.07091480  0.05138233  0.78891697
   0.44032924  0.12552036  0.56694956
   0.93525729  0.29018517  0.65590089
   0.80399905  0.20237115  0.21181643
   0.92879833  0.95164176  0.21213096
   0.94165362  0.62484124  0.56670103
   0.80942020  0.38801396  0.83392605
   0.19788168  0.62608223  0.70020762
   0.80936410  0.88695885  0.83391037
   0.68444731  0.28985407  0.65603843
   0.31188801  0.20762789  0.61151745
   0.43557687  0.46069480  0.74536397
   0.43667697  0.79279551  0.38849742
   0.68499362  0.96341831  0.74483375
   0.80359973  0.69908790  0.21203551
   0.81392717  0.70787609  0.61137664
   0.43670020  0.78639096  0.12543569
   0.30943471  0.71217006  0.74486885
   0.32069430  0.05137910  0.78903648
   0.81234506  0.54345215  0.38836357
   0.68315670  0.28900412  0.52220258
   0.69542806  0.79803265  0.78876900
   0.18997367  0.78684988  0.25367015
   0.69061466  0.11367834  0.16821883
   0.69147383  0.95997193  0.47731412
   0.94052513  0.95818749  0.34304584
   0.80814419  0.03952556  0.52262505
   0.68418894  0.62645766  0.43333390
   0.43868786  0.46075892  0.34306094
   0.81088323  0.21117078  0.74460516
   0.43842571  0.96828074  0.87610922
   0.56644010  0.87567090  0.56664938
   0.81066544  0.03029296  0.12506206
   0.42786204  0.62500391  0.29789447
   0.81874448  0.72181122  0.87656417
   0.68857861  0.45695876  0.61129488
   0.55864100  0.38717089  0.83321681
   0.80393233  0.37395753  0.29743882
   0.18639986  0.29169428  0.38816791
   0.82074257  0.55002691  0.78905313
   0.18198992  0.78943141  0.52245944
   0.30361674  0.87346790  0.29805932
   0.18043605  0.95023119  0.21205590
   0.18426536  0.46110334  0.74545442
   0.43238254  0.28890309  0.52212241
   0.06591839  0.70915584  0.34335192
   0.18549270  0.79120933  0.65584664
   0.44529820  0.80016114  0.78885206
   0.68325653  0.12377843  0.43332709
   0.93268039  0.78832758  0.52250524
   0.69138891  0.61159331  0.16881379
   0.81504448  0.71011617  0.34314500
   0.93395439  0.46144095  0.74559238
   0.18983692  0.46020504  0.34326917
   0.57070241  0.54874026  0.78910467
   0.56454371  0.36115302  0.16860566
   0.56417439  0.71072348  0.34323508
   0.55268535  0.37454673  0.29779012
   0.18700511  0.46750091  0.87641261
   0.19256245  0.11351423  0.16809658
   0.44458788  0.29702753  0.78900391
   0.68966552  0.78655393  0.25366585
   0.93533190  0.13784695  0.83364733
   0.44230023  0.96009575  0.47734432
   0.56836392  0.72250137  0.87620429
   0.19175435  0.46035847  0.47774406
   0.93340039  0.28042460  0.12533269
   0.31179390  0.03972890  0.38837807
   0.06105062  0.04100117  0.65591335
   0.55995236  0.37471301  0.43357560
   0.68596953  0.46087271  0.74545433
   0.56201862  0.21173901  0.74508834
   0.94656805  0.12725751  0.70063077
   0.55997725  0.04158565  0.65603181
   0.55820543  0.53931240  0.52212379
   0.17842048  0.12370234  0.29795342
   0.43943687  0.11210033  0.16786612
   0.67818884  0.62512751  0.29753140
   0.92792559  0.12318319  0.29774797
   0.81762034  0.37484789  0.56680996
   0.05350306  0.87385235  0.29795748
   0.18999309  0.62446489  0.56682785
   0.94436307  0.79826300  0.78881450
   0.30877234  0.38572987  0.83346241
   0.93979850  0.46894880  0.87643930
   0.43512571  0.63674604  0.83350334
   0.06586063  0.21006071  0.34307023
   0.18784049  0.96708529  0.87631812
   0.93473735  0.78337993  0.12540581
   0.68621009  0.79267867  0.38870038
   0.93540744  0.79113922  0.65556700
   0.93870998  0.11381363  0.16832056
   0.43418439  0.29009929  0.65596352
   0.05408916  0.20208979  0.21201177
   0.67971265  0.95160321  0.21175857
   0.17907371  0.62405024  0.29803825
   0.82081765  0.87844809  0.70040848
   0.94711262  0.62583175  0.70044676
   0.19645050  0.12645370  0.70010960
   0.94234658  0.46101446  0.47761274
   0.81324710  0.20832308  0.61119231
   0.18331025  0.62642932  0.43319842
   0.42818789  0.12297616  0.29790838
   0.67874813  0.12235230  0.29766624
   0.56187217  0.54398655  0.38848023
   0.81507114  0.20878705  0.34299766
   0.43849588  0.46777653  0.87600679
   0.55885215  0.88828504  0.83308742
   0.31750096  0.21019147  0.47768845
   0.19282409  0.96020277  0.47751976
   0.05806694  0.88864670  0.83388807
   0.05695750  0.53877257  0.52243002
   0.94258135  0.95983521  0.47742138
   0.06272006  0.70824629  0.61136220
   0.55730499  0.03915685  0.52210459
   0.69411031  0.29936664  0.78869403
   0.81469868  0.36194459  0.16873886
   0.43479559  0.12307101  0.43345269
   0.06774273  0.21105620  0.47770299
   0.30986310  0.04187754  0.65590414
   0.43201272  0.78966532  0.52211456
   0.18382742  0.13839891  0.83319401
   0.18751826  0.28310416  0.12570537
   0.94150060  0.46069625  0.34317373
   0.56379589  0.86394383  0.16799457
   0.30468374  0.70048334  0.21179768
   0.93910855  0.61128681  0.16875619
   0.18706381  0.45666128  0.61133971
   0.07289800  0.87808693  0.70012277
   0.06162924  0.54054096  0.65566174
   0.31087389  0.52510591  0.12540121
   0.93799312  0.79184265  0.38866811
   0.94777648  0.29840403  0.78882117
   0.18644265  0.29003428  0.65586081
   0.93846879  0.95854213  0.61117340
   0.81098558  0.71110628  0.74541089
   0.68991473  0.28934766  0.25319946
   0.06049132  0.71182767  0.74541785
   0.68042784  0.45140662  0.21212999
   0.81684499  0.21098784  0.47761803
   0.56733980  0.71068721  0.47745477
   0.06793370  0.86347667  0.16835962
   0.93296070  0.28926862  0.52255342
   0.68510441  0.79159146  0.65592135
   0.05873239  0.87413746  0.43300313
   0.06650730  0.22465677  0.87610925
   0.80954325  0.04123199  0.65600592
   0.56096432  0.02806546  0.12505490
   0.30828894  0.37482055  0.43337718
   0.31479686  0.37391099  0.56689484
   0.31725022  0.71083190  0.47749949
   0.05733766  0.03954322  0.52268694
   0.32152349  0.87746669  0.70025431
   0.06288007  0.53697103  0.25337322
   0.68361575  0.13865548  0.83345530
   0.81364651  0.03817559  0.25370225
   0.18380257  0.12433494  0.43322700
   0.69716836  0.12686776  0.70052672
   0.18250920  0.28937470  0.52248750
   0.43933169  0.78682211  0.25361418
   0.43859663  0.61070791  0.16779680
   0.06345442  0.20815410  0.61107341
   0.18664085  0.79194435  0.38822238
   0.30676438  0.53858617  0.52229707
   0.82101391  0.37367102  0.70037195
   0.68711988  0.29038900  0.38873638
   0.19034664  0.12525115  0.56697807
   0.69137416  0.96792916  0.87637877
   0.69235840  0.12583469  0.56682972
   0.43950225  0.95859008  0.34336106
   0.18365803  0.96376925  0.74499008
   0.93833390  0.78696421  0.25359261
   0.55907841  0.87533292  0.43303071
   0.30987727  0.87455331  0.43300222
   0.80838536  0.53915649  0.52241470
   0.92753673  0.45185088  0.21215053
   0.31483392  0.53909305  0.25352943
   0.56218130  0.03908143  0.38879557
   0.93847292  0.45733995  0.61114771
   0.06326474  0.04033428  0.38853488
   0.06285525  0.54296571  0.38809432
   0.43576982  0.29057515  0.38833714
   0.69235863  0.46054150  0.47755573
   0.06607017  0.37456072  0.56692061
   0.55418480  0.69977293  0.21194545
   0.93752637  0.28866796  0.25345379
   0.81993711  0.04958535  0.78890018
   0.19083408  0.95833048  0.34326022
   0.55350445  0.87364750  0.29794470
   0.05841729  0.37517822  0.43329895
   0.31454081  0.71012631  0.34322217
   0.31387031  0.20942137  0.34321491
   0.94210197  0.12560629  0.56678957
   0.43666271  0.96010525  0.61161191
   0.56455752  0.03764055  0.25349809
   0.18934582  0.78473021  0.12559523
   0.06416877  0.03764084  0.25350672
   0.69307235  0.62460489  0.56671992
   0.05665260  0.52473969  0.12536361
   0.30726926  0.03895985  0.52229593
   0.68832636  0.27958442  0.12551025
   0.81719004  0.70973481  0.47748081
   0.43381994  0.13882041  0.83292359
   0.32102737  0.37481886  0.69996218
   0.68470428  0.63666947  0.83346048
   0.56153930  0.71230687  0.74517203
   0.93828601  0.29200513  0.38861454
   0.93970510  0.96740257  0.87656318
   0.56206497  0.20777865  0.61145935
   0.81776799  0.87515433  0.56672096
   0.80302612  0.87464419  0.29759682
   0.31495543  0.03695148  0.25347239
   0.43591914  0.28246218  0.12541080
   0.31141679  0.70808747  0.61158249
   0.43428500  0.62711017  0.43323557
   0.93241451  0.62664409  0.43364536
   0.31894584  0.86281140  0.16803393
   0.07028126  0.54700857  0.78897617
   0.93214162  0.12393939  0.43349422
   0.31831461  0.36277541  0.16857154
   0.93473774  0.96442578  0.74489726
   0.81360257  0.53691616  0.25299394
Direct configuration=     2
   0.05519431  0.70009321  0.21173834
   0.31626208  0.72256309  0.87632329
   0.68836428  0.95879378  0.61143252
   0.43714728  0.45675440  0.61159323
   0.43934852  0.28800757  0.25399152
   0.05874303  0.38757061  0.83376972
   0.30946975  0.88867991  0.83366221
   0.44505099  0.62640758  0.70014882
   0.06135607  0.21176618  0.74513918
   0.18085684  0.45124227  0.21152088
   0.56663467  0.21005665  0.47758644
   0.06589332  0.87548692  0.56685216
   0.56748428  0.22344887  0.87590970
   0.81108201  0.52656722  0.12547927
   0.43044277  0.95003141  0.21163630
   0.56633186  0.37440877  0.56680135
   0.81133625  0.04042344  0.38850150
   0.68318793  0.78934898  0.52225026
   0.44190988  0.45981778  0.47766531
   0.43493023  0.96278561  0.74494969
   0.44038185  0.62475228  0.56667763
   0.57037313  0.87767710  0.70035601
   0.31193040  0.02744077  0.12529152
   0.68880463  0.95866497  0.34312264
   0.68723823  0.78407680  0.12565081
   0.05417980  0.37375420  0.29804726
   0.69053054  0.46834010  0.87605859
   0.42989387  0.45141548  0.21142840
   0.80906418  0.37524557  0.43342226
   0.56358950  0.70785407  0.61155041
   0.55983611  0.54008847  0.65589994
   0.81474681  0.86313927  0.16829280
   0.56425872  0.53772650  0.25381011
   0.68969486  0.45987372  0.34319304
   0.19183813  0.61170859  0.16814218
   0.19469344  0.79997111  0.78869890
   0.44603376  0.12607476  0.70024858
   0.92847472  0.62356912  0.29798482
   0.31631607  0.22300830  0.87596609
   0.31507641  0.87578560  0.56678443
   0.81831938  0.22384627  0.87622678
   0.81040319  0.54067588  0.65566607
   0.55799405  0.52598080  0.12523897
   0.56792548  0.04993634  0.78893148
   0.18867438  0.28766226  0.25412685
   0.80872871  0.87481183  0.43301724
   0.57141111  0.37475732  0.70040848
   0.05821206  0.02825119  0.12523013
   0.31013581  0.53997381  0.65583886
   0.56444756  0.20841976  0.34306414
   0.18760711  0.95877227  0.61134590
   0.30384191  0.37479860  0.29820792
   0.43494028  0.79148553  0.65600985
   0.19482730  0.29726057  0.78885352
   0.06623998  0.36324723  0.16811067
   0.69607472  0.62613970  0.70043945
   0.31099148  0.54288218  0.38814431
   0.06599911  0.72182048  0.87650407
   0.93442493  0.63630388  0.83396801
   0.31909322  0.54864675  0.78896568
   0.30583940  0.20161236  0.21133544
   0.06669307  0.70952056  0.47760467
   0.55551978  0.20139328  0.21154508
   0.31042110  0.21183272  0.74505631
   0.07139997  0.37477932  0.70046785
   0.18340437  0.63644386  0.83389278
   0.07007864  0.05047934  0.78897337
   0.44028012  0.12531074  0.56691069
   0.93566193  0.29058781  0.65585809
   0.80463579  0.20182553  0.21155540
   0.92955160  0.95171778  0.21182737
   0.94122289  0.62493113  0.56670584
   0.80961521  0.38767050  0.83396472
   0.19689543  0.62612234  0.70025988
   0.80960569  0.88699668  0.83398174
   0.68515484  0.29026603  0.65598460
   0.31217574  0.20769024  0.61148583
   0.43590071  0.46121790  0.74516108
   0.43675010  0.79242358  0.38837655
   0.68542557  0.96298118  0.74478209
   0.80414568  0.70000456  0.21168671
   0.81362428  0.70785483  0.61138955
   0.43679382  0.78515525  0.12546567
   0.31010065  0.71211687  0.74479735
   0.32012645  0.05063164  0.78902991
   0.81219753  0.54298070  0.38826084
   0.68348166  0.28930036  0.52222796
   0.69497423  0.79839854  0.78882932
   0.18935430  0.78703486  0.25415597
   0.69036176  0.11349050  0.16786045
   0.69125157  0.95985071  0.47744488
   0.93998624  0.95853101  0.34307942
   0.80847384  0.03957487  0.52253851
   0.68425746  0.62596036  0.43324171
   0.43873342  0.46024242  0.34311775
   0.81130696  0.21146841  0.74461189
   0.43858546  0.96856167  0.87597500
   0.56606518  0.87538578  0.56666988
   0.81071997  0.03002537  0.12522378
   0.42855272  0.62464273  0.29813758
   0.81806200  0.72167119  0.87647625
   0.68836386  0.45722830  0.61131026
   0.55901732  0.38721608  0.83338590
   0.80430393  0.37380671  0.29778851
   0.18652502  0.29176195  0.38813108
   0.82013486  0.54986702  0.78907890
   0.18266191  0.78957954  0.52243969
   0.30408298  0.87369270  0.29824088
   0.18053308  0.95060131  0.21178072
   0.18510130  0.46160383  0.74525636
   0.43294875  0.28922066  0.52215686
   0.06520872  0.70916351  0.34333371
   0.18581105  0.79109691  0.65583131
   0.44468856  0.79983343  0.78886444
   0.68362668  0.12427468  0.43323858
   0.93316433  0.78867347  0.52246400
   0.69086366  0.61213558  0.16827504
   0.81459186  0.70980563  0.34317822
   0.93473559  0.46178297  0.74535672
   0.18948491  0.45985280  0.34328038
   0.57010014  0.54898954  0.78907775
   0.56465360  0.36195860  0.16807024
   0.56399122  0.71020988  0.34324500
   0.55346098  0.37435350  0.29806719
   0.18747208  0.46804349  0.87628386
   0.19164696  0.11313903  0.16774085
   0.44438029  0.29763052  0.78895168
   0.68892007  0.78699637  0.25411959
   0.93530067  0.13747341  0.83372978
   0.44175595  0.95993846  0.47743142
   0.56783718  0.72242467  0.87610352
   0.19134571  0.46018341  0.47773571
   0.93380240  0.28052114  0.12547937
   0.31181231  0.04041491  0.38828665
   0.06119529  0.04096130  0.65589723
   0.55995048  0.37485330  0.43342313
   0.68604645  0.46139351  0.74524425
   0.56211079  0.21205479  0.74495101
   0.94606355  0.12711009  0.70058120
   0.56044434  0.04135047  0.65596176
   0.55851554  0.53961063  0.52216919
   0.17900740  0.12369019  0.29815576
   0.43938103  0.11198958  0.16756833
   0.67870250  0.62470104  0.29786211
   0.92859773  0.12330207  0.29802706
   0.81686944  0.37492038  0.56680893
   0.05406243  0.87382126  0.29816217
   0.19008697  0.62456226  0.56682284
   0.94406683  0.79846484  0.78886649
   0.30915817  0.38617720  0.83361371
   0.93968275  0.46927049  0.87633671
   0.43516283  0.63700907  0.83362930
   0.06516252  0.20982436  0.34310557
   0.18809629  0.96768640  0.87618606
   0.93496617  0.78283825  0.12559558
   0.68642206  0.79235411  0.38852952
   0.93574698  0.79107384  0.65563857
   0.93894235  0.11353995  0.16794501
   0.43485859  0.29039543  0.65594361
   0.05484715  0.20164583  0.21170047
   0.68008285  0.95164610  0.21154831
   0.17942183  0.62391443  0.29822867
   0.82045122  0.87774130  0.70042431
   0.94635827  0.62600632  0.70044630
   0.19589196  0.12647441  0.70018380
   0.94186948  0.46053088  0.47763438
   0.81317990  0.20823617  0.61124470
   0.18391093  0.62596734  0.43315109
   0.42880120  0.12323001  0.29812626
   0.67915503  0.12274121  0.29794615
   0.56187675  0.54326438  0.38836552
   0.81458325  0.20885517  0.34306485
   0.43857707  0.46822087  0.87590671
   0.55923212  0.88792877  0.83333069
   0.31688991  0.21008925  0.47768750
   0.19207962  0.96005626  0.47755901
   0.05861500  0.88817473  0.83395161
   0.05769839  0.53910556  0.52239186
   0.94208703  0.95973496  0.47748807
   0.06284428  0.70813538  0.61138560
   0.55786119  0.03937384  0.52214155
   0.69404543  0.29906431  0.78877070
   0.81480716  0.36228995  0.16821229
   0.43474126  0.12375834  0.43333461
   0.06713466  0.21063262  0.47770278
   0.31031942  0.04160964  0.65588249
   0.43262510  0.78971299  0.52216702
   0.18426356  0.13783838  0.83340198
   0.18715274  0.28261559  0.12578694
   0.94059120  0.46031866  0.34319323
   0.56431104  0.86394293  0.16764342
   0.30505324  0.70064420  0.21158039
   0.93905844  0.61191482  0.16823848
   0.18729678  0.45705228  0.61133719
   0.07190063  0.87759768  0.70017422
   0.06158346  0.54069868  0.65571134
   0.31077509  0.52618433  0.12546705
   0.93772353  0.79187773  0.38851790
   0.94663184  0.29826168  0.78886380
   0.18636537  0.29038637  0.65585871
   0.93828502  0.95838302  0.61124163
   0.81141974  0.71137832  0.74521106
   0.68908920  0.28859336  0.25385136
   0.06102122  0.71192750  0.74524044
   0.68047221  0.45140399  0.21172661
   0.81652311  0.21057399  0.47766410
   0.56675888  0.71039157  0.47753660
   0.06702660  0.86361896  0.16792503
   0.93339155  0.28935049  0.52248321
   0.68546805  0.79134461  0.65589983
   0.05913329  0.87435427  0.43299143
   0.06644802  0.22354886  0.87609842
   0.81018457  0.04115730  0.65595109
   0.56092779  0.02826587  0.12518944
   0.30873958  0.37490462  0.43327853
   0.31488362  0.37418617  0.56684945
   0.31668560  0.71048620  0.47754872
   0.05789093  0.03960264  0.52256897
   0.32087633  0.87710577  0.70032119
   0.06289216  0.53696832  0.25394891
   0.68422710  0.13812611  0.83358948
   0.81324848  0.03786270  0.25415605
   0.18415984  0.12465651  0.43317157
   0.69641387  0.12670575  0.70050762
   0.18311106  0.28954958  0.52245095
   0.43879194  0.78711104  0.25410678
   0.43895806  0.61114536  0.16745562
   0.06325233  0.20812710  0.61114706
   0.18660682  0.79187649  0.38815627
   0.30748863  0.53898781  0.52230692
   0.82055560  0.37461576  0.70034633
   0.68706805  0.29081527  0.38856301
   0.19028149  0.12511596  0.56692749
   0.69084799  0.96839104  0.87622527
   0.69169397  0.12559298  0.56682207
   0.43921122  0.95882133  0.34334823
   0.18442487  0.96329399  0.74488716
   0.93819584  0.78717533  0.25410268
   0.55932170  0.87523521  0.43301472
   0.30986294  0.87467992  0.43300275
   0.80867581  0.53939962  0.52238772
   0.92870967  0.45168144  0.21180085
   0.31420862  0.53851401  0.25407247
   0.56212046  0.03995033  0.38861328
   0.93836277  0.45743705  0.61123521
   0.06292056  0.04085622  0.38840901
   0.06261466  0.54258487  0.38806359
   0.43609645  0.29094967  0.38825954
   0.69179788  0.46031794  0.47760491
   0.06585055  0.37469309  0.56689354
   0.55481979  0.70026448  0.21161122
   0.93756611  0.28804022  0.25402857
   0.81946711  0.04933394  0.78895818
   0.19018167  0.95863899  0.34325695
   0.55405100  0.87377784  0.29816605
   0.05891992  0.37509236  0.43322335
   0.31428270  0.70981105  0.34323154
   0.31377243  0.20934916  0.34323395
   0.94150741  0.12544597  0.56677257
   0.43702998  0.95949603  0.61157261
   0.56380480  0.03760154  0.25400602
   0.18867296  0.78381625  0.12569047
   0.06387886  0.03751784  0.25402681
   0.69219487  0.62470637  0.56674235
   0.05717767  0.52556298  0.12552790
   0.30784352  0.03919650  0.52227937
   0.68811614  0.27987513  0.12560588
   0.81670201  0.70970539  0.47755885
   0.43433919  0.13823285  0.83316835
   0.32058367  0.37521096  0.70008904
   0.68491758  0.63687443  0.83358533
   0.56173929  0.71220107  0.74501926
   0.93788889  0.29203682  0.38848796
   0.93956098  0.96793363  0.87642543
   0.56230843  0.20779992  0.61141951
   0.81700128  0.87508130  0.56673986
   0.80369732  0.87436886  0.29788222
   0.31432711  0.03703044  0.25400054
   0.43607356  0.28222431  0.12548905
   0.31186663  0.70803936  0.61153172
   0.43437681  0.62648041  0.43317137
   0.93299560  0.62622230  0.43352432
   0.31807171  0.86294209  0.16760429
   0.07004464  0.54762454  0.78894877
   0.93281181  0.12426876  0.43340051
   0.31767540  0.36292894  0.16798905
   0.93513415  0.96378564  0.74485440
   0.81341817  0.53700758  0.25370483
Direct configuration=     3
   0.05623419  0.70132238  0.21101357
   0.31645684  0.72211467  0.87599142
   0.68807137  0.95812297  0.61139329
   0.43783227  0.45779115  0.61144374
   0.43761353  0.28713719  0.25511140
   0.05964338  0.38749507  0.83397044
   0.30991785  0.88722081  0.83401884
   0.44455400  0.62612481  0.70035228
   0.06233266  0.21268664  0.74480911
   0.18110767  0.45105860  0.21122987
   0.56563743  0.20979398  0.47771269
   0.06528609  0.87489328  0.56682111
   0.56678092  0.22203362  0.87582401
   0.81065762  0.52853951  0.12578842
   0.43182372  0.95110651  0.21115880
   0.56531495  0.37483922  0.56675249
   0.81197164  0.04201568  0.38813427
   0.68397532  0.79006243  0.52232389
   0.44060649  0.45976676  0.47768412
   0.43619773  0.96234487  0.74464416
   0.44004078  0.62482964  0.56673216
   0.56938431  0.87615958  0.70046062
   0.31119848  0.02899328  0.12549269
   0.68842236  0.95912938  0.34312701
   0.68782193  0.78183527  0.12591407
   0.05500982  0.37350112  0.29856750
   0.68942120  0.46927372  0.87589175
   0.43118411  0.45157492  0.21115898
   0.80979610  0.37524990  0.43311315
   0.56311932  0.70784327  0.61146582
   0.56136924  0.54088375  0.65582833
   0.81525378  0.86296105  0.16718033
   0.56207521  0.53769033  0.25519573
   0.68867015  0.45900483  0.34325769
   0.18966802  0.61288895  0.16708961
   0.19384156  0.79902931  0.78883388
   0.44454142  0.12626357  0.70043819
   0.92986621  0.62325765  0.29859691
   0.31610652  0.22144547  0.87586321
   0.31513045  0.87475515  0.56677321
   0.81697175  0.22187311  0.87605617
   0.81139693  0.54111482  0.65574695
   0.55922219  0.52747394  0.12559685
   0.56856534  0.04936309  0.78901768
   0.18807042  0.28687925  0.25509561
   0.80995336  0.87499502  0.43298417
   0.56971462  0.37634493  0.70049481
   0.05955659  0.02815952  0.12570717
   0.31124948  0.54088609  0.65577873
   0.56372528  0.20916267  0.34316547
   0.18785004  0.95799120  0.61140066
   0.30527397  0.37409872  0.29862670
   0.43628849  0.79103445  0.65584964
   0.19381184  0.29830197  0.78889115
   0.06493798  0.36367930  0.16705714
   0.69497952  0.62633920  0.70042418
   0.31194958  0.54171768  0.38809166
   0.06609972  0.72121988  0.87627518
   0.93550134  0.63703259  0.83413621
   0.31861943  0.54990303  0.78895968
   0.30607596  0.20026888  0.21115529
   0.06581960  0.70941273  0.47772381
   0.55591475  0.20036706  0.21106278
   0.31206288  0.21261801  0.74463888
   0.06968303  0.37649033  0.70043290
   0.18485511  0.63713142  0.83402419
   0.06828673  0.04854420  0.78909422
   0.44017486  0.12486150  0.56682739
   0.93652910  0.29145069  0.65576636
   0.80600034  0.20065625  0.21099600
   0.93116587  0.95188067  0.21117677
   0.94029982  0.62512377  0.56671616
   0.81003311  0.38693445  0.83404759
   0.19478188  0.62620829  0.70037186
   0.81012344  0.88707775  0.83413469
   0.68667110  0.29114888  0.65586922
   0.31279235  0.20782385  0.61141806
   0.43659472  0.46233892  0.74472629
   0.43690681  0.79162654  0.38811751
   0.68635127  0.96204442  0.74467136
   0.80531564  0.70196900  0.21093921
   0.81297518  0.70780929  0.61141723
   0.43699444  0.78250710  0.12552990
   0.31152777  0.71200288  0.74464412
   0.31890953  0.04902982  0.78901581
   0.81188136  0.54197037  0.38804066
   0.68417808  0.28993521  0.52228234
   0.69400166  0.79918267  0.78895861
   0.18802699  0.78743128  0.25519709
   0.68981979  0.11308793  0.16709244
   0.69077525  0.95959092  0.47772511
   0.93883137  0.95926718  0.34315136
   0.80918029  0.03968056  0.52235304
   0.68440430  0.62489465  0.43304414
   0.43883107  0.45913553  0.34323950
   0.81221504  0.21210625  0.74462632
   0.43892783  0.96916369  0.87568735
   0.56526171  0.87477475  0.56671382
   0.81083683  0.02945193  0.12557036
   0.43003288  0.62386871  0.29865858
   0.81659942  0.72137109  0.87628784
   0.68790365  0.45780594  0.61134321
   0.55982376  0.38731293  0.83374827
   0.80510029  0.37348350  0.29853788
   0.18679322  0.29190697  0.38805216
   0.81883253  0.54952435  0.78913412
   0.18410200  0.78989701  0.52239737
   0.30508213  0.87417445  0.29862995
   0.18074102  0.95139449  0.21119100
   0.18689276  0.46267640  0.74483193
   0.43416215  0.28990123  0.52223067
   0.06368789  0.70917994  0.34329470
   0.18649330  0.79085598  0.65579844
   0.44338208  0.79913115  0.78889097
   0.68441991  0.12533816  0.43304891
   0.93420144  0.78941473  0.52237561
   0.68973802  0.61329768  0.16712048
   0.81362187  0.70914013  0.34324941
   0.93640973  0.46251592  0.74485170
   0.18873056  0.45909795  0.34330442
   0.56880947  0.54952376  0.78902006
   0.56488908  0.36368498  0.16692280
   0.56359866  0.70910922  0.34326624
   0.55512318  0.37393942  0.29866097
   0.18847283  0.46920626  0.87600793
   0.18968504  0.11233496  0.16697852
   0.44393542  0.29892275  0.78883974
   0.68732255  0.78794454  0.25509197
   0.93523374  0.13667292  0.83390646
   0.44058954  0.95960138  0.47761809
   0.56670835  0.72226031  0.87588756
   0.19046999  0.45980825  0.47771782
   0.93466393  0.28072803  0.12579370
   0.31185175  0.04188507  0.38809072
   0.06150532  0.04087586  0.65586268
   0.55994645  0.37515395  0.43309637
   0.68621128  0.46250961  0.74479403
   0.56230831  0.21273153  0.74465672
   0.94498237  0.12679416  0.70047497
   0.56144534  0.04084648  0.65581164
   0.55918010  0.54024976  0.52226647
   0.18026519  0.12366414  0.29858937
   0.43926136  0.11175224  0.16693016
   0.67980330  0.62378710  0.29857083
   0.93003815  0.12355685  0.29862515
   0.81526023  0.37507573  0.56680673
   0.05526118  0.87375464  0.29860082
   0.19028816  0.62477093  0.56681211
   0.94343197  0.79889741  0.78897790
   0.30998502  0.38713585  0.83393797
   0.93943467  0.46995987  0.87611686
   0.43524239  0.63757275  0.83389924
   0.06366643  0.20931785  0.34318129
   0.18864447  0.96897461  0.87590304
   0.93545653  0.78167741  0.12600228
   0.68687631  0.79165856  0.38816334
   0.93647465  0.79093373  0.65579194
   0.93944033  0.11295343  0.16714020
   0.43630342  0.29103005  0.65590095
   0.05647154  0.20069440  0.21103336
   0.68087619  0.95173802  0.21109772
   0.18016787  0.62362340  0.29863675
   0.81966595  0.87622662  0.70045821
   0.94474166  0.62638045  0.70044532
   0.19469498  0.12651880  0.70034281
   0.94084704  0.45949454  0.47768077
   0.81303588  0.20804991  0.61135698
   0.18519821  0.62497731  0.43304965
   0.43011554  0.12377402  0.29859319
   0.68002703  0.12357465  0.29854601
   0.56188658  0.54171674  0.38811970
   0.81353769  0.20900116  0.34320883
   0.43875107  0.46917311  0.87569224
   0.56004642  0.88716527  0.83385203
   0.31558041  0.20987020  0.47768548
   0.19048422  0.95974230  0.47764312
   0.05978952  0.88716327  0.83408776
   0.05928613  0.53981917  0.52231008
   0.94102769  0.95952014  0.47763099
   0.06311046  0.70789771  0.61143574
   0.55905314  0.03983884  0.52222076
   0.69390638  0.29841641  0.78893500
   0.81503962  0.36303005  0.16708382
   0.43462484  0.12523132  0.43308156
   0.06583154  0.20972487  0.47770232
   0.31129734  0.04103553  0.65583607
   0.43393744  0.78981517  0.52227946
   0.18519821  0.13663715  0.83384767
   0.18636942  0.28156858  0.12596176
   0.93864233  0.45950948  0.34323501
   0.56541503  0.86394101  0.16689087
   0.30584509  0.70098894  0.21111471
   0.93895105  0.61326065  0.16712902
   0.18779606  0.45789020  0.61133179
   0.06976323  0.87654919  0.70028449
   0.06148536  0.54103666  0.65581764
   0.31056334  0.52849542  0.12560817
   0.93714579  0.79195290  0.38819600
   0.94417882  0.29795662  0.78895516
   0.18619975  0.29114092  0.65585420
   0.93789121  0.95804205  0.61138785
   0.81235017  0.71196129  0.74478281
   0.68732007  0.28697686  0.25524841
   0.06215680  0.71214145  0.74486025
   0.68056729  0.45139836  0.21086215
   0.81583329  0.20968708  0.47776283