<?xml version="1.0" encoding="ISO-8859-1"?>
<modeling>
 <generator>
  <i name="program" type="string">vasp </i>
  <i name="version" type="string">5.4.4.18Apr17-6-g9f103f2a35  </i>
  <i name="subversion" type="string">(build May 29 2019 08:40:53) complex            parallel </i>
  <i name="platform" type="string">LinuxPGI </i>
  <i name="date" type="string">2021 11 22 </i>
  <i name="time" type="string">02:39:27 </i>
 </generator>
 <incar>
  <i type="int" name="ISTART">     2</i>
  <i type="string" name="PREC">accurate</i>
  <i type="string" name="ALGO"> Fast</i>
  <i type="int" name="ICHARG">     2</i>
  <i type="int" name="INIWAV">     1</i>
  <i type="int" name="NELM">   100</i>
  <i type="int" name="NELMIN">     4</i>
  <i type="int" name="IBRION">     2</i>
  <i name="EDIFF">      0.00001000</i>
  <i type="int" name="NSW">   500</i>
  <i type="int" name="ISIF">     2</i>
  <i type="int" name="ISYM">     2</i>
  <i name="ENCUT">    500.00000000</i>
  <i name="POTIM">      0.25000000</i>
  <i type="string" name="LREAL"> Auto</i>
  <i type="int" name="ISMEAR">     0</i>
  <i name="SIGMA">      0.15000000</i>
  <i type="logical" name="LWAVE"> F  </i>
  <i type="logical" name="LCHARG"> F  </i>
  <v type="int" name="KPOINT_BSE">    -1     0     0     0</v>
  <i type="int" name="NELM">   100</i>
 </incar>
 <structure name="primitive_cell" >
  <crystal>
   <varray name="basis" >
    <v>       9.72667800       0.00000000       0.00000000 </v>
    <v>       0.00000000       8.42355000       0.00000000 </v>
    <v>       0.00000000       0.00000000      45.00000000 </v>
   </varray>
   <i name="volume">   3686.99213101 </i>
   <varray name="rec_basis" >
    <v>       0.10281002       0.00000000       0.00000000 </v>
    <v>       0.00000000       0.11871479       0.00000000 </v>
    <v>       0.00000000       0.00000000       0.02222222 </v>
   </varray>
  </crystal>
  <varray name="positions" >
   <v>      -0.43776843      -0.45737277      -0.38945495 </v>
   <v>       0.43774310       0.29261849      -0.38940277 </v>
   <v>       0.31241302      -0.45793794      -0.38944666 </v>
   <v>       0.43702104      -0.20756698      -0.38953247 </v>
   <v>      -0.31303492       0.29236507      -0.38946002 </v>
   <v>      -0.43702649       0.37626544      -0.34527668 </v>
   <v>       0.43800517      -0.37347197      -0.34521662 </v>
   <v>      -0.31226247      -0.20740878      -0.38949844 </v>
   <v>      -0.18740543      -0.45766317      -0.38940750 </v>
   <v>      -0.31198896      -0.37352513      -0.34516316 </v>
   <v>      -0.43708174      -0.29194668      -0.43440004 </v>
   <v>       0.43760091       0.45803706      -0.43426957 </v>
   <v>      -0.31250075       0.45757735      -0.43432352 </v>
   <v>       0.31295729       0.37676499      -0.34525400 </v>
   <v>      -0.43735426      -0.12375616      -0.34527736 </v>
   <v>      -0.18700883       0.37685682      -0.34519902 </v>
   <v>       0.31228697      -0.29240743      -0.43448948 </v>
   <v>      -0.18712720      -0.29239840      -0.43441333 </v>
   <v>      -0.43713766       0.20824045      -0.43431087 </v>
   <v>      -0.43765438       0.04206625      -0.38937090 </v>
   <v>       0.18811752      -0.37358945      -0.34516599 </v>
   <v>       0.18754199       0.29257091      -0.38940016 </v>
   <v>       0.43795300       0.12641827      -0.34517081 </v>
   <v>      -0.06251216      -0.20825673      -0.38957284 </v>
   <v>       0.18720838      -0.20772981      -0.38957520 </v>
   <v>      -0.06273297       0.29252656      -0.38949582 </v>
   <v>      -0.31172247       0.12678880      -0.34504519 </v>
   <v>       0.43751522      -0.04220057      -0.43426596 </v>
   <v>       0.31282176      -0.12334797      -0.34519566 </v>
   <v>      -0.31255322      -0.04209758      -0.43444764 </v>
   <v>      -0.06197577      -0.37360935      -0.34516830 </v>
   <v>       0.18775166       0.45775117      -0.43426741 </v>
   <v>      -0.18668317      -0.12301530      -0.34526003 </v>
   <v>      -0.31289149       0.46194117      -0.30061828 </v>
   <v>      -0.06235040       0.45749175      -0.43440344 </v>
   <v>       0.31237194       0.20817522      -0.43454365 </v>
   <v>      -0.18726241       0.20804929      -0.43435674 </v>
   <v>       0.43675263       0.46182102      -0.30050862 </v>
   <v>      -0.43798995      -0.28841221      -0.30057835 </v>
   <v>       0.43741858      -0.37738628      -0.47866138 </v>
   <v>      -0.31273265      -0.37740309      -0.47868159 </v>
   <v>      -0.43785614       0.37199884      -0.47855875 </v>
   <v>      -0.18777299       0.04212084      -0.38930960 </v>
   <v>       0.31227791       0.04235971      -0.38937915 </v>
   <v>       0.06221646      -0.45779192      -0.38949947 </v>
   <v>      -0.43785583       0.21239411      -0.30064621 </v>
   <v>      -0.43742969      -0.12825818      -0.47847879 </v>
   <v>       0.31205591      -0.28813866      -0.30068987 </v>
   <v>      -0.18802481      -0.28801158      -0.30062563 </v>
   <v>       0.31263598       0.37343943      -0.47869053 </v>
   <v>      -0.18742041       0.37266982      -0.47862727 </v>
   <v>       0.06316577       0.37675309      -0.34525046 </v>
   <v>       0.18817854       0.12653633      -0.34514725 </v>
   <v>       0.18779705      -0.04201490      -0.43416761 </v>
   <v>      -0.06190310       0.12658404      -0.34528310 </v>
   <v>       0.06268626      -0.29235817      -0.43430872 </v>
   <v>      -0.06229773      -0.04191757      -0.43431091 </v>
   <v>      -0.18776454       0.21257998      -0.30050233 </v>
   <v>       0.31301312      -0.12813542      -0.47863531 </v>
   <v>       0.31186917       0.21254093      -0.30049182 </v>
   <v>       0.18700316       0.46240022      -0.30077001 </v>
   <v>      -0.18796308      -0.12755376      -0.47857449 </v>
   <v>      -0.06277735       0.46218455      -0.30062988 </v>
   <v>       0.18796445      -0.37811178      -0.47865653 </v>
   <v>      -0.06268963      -0.37794127      -0.47856362 </v>
   <v>       0.43704150      -0.03828936      -0.30066451 </v>
   <v>      -0.31304083      -0.03815319      -0.30055684 </v>
   <v>      -0.31229211       0.12291079      -0.47853244 </v>
   <v>       0.43839942       0.12268077      -0.47862195 </v>
   <v>       0.06312477      -0.12336829      -0.34520055 </v>
   <v>       0.06258907       0.20817130      -0.43434296 </v>
   <v>      -0.43702196      -0.45335745      -0.25648379 </v>
   <v>      -0.43700102      -0.29443115       0.47878832 </v>
   <v>       0.43765977       0.45487999       0.47854059 </v>
   <v>      -0.31254807       0.45504529       0.47854775 </v>
   <v>       0.06261666       0.04271712      -0.38936501 </v>
   <v>       0.43787364       0.29704793      -0.25637882 </v>
   <v>       0.06215791      -0.28802314      -0.30068338 </v>
   <v>      -0.31212190       0.29619665      -0.25638964 </v>
   <v>      -0.06328524      -0.03842494      -0.30066789 </v>
   <v>       0.31308604      -0.45267756      -0.25644450 </v>
   <v>       0.06268090       0.37194977      -0.47848179 </v>
   <v>      -0.18715053      -0.45339872      -0.25651349 </v>
   <v>       0.18716302      -0.03813813      -0.30058669 </v>
   <v>       0.43794148      -0.20286942      -0.25644347 </v>
   <v>      -0.06155571       0.12265751      -0.47846254 </v>
   <v>      -0.31187154      -0.20316601      -0.25635813 </v>
   <v>       0.18537673       0.12242722      -0.47861196 </v>
   <v>       0.31210408      -0.29424248       0.47858657 </v>
   <v>      -0.18721465      -0.29483620       0.47855845 </v>
   <v>      -0.43742905       0.20606037       0.47873802 </v>
   <v>       0.06196789       0.21281221      -0.30052948 </v>
   <v>       0.06227589      -0.12681342      -0.47859396 </v>
   <v>      -0.31204081      -0.04465503       0.47854773 </v>
   <v>       0.43625948      -0.04476414       0.47851234 </v>
   <v>       0.18795764       0.45562686       0.47857020 </v>
   <v>      -0.06326682       0.45598652       0.47858048 </v>
   <v>       0.31271201       0.20538603       0.47862562 </v>
   <v>      -0.18829155       0.20530616       0.47861719 </v>
   <v>      -0.43722915       0.04640418      -0.25638785 </v>
   <v>       0.18789589       0.29693549      -0.25642725 </v>
   <v>      -0.06187079       0.29661996      -0.25639251 </v>
   <v>       0.18801154      -0.20239359      -0.25637657 </v>
   <v>      -0.06244516      -0.20292301      -0.25646273 </v>
   <v>       0.31297873       0.04688484      -0.25646966 </v>
   <v>      -0.18697031       0.04636525      -0.25638107 </v>
   <v>       0.06280021      -0.45283013      -0.25635115 </v>
   <v>      -0.06218378      -0.04521048       0.47870377 </v>
   <v>       0.18775563      -0.04465359       0.47854224 </v>
   <v>       0.06201668      -0.29419890       0.47846024 </v>
   <v>       0.43744198      -0.37983659       0.43445934 </v>
   <v>      -0.31256558      -0.38012162       0.43435710 </v>
   <v>      -0.43796579       0.36992477       0.43433250 </v>
   <v>      -0.43858710       0.38234021      -0.21217140 </v>
   <v>       0.43693775      -0.36843444      -0.21238181 </v>
   <v>      -0.31343822      -0.36799989      -0.21204397 </v>
   <v>       0.06293013       0.20499694       0.47878719 </v>
   <v>      -0.43752417      -0.13034526       0.43436785 </v>
   <v>      -0.18767207       0.36994988       0.43446531 </v>
   <v>       0.31217356       0.37006607       0.43442575 </v>
   <v>      -0.18823790       0.38222727      -0.21219727 </v>
   <v>       0.31194827       0.38215500      -0.21224649 </v>
   <v>      -0.43853818      -0.11861378      -0.21229651 </v>
   <v>      -0.18792256      -0.13001886       0.43444672 </v>
   <v>       0.31230541      -0.12968011       0.43438676 </v>
   <v>      -0.06281976      -0.38006279       0.43447726 </v>
   <v>       0.18727408      -0.37974362       0.43435642 </v>
   <v>       0.06273009       0.04702481      -0.25646005 </v>
   <v>      -0.31352870       0.13277513      -0.21231625 </v>
   <v>      -0.31219919       0.12004869       0.43449573 </v>
   <v>       0.43711837       0.11988881       0.43445337 </v>
   <v>       0.43694163       0.13221696      -0.21206715 </v>
   <v>      -0.06324958      -0.36845914      -0.21231792 </v>
   <v>       0.18609001      -0.36829111      -0.21234394 </v>
   <v>      -0.18834158      -0.11842271      -0.21223542 </v>
   <v>       0.31150953      -0.11766868      -0.21236987 </v>
   <v>       0.06249640       0.37000177       0.43422635 </v>
   <v>       0.18719160       0.11982724       0.43443627 </v>
   <v>       0.18631353       0.13200500      -0.21237835 </v>
   <v>      -0.06379109       0.13242195      -0.21215075 </v>
   <v>      -0.06270055       0.11980876       0.43438026 </v>
   <v>       0.06135030       0.38228941      -0.21217295 </v>
   <v>       0.06223781      -0.13008956       0.43434619 </v>
   <v>       0.06194704      -0.11838395      -0.21232046 </v>
   <v>      -0.43722963      -0.46445585       0.38951659 </v>
   <v>       0.43801869       0.46455543      -0.16720834 </v>
   <v>      -0.43656786      -0.28570081      -0.16726340 </v>
   <v>      -0.31193256       0.46440993      -0.16705606 </v>
   <v>      -0.31260537      -0.21457425       0.38950395 </v>
   <v>       0.43759751      -0.21381901       0.38949571 </v>
   <v>      -0.18720114      -0.46435372       0.38949675 </v>
   <v>       0.31244435      -0.46394839       0.38933303 </v>
   <v>      -0.31231126       0.28521333       0.38948426 </v>
   <v>       0.43724690       0.28556746       0.38944607 </v>
   <v>      -0.43625822       0.21513811      -0.16722780 </v>
   <v>      -0.18701219      -0.28504709      -0.16717370 </v>
   <v>       0.31279014      -0.28599812      -0.16675438 </v>
   <v>      -0.18719518       0.21536249      -0.16728214 </v>
   <v>       0.31267024       0.21401678      -0.16726723 </v>
   <v>       0.18766392       0.46415487      -0.16728334 </v>
   <v>      -0.06221380       0.46379669      -0.16725691 </v>
   <v>       0.43790065      -0.03603217      -0.16715177 </v>
   <v>      -0.31191011      -0.03571054      -0.16721171 </v>
   <v>      -0.43728740       0.03563282       0.38933896 </v>
   <v>       0.18771284      -0.21416779       0.38945500 </v>
   <v>      -0.06256182      -0.21438966       0.38943630 </v>
   <v>       0.18784785       0.28618437       0.38948625 </v>
   <v>      -0.06265499       0.28606428       0.38952244 </v>
   <v>       0.31271065       0.03663432       0.38969556 </v>
   <v>      -0.18711281       0.03602008       0.38966868 </v>
   <v>       0.06271228      -0.46434209       0.38950100 </v>
   <v>       0.06349649      -0.28638443      -0.16734453 </v>
   <v>       0.18839790      -0.03563108      -0.16712536 </v>
   <v>      -0.06270295      -0.03549915      -0.16708064 </v>
   <v>       0.06299559       0.21360138      -0.16716768 </v>
   <v>       0.06240921       0.03571302       0.38945729 </v>
   <v>      -0.43795294      -0.45115707      -0.12524166 </v>
   <v>      -0.43833835      -0.29784091       0.34540001 </v>
   <v>      -0.31312689       0.45191899       0.34536467 </v>
   <v>       0.43722801       0.45167788       0.34526443 </v>
   <v>       0.43743389       0.29840502      -0.12528084 </v>
   <v>      -0.31219504      -0.20108863      -0.12550717 </v>
   <v>      -0.31283776       0.29887822      -0.12502555 </v>
   <v>      -0.18823060      -0.45105701      -0.12519826 </v>
   <v>       0.31181854      -0.45043559      -0.12518961 </v>
   <v>       0.43607626      -0.20129423      -0.12502199 </v>
   <v>      -0.18794651      -0.29843447       0.34530522 </v>
   <v>       0.31173565      -0.29844668       0.34526289 </v>
   <v>      -0.43796254       0.20140733       0.34520428 </v>
   <v>       0.43696059      -0.04835106       0.34530603 </v>
   <v>      -0.31221393      -0.04844582       0.34527846 </v>
   <v>      -0.06281876       0.45116046       0.34532545 </v>
   <v>       0.18719419       0.45149425       0.34528561 </v>
   <v>       0.31207858       0.20170765       0.34533166 </v>
   <v>      -0.18815268       0.20175570       0.34528887 </v>
   <v>      -0.43880702       0.05040959      -0.12533451 </v>
   <v>      -0.06353136       0.29913281      -0.12516810 </v>
   <v>       0.18641924       0.29791718      -0.12529498 </v>
   <v>      -0.06307841      -0.20149711      -0.12525717 </v>
   <v>       0.18709571      -0.20255809      -0.12501457 </v>
   <v>      -0.18723905       0.04984357      -0.12522723 </v>
   <v>       0.31184857       0.04943534      -0.12518218 </v>
   <v>       0.06180905      -0.45092417      -0.12532323 </v>
   <v>      -0.06277078      -0.04853874       0.34548217 </v>
   <v>       0.18703661      -0.04844942       0.34530225 </v>
   <v>       0.06183304      -0.29875431       0.34522139 </v>
   <v>       0.06175026       0.20166291       0.34515976 </v>
   <v>       0.06167801       0.05079929      -0.12521809 </v>
   <v>       0.43748137      -0.38419173       0.30056763 </v>
   <v>      -0.31234334      -0.38513867       0.30050659 </v>
   <v>      -0.43708006       0.36622783       0.30050047 </v>
   <v>      -0.43734226      -0.13314769       0.30067853 </v>
   <v>      -0.18756753       0.36561840       0.30076775 </v>
   <v>       0.31313890       0.36594425       0.30052653 </v>
   <v>       0.31311823      -0.13324198       0.30052181 </v>
   <v>      -0.18678092      -0.13379038       0.30045491 </v>
   <v>       0.18751832      -0.38494260       0.30057400 </v>
   <v>      -0.06220231      -0.38542254       0.30061320 </v>
   <v>      -0.31236205       0.11594100       0.30071722 </v>
   <v>       0.43767470       0.11579708       0.30061723 </v>
   <v>       0.06296837       0.36550693       0.30063020 </v>
   <v>       0.18750188       0.11600664       0.30067815 </v>
   <v>      -0.06222203       0.11582356       0.30072109 </v>
   <v>       0.06354212      -0.13359257       0.30069531 </v>
   <v>      -0.43828625      -0.46879538       0.25645988 </v>
   <v>       0.43757303      -0.21953636       0.25646103 </v>
   <v>      -0.31290617      -0.21934430       0.25630937 </v>
   <v>       0.31214537      -0.46901558       0.25641969 </v>
   <v>      -0.18742854      -0.46913968       0.25637133 </v>
   <v>      -0.31281596       0.28073392       0.25648803 </v>
   <v>       0.43709368       0.28081105       0.25637812 </v>
   <v>      -0.43782742       0.03075444       0.25640121 </v>
   <v>      -0.06265075      -0.21967433       0.25648367 </v>
   <v>       0.18781643      -0.21914534       0.25632802 </v>
   <v>       0.18759311       0.28052081       0.25644536 </v>
   <v>      -0.06267447       0.28086780       0.25632796 </v>
   <v>       0.31191079       0.03052164       0.25639112 </v>
   <v>      -0.18799688       0.03074668       0.25633474 </v>
   <v>       0.06172944      -0.46894011       0.25650004 </v>
   <v>       0.06223552       0.03093926       0.25636780 </v>
   <v>      -0.43671985      -0.30450438       0.21200550 </v>
   <v>      -0.31138461       0.44605265       0.21219504 </v>
   <v>       0.43799505       0.44525679       0.21206061 </v>
   <v>      -0.18713543      -0.30426587       0.21250080 </v>
   <v>       0.31364848      -0.30479133       0.21196349 </v>
   <v>      -0.43700161       0.19556667       0.21207539 </v>
   <v>       0.43851459      -0.05382619       0.21218110 </v>
   <v>      -0.31210034      -0.05392315       0.21211500 </v>
   <v>       0.18813114       0.44577417       0.21220526 </v>
   <v>      -0.06175719       0.44514346       0.21219913 </v>
   <v>       0.31372013       0.19522109       0.21209097 </v>
   <v>      -0.18687698       0.19587729       0.21204487 </v>
   <v>      -0.06177319      -0.05352622       0.21235439 </v>
   <v>       0.18823345      -0.05412554       0.21219808 </v>
   <v>       0.06406242      -0.30410091       0.21220034 </v>
   <v>       0.06395530       0.19552672       0.21207303 </v>
   <v>      -0.31247458      -0.38620083       0.16715639 </v>
   <v>       0.43709716      -0.38712475       0.16707622 </v>
   <v>      -0.43786411       0.36280218       0.16714386 </v>
   <v>      -0.43825809      -0.13643990       0.16721883 </v>
   <v>      -0.18764510       0.36328084       0.16724078 </v>
   <v>       0.31214914       0.36304702       0.16719155 </v>
   <v>       0.31224393      -0.13646563       0.16720828 </v>
   <v>      -0.18830562      -0.13707967       0.16708527 </v>
   <v>       0.18721634      -0.38660385       0.16727094 </v>
   <v>       0.43724362       0.11325464       0.16726609 </v>
   <v>      -0.31334730       0.11329598       0.16711024 </v>
   <v>      -0.06265303      -0.38640533       0.16641087 </v>
   <v>       0.06183536       0.36308052       0.16723732 </v>
   <v>      -0.06281733       0.11315036       0.16728647 </v>
   <v>       0.18760475       0.11324937       0.16707574 </v>
   <v>       0.06257056      -0.13666199       0.16725061 </v>
   <v>      -0.43822380      -0.47112544       0.12520718 </v>
   <v>       0.43785736      -0.22189279       0.12522418 </v>
   <v>      -0.31187704      -0.22150181       0.12514848 </v>
   <v>       0.31408090      -0.47098187       0.12517592 </v>
   <v>      -0.31199951       0.27758086       0.12524434 </v>
   <v>       0.43830719       0.27793473       0.12513949 </v>
   <v>      -0.18700514      -0.47023867       0.12489080 </v>
   <v>      -0.43701215       0.02948490       0.12517855 </v>
   <v>       0.18836594      -0.22151564       0.12523204 </v>
   <v>      -0.06207621      -0.22192735       0.12499009 </v>
   <v>       0.18824375       0.27724156       0.12524678 </v>
   <v>      -0.06193244       0.27849120       0.12524740 </v>
   <v>      -0.18740004       0.03069105       0.12524988 </v>
   <v>       0.31314669       0.02925488       0.12515730 </v>
   <v>       0.06324052      -0.47089362       0.12499925 </v>
   <v>       0.06366451       0.03007815       0.12532505 </v>
  </varray>
 </structure>
 <varray name="primitive_index" >
  <v type="int" >        1 </v>
  <v type="int" >      241 </v>
  <v type="int" >       23 </v>
  <v type="int" >       77 </v>
  <v type="int" >      210 </v>
  <v type="int" >       38 </v>
  <v type="int" >      217 </v>
  <v type="int" >      199 </v>
  <v type="int" >      172 </v>
  <v type="int" >       73 </v>
  <v type="int" >      288 </v>
  <v type="int" >       97 </v>
  <v type="int" >      246 </v>
  <v type="int" >      159 </v>
  <v type="int" >       69 </v>
  <v type="int" >      216 </v>
  <v type="int" >      270 </v>
  <v type="int" >       84 </v>
  <v type="int" >      122 </v>
  <v type="int" >      276 </v>
  <v type="int" >      171 </v>
  <v type="int" >       37 </v>
  <v type="int" >       40 </v>
  <v type="int" >       72 </v>
  <v type="int" >      238 </v>
  <v type="int" >      176 </v>
  <v type="int" >      251 </v>
  <v type="int" >      226 </v>
  <v type="int" >      236 </v>
  <v type="int" >       36 </v>
  <v type="int" >      272 </v>
  <v type="int" >      201 </v>
  <v type="int" >       13 </v>
  <v type="int" >      127 </v>
  <v type="int" >      149 </v>
  <v type="int" >      125 </v>
  <v type="int" >      194 </v>
  <v type="int" >      177 </v>
  <v type="int" >      104 </v>
  <v type="int" >      248 </v>
  <v type="int" >      249 </v>
  <v type="int" >      227 </v>
  <v type="int" >       35 </v>
  <v type="int" >      151 </v>
  <v type="int" >       76 </v>
  <v type="int" >      105 </v>
  <v type="int" >       96 </v>
  <v type="int" >      175 </v>
  <v type="int" >       62 </v>
  <v type="int" >        5 </v>
  <v type="int" >      154 </v>
  <v type="int" >      108 </v>
  <v type="int" >       95 </v>
  <v type="int" >      230 </v>
  <v type="int" >      181 </v>
  <v type="int" >      118 </v>
  <v type="int" >      275 </v>
  <v type="int" >      119 </v>
  <v type="int" >      133 </v>
  <v type="int" >      208 </v>
  <v type="int" >       61 </v>
  <v type="int" >      173 </v>
  <v type="int" >      245 </v>
  <v type="int" >      266 </v>
  <v type="int" >      224 </v>
  <v type="int" >      112 </v>
  <v type="int" >      284 </v>
  <v type="int" >      180 </v>
  <v type="int" >      253 </v>
  <v type="int" >       17 </v>
  <v type="int" >       11 </v>
  <v type="int" >      192 </v>
  <v type="int" >       71 </v>
  <v type="int" >      134 </v>
  <v type="int" >      145 </v>
  <v type="int" >      158 </v>
  <v type="int" >      110 </v>
  <v type="int" >       67 </v>
  <v type="int" >        3 </v>
  <v type="int" >       57 </v>
  <v type="int" >      186 </v>
  <v type="int" >      111 </v>
  <v type="int" >      223 </v>
  <v type="int" >       59 </v>
  <v type="int" >      259 </v>
  <v type="int" >        4 </v>
  <v type="int" >      207 </v>
  <v type="int" >      235 </v>
  <v type="int" >      160 </v>
  <v type="int" >       22 </v>
  <v type="int" >      213 </v>
  <v type="int" >       74 </v>
  <v type="int" >      261 </v>
  <v type="int" >       15 </v>
  <v type="int" >       19 </v>
  <v type="int" >      205 </v>
  <v type="int" >      136 </v>
  <v type="int" >      283 </v>
  <v type="int" >       28 </v>
  <v type="int" >      157 </v>
  <v type="int" >      152 </v>
  <v type="int" >      120 </v>
  <v type="int" >      200 </v>
  <v type="int" >      209 </v>
  <v type="int" >      101 </v>
  <v type="int" >      147 </v>
  <v type="int" >       33 </v>
  <v type="int" >      240 </v>
  <v type="int" >      247 </v>
  <v type="int" >      143 </v>
  <v type="int" >       18 </v>
  <v type="int" >      166 </v>
  <v type="int" >      140 </v>
  <v type="int" >        7 </v>
  <v type="int" >      113 </v>
  <v type="int" >      228 </v>
  <v type="int" >      162 </v>
  <v type="int" >      189 </v>
  <v type="int" >      116 </v>
  <v type="int" >      229 </v>
  <v type="int" >      132 </v>
  <v type="int" >       48 </v>
  <v type="int" >      155 </v>
  <v type="int" >       98 </v>
  <v type="int" >      264 </v>
  <v type="int" >       30 </v>
  <v type="int" >      115 </v>
  <v type="int" >      135 </v>
  <v type="int" >       47 </v>
  <v type="int" >      212 </v>
  <v type="int" >       49 </v>
  <v type="int" >      174 </v>
  <v type="int" >      191 </v>
  <v type="int" >       43 </v>
  <v type="int" >       82 </v>
  <v type="int" >      156 </v>
  <v type="int" >      170 </v>
  <v type="int" >       21 </v>
  <v type="int" >      280 </v>
  <v type="int" >      258 </v>
  <v type="int" >      185 </v>
  <v type="int" >      137 </v>
  <v type="int" >       91 </v>
  <v type="int" >       75 </v>
  <v type="int" >       34 </v>
  <v type="int" >       83 </v>
  <v type="int" >       55 </v>
  <v type="int" >      107 </v>
  <v type="int" >      144 </v>
  <v type="int" >       99 </v>
  <v type="int" >       81 </v>
  <v type="int" >      252 </v>
  <v type="int" >      109 </v>
  <v type="int" >      244 </v>
  <v type="int" >      183 </v>
  <v type="int" >       52 </v>
  <v type="int" >      279 </v>
  <v type="int" >      198 </v>
  <v type="int" >       16 </v>
  <v type="int" >      202 </v>
  <v type="int" >       27 </v>
  <v type="int" >       89 </v>
  <v type="int" >        6 </v>
  <v type="int" >      286 </v>
  <v type="int" >      100 </v>
  <v type="int" >      164 </v>
  <v type="int" >      219 </v>
  <v type="int" >       94 </v>
  <v type="int" >       58 </v>
  <v type="int" >      203 </v>
  <v type="int" >       44 </v>
  <v type="int" >      254 </v>
  <v type="int" >       63 </v>
  <v type="int" >      204 </v>
  <v type="int" >      184 </v>
  <v type="int" >      234 </v>
  <v type="int" >      206 </v>
  <v type="int" >      271 </v>
  <v type="int" >       26 </v>
  <v type="int" >      220 </v>
  <v type="int" >       14 </v>
  <v type="int" >      281 </v>
  <v type="int" >      130 </v>
  <v type="int" >       54 </v>
  <v type="int" >       85 </v>
  <v type="int" >      169 </v>
  <v type="int" >       53 </v>
  <v type="int" >       70 </v>
  <v type="int" >       50 </v>
  <v type="int" >      237 </v>
  <v type="int" >      214 </v>
  <v type="int" >      255 </v>
  <v type="int" >      215 </v>
  <v type="int" >      179 </v>
  <v type="int" >      239 </v>
  <v type="int" >      126 </v>
  <v type="int" >      128 </v>
  <v type="int" >      267 </v>
  <v type="int" >      146 </v>
  <v type="int" >      148 </v>
  <v type="int" >       10 </v>
  <v type="int" >        8 </v>
  <v type="int" >      243 </v>
  <v type="int" >      138 </v>
  <v type="int" >      225 </v>
  <v type="int" >      114 </v>
  <v type="int" >      142 </v>
  <v type="int" >      218 </v>
  <v type="int" >       25 </v>
  <v type="int" >      287 </v>
  <v type="int" >      222 </v>
  <v type="int" >      282 </v>
  <v type="int" >      121 </v>
  <v type="int" >       93 </v>
  <v type="int" >      141 </v>
  <v type="int" >      168 </v>
  <v type="int" >      167 </v>
  <v type="int" >       42 </v>
  <v type="int" >      163 </v>
  <v type="int" >       24 </v>
  <v type="int" >        9 </v>
  <v type="int" >      257 </v>
  <v type="int" >       39 </v>
  <v type="int" >      278 </v>
  <v type="int" >      102 </v>
  <v type="int" >       32 </v>
  <v type="int" >      262 </v>
  <v type="int" >      233 </v>
  <v type="int" >      187 </v>
  <v type="int" >       29 </v>
  <v type="int" >      263 </v>
  <v type="int" >       80 </v>
  <v type="int" >      117 </v>
  <v type="int" >      195 </v>
  <v type="int" >      153 </v>
  <v type="int" >      277 </v>
  <v type="int" >       51 </v>
  <v type="int" >      106 </v>
  <v type="int" >      103 </v>
  <v type="int" >      197 </v>
  <v type="int" >       60 </v>
  <v type="int" >       65 </v>
  <v type="int" >       88 </v>
  <v type="int" >      274 </v>
  <v type="int" >      268 </v>
  <v type="int" >      221 </v>
  <v type="int" >      273 </v>
  <v type="int" >      178 </v>
  <v type="int" >       64 </v>
  <v type="int" >      193 </v>
  <v type="int" >      260 </v>
  <v type="int" >       12 </v>
  <v type="int" >      161 </v>
  <v type="int" >      269 </v>
  <v type="int" >      190 </v>
  <v type="int" >      256 </v>
  <v type="int" >      250 </v>
  <v type="int" >       66 </v>
  <v type="int" >       78 </v>
  <v type="int" >      124 </v>
  <v type="int" >      196 </v>
  <v type="int" >        2 </v>
  <v type="int" >       56 </v>
  <v type="int" >       41 </v>
  <v type="int" >      182 </v>
  <v type="int" >       46 </v>
  <v type="int" >       92 </v>
  <v type="int" >      285 </v>
  <v type="int" >       68 </v>
  <v type="int" >      231 </v>
  <v type="int" >      242 </v>
  <v type="int" >      139 </v>
  <v type="int" >       20 </v>
  <v type="int" >      150 </v>
  <v type="int" >      129 </v>
  <v type="int" >       79 </v>
  <v type="int" >      188 </v>
  <v type="int" >      165 </v>
  <v type="int" >      131 </v>
  <v type="int" >      211 </v>
  <v type="int" >       86 </v>
  <v type="int" >      232 </v>
  <v type="int" >      265 </v>
  <v type="int" >       31 </v>
  <v type="int" >       87 </v>
  <v type="int" >       45 </v>
  <v type="int" >       90 </v>
  <v type="int" >      123 </v>
 </varray>
 <kpoints>
  <generation param="Gamma">
   <v type="int" name="divisions">       4        4        1 </v>
   <v name="usershift">      0.00000000       0.00000000       0.00000000 </v>
   <v name="genvec1">      0.25000000       0.00000000       0.00000000 </v>
   <v name="genvec2">      0.00000000       0.25000000       0.00000000 </v>
   <v name="genvec3">      0.00000000       0.00000000       1.00000000 </v>
   <v name="shift">      0.00000000       0.00000000       0.00000000 </v>
  </generation>
  <varray name="kpointlist" >
   <v>       0.00000000       0.00000000       0.00000000 </v>
   <v>       0.25000000       0.00000000       0.00000000 </v>
   <v>       0.50000000       0.00000000       0.00000000 </v>
   <v>       0.00000000       0.25000000       0.00000000 </v>
   <v>       0.25000000       0.25000000       0.00000000 </v>
   <v>       0.50000000       0.25000000       0.00000000 </v>
   <v>      -0.25000000       0.25000000       0.00000000 </v>
   <v>       0.00000000       0.50000000       0.00000000 </v>
   <v>       0.25000000       0.50000000       0.00000000 </v>
   <v>       0.50000000       0.50000000       0.00000000 </v>
  </varray>
  <varray name="weights" >
   <v>       0.06250000 </v>
   <v>       0.12500000 </v>
   <v>       0.06250000 </v>
   <v>       0.12500000 </v>
   <v>       0.12500000 </v>
   <v>       0.12500000 </v>
   <v>       0.12500000 </v>
   <v>       0.06250000 </v>
   <v>       0.12500000 </v>
   <v>       0.06250000 </v>
  </varray>
 </kpoints>
 <parameters>
  <separator name="general" >
   <i type="string" name="SYSTEM">unknown system</i>
   <i type="logical" name="LCOMPAT"> F  </i>
  </separator>
  <separator name="electronic" >
   <i type="string" name="PREC">accura</i>
   <i name="ENMAX">    500.00000000</i>
   <i name="ENAUG">    838.43500000</i>
   <i name="EDIFF">      0.00001000</i>
   <i type="int" name="IALGO">    68</i>
   <i type="int" name="IWAVPR">    11</i>
   <i type="int" name="NBANDS">  1380</i>
   <i name="NELECT">   2289.00000000</i>
   <i type="int" name="TURBO">     0</i>
   <i type="int" name="IRESTART">     0</i>
   <i type="int" name="NREBOOT">     0</i>
   <i type="int" name="NMIN">     0</i>
   <i name="EREF">      0.00000000</i>
   <separator name="electronic smearing" >
    <i type="int" name="ISMEAR">     0</i>
    <i name="SIGMA">      0.15000000</i>
    <i name="KSPACING">      0.50000000</i>
    <i type="logical" name="KGAMMA"> T  </i>
   </separator>
   <separator name="electronic projectors" >
    <i type="logical" name="LREAL"> T  </i>
    <v name="ROPT">     -0.00025000     -0.00025000</v>
    <i type="int" name="LMAXPAW">  -100</i>
    <i type="int" name="LMAXMIX">     2</i>
    <i type="logical" name="NLSPLINE"> F  </i>
   </separator>
   <separator name="electronic startup" >
    <i type="int" name="ISTART">     0</i>
    <i type="int" name="ICHARG">     2</i>
    <i type="int" name="INIWAV">     1</i>
   </separator>
   <separator name="electronic spin" >
    <i type="int" name="ISPIN">     1</i>
    <i type="logical" name="LNONCOLLINEAR"> F  </i>
    <v name="MAGMOM">      1.00000000      1.00000000      1.00000000      1.00000000      1.00000000      1.00000000      1.00000000      1.00000000      1.00000000      1.00000000      1.00000000      1.00000000      1.00000000      1.00000000      1.00000000      1.00000000      1.00000000      1.00000000      1.00000000      1.00000000
      1.00000000      1.00000000      1.00000000      1.00000000      1.00000000      1.00000000      1.00000000      1.00000000      1.00000000      1.00000000      1.00000000      1.00000000      1.00000000      1.00000000      1.00000000      1.00000000      1.00000000      1.00000000      1.00000000      1.00000000
      1.00000000      1.00000000      1.00000000      1.00000000      1.00000000      1.00000000      1.00000000      1.00000000      1.00000000      1.00000000      1.00000000      1.00000000      1.00000000      1.00000000      1.00000000      1.00000000      1.00000000      1.00000000      1.00000000      1.00000000
      1.00000000      1.00000000      1.00000000      1.00000000      1.00000000      1.00000000      1.00000000      1.00000000      1.00000000      1.00000000      1.00000000      1.00000000      1.00000000      1.00000000      1.00000000      1.00000000      1.00000000      1.00000000      1.00000000      1.00000000
      1.00000000      1.00000000      1.00000000      1.00000000      1.00000000      1.00000000      1.00000000      1.00000000      1.00000000      1.00000000      1.00000000      1.00000000      1.00000000      1.00000000      1.00000000      1.00000000      1.00000000      1.00000000      1.00000000      1.00000000
      1.00000000      1.00000000      1.00000000      1.00000000      1.00000000      1.00000000      1.00000000      1.00000000      1.00000000      1.00000000      1.00000000      1.00000000      1.00000000      1.00000000      1.00000000      1.00000000      1.00000000      1.00000000      1.00000000      1.00000000
      1.00000000      1.00000000      1.00000000      1.00000000      1.00000000      1.00000000      1.00000000      1.00000000      1.00000000      1.00000000      1.00000000      1.00000000      1.00000000      1.00000000      1.00000000      1.00000000      1.00000000      1.00000000      1.00000000      1.00000000
      1.00000000      1.00000000      1.00000000      1.00000000      1.00000000      1.00000000      1.00000000      1.00000000      1.00000000      1.00000000      1.00000000      1.00000000      1.00000000      1.00000000      1.00000000      1.00000000      1.00000000      1.00000000      1.00000000      1.00000000
      1.00000000      1.00000000      1.00000000      1.00000000      1.00000000      1.00000000      1.00000000      1.00000000      1.00000000      1.00000000      1.00000000      1.00000000      1.00000000      1.00000000      1.00000000      1.00000000      1.00000000      1.00000000      1.00000000      1.00000000
      1.00000000      1.00000000      1.00000000      1.00000000      1.00000000      1.00000000      1.00000000      1.00000000      1.00000000      1.00000000      1.00000000      1.00000000      1.00000000      1.00000000      1.00000000      1.00000000      1.00000000      1.00000000      1.00000000      1.00000000
      1.00000000      1.00000000      1.00000000      1.00000000      1.00000000      1.00000000      1.00000000      1.00000000      1.00000000      1.00000000      1.00000000      1.00000000      1.00000000      1.00000000      1.00000000      1.00000000      1.00000000      1.00000000      1.00000000      1.00000000
      1.00000000      1.00000000      1.00000000      1.00000000      1.00000000      1.00000000      1.00000000      1.00000000      1.00000000      1.00000000      1.00000000      1.00000000      1.00000000      1.00000000      1.00000000      1.00000000      1.00000000      1.00000000      1.00000000      1.00000000
      1.00000000      1.00000000      1.00000000      1.00000000      1.00000000      1.00000000      1.00000000      1.00000000      1.00000000      1.00000000      1.00000000      1.00000000      1.00000000      1.00000000      1.00000000      1.00000000      1.00000000      1.00000000      1.00000000      1.00000000
      1.00000000      1.00000000      1.00000000      1.00000000      1.00000000      1.00000000      1.00000000      1.00000000      1.00000000      1.00000000      1.00000000      1.00000000      1.00000000      1.00000000      1.00000000      1.00000000      1.00000000      1.00000000      1.00000000      1.00000000
      1.00000000      1.00000000      1.00000000      1.00000000      1.00000000      1.00000000      1.00000000      1.00000000</v>
    <i name="NUPDOWN">     -1.00000000</i>
    <i type="logical" name="LSORBIT"> F  </i>
    <v name="SAXIS">      0.00000000      0.00000000      1.00000000</v>
    <i type="logical" name="LSPIRAL"> F  </i>
    <v name="QSPIRAL">      0.00000000      0.00000000      0.00000000</v>
    <i type="logical" name="LZEROZ"> F  </i>
   </separator>
   <separator name="electronic exchange-correlation" >
    <i type="logical" name="LASPH"> F  </i>
    <i type="logical" name="LMETAGGA"> F  </i>
   </separator>
   <separator name="electronic convergence" >
    <i type="int" name="NELM">   100</i>
    <i type="int" name="NELMDL">     0</i>
    <i type="int" name="NELMIN">     4</i>
    <i name="ENINI">    500.00000000</i>
    <separator name="electronic convergence detail" >
     <i type="logical" name="LDIAG"> T  </i>
     <i type="logical" name="LSUBROT"> F  </i>
     <i name="WEIMIN">      0.00100000</i>
     <i name="EBREAK">      0.00000000</i>
     <i name="DEPER">      0.30000000</i>
     <i type="int" name="NRMM">     4</i>
     <i name="TIME">      0.40000000</i>
    </separator>
   </separator>
   <separator name="electronic mixer" >
    <i name="AMIX">      0.40000000</i>
    <i name="BMIX">      1.00000000</i>
    <i name="AMIN">      0.10000000</i>
    <i name="AMIX_MAG">      1.60000000</i>
    <i name="BMIX_MAG">      1.00000000</i>
    <separator name="electronic mixer details" >
     <i type="int" name="IMIX">     4</i>
     <i type="logical" name="MIXFIRST"> F  </i>
     <i type="int" name="MAXMIX">   -45</i>
     <i name="WC">    100.00000000</i>
     <i type="int" name="INIMIX">     1</i>
     <i type="int" name="MIXPRE">     1</i>
     <i type="int" name="MREMOVE">     5</i>
    </separator>
   </separator>
   <separator name="electronic dipolcorrection" >
    <i type="logical" name="LDIPOL"> F  </i>
    <i type="logical" name="LMONO"> F  </i>
    <i type="int" name="IDIPOL">     0</i>
    <i name="EPSILON">      1.00000000</i>
    <v name="DIPOL">   -100.00000000   -100.00000000   -100.00000000</v>
    <i name="EFIELD">      0.00000000</i>
   </separator>
  </separator>
  <separator name="grids" >
   <i type="int" name="NGX">    72</i>
   <i type="int" name="NGY">    64</i>
   <i type="int" name="NGZ">   336</i>
   <i type="int" name="NGXF">   144</i>
   <i type="int" name="NGYF">   128</i>
   <i type="int" name="NGZF">   672</i>
   <i type="logical" name="ADDGRID"> F  </i>
  </separator>
  <separator name="ionic" >
   <i type="int" name="NSW">   500</i>
   <i type="int" name="IBRION">     2</i>
   <i type="int" name="MDALGO">     0</i>
   <i type="int" name="ISIF">     2</i>
   <i name="PSTRESS">      0.00000000</i>
   <i name="EDIFFG">      0.00010000</i>
   <i type="int" name="NFREE">     1</i>
   <i name="POTIM">      0.25000000</i>
   <i name="SMASS">     -3.00000000</i>
   <i name="SCALEE">      1.00000000</i>
  </separator>
  <separator name="ionic md" >
   <i name="TEBEG">      0.00010000</i>
   <i name="TEEND">      0.00010000</i>
   <i type="int" name="NBLOCK">     1</i>
   <i type="int" name="KBLOCK">   500</i>
   <i type="int" name="NPACO">   256</i>
   <i name="APACO">     16.00000000</i>
  </separator>
  <separator name="symmetry" >
   <i type="int" name="ISYM">     2</i>
   <i name="SYMPREC">      0.00001000</i>
  </separator>
  <separator name="dos" >
   <i type="int" name="LORBIT">     0</i>
   <v name="RWIGS">     -1.00000000     -1.00000000</v>
   <i type="int" name="NEDOS">   301</i>
   <i name="EMIN">     10.00000000</i>
   <i name="EMAX">    -10.00000000</i>
   <i name="EFERMI">      0.00000000</i>
  </separator>
  <separator name="writing" >
   <i type="int" name="NWRITE">     2</i>
   <i type="logical" name="LWAVE"> F  </i>
   <i type="logical" name="LDOWNSAMPLE"> F  </i>
   <i type="logical" name="LCHARG"> F  </i>
   <i type="logical" name="LPARD"> F  </i>
   <i type="logical" name="LVTOT"> F  </i>
   <i type="logical" name="LVHAR"> F  </i>
   <i type="logical" name="LELF"> F  </i>
   <i type="logical" name="LOPTICS"> F  </i>
   <v name="STM">      0.00000000      0.00000000      0.00000000      0.00000000      0.00000000      0.00000000      0.00000000</v>
  </separator>
  <separator name="performance" >
   <i type="int" name="NPAR">    10</i>
   <i type="int" name="NSIM">     4</i>
   <i type="int" name="NBLK">    -1</i>
   <i type="logical" name="LPLANE"> T  </i>
   <i type="logical" name="LSCALAPACK"> F  </i>
   <i type="logical" name="LSCAAWARE"> F  </i>
   <i type="logical" name="LSCALU"> F  </i>
   <i type="logical" name="LASYNC"> F  </i>
   <i type="logical" name="LORBITALREAL"> F  </i>
  </separator>
  <separator name="miscellaneous" >
   <i type="int" name="IDIOT">     3</i>
   <i type="int" name="ISPECIAL">     0</i>
   <i type="logical" name="LMUSIC"> F  </i>
   <v name="POMASS">     55.84700000     54.93800000</v>
   <v name="DARWINR">      0.00000000      0.00000000</v>
   <v name="DARWINV">      1.00000000      1.00000000</v>
   <i type="logical" name="LCORR"> T  </i>
  </separator>
  <i type="logical" name="GGA_COMPAT"> T  </i>
  <i type="logical" name="LBERRY"> F  </i>
  <i type="int" name="ICORELEVEL">     0</i>
  <i type="logical" name="LDAU"> F  </i>
  <i type="int" name="I_CONSTRAINED_M">     0</i>
  <separator name="electronic exchange-correlation" >
   <i type="string" name="GGA">--</i>
   <i type="int" name="VOSKOWN">     0</i>
   <i type="logical" name="LHFCALC"> F  </i>
   <i type="string" name="PRECFOCK"></i>
   <i type="logical" name="LSYMGRAD"> F  </i>
   <i type="logical" name="LHFONE"> F  </i>
   <i type="logical" name="LRHFCALC"> F  </i>
   <i type="logical" name="LTHOMAS"> F  </i>
   <i type="logical" name="LMODELHF"> F  </i>
   <i name="ENCUT4O">     -1.00000000</i>
   <i type="int" name="EXXOEP">     0</i>
   <i type="int" name="FOURORBIT">     0</i>
   <i name="AEXX">      0.00000000</i>
   <i name="HFALPHA">      0.00000000</i>
   <i name="MCALPHA">      0.00000000</i>
   <i name="ALDAX">      1.00000000</i>
   <i name="AGGAX">      1.00000000</i>
   <i name="ALDAC">      1.00000000</i>
   <i name="AGGAC">      1.00000000</i>
   <i type="int" name="NKREDX">     1</i>
   <i type="int" name="NKREDY">     1</i>
   <i type="int" name="NKREDZ">     1</i>
   <i type="logical" name="SHIFTRED"> F  </i>
   <i type="logical" name="ODDONLY"> F  </i>
   <i type="logical" name="EVENONLY"> F  </i>
   <i type="int" name="LMAXFOCK">     0</i>
   <i type="int" name="NMAXFOCKAE">     0</i>
   <i type="logical" name="LFOCKAEDFT"> F  </i>
   <i name="HFSCREEN">      0.00000000</i>
   <i name="HFSCREENC">      0.00000000</i>
   <i type="int" name="NBANDSGWLOW">     0</i>
  </separator>
  <separator name="vdW DFT" >
   <i type="logical" name="LUSE_VDW"> F  </i>
   <i name="Zab_VDW">     -0.84910000</i>
   <i name="PARAM1">      0.12340000</i>
   <i name="PARAM2">      1.00000000</i>
   <i name="PARAM3">      0.00000000</i>
  </separator>
  <separator name="model GW" >
   <i type="int" name="MODEL_GW">     0</i>
   <i name="MODEL_EPS0">      7.68123361</i>
   <i name="MODEL_ALPHA">      1.00000000</i>
  </separator>
  <separator name="linear response parameters" >
   <i type="logical" name="LEPSILON"> F  </i>
   <i type="logical" name="LRPA"> F  </i>
   <i type="logical" name="LNABLA"> F  </i>
   <i type="logical" name="LVEL"> F  </i>
   <i type="int" name="KINTER">     0</i>
   <i name="CSHIFT">      0.10000000</i>
   <i name="OMEGAMAX">     -1.00000000</i>
   <i name="DEG_THRESHOLD">      0.00200000</i>
   <i name="RTIME">     -0.10000000</i>
   <i name="WPLASMAI">      0.00000000</i>
   <v name="DFIELD">      0.00000000      0.00000000      0.00000000</v>
   <v name="WPLASMA">      0.00000000      0.00000000      0.00000000      0.00000000      0.00000000      0.00000000      0.00000000      0.00000000      0.00000000</v>
  </separator>
  <separator name="orbital magnetization" >
   <i type="logical" name="NUCIND"> F  </i>
   <v name="MAGPOS">      0.00000000      0.00000000      0.00000000</v>
   <i type="logical" name="LNICSALL"> T  </i>
   <i type="logical" name="ORBITALMAG"> F  </i>
   <i type="logical" name="LMAGBLOCH"> F  </i>
   <i type="logical" name="LCHIMAG"> F  </i>
   <i type="logical" name="LGAUGE"> T  </i>
   <i type="int" name="MAGATOM">     0</i>
   <v name="MAGDIPOL">      0.00000000      0.00000000      0.00000000</v>
   <v name="AVECCONST">      0.00000000      0.00000000      0.00000000</v>
  </separator>
  <separator name="response functions" >
   <i type="logical" name="LADDER"> F  </i>
   <i type="logical" name="LRPAFORCE"> F  </i>
   <i type="logical" name="LFXC"> F  </i>
   <i type="logical" name="LHARTREE"> T  </i>
   <i type="int" name="IBSE">     0</i>
   <v type="int" name="KPOINT">    -1     0     0     0</v>
   <i type="logical" name="LTCTE"> F  </i>
   <i type="logical" name="LTETE"> F  </i>
   <i type="logical" name="LTRIPLET"> F  </i>
   <i type="logical" name="LFXCEPS"> F  </i>
   <i type="logical" name="LFXHEG"> F  </i>
   <i type="int" name="NATURALO">     2</i>
   <i type="logical" name="L2ORDER"> F  </i>
   <i type="logical" name="LMP2LT"> F  </i>
   <i type="logical" name="LUSEW"> F  </i>
   <i name="ENCUTGW">     -2.00000000</i>
   <i name="ENCUTGWSOFT">     -2.00000000</i>
   <i name="ENCUTLF">     -1.00000000</i>
   <i type="int" name="LMAXMP2">    -1</i>
   <i name="SCISSOR">      0.00000000</i>
   <i type="int" name="NOMEGA">     0</i>
   <i type="int" name="NOMEGAR">     0</i>
   <i type="int" name="NBANDSGW">    -1</i>
   <i type="int" name="NBANDSO">    -1</i>
   <i type="int" name="NBANDSV">    -1</i>
   <i type="int" name="NELM">   100</i>
   <i type="int" name="NELMHF">     1</i>
   <i type="int" name="DIM">     3</i>
   <i type="int" name="ANTIRES">     0</i>
   <i name="OMEGAMAX">    -30.00000000</i>
   <i name="OMEGAMIN">    -30.00000000</i>
   <i name="OMEGATL">   -200.00000000</i>
   <i type="int" name="OMEGAGRID">   140</i>
   <i name="CSHIFT">     -0.10000000</i>
   <i type="logical" name="SELFENERGY"> F  </i>
   <i type="logical" name="LSPECTRAL"> F  </i>
   <i type="logical" name="LSPECTRALGW"> F  </i>
   <i type="logical" name="LSINGLES"> F  </i>
   <i type="logical" name="LFERMIGW"> F  </i>
   <i type="logical" name="ODDONLYGW"> F  </i>
   <i type="logical" name="EVENONLYGW"> F  </i>
   <i type="int" name="NKREDLFX">     1</i>
   <i type="int" name="NKREDLFY">     1</i>
   <i type="int" name="NKREDLFZ">     1</i>
   <i type="int" name="MAXMEM">  2800</i>
   <i type="int" name="TELESCOPE">     0</i>
   <i type="int" name="TAUPAR">     1</i>
   <i type="int" name="OMEGAPAR">    -1</i>
   <i name="LAMBDA">      1.00000000</i>
  </separator>
  <separator name="External order field" >
   <i name="OFIELD_KAPPA">      0.00000000</i>
   <v name="OFIELD_K">      0.00000000      0.00000000      0.00000000</v>
   <i name="OFIELD_Q6_NEAR">      0.00000000</i>
   <i name="OFIELD_Q6_FAR">      0.00000000</i>
   <i name="OFIELD_A">      0.00000000</i>
  </separator>
 </parameters>
 <atominfo>
  <atoms>     288 </atoms>
  <types>       2 </types>
  <array name="atoms" >
   <dimension dim="1">ion</dimension>
   <field type="string">element</field>
   <field type="int">atomtype</field>
   <set>
    <rc><c>Fe</c><c>   1</c></rc>
    <rc><c>Fe</c><c>   1</c></rc>
    <rc><c>Fe</c><c>   1</c></rc>
    <rc><c>Fe</c><c>   1</c></rc>
    <rc><c>Fe</c><c>   1</c></rc>
    <rc><c>Fe</c><c>   1</c></rc>
    <rc><c>Fe</c><c>   1</c></rc>
    <rc><c>Fe</c><c>   1</c></rc>
    <rc><c>Fe</c><c>   1</c></rc>
    <rc><c>Fe</c><c>   1</c></rc>
    <rc><c>Fe</c><c>   1</c></rc>
    <rc><c>Fe</c><c>   1</c></rc>
    <rc><c>Fe</c><c>   1</c></rc>
    <rc><c>Fe</c><c>   1</c></rc>
    <rc><c>Fe</c><c>   1</c></rc>
    <rc><c>Fe</c><c>   1</c></rc>
    <rc><c>Fe</c><c>   1</c></rc>
    <rc><c>Fe</c><c>   1</c></rc>
    <rc><c>Fe</c><c>   1</c></rc>
    <rc><c>Fe</c><c>   1</c></rc>
    <rc><c>Fe</c><c>   1</c></rc>
    <rc><c>Fe</c><c>   1</c></rc>
    <rc><c>Fe</c><c>   1</c></rc>
    <rc><c>Fe</c><c>   1</c></rc>
    <rc><c>Fe</c><c>   1</c></rc>
    <rc><c>Fe</c><c>   1</c></rc>
    <rc><c>Fe</c><c>   1</c></rc>
    <rc><c>Fe</c><c>   1</c></rc>
    <rc><c>Fe</c><c>   1</c></rc>
    <rc><c>Fe</c><c>   1</c></rc>
    <rc><c>Fe</c><c>   1</c></rc>
    <rc><c>Fe</c><c>   1</c></rc>
    <rc><c>Fe</c><c>   1</c></rc>
    <rc><c>Fe</c><c>   1</c></rc>
    <rc><c>Fe</c><c>   1</c></rc>
    <rc><c>Fe</c><c>   1</c></rc>
    <rc><c>Fe</c><c>   1</c></rc>
    <rc><c>Fe</c><c>   1</c></rc>
    <rc><c>Fe</c><c>   1</c></rc>
    <rc><c>Fe</c><c>   1</c></rc>
    <rc><c>Fe</c><c>   1</c></rc>
    <rc><c>Fe</c><c>   1</c></rc>
    <rc><c>Fe</c><c>   1</c></rc>
    <rc><c>Fe</c><c>   1</c></rc>
    <rc><c>Fe</c><c>   1</c></rc>
    <rc><c>Fe</c><c>   1</c></rc>
    <rc><c>Fe</c><c>   1</c></rc>
    <rc><c>Fe</c><c>   1</c></rc>
    <rc><c>Fe</c><c>   1</c></rc>
    <rc><c>Fe</c><c>   1</c></rc>
    <rc><c>Fe</c><c>   1</c></rc>
    <rc><c>Fe</c><c>   1</c></rc>
    <rc><c>Fe</c><c>   1</c></rc>
    <rc><c>Fe</c><c>   1</c></rc>
    <rc><c>Fe</c><c>   1</c></rc>
    <rc><c>Fe</c><c>   1</c></rc>
    <rc><c>Fe</c><c>   1</c></rc>
    <rc><c>Fe</c><c>   1</c></rc>
    <rc><c>Fe</c><c>   1</c></rc>
    <rc><c>Fe</c><c>   1</c></rc>
    <rc><c>Fe</c><c>   1</c></rc>
    <rc><c>Fe</c><c>   1</c></rc>
    <rc><c>Fe</c><c>   1</c></rc>
    <rc><c>Fe</c><c>   1</c></rc>
    <rc><c>Fe</c><c>   1</c></rc>
    <rc><c>Fe</c><c>   1</c></rc>
    <rc><c>Fe</c><c>   1</c></rc>
    <rc><c>Fe</c><c>   1</c></rc>
    <rc><c>Fe</c><c>   1</c></rc>
    <rc><c>Fe</c><c>   1</c></rc>
    <rc><c>Fe</c><c>   1</c></rc>
    <rc><c>Fe</c><c>   1</c></rc>
    <rc><c>Fe</c><c>   1</c></rc>
    <rc><c>Fe</c><c>   1</c></rc>
    <rc><c>Fe</c><c>   1</c></rc>
    <rc><c>Fe</c><c>   1</c></rc>
    <rc><c>Fe</c><c>   1</c></rc>
    <rc><c>Fe</c><c>   1</c></rc>
    <rc><c>Fe</c><c>   1</c></rc>
    <rc><c>Fe</c><c>   1</c></rc>
    <rc><c>Fe</c><c>   1</c></rc>
    <rc><c>Fe</c><c>   1</c></rc>
    <rc><c>Fe</c><c>   1</c></rc>
    <rc><c>Fe</c><c>   1</c></rc>
    <rc><c>Fe</c><c>   1</c></rc>
    <rc><c>Fe</c><c>   1</c></rc>
    <rc><c>Fe</c><c>   1</c></rc>
    <rc><c>Fe</c><c>   1</c></rc>
    <rc><c>Fe</c><c>   1</c></rc>
    <rc><c>Fe</c><c>   1</c></rc>
    <rc><c>Fe</c><c>   1</c></rc>
    <rc><c>Fe</c><c>   1</c></rc>
    <rc><c>Fe</c><c>   1</c></rc>
    <rc><c>Fe</c><c>   1</c></rc>
    <rc><c>Fe</c><c>   1</c></rc>
    <rc><c>Fe</c><c>   1</c></rc>
    <rc><c>Fe</c><c>   1</c></rc>
    <rc><c>Fe</c><c>   1</c></rc>
    <rc><c>Fe</c><c>   1</c></rc>
    <rc><c>Fe</c><c>   1</c></rc>
    <rc><c>Fe</c><c>   1</c></rc>
    <rc><c>Fe</c><c>   1</c></rc>
    <rc><c>Fe</c><c>   1</c></rc>
    <rc><c>Fe</c><c>   1</c></rc>
    <rc><c>Fe</c><c>   1</c></rc>
    <rc><c>Fe</c><c>   1</c></rc>
    <rc><c>Fe</c><c>   1</c></rc>
    <rc><c>Fe</c><c>   1</c></rc>
    <rc><c>Fe</c><c>   1</c></rc>
    <rc><c>Fe</c><c>   1</c></rc>
    <rc><c>Fe</c><c>   1</c></rc>
    <rc><c>Fe</c><c>   1</c></rc>
    <rc><c>Fe</c><c>   1</c></rc>
    <rc><c>Fe</c><c>   1</c></rc>
    <rc><c>Fe</c><c>   1</c></rc>
    <rc><c>Fe</c><c>   1</c></rc>
    <rc><c>Fe</c><c>   1</c></rc>
    <rc><c>Fe</c><c>   1</c></rc>
    <rc><c>Fe</c><c>   1</c></rc>
    <rc><c>Fe</c><c>   1</c></rc>
    <rc><c>Fe</c><c>   1</c></rc>
    <rc><c>Fe</c><c>   1</c></rc>
    <rc><c>Fe</c><c>   1</c></rc>
    <rc><c>Fe</c><c>   1</c></rc>
    <rc><c>Fe</c><c>   1</c></rc>
    <rc><c>Fe</c><c>   1</c></rc>
    <rc><c>Fe</c><c>   1</c></rc>
    <rc><c>Fe</c><c>   1</c></rc>
    <rc><c>Fe</c><c>   1</c></rc>
    <rc><c>Fe</c><c>   1</c></rc>
    <rc><c>Fe</c><c>   1</c></rc>
    <rc><c>Fe</c><c>   1</c></rc>
    <rc><c>Fe</c><c>   1</c></rc>
    <rc><c>Fe</c><c>   1</c></rc>
    <rc><c>Fe</c><c>   1</c></rc>
    <rc><c>Fe</c><c>   1</c></rc>
    <rc><c>Fe</c><c>   1</c></rc>
    <rc><c>Fe</c><c>   1</c></rc>
    <rc><c>Fe</c><c>   1</c></rc>
    <rc><c>Fe</c><c>   1</c></rc>
    <rc><c>Fe</c><c>   1</c></rc>
    <rc><c>Fe</c><c>   1</c></rc>
    <rc><c>Fe</c><c>   1</c></rc>
    <rc><c>Fe</c><c>   1</c></rc>
    <rc><c>Fe</c><c>   1</c></rc>
    <rc><c>Fe</c><c>   1</c></rc>
    <rc><c>Fe</c><c>   1</c></rc>
    <rc><c>Fe</c><c>   1</c></rc>
    <rc><c>Fe</c><c>   1</c></rc>
    <rc><c>Fe</c><c>   1</c></rc>
    <rc><c>Fe</c><c>   1</c></rc>
    <rc><c>Fe</c><c>   1</c></rc>
    <rc><c>Fe</c><c>   1</c></rc>
    <rc><c>Fe</c><c>   1</c></rc>
    <rc><c>Fe</c><c>   1</c></rc>
    <rc><c>Fe</c><c>   1</c></rc>
    <rc><c>Fe</c><c>   1</c></rc>
    <rc><c>Fe</c><c>   1</c></rc>
    <rc><c>Fe</c><c>   1</c></rc>
    <rc><c>Fe</c><c>   1</c></rc>
    <rc><c>Fe</c><c>   1</c></rc>
    <rc><c>Fe</c><c>   1</c></rc>
    <rc><c>Fe</c><c>   1</c></rc>
    <rc><c>Fe</c><c>   1</c></rc>
    <rc><c>Fe</c><c>   1</c></rc>
    <rc><c>Fe</c><c>   1</c></rc>
    <rc><c>Fe</c><c>   1</c></rc>
    <rc><c>Fe</c><c>   1</c></rc>
    <rc><c>Fe</c><c>   1</c></rc>
    <rc><c>Fe</c><c>   1</c></rc>
    <rc><c>Fe</c><c>   1</c></rc>
    <rc><c>Fe</c><c>   1</c></rc>
    <rc><c>Fe</c><c>   1</c></rc>
    <rc><c>Fe</c><c>   1</c></rc>
    <rc><c>Fe</c><c>   1</c></rc>
    <rc><c>Fe</c><c>   1</c></rc>
    <rc><c>Fe</c><c>   1</c></rc>
    <rc><c>Fe</c><c>   1</c></rc>
    <rc><c>Fe</c><c>   1</c></rc>
    <rc><c>Fe</c><c>   1</c></rc>
    <rc><c>Fe</c><c>   1</c></rc>
    <rc><c>Fe</c><c>   1</c></rc>
    <rc><c>Fe</c><c>   1</c></rc>
    <rc><c>Fe</c><c>   1</c></rc>
    <rc><c>Fe</c><c>   1</c></rc>
    <rc><c>Fe</c><c>   1</c></rc>
    <rc><c>Fe</c><c>   1</c></rc>
    <rc><c>Fe</c><c>   1</c></rc>
    <rc><c>Fe</c><c>   1</c></rc>
    <rc><c>Fe</c><c>   1</c></rc>
    <rc><c>Fe</c><c>   1</c></rc>
    <rc><c>Fe</c><c>   1</c></rc>
    <rc><c>Fe</c><c>   1</c></rc>
    <rc><c>Fe</c><c>   1</c></rc>
    <rc><c>Fe</c><c>   1</c></rc>
    <rc><c>Fe</c><c>   1</c></rc>
    <rc><c>Fe</c><c>   1</c></rc>
    <rc><c>Fe</c><c>   1</c></rc>
    <rc><c>Fe</c><c>   1</c></rc>
    <rc><c>Fe</c><c>   1</c></rc>
    <rc><c>Fe</c><c>   1</c></rc>
    <rc><c>Fe</c><c>   1</c></rc>
    <rc><c>Fe</c><c>   1</c></rc>
    <rc><c>Fe</c><c>   1</c></rc>
    <rc><c>Fe</c><c>   1</c></rc>
    <rc><c>Fe</c><c>   1</c></rc>
    <rc><c>Fe</c><c>   1</c></rc>
    <rc><c>Fe</c><c>   1</c></rc>
    <rc><c>Fe</c><c>   1</c></rc>
    <rc><c>Fe</c><c>   1</c></rc>
    <rc><c>Fe</c><c>   1</c></rc>
    <rc><c>Fe</c><c>   1</c></rc>
    <rc><c>Fe</c><c>   1</c></rc>
    <rc><c>Fe</c><c>   1</c></rc>
    <rc><c>Fe</c><c>   1</c></rc>
    <rc><c>Fe</c><c>   1</c></rc>
    <rc><c>Fe</c><c>   1</c></rc>
    <rc><c>Fe</c><c>   1</c></rc>
    <rc><c>Fe</c><c>   1</c></rc>
    <rc><c>Fe</c><c>   1</c></rc>
    <rc><c>Fe</c><c>   1</c></rc>
    <rc><c>Fe</c><c>   1</c></rc>
    <rc><c>Fe</c><c>   1</c></rc>
    <rc><c>Fe</c><c>   1</c></rc>
    <rc><c>Fe</c><c>   1</c></rc>
    <rc><c>Fe</c><c>   1</c></rc>
    <rc><c>Fe</c><c>   1</c></rc>
    <rc><c>Fe</c><c>   1</c></rc>
    <rc><c>Fe</c><c>   1</c></rc>
    <rc><c>Fe</c><c>   1</c></rc>
    <rc><c>Fe</c><c>   1</c></rc>
    <rc><c>Fe</c><c>   1</c></rc>
    <rc><c>Fe</c><c>   1</c></rc>
    <rc><c>Fe</c><c>   1</c></rc>
    <rc><c>Fe</c><c>   1</c></rc>
    <rc><c>Fe</c><c>   1</c></rc>
    <rc><c>Fe</c><c>   1</c></rc>
    <rc><c>Fe</c><c>   1</c></rc>
    <rc><c>Fe</c><c>   1</c></rc>
    <rc><c>Fe</c><c>   1</c></rc>
    <rc><c>Fe</c><c>   1</c></rc>
    <rc><c>Fe</c><c>   1</c></rc>
    <rc><c>Fe</c><c>   1</c></rc>
    <rc><c>Fe</c><c>   1</c></rc>
    <rc><c>Fe</c><c>   1</c></rc>
    <rc><c>Fe</c><c>   1</c></rc>
    <rc><c>Fe</c><c>   1</c></rc>
    <rc><c>Fe</c><c>   1</c></rc>
    <rc><c>Fe</c><c>   1</c></rc>
    <rc><c>Fe</c><c>   1</c></rc>
    <rc><c>Fe</c><c>   1</c></rc>
    <rc><c>Fe</c><c>   1</c></rc>
    <rc><c>Fe</c><c>   1</c></rc>
    <rc><c>Fe</c><c>   1</c></rc>
    <rc><c>Fe</c><c>   1</c></rc>
    <rc><c>Fe</c><c>   1</c></rc>
    <rc><c>Fe</c><c>   1</c></rc>
    <rc><c>Fe</c><c>   1</c></rc>
    <rc><c>Fe</c><c>   1</c></rc>
    <rc><c>Fe</c><c>   1</c></rc>
    <rc><c>Fe</c><c>   1</c></rc>
    <rc><c>Fe</c><c>   1</c></rc>
    <rc><c>Fe</c><c>   1</c></rc>
    <rc><c>Fe</c><c>   1</c></rc>
    <rc><c>Fe</c><c>   1</c></rc>
    <rc><c>Fe</c><c>   1</c></rc>
    <rc><c>Fe</c><c>   1</c></rc>
    <rc><c>Fe</c><c>   1</c></rc>
    <rc><c>Fe</c><c>   1</c></rc>
    <rc><c>Fe</c><c>   1</c></rc>
    <rc><c>Fe</c><c>   1</c></rc>
    <rc><c>Fe</c><c>   1</c></rc>
    <rc><c>Fe</c><c>   1</c></rc>
    <rc><c>Mn</c><c>   2</c></rc>
    <rc><c>Mn</c><c>   2</c></rc>
    <rc><c>Mn</c><c>   2</c></rc>
    <rc><c>Mn</c><c>   2</c></rc>
    <rc><c>Mn</c><c>   2</c></rc>
    <rc><c>Mn</c><c>   2</c></rc>
    <rc><c>Mn</c><c>   2</c></rc>
    <rc><c>Mn</c><c>   2</c></rc>
    <rc><c>Mn</c><c>   2</c></rc>
    <rc><c>Mn</c><c>   2</c></rc>
    <rc><c>Mn</c><c>   2</c></rc>
    <rc><c>Mn</c><c>   2</c></rc>
    <rc><c>Mn</c><c>   2</c></rc>
    <rc><c>Mn</c><c>   2</c></rc>
    <rc><c>Mn</c><c>   2</c></rc>
   </set>
  </array>
  <array name="atomtypes" >
   <dimension dim="1">type</dimension>
   <field type="int">atomspertype</field>
   <field type="string">element</field>
   <field>mass</field>
   <field>valence</field>
   <field type="string">pseudopotential</field>
   <set>
    <rc><c> 273</c><c>Fe</c><c>     55.84700000</c><c>      8.00000000</c><c>  PAW_PBE Fe_GW 31Mar2010               </c></rc>
    <rc><c>  15</c><c>Mn</c><c>     54.93800000</c><c>      7.00000000</c><c>  PAW_PBE Mn_GW 31Mar2010               </c></rc>
   </set>
  </array>
 </atominfo>
 <structure name="initialpos" >
  <crystal>
   <varray name="basis" >
    <v>       9.72667800       0.00000000       0.00000000 </v>
    <v>       0.00000000       8.42355000       0.00000000 </v>
    <v>       0.00000000       0.00000000      45.00000000 </v>
   </varray>
   <i name="volume">   3686.99213101 </i>
   <varray name="rec_basis" >
    <v>       0.10281002       0.00000000       0.00000000 </v>
    <v>       0.00000000       0.11871479       0.00000000 </v>
    <v>       0.00000000       0.00000000       0.02222222 </v>
   </varray>
  </crystal>
  <varray name="positions" >
   <v>       0.56223157       0.54262723       0.61054505 </v>
   <v>       0.31214914       0.36304702       0.16719155 </v>
   <v>       0.68787810       0.29619665       0.74361036 </v>
   <v>       0.93844429       0.12265751       0.52153746 </v>
   <v>       0.31263598       0.37343943       0.52130947 </v>
   <v>       0.68808989       0.96428946       0.83278829 </v>
   <v>       0.56141290       0.38234021       0.78782860 </v>
   <v>       0.31184857       0.04943534       0.87481782 </v>
   <v>       0.06296837       0.36550693       0.30063020 </v>
   <v>       0.81276095       0.04984357       0.87477277 </v>
   <v>       0.06258907       0.20817130       0.56565704 </v>
   <v>       0.81312302       0.19587729       0.21204487 </v>
   <v>       0.81331683       0.87698470       0.65473997 </v>
   <v>       0.43743389       0.29840502       0.87471916 </v>
   <v>       0.68795919       0.95534497       0.47854773 </v>
   <v>       0.31267024       0.21401678       0.83273277 </v>
   <v>       0.06312477       0.87663171       0.65479945 </v>
   <v>       0.43744198       0.62016341       0.43445934 </v>
   <v>       0.43625948       0.95523586       0.47851234 </v>
   <v>       0.56177620       0.52887456       0.12520718 </v>
   <v>       0.18719160       0.11982724       0.43443627 </v>
   <v>       0.81278535       0.70516380       0.47855845 </v>
   <v>       0.31241302       0.54206206       0.61055334 </v>
   <v>       0.43767470       0.11579708       0.30061723 </v>
   <v>       0.43748137       0.61580827       0.30056763 </v>
   <v>       0.68687311       0.45191899       0.34536467 </v>
   <v>       0.93778620       0.46379669       0.83274309 </v>
   <v>       0.81170845       0.20530616       0.47861719 </v>
   <v>       0.68718404       0.28073392       0.25648803 </v>
   <v>       0.93718024       0.61993721       0.43447726 </v>
   <v>       0.93806756       0.27849120       0.12524740 </v>
   <v>       0.43757303       0.78046364       0.25646103 </v>
   <v>       0.06280021       0.54716987       0.74364885 </v>
   <v>       0.56277037       0.53554415       0.38951659 </v>
   <v>       0.81222701       0.04212084       0.61069040 </v>
   <v>       0.68744678       0.95790242       0.56555236 </v>
   <v>       0.18754199       0.29257091       0.61059984 </v>
   <v>       0.56297351       0.37626544       0.65472332 </v>
   <v>       0.93777797       0.11582356       0.30072109 </v>
   <v>       0.43795300       0.12641827       0.65482919 </v>
   <v>       0.81169438       0.86292033       0.16708527 </v>
   <v>       0.93779769       0.61457746       0.30061320 </v>
   <v>       0.18609001       0.63170889       0.78765606 </v>
   <v>       0.06271228       0.53565791       0.38950100 </v>
   <v>       0.31314669       0.02925488       0.12515730 </v>
   <v>       0.43724362       0.11325464       0.16726609 </v>
   <v>       0.68647130       0.13277513       0.78768375 </v>
   <v>       0.31194827       0.38215500       0.78775351 </v>
   <v>       0.43711837       0.11988881       0.43445337 </v>
   <v>       0.56203746       0.20140733       0.34520428 </v>
   <v>       0.31191079       0.03052164       0.25639112 </v>
   <v>       0.81298781       0.71495291       0.83282630 </v>
   <v>       0.81205349       0.70156553       0.34530522 </v>
   <v>       0.81176940       0.54894299       0.87480174 </v>
   <v>       0.56343214       0.71429919       0.83273660 </v>
   <v>       0.31224393       0.86353437       0.16720828 </v>
   <v>       0.93671476       0.96157506       0.69933211 </v>
   <v>       0.31271065       0.03663432       0.38969556 </v>
   <v>       0.18716302       0.96186187       0.69941331 </v>
   <v>       0.56328015       0.69549562       0.21200550 </v>
   <v>       0.18700316       0.46240022       0.69922999 </v>
   <v>       0.81197519       0.71198842       0.69937437 </v>
   <v>       0.18839790       0.96436892       0.83287464 </v>
   <v>       0.18813114       0.44577417       0.21220526 </v>
   <v>       0.68861539       0.44605265       0.21219504 </v>
   <v>       0.43709716       0.61287525       0.16707622 </v>
   <v>       0.06215791       0.71197686       0.69931662 </v>
   <v>       0.06183536       0.36308052       0.16723732 </v>
   <v>       0.56264574       0.87624384       0.65472264 </v>
   <v>       0.31173565       0.70155332       0.34526289 </v>
   <v>       0.56299898       0.70556885       0.47878832 </v>
   <v>       0.93748784       0.79174327       0.61042716 </v>
   <v>       0.68801104       0.62647487       0.65483684 </v>
   <v>       0.06196789       0.21281221       0.69947052 </v>
   <v>       0.06194704       0.88161605       0.78767954 </v>
   <v>       0.06221646       0.54220808       0.61050053 </v>
   <v>       0.43702104       0.79243302       0.61046753 </v>
   <v>       0.56213589       0.36280218       0.16714386 </v>
   <v>       0.31408090       0.52901813       0.12517592 </v>
   <v>       0.56217258       0.03075444       0.25640121 </v>
   <v>       0.81279886       0.53564628       0.38949675 </v>
   <v>       0.81165842       0.88157729       0.78776458 </v>
   <v>       0.43801869       0.46455543       0.83279166 </v>
   <v>       0.81287280       0.70760160       0.56558667 </v>
   <v>       0.31181854       0.54956441       0.87481039 </v>
   <v>       0.18836594       0.77848436       0.12523204 </v>
   <v>       0.81259996       0.03069105       0.12524988 </v>
   <v>       0.43799505       0.44525679       0.21206061 </v>
   <v>       0.43790065       0.96396783       0.83284823 </v>
   <v>       0.06324052       0.52910638       0.12499925 </v>
   <v>       0.06223781       0.86991044       0.43434619 </v>
   <v>       0.68665270       0.11329598       0.16711024 </v>
   <v>       0.31313890       0.36594425       0.30052653 </v>
   <v>       0.93734501       0.28606428       0.38952244 </v>
   <v>       0.18817854       0.12653633       0.65485275 </v>
   <v>       0.56257031       0.87174182       0.52152121 </v>
   <v>       0.43760091       0.45803706       0.56573043 </v>
   <v>       0.81207744       0.86998114       0.43444672 </v>
   <v>       0.43759751       0.78618099       0.38949571 </v>
   <v>       0.18771284       0.78583221       0.38945500 </v>
   <v>       0.31297873       0.04688484       0.74353034 </v>
   <v>       0.56171375       0.53120462       0.25645988 </v>
   <v>       0.06172944       0.53105989       0.25650004 </v>
   <v>       0.56201005       0.71158779       0.69942165 </v>
   <v>       0.56214417       0.21239411       0.69935379 </v>
   <v>       0.81200312       0.03074668       0.25633474 </v>
   <v>       0.68806744       0.46440993       0.83294394 </v>
   <v>       0.06316577       0.37675309       0.65474954 </v>
   <v>       0.68768874       0.28521333       0.38948426 </v>
   <v>       0.43787364       0.29704793       0.74362118 </v>
   <v>       0.06268090       0.37194977       0.52151821 </v>
   <v>       0.43704150       0.96171064       0.69933549 </v>
   <v>       0.43693775       0.63156556       0.78761819 </v>
   <v>       0.06183304       0.70124569       0.34522139 </v>
   <v>       0.18727408       0.62025638       0.43435642 </v>
   <v>       0.81232793       0.36994988       0.43446531 </v>
   <v>       0.93734925       0.78032567       0.25648367 </v>
   <v>       0.06268626       0.70764183       0.56569128 </v>
   <v>       0.81223546       0.21257998       0.69949767 </v>
   <v>       0.93812921       0.29661996       0.74360749 </v>
   <v>       0.81243247       0.36561840       0.30076775 </v>
   <v>       0.56286234       0.20824045       0.56568913 </v>
   <v>       0.06366451       0.03007815       0.12532505 </v>
   <v>       0.56174191       0.86356010       0.16721883 </v>
   <v>       0.31237194       0.20817522       0.56545635 </v>
   <v>       0.56119298       0.05040959       0.87466549 </v>
   <v>       0.68710851       0.46194117       0.69938172 </v>
   <v>       0.93646864       0.29913281       0.87483190 </v>
   <v>       0.68812296       0.77849819       0.12514848 </v>
   <v>       0.68716224       0.29887822       0.87497445 </v>
   <v>       0.81299486       0.52976133       0.12489080 </v>
   <v>       0.81176210       0.38222727       0.78780273 </v>
   <v>       0.31301312       0.87186458       0.52136469 </v>
   <v>       0.43765977       0.45487999       0.47854059 </v>
   <v>       0.06273009       0.04702481       0.74353995 </v>
   <v>       0.93673318       0.45598652       0.47858048 </v>
   <v>       0.06135030       0.38228941       0.78782705 </v>
   <v>       0.93722922       0.95146126       0.34548217 </v>
   <v>       0.06257056       0.86333801       0.16725061 </v>
   <v>       0.56203421       0.36992477       0.43433250 </v>
   <v>       0.31311823       0.86675802       0.30052181 </v>
   <v>       0.06175026       0.20166291       0.34515976 </v>
   <v>       0.06201668       0.70580110       0.47846024 </v>
   <v>       0.68739463       0.78542575       0.38950395 </v>
   <v>       0.68745193       0.45504529       0.47854775 </v>
   <v>       0.93692159       0.79850289       0.87474283 </v>
   <v>       0.81302969       0.04636525       0.74361893 </v>
   <v>       0.18709571       0.79744191       0.87498543 </v>
   <v>       0.93764960       0.45749175       0.56559656 </v>
   <v>       0.43785736       0.77810721       0.12522418 </v>
   <v>       0.31227791       0.04235971       0.61062085 </v>
   <v>       0.18789589       0.29693549       0.74357275 </v>
   <v>       0.18759311       0.28052081       0.25644536 </v>
   <v>       0.81257959       0.37266982       0.52137273 </v>
   <v>       0.56146182       0.88138622       0.78770349 </v>
   <v>       0.31150953       0.88233132       0.78763013 </v>
   <v>       0.56277085       0.04640418       0.74361215 </v>
   <v>       0.06261666       0.04271712       0.61063499 </v>
   <v>       0.31295729       0.37676499       0.65474600 </v>
   <v>       0.31210408       0.70575752       0.47858657 </v>
   <v>       0.93822681       0.94647378       0.21235439 </v>
   <v>       0.06293013       0.20499694       0.47878719 </v>
   <v>       0.68763795       0.11594100       0.30071722 </v>
   <v>       0.93743818       0.78561034       0.38943630 </v>
   <v>       0.43830719       0.27793473       0.12513949 </v>
   <v>       0.68743442       0.61987838       0.43435710 </v>
   <v>       0.18751832       0.61505740       0.30057400 </v>
   <v>       0.81321908       0.86620962       0.30045491 </v>
   <v>       0.43607626       0.79870577       0.87497801 </v>
   <v>       0.06249640       0.37000177       0.43422635 </v>
   <v>       0.18811752       0.62641055       0.65483401 </v>
   <v>       0.81259457       0.54233683       0.61059250 </v>
   <v>       0.81203692       0.87244624       0.52142551 </v>
   <v>       0.43694163       0.13221696       0.78793285 </v>
   <v>       0.31205591       0.71186134       0.69931013 </v>
   <v>       0.93726703       0.29252656       0.61050418 </v>
   <v>       0.43675263       0.46182102       0.69949138 </v>
   <v>       0.68789966       0.94607685       0.21211500 </v>
   <v>       0.31207858       0.20170765       0.34533166 </v>
   <v>       0.68770789       0.12291079       0.52146756 </v>
   <v>       0.93809690       0.12658404       0.65471690 </v>
   <v>       0.18721634       0.61339615       0.16727094 </v>
   <v>       0.56374178       0.21513811       0.83277220 </v>
   <v>       0.06299559       0.21360138       0.83283232 </v>
   <v>       0.93729945       0.11980876       0.43438026 </v>
   <v>       0.31308604       0.54732244       0.74355550 </v>
   <v>       0.81257146       0.53086032       0.25637133 </v>
   <v>       0.68800049       0.27758086       0.12524434 </v>
   <v>       0.56247583       0.86965474       0.43436785 </v>
   <v>       0.06406242       0.69589909       0.21220034 </v>
   <v>       0.93675042       0.63154086       0.78768208 </v>
   <v>       0.56297804       0.54664255       0.74351621 </v>
   <v>       0.93824281       0.44514346       0.21219913 </v>
   <v>       0.81273759       0.20804929       0.56564326 </v>
   <v>       0.18781643       0.78085466       0.25632802 </v>
   <v>       0.81235490       0.36328084       0.16724078 </v>
   <v>       0.06223552       0.03093926       0.25636780 </v>
   <v>       0.81280482       0.21536249       0.83271786 </v>
   <v>       0.68773753       0.79259122       0.61050156 </v>
   <v>       0.18801154       0.79760641       0.74362343 </v>
   <v>       0.18775166       0.45775117       0.56573259 </v>
   <v>       0.18766392       0.46415487       0.83271666 </v>
   <v>       0.81288719       0.03602008       0.38966868 </v>
   <v>       0.93729705       0.96450085       0.83291936 </v>
   <v>       0.18795764       0.45562686       0.47857020 </v>
   <v>       0.56204706       0.54884293       0.87475834 </v>
   <v>       0.68812846       0.79683399       0.74364187 </v>
   <v>       0.31186917       0.21254093       0.69950818 </v>
   <v>       0.93755484       0.79707699       0.74353727 </v>
   <v>       0.68696508       0.29236507       0.61053998 </v>
   <v>       0.56298785       0.02948490       0.12517855 </v>
   <v>       0.68780081       0.12004869       0.43449573 </v>
   <v>       0.56257095       0.20606037       0.47873802 </v>
   <v>       0.68778607       0.95155418       0.34527846 </v>
   <v>       0.18719419       0.45149425       0.34528561 </v>
   <v>       0.81299117       0.37685682       0.65480098 </v>
   <v>       0.43800517       0.62652803       0.65478338 </v>
   <v>       0.06167801       0.05079929       0.87478191 </v>
   <v>       0.18784785       0.28618437       0.38948625 </v>
   <v>       0.43722801       0.45167788       0.34526443 </v>
   <v>       0.56299839       0.19556667       0.21207539 </v>
   <v>       0.56291994       0.36622783       0.30050047 </v>
   <v>       0.81284947       0.54660128       0.74348651 </v>
   <v>       0.93731037       0.62205873       0.52143638 </v>
   <v>       0.18703661       0.95155058       0.34530225 </v>
   <v>       0.43751522       0.95779943       0.56573404 </v>
   <v>       0.56214386       0.37199884       0.52144125 </v>
   <v>       0.68656178       0.63200011       0.78795603 </v>
   <v>       0.31217356       0.37006607       0.43442575 </v>
   <v>       0.18779705       0.95798510       0.56583239 </v>
   <v>       0.93718267       0.11315036       0.16728647 </v>
   <v>       0.93792379       0.77807265       0.12499009 </v>
   <v>       0.31214537       0.53098442       0.25641969 </v>
   <v>       0.06240921       0.03571302       0.38945729 </v>
   <v>       0.18537673       0.12242722       0.52138804 </v>
   <v>       0.31282176       0.87665203       0.65480434 </v>
   <v>       0.43696059       0.95164894       0.34530603 </v>
   <v>       0.18720838       0.79227019       0.61042480 </v>
   <v>       0.81184732       0.20175570       0.34528887 </v>
   <v>       0.93781622       0.95478952       0.47870377 </v>
   <v>       0.43774310       0.29261849       0.61059723 </v>
   <v>       0.18760475       0.11324937       0.16707574 </v>
   <v>       0.06180905       0.54907583       0.87467677 </v>
   <v>       0.43724690       0.28556746       0.38944607 </v>
   <v>       0.93722265       0.46218455       0.69937012 </v>
   <v>       0.68749925       0.45757735       0.56567648 </v>
   <v>       0.18775563       0.95534641       0.47854224 </v>
   <v>       0.43741858       0.62261372       0.52133862 </v>
   <v>       0.68726735       0.62259691       0.52131841 </v>
   <v>       0.68752542       0.61379917       0.16715639 </v>
   <v>       0.68827753       0.12678880       0.65495481 </v>
   <v>       0.31244435       0.53605161       0.38933303 </v>
   <v>       0.43839942       0.12268077       0.52137805 </v>
   <v>       0.06349649       0.71361557       0.83265547 </v>
   <v>       0.93718124       0.45116046       0.34532545 </v>
   <v>       0.06395530       0.19552672       0.21207303 </v>
   <v>       0.18750188       0.11600664       0.30067815 </v>
   <v>       0.93620891       0.13242195       0.78784925 </v>
   <v>       0.43794148       0.79713058       0.74355653 </v>
   <v>       0.31372013       0.19522109       0.21209097 </v>
   <v>       0.06227589       0.87318658       0.52140604 </v>
   <v>       0.68709383       0.78065570       0.25630937 </v>
   <v>       0.43709368       0.28081105       0.25637812 </v>
   <v>       0.31230541       0.87031989       0.43438676 </v>
   <v>       0.18824375       0.27724156       0.12524678 </v>
   <v>       0.18796445       0.62188822       0.52134347 </v>
   <v>       0.18641924       0.29791718       0.87470502 </v>
   <v>       0.31364848       0.69520867       0.21196349 </v>
   <v>       0.18823345       0.94587446       0.21219808 </v>
   <v>       0.31228697       0.70759257       0.56551052 </v>
   <v>       0.56166165       0.70215909       0.34540001 </v>
   <v>       0.93802423       0.62639065       0.65483170 </v>
   <v>       0.43851459       0.94617381       0.21218110 </v>
   <v>       0.81286457       0.69573413       0.21250080 </v>
   <v>       0.93770227       0.95808243       0.56568909 </v>
   <v>       0.56234562       0.04206625       0.61062910 </v>
   <v>       0.93732553       0.28086780       0.25632796 </v>
   <v>       0.06354212       0.86640743       0.30069531 </v>
   <v>       0.31279014       0.71400188       0.83324562 </v>
   <v>       0.18631353       0.13200500       0.78762165 </v>
   <v>       0.68780496       0.79891137       0.87449283 </v>
   <v>       0.56265774       0.86685231       0.30067853 </v>
   <v>       0.31271201       0.20538603       0.47862562 </v>
   <v>       0.68695917       0.96184681       0.69944316 </v>
   <v>       0.93734697       0.61359467       0.16641087 </v>
   <v>       0.56271260       0.03563282       0.38933896 </v>
   <v>       0.68765666       0.61486133       0.30050659 </v>
   <v>       0.56291826       0.70805332       0.56559996 </v>
  </varray>
 </structure>
 <calculation>
  <scstep>
   <time name="dav">  145.37  145.37</time>
   <time name="total">  145.82  145.82</time>
   <energy>
    <i name="alphaZ">  16277.55763135 </i>
    <i name="ewald"> 736466.88539139 </i>
    <i name="hartreedc">-926771.68817312 </i>
    <i name="XCdc">  -6527.93389664 </i>
    <i name="pawpsdc"> 162148.49262465 </i>
    <i name="pawaedc">-159453.03229289 </i>
    <i name="eentropy">     -0.95246346 </i>
    <i name="bandstr">  39753.78658335 </i>
    <i name="atom"> 168497.18126305 </i>
    <i name="e_fr_energy">  30390.29666767 </i>
    <i name="e_wo_entrp">  30391.24913113 </i>
    <i name="e_0_energy">  30390.77289940 </i>
   </energy>
  </scstep>
  <scstep>
   <time name="dav">  142.17  142.16</time>
   <time name="total">  142.17  142.17</time>
   <energy>
    <i name="e_fr_energy">   1522.84374303 </i>
    <i name="e_wo_entrp">   1524.23259276 </i>
    <i name="e_0_energy">   1523.53816789 </i>
   </energy>
  </scstep>
  <scstep>
   <time name="dav">  175.48  175.47</time>
   <time name="total">  175.48  175.48</time>
   <energy>
    <i name="e_fr_energy">  -1897.08695190 </i>
    <i name="e_wo_entrp">  -1893.54292831 </i>
    <i name="e_0_energy">  -1895.31494011 </i>
   </energy>
  </scstep>
  <scstep>
   <time name="dav">  217.16  217.15</time>
   <time name="total">  217.16  217.16</time>
   <energy>
    <i name="e_fr_energy">  -2609.34000618 </i>
    <i name="e_wo_entrp">  -2605.86448350 </i>
    <i name="e_0_energy">  -2607.60224484 </i>
   </energy>
  </scstep>
  <scstep>
   <time name="dav">  210.44  210.44</time>
   <time name="total">  215.18  215.18</time>
   <energy>
    <i name="e_fr_energy">  -2739.26497813 </i>
    <i name="e_wo_entrp">  -2735.70163619 </i>
    <i name="e_0_energy">  -2737.48330716 </i>
   </energy>
  </scstep>
  <scstep>
   <time name="diag">   29.70   29.70</time>
   <time name="diis">   75.09   75.09</time>
   <time name="orth">    9.24    9.24</time>
   <time name="total">  119.15  119.14</time>
   <energy>
    <i name="e_fr_energy">  -5623.40910552 </i>
    <i name="e_wo_entrp">  -5619.74241299 </i>
    <i name="e_0_energy">  -5621.57575925 </i>
   </energy>
  </scstep>
  <scstep>
   <time name="diag">   31.12   31.12</time>
   <time name="diis">   61.94   61.94</time>
   <time name="orth">    9.47    9.47</time>
   <time name="total">  107.58  107.58</time>
   <energy>
    <i name="e_fr_energy">  -3665.69551596 </i>
    <i name="e_wo_entrp">  -3662.05919167 </i>
    <i name="e_0_energy">  -3663.87735381 </i>
   </energy>
  </scstep>
  <scstep>
[...]
    <v>       0.18750809       0.94673539       0.21224733 </v>
    <v>       0.31221810       0.70726971       0.56548107 </v>
    <v>       0.56252157       0.70121532       0.34551814 </v>
    <v>       0.93753832       0.62689854       0.65458116 </v>
    <v>       0.43795227       0.94694002       0.21216015 </v>
    <v>       0.81203398       0.69735307       0.21254682 </v>
    <v>       0.93746623       0.95749881       0.56554524 </v>
    <v>       0.56269054       0.04190988       0.61043750 </v>
    <v>       0.93791787       0.28105673       0.25641197 </v>
    <v>       0.06250144       0.86630430       0.30098654 </v>
    <v>       0.31192682       0.71479184       0.83318669 </v>
    <v>       0.18714156       0.13046568       0.78753822 </v>
    <v>       0.68790276       0.79818230       0.87448355 </v>
    <v>       0.56178248       0.86667869       0.30097580 </v>
    <v>       0.31242540       0.20483572       0.47869904 </v>
    <v>       0.68745487       0.96185718       0.69921479 </v>
    <v>       0.93793373       0.61278499       0.16643771 </v>
    <v>       0.56242220       0.03549586       0.38946021 </v>
    <v>       0.68779834       0.61526159       0.30087802 </v>
    <v>       0.56266608       0.70757126       0.56555063 </v>
   </varray>
  </structure>
  <varray name="forces" >
   <v>      -0.00286837       0.00417044      -0.01021688 </v>
   <v>      -0.00305430       0.01505939       0.02775522 </v>
   <v>       0.00189131      -0.00951326      -0.01696460 </v>
   <v>      -0.01058206      -0.01477260      -0.00377246 </v>
   <v>      -0.00038950      -0.01995762       0.00316489 </v>
   <v>       0.00105519      -0.01256839      -0.01380301 </v>
   <v>       0.00129857      -0.00714912      -0.02581763 </v>
   <v>      -0.00216278       0.00852749      -0.00573993 </v>
   <v>       0.00276062       0.00486826       0.00397565 </v>
   <v>      -0.00054635       0.01007619      -0.00446228 </v>
   <v>      -0.00243738       0.00630876      -0.01079331 </v>
   <v>      -0.00482073       0.00492759       0.01208874 </v>
   <v>      -0.00069475       0.00515366      -0.01189244 </v>
   <v>      -0.00155796      -0.01815500      -0.00548612 </v>
   <v>      -0.00039358       0.01377216      -0.00418338 </v>
   <v>      -0.00274922      -0.01067510      -0.02280635 </v>
   <v>      -0.00146588       0.00421750       0.00387615 </v>
   <v>       0.00246407      -0.00282877       0.01181027 </v>
   <v>       0.00796275       0.01129288      -0.00548013 </v>
   <v>      -0.01101216       0.01191654       0.01377222 </v>
   <v>      -0.00158947      -0.00823419       0.01057120 </v>
   <v>      -0.00127503       0.01537286      -0.00646604 </v>
   <v>       0.00326343      -0.00221524      -0.00922030 </v>
   <v>       0.01086776      -0.00458851       0.01010402 </v>
   <v>       0.00460507       0.00305465      -0.00027542 </v>
   <v>       0.00172810       0.00392333       0.00915877 </v>
   <v>       0.00222664      -0.00748375      -0.01735667 </v>
   <v>       0.00007369       0.02016654      -0.00237305 </v>
   <v>       0.00039168       0.00175767       0.02132557 </v>
   <v>      -0.00174088      -0.00124604       0.01708174 </v>
   <v>       0.00262232      -0.00812294       0.00673459 </v>
   <v>       0.00243042       0.00179718       0.01912292 </v>
   <v>      -0.00177870      -0.00647299      -0.01298501 </v>
   <v>       0.00367402      -0.00705639       0.02140586 </v>
   <v>      -0.00651986       0.00220679       0.00326945 </v>
   <v>       0.00090422       0.00201960      -0.01853612 </v>
   <v>      -0.00553381       0.00638465      -0.00945984 </v>
   <v>       0.00200182      -0.00193251      -0.01154956 </v>
   <v>       0.00087840       0.00327540       0.00811718 </v>
   <v>      -0.00183902      -0.00755896       0.00109482 </v>
   <v>      -0.00553171       0.00564067       0.00912918 </v>
   <v>      -0.00224496      -0.00574922       0.00863596 </v>
   <v>      -0.00514319      -0.00645501      -0.02699074 </v>
   <v>       0.00097477      -0.00613163       0.02207928 </v>
   <v>       0.00385133       0.01172026       0.00354427 </v>
   <v>      -0.00144107       0.00422769       0.02832977 </v>
   <v>      -0.00053491      -0.00343876      -0.02354385 </v>
   <v>       0.00406261      -0.00312324      -0.03052246 </v>
   <v>      -0.00147658      -0.00401450       0.01589213 </v>
   <v>       0.00119438       0.00076594      -0.00168357 </v>
   <v>      -0.00257009       0.00428720       0.00540000 </v>
   <v>       0.00846388      -0.00508174      -0.01886595 </v>
   <v>       0.00371610       0.00249053       0.01520246 </v>
   <v>      -0.00366621       0.00841029      -0.00473619 </v>
   <v>      -0.00643172      -0.00839735      -0.02128882 </v>
   <v>      -0.00307565       0.00839861       0.01905633 </v>
   <v>      -0.01089814      -0.00806669       0.00181360 </v>
   <v>       0.00196318       0.00066894       0.02481391 </v>
   <v>       0.00073675      -0.00890500       0.00165400 </v>
   <v>       0.00018781       0.00153242       0.01086747 </v>
   <v>      -0.00174271      -0.00376610      -0.00743460 </v>
   <v>      -0.00403247      -0.00142445      -0.01024528 </v>
   <v>       0.00292680      -0.00519841      -0.01208069 </v>
   <v>       0.00719895       0.01458300       0.01802087 </v>
   <v>      -0.00323176       0.01202102       0.02071122 </v>
   <v>      -0.00482921       0.00527488       0.02064950 </v>
   <v>       0.00116738      -0.00566608      -0.01268237 </v>
   <v>       0.00478176       0.00889243       0.01634573 </v>
   <v>      -0.00104653       0.00168061      -0.01026557 </v>
   <v>      -0.00356024       0.00024429       0.00563979 </v>
   <v>       0.00297309       0.01980772      -0.00682362 </v>
   <v>      -0.00024174      -0.00255714      -0.01419288 </v>
   <v>       0.00018023      -0.00334239      -0.00243069 </v>
   <v>      -0.00258606       0.00539539      -0.00011591 </v>
   <v>       0.00365210      -0.01160216      -0.02951830 </v>
   <v>      -0.00602572      -0.00268172      -0.01051793 </v>
   <v>      -0.00033566       0.00294225      -0.01102113 </v>
   <v>      -0.00609137       0.00961043       0.02337760 </v>
   <v>       0.00956447       0.01379989       0.00393181 </v>
   <v>       0.00044361       0.00165361       0.00481694 </v>
   <v>       0.00086592      -0.00648793       0.01493409 </v>
   <v>      -0.00382691      -0.01125182      -0.03307433 </v>
   <v>       0.00380650      -0.01237940      -0.01201939 </v>
   <v>      -0.00403050       0.00261918      -0.01337888 </v>
   <v>       0.00040081       0.00710947      -0.01731637 </v>
   <v>       0.01012242      -0.00433396       0.01537217 </v>
   <v>      -0.00252375       0.02028492       0.00586226 </v>
   <v>      -0.00498208       0.00507736       0.01888815 </v>
   <v>       0.00385307      -0.00858456      -0.01419679 </v>
   <v>       0.00539994       0.01617203       0.01135229 </v>
   <v>       0.00106799      -0.00413179       0.01248661 </v>
   <v>      -0.00505570       0.00694218       0.02578921 </v>
   <v>       0.00383696       0.00489519       0.00056458 </v>
   <v>      -0.00169415       0.00081802       0.02393770 </v>
   <v>       0.00129706      -0.00928757      -0.01147540 </v>
   <v>      -0.00064695      -0.01315823       0.00006498 </v>
   <v>      -0.00132841       0.00730432      -0.01178479 </v>
   <v>      -0.00078897      -0.00642877       0.01176992 </v>
   <v>       0.00376045      -0.00625962       0.01203982 </v>
   <v>       0.00311401      -0.00445447       0.01806710 </v>
   <v>       0.00377412      -0.01102961      -0.02239529 </v>
   <v>      -0.00940516       0.01014838       0.01691915 </v>
   <v>      -0.00662112       0.01491836       0.01670434 </v>
   <v>       0.00055402      -0.00242163      -0.00919793 </v>
   <v>       0.00303689      -0.00047002      -0.01077127 </v>
   <v>      -0.00245453       0.00159988       0.00209075 </v>
   <v>       0.00097112      -0.01068233      -0.02219198 </v>
   <v>       0.00061440       0.00469295      -0.00233347 </v>
   <v>       0.00756406      -0.00186356       0.01592430 </v>
   <v>       0.00365934      -0.00437377      -0.02618341 </v>
   <v>       0.00199254      -0.00476938      -0.00475612 </v>
   <v>       0.00377869      -0.00235001      -0.00511673 </v>
   <v>       0.00657323      -0.00711168      -0.02056110 </v>
   <v>      -0.00739304      -0.00246751       0.00597632 </v>
   <v>      -0.00355748      -0.00023035       0.00829503 </v>
   <v>      -0.00310766      -0.00491099       0.01715988 </v>
   <v>      -0.00213252       0.00816753       0.01205439 </v>
   <v>      -0.00294027       0.00078621      -0.00716754 </v>
   <v>      -0.00448946       0.00274930      -0.01230802 </v>
   <v>       0.00791925      -0.00329664      -0.01958105 </v>
   <v>      -0.00864885       0.00563703      -0.00181192 </v>
   <v>      -0.00013481       0.00415015      -0.00834491 </v>
   <v>       0.00649801       0.01813231       0.01238623 </v>
   <v>      -0.00712904       0.00485363       0.02158876 </v>
   <v>       0.00037946       0.00324331      -0.01518857 </v>
   <v>       0.00242505       0.01199525      -0.01068621 </v>
   <v>       0.00142463      -0.00695600      -0.00736441 </v>
   <v>       0.00046449      -0.01486456      -0.00400153 </v>
   <v>      -0.00580498      -0.00592403       0.01841111 </v>
   <v>       0.00208911      -0.01691273       0.00404319 </v>
   <v>      -0.00600203       0.01838470       0.01055337 </v>
   <v>       0.00176111      -0.01146105      -0.02851877 </v>
   <v>       0.00729703      -0.01585119       0.00635372 </v>
   <v>       0.01299248       0.01337670      -0.01101955 </v>
   <v>      -0.00207890      -0.00511283      -0.02484173 </v>
   <v>       0.01000495       0.02005417      -0.00980958 </v>
   <v>      -0.00153242      -0.00339776      -0.02863573 </v>
   <v>      -0.00234772      -0.00155556       0.01469875 </v>
   <v>       0.00982322       0.00613385       0.01579877 </v>
   <v>       0.00445701      -0.00437513       0.01816135 </v>
   <v>       0.00705558       0.01521472       0.00458995 </v>
   <v>      -0.00388826       0.00673765      -0.00566464 </v>
   <v>      -0.00490957       0.00259580      -0.00856540 </v>
   <v>       0.00217435      -0.01144673       0.01267703 </v>
   <v>      -0.00902077       0.01035667      -0.01089973 </v>
   <v>      -0.00362148      -0.01980312      -0.00442125 </v>
   <v>       0.00295390      -0.01079816      -0.01579258 </v>
   <v>      -0.00577706      -0.02204583      -0.00342618 </v>
   <v>       0.00233753       0.00303379      -0.00425766 </v>
   <v>      -0.00186011      -0.00966075       0.01273340 </v>
   <v>       0.00302955       0.00290631      -0.00567844 </v>
   <v>      -0.00146919      -0.00507405      -0.01739592 </v>
   <v>       0.00240102      -0.00608958       0.01223984 </v>
   <v>      -0.00386452      -0.01795328       0.00127574 </v>
   <v>       0.00509396      -0.01806847      -0.03328782 </v>
   <v>      -0.00366612      -0.00944807      -0.03091711 </v>
   <v>       0.00150957      -0.00914397      -0.01749150 </v>
   <v>      -0.00283566       0.00947706      -0.00340064 </v>
   <v>      -0.00291506      -0.00176881      -0.00865555 </v>
   <v>       0.00578949       0.01837202      -0.00543690 </v>
   <v>      -0.00324373       0.02514605       0.03874643 </v>
   <v>      -0.00530385       0.00661568      -0.00621372 </v>
   <v>      -0.00808544       0.00121160       0.01598120 </v>
   <v>      -0.00083230      -0.00543272       0.01104695 </v>
   <v>       0.00259474      -0.00784741       0.00879054 </v>
   <v>       0.00459765      -0.00468797       0.01100519 </v>
   <v>      -0.00498917      -0.00948815       0.00301728 </v>
   <v>       0.00183391       0.01560084      -0.00405082 </v>
   <v>       0.00120897      -0.01705576      -0.00470353 </v>
   <v>      -0.00141848      -0.00312791       0.00659932 </v>
   <v>       0.00372717      -0.00667286       0.00153666 </v>
   <v>      -0.00351626       0.00228260      -0.00449709 </v>
   <v>      -0.01208606      -0.01070274       0.00254578 </v>
   <v>      -0.00277200      -0.00639723      -0.01782375 </v>
   <v>      -0.00148623      -0.00441167      -0.01689197 </v>
   <v>      -0.00261724       0.00307618      -0.01078953 </v>
   <v>      -0.00039318      -0.00575177       0.00307713 </v>
   <v>      -0.01027786       0.01390313       0.03125992 </v>
   <v>       0.00023261       0.00093343       0.00762919 </v>
   <v>       0.00998380      -0.01895238      -0.00034315 </v>
   <v>      -0.00065697      -0.00728396      -0.01619120 </v>
   <v>      -0.00292512       0.00338823       0.02655000 </v>
   <v>       0.00100993      -0.00129861      -0.02173302 </v>
   <v>       0.00540516      -0.01080419      -0.01569818 </v>
   <v>       0.00009743      -0.00851293       0.00746601 </v>
   <v>       0.00404331      -0.00672780      -0.02006249 </v>
   <v>       0.00513495       0.01127634       0.01848432 </v>
   <v>      -0.00418003      -0.00906575       0.01268793 </v>
   <v>       0.00320031      -0.00610640       0.01650331 </v>
   <v>       0.00529150       0.00644470       0.01674185 </v>
   <v>      -0.00091568      -0.00707577      -0.01630349 </v>
   <v>       0.00244617      -0.00532929      -0.01545880 </v>
   <v>      -0.00623242       0.00762835       0.02157549 </v>
   <v>       0.00060175       0.00644733      -0.01164249 </v>
   <v>       0.00307804       0.01121153       0.00366445 </v>
   <v>      -0.00040469       0.01557010       0.02238235 </v>
   <v>      -0.00354771       0.00577368       0.00766178 </v>
   <v>      -0.00077415       0.00236044      -0.02258918 </v>
   <v>      -0.00082757       0.00379780      -0.00594466 </v>
   <v>       0.00268019       0.00233601      -0.00975541 </v>
   <v>      -0.00389884       0.00739648      -0.00658431 </v>
   <v>      -0.00101175      -0.01414178      -0.01754474 </v>
   <v>       0.00232244       0.00103617       0.02341178 </v>
   <v>      -0.00423903      -0.00889159      -0.01913186 </v>
   <v>      -0.01049522       0.02314738      -0.00204810 </v>
   <v>       0.00492446       0.00730804      -0.01005854 </v>
   <v>       0.00540748      -0.00095496      -0.01694690 </v>
   <v>      -0.00215958      -0.00224761      -0.00297266 </v>
   <v>      -0.00398581      -0.00382776      -0.01177881 </v>
   <v>      -0.00714082       0.00111547      -0.00670107 </v>
   <v>      -0.00527943       0.01343548       0.00768339 </v>
   <v>       0.00609093      -0.00249289       0.01769099 </v>
   <v>       0.00221395       0.02099986      -0.01706820 </v>
   <v>       0.01248343      -0.00216654      -0.00049513 </v>
   <v>      -0.00074632      -0.00094224       0.01114292 </v>
   <v>       0.00147841      -0.00001371      -0.00400778 </v>
   <v>       0.00120557       0.00217548      -0.00112355 </v>
   <v>      -0.00259895       0.01249806      -0.01279187 </v>
   <v>       0.00208655       0.00238167       0.01744664 </v>
   <v>       0.00200012       0.00291921       0.00790529 </v>
   <v>      -0.00697193       0.00076149       0.01350793 </v>
   <v>       0.00830415       0.00442673       0.00219506 </v>
   <v>       0.00251174      -0.00544346      -0.01679347 </v>
   <v>      -0.00004703      -0.01402641      -0.00693552 </v>
   <v>       0.00096848      -0.00024254       0.00949668 </v>
   <v>       0.00214786       0.00556655      -0.01794678 </v>
   <v>       0.00161539      -0.01108024      -0.00574795 </v>
   <v>      -0.00128356       0.00290288      -0.01510806 </v>
   <v>       0.00151315      -0.01090656       0.01662301 </v>
   <v>      -0.00705359       0.00675026      -0.01086217 </v>
   <v>       0.00071750       0.00891489       0.02862143 </v>
   <v>       0.00300038      -0.00996611       0.02324280 </v>
   <v>       0.00357188       0.00891045       0.01781932 </v>
   <v>      -0.00569061      -0.00605037       0.01986970 </v>
   <v>       0.00981618      -0.01363271       0.00135819 </v>
   <v>       0.00281470      -0.00209901       0.00314557 </v>
   <v>      -0.00177506      -0.00394259       0.00659734 </v>
   <v>      -0.00495935       0.00110341      -0.01706196 </v>
   <v>      -0.00013450       0.00541140       0.00164319 </v>
   <v>       0.00779440       0.01621730      -0.00903087 </v>
   <v>       0.00697402       0.00633211      -0.00625589 </v>
   <v>       0.00088437       0.00652212       0.02515561 </v>
   <v>      -0.00566729       0.00649746      -0.00861042 </v>
   <v>      -0.00302169      -0.00137229       0.01662253 </v>
   <v>      -0.00494225      -0.00494939      -0.00926138 </v>
   <v>       0.00122264       0.00465918      -0.01241766 </v>
   <v>      -0.01041278       0.01515502      -0.00551778 </v>
   <v>      -0.00640319      -0.01407195      -0.00616259 </v>
   <v>       0.00068192      -0.01058333      -0.00330160 </v>
   <v>       0.00027262       0.00910883       0.02215746 </v>
   <v>       0.00441152      -0.00923510      -0.00177596 </v>
   <v>       0.00322674      -0.00391982       0.01703691 </v>
   <v>      -0.01326856      -0.02049237      -0.00107425 </v>
   <v>       0.00491442      -0.00858081      -0.02009020 </v>
   <v>      -0.00151376      -0.00020091       0.00892221 </v>
   <v>       0.00399155       0.00475727       0.01366308 </v>
   <v>      -0.00501750      -0.00358655       0.01073939 </v>
   <v>       0.00204293      -0.00178083      -0.01948175 </v>
   <v>       0.00459644      -0.00046013      -0.00931162 </v>
   <v>       0.00866542       0.00204912       0.01003659 </v>
   <v>       0.00211714      -0.00845330      -0.01186026 </v>
   <v>      -0.00129638       0.00976010       0.01787305 </v>
   <v>      -0.00226141       0.00388184       0.01076697 </v>
   <v>      -0.00036237      -0.00614282       0.00961401 </v>
   <v>       0.00468068      -0.01135899       0.01907482 </v>
   <v>       0.00466257      -0.01982348      -0.00075189 </v>
   <v>      -0.00440380      -0.02018287      -0.00644301 </v>
   <v>       0.00445183       0.00286973       0.00966761 </v>
   <v>       0.00639364       0.01250952       0.02297006 </v>
   <v>       0.00058623       0.00036828      -0.01594160 </v>
   <v>      -0.00389505       0.00706440       0.01650797 </v>
   <v>      -0.00212053      -0.00129320      -0.00173884 </v>
   <v>       0.00067364       0.01717567       0.02556559 </v>
   <v>      -0.00717681       0.00588238       0.02238810 </v>
   <v>       0.00013692       0.00500987      -0.00607207 </v>
   <v>      -0.00208447       0.00168139      -0.00387136 </v>
   <v>      -0.00590887       0.00502578       0.01912406 </v>
   <v>       0.00413639       0.00926715      -0.00017546 </v>
   <v>      -0.00330605      -0.00309824      -0.02033736 </v>
   <v>       0.00369639      -0.00417328      -0.02403807 </v>
   <v>       0.00411997      -0.01138347      -0.01291065 </v>
   <v>       0.00198504       0.00884889      -0.00126413 </v>
   <v>       0.00528510       0.02014662      -0.00727976 </v>
   <v>       0.00003989      -0.00510997      -0.00830087 </v>
   <v>       0.00611623       0.00720187       0.01487652 </v>
   <v>       0.00078895      -0.00401979       0.02091456 </v>
   <v>      -0.00222437      -0.00378025      -0.00685705 </v>
   <v>       0.00350382       0.00504052      -0.00767529 </v>
  </varray>
  <varray name="stress" >
   <v>      -6.15864681       0.06634896       0.07670261 </v>
   <v>       0.06634965      -2.58200394      -5.22249251 </v>
   <v>       0.07670207      -5.22249242     -21.84530407 </v>
  </varray>
  <energy>
   <i name="e_fr_energy">  -2325.83784030 </i>
   <i name="e_wo_entrp">  -2323.05280619 </i>
   <i name="e_0_energy">     -5.57006823 </i>
  </energy>
  <time name="totalsc"> 1987.29 1987.28</time>
 </calculation>
