unknown system                          
            1
     9.726678    0.000000    0.000000
     0.000000    8.423550    0.000000
     0.000000    0.000000   45.000000
   Fe   Mn
 273  15
Direct configuration=     1
   0.56223157  0.54262723  0.61054505
   0.31214914  0.36304702  0.16719155
   0.68787810  0.29619665  0.74361036
   0.93844429  0.12265751  0.52153746
   0.31263598  0.37343943  0.52130947
   0.68808989  0.96428946  0.83278829
   0.56141290  0.38234021  0.78782860
   0.31184857  0.04943534  0.87481782
   0.06296837  0.36550693  0.30063020
   0.81276095  0.04984357  0.87477277
   0.06258907  0.20817130  0.56565704
   0.81312302  0.19587729  0.21204487
   0.81331683  0.87698470  0.65473997
   0.43743389  0.29840502  0.87471916
   0.68795919  0.95534497  0.47854773
   0.31267024  0.21401678  0.83273277
   0.06312477  0.87663171  0.65479945
   0.43744198  0.62016341  0.43445934
   0.43625948  0.95523586  0.47851234
   0.56177620  0.52887456  0.12520718
   0.18719160  0.11982724  0.43443627
   0.81278535  0.70516380  0.47855845
   0.31241302  0.54206206  0.61055334
   0.43767470  0.11579708  0.30061723
   0.43748137  0.61580827  0.30056763
   0.68687311  0.45191899  0.34536467
   0.93778620  0.46379669  0.83274309
   0.81170845  0.20530616  0.47861719
   0.68718404  0.28073392  0.25648803
   0.93718024  0.61993721  0.43447726
   0.93806756  0.27849120  0.12524740
   0.43757303  0.78046364  0.25646103
   0.06280021  0.54716987  0.74364885
   0.56277037  0.53554415  0.38951659
   0.81222701  0.04212084  0.61069040
   0.68744678  0.95790242  0.56555236
   0.18754199  0.29257091  0.61059984
   0.56297351  0.37626544  0.65472332
   0.93777797  0.11582356  0.30072109
   0.43795300  0.12641827  0.65482919
   0.81169438  0.86292033  0.16708527
   0.93779769  0.61457746  0.30061320
   0.18609001  0.63170889  0.78765606
   0.06271228  0.53565791  0.38950100
   0.31314669  0.02925488  0.12515730
   0.43724362  0.11325464  0.16726609
   0.68647130  0.13277513  0.78768375
   0.31194827  0.38215500  0.78775351
   0.43711837  0.11988881  0.43445337
   0.56203746  0.20140733  0.34520428
   0.31191079  0.03052164  0.25639112
   0.81298781  0.71495291  0.83282630
   0.81205349  0.70156553  0.34530522
   0.81176940  0.54894299  0.87480174
   0.56343214  0.71429919  0.83273660
   0.31224393  0.86353437  0.16720828
   0.93671476  0.96157506  0.69933211
   0.31271065  0.03663432  0.38969556
   0.18716302  0.96186187  0.69941331
   0.56328015  0.69549562  0.21200550
   0.18700316  0.46240022  0.69922999
   0.81197519  0.71198842  0.69937437
   0.18839790  0.96436892  0.83287464
   0.18813114  0.44577417  0.21220526
   0.68861539  0.44605265  0.21219504
   0.43709716  0.61287525  0.16707622
   0.06215791  0.71197686  0.69931662
   0.06183536  0.36308052  0.16723732
   0.56264574  0.87624384  0.65472264
   0.31173565  0.70155332  0.34526289
   0.56299898  0.70556885  0.47878832
   0.93748784  0.79174327  0.61042716
   0.68801104  0.62647487  0.65483684
   0.06196789  0.21281221  0.69947052
   0.06194704  0.88161605  0.78767954
   0.06221646  0.54220808  0.61050053
   0.43702104  0.79243302  0.61046753
   0.56213589  0.36280218  0.16714386
   0.31408090  0.52901813  0.12517592
   0.56217258  0.03075444  0.25640121
   0.81279886  0.53564628  0.38949675
   0.81165842  0.88157729  0.78776458
   0.43801869  0.46455543  0.83279166
   0.81287280  0.70760160  0.56558667
   0.31181854  0.54956441  0.87481039
   0.18836594  0.77848436  0.12523204
   0.81259996  0.03069105  0.12524988
   0.43799505  0.44525679  0.21206061
   0.43790065  0.96396783  0.83284823
   0.06324052  0.52910638  0.12499925
   0.06223781  0.86991044  0.43434619
   0.68665270  0.11329598  0.16711024
   0.31313890  0.36594425  0.30052653
   0.93734501  0.28606428  0.38952244
   0.18817854  0.12653633  0.65485275
   0.56257031  0.87174182  0.52152121
   0.43760091  0.45803706  0.56573043
   0.81207744  0.86998114  0.43444672
   0.43759751  0.78618099  0.38949571
   0.18771284  0.78583221  0.38945500
   0.31297873  0.04688484  0.74353034
   0.56171375  0.53120462  0.25645988
   0.06172944  0.53105989  0.25650004
   0.56201005  0.71158779  0.69942165
   0.56214417  0.21239411  0.69935379
   0.81200312  0.03074668  0.25633474
   0.68806744  0.46440993  0.83294394
   0.06316577  0.37675309  0.65474954
   0.68768874  0.28521333  0.38948426
   0.43787364  0.29704793  0.74362118
   0.06268090  0.37194977  0.52151821
   0.43704150  0.96171064  0.69933549
   0.43693775  0.63156556  0.78761819
   0.06183304  0.70124569  0.34522139
   0.18727408  0.62025638  0.43435642
   0.81232793  0.36994988  0.43446531
   0.93734925  0.78032567  0.25648367
   0.06268626  0.70764183  0.56569128
   0.81223546  0.21257998  0.69949767
   0.93812921  0.29661996  0.74360749
   0.81243247  0.36561840  0.30076775
   0.56286234  0.20824045  0.56568913
   0.06366451  0.03007815  0.12532505
   0.56174191  0.86356010  0.16721883
   0.31237194  0.20817522  0.56545635
   0.56119298  0.05040959  0.87466549
   0.68710851  0.46194117  0.69938172
   0.93646864  0.29913281  0.87483190
   0.68812296  0.77849819  0.12514848
   0.68716224  0.29887822  0.87497445
   0.81299486  0.52976133  0.12489080
   0.81176210  0.38222727  0.78780273
   0.31301312  0.87186458  0.52136469
   0.43765977  0.45487999  0.47854059
   0.06273009  0.04702481  0.74353995
   0.93673318  0.45598652  0.47858048
   0.06135030  0.38228941  0.78782705
   0.93722922  0.95146126  0.34548217
   0.06257056  0.86333801  0.16725061
   0.56203421  0.36992477  0.43433250
   0.31311823  0.86675802  0.30052181
   0.06175026  0.20166291  0.34515976
   0.06201668  0.70580110  0.47846024
   0.68739463  0.78542575  0.38950395
   0.68745193  0.45504529  0.47854775
   0.93692159  0.79850289  0.87474283
   0.81302969  0.04636525  0.74361893
   0.18709571  0.79744191  0.87498543
   0.93764960  0.45749175  0.56559656
   0.43785736  0.77810721  0.12522418
   0.31227791  0.04235971  0.61062085
   0.18789589  0.29693549  0.74357275
   0.18759311  0.28052081  0.25644536
   0.81257959  0.37266982  0.52137273
   0.56146182  0.88138622  0.78770349
   0.31150953  0.88233132  0.78763013
   0.56277085  0.04640418  0.74361215
   0.06261666  0.04271712  0.61063499
   0.31295729  0.37676499  0.65474600
   0.31210408  0.70575752  0.47858657
   0.93822681  0.94647378  0.21235439
   0.06293013  0.20499694  0.47878719
   0.68763795  0.11594100  0.30071722
   0.93743818  0.78561034  0.38943630
   0.43830719  0.27793473  0.12513949
   0.68743442  0.61987838  0.43435710
   0.18751832  0.61505740  0.30057400
   0.81321908  0.86620962  0.30045491
   0.43607626  0.79870577  0.87497801
   0.06249640  0.37000177  0.43422635
   0.18811752  0.62641055  0.65483401
   0.81259457  0.54233683  0.61059250
   0.81203692  0.87244624  0.52142551
   0.43694163  0.13221696  0.78793285
   0.31205591  0.71186134  0.69931013
   0.93726703  0.29252656  0.61050418
   0.43675263  0.46182102  0.69949138
   0.68789966  0.94607685  0.21211500
   0.31207858  0.20170765  0.34533166
   0.68770789  0.12291079  0.52146756
   0.93809690  0.12658404  0.65471690
   0.18721634  0.61339615  0.16727094
   0.56374178  0.21513811  0.83277220
   0.06299559  0.21360138  0.83283232
   0.93729945  0.11980876  0.43438026
   0.31308604  0.54732244  0.74355550
   0.81257146  0.53086032  0.25637133
   0.68800049  0.27758086  0.12524434
   0.56247583  0.86965474  0.43436785
   0.06406242  0.69589909  0.21220034
   0.93675042  0.63154086  0.78768208
   0.56297804  0.54664255  0.74351621
   0.93824281  0.44514346  0.21219913
   0.81273759  0.20804929  0.56564326
   0.18781643  0.78085466  0.25632802
   0.81235490  0.36328084  0.16724078
   0.06223552  0.03093926  0.25636780
   0.81280482  0.21536249  0.83271786
   0.68773753  0.79259122  0.61050156
   0.18801154  0.79760641  0.74362343
   0.18775166  0.45775117  0.56573259
   0.18766392  0.46415487  0.83271666
   0.81288719  0.03602008  0.38966868
   0.93729705  0.96450085  0.83291936
   0.18795764  0.45562686  0.47857020
   0.56204706  0.54884293  0.87475834
   0.68812846  0.79683399  0.74364187
   0.31186917  0.21254093  0.69950818
   0.93755484  0.79707699  0.74353727
   0.68696508  0.29236507  0.61053998
   0.56298785  0.02948490  0.12517855
   0.68780081  0.12004869  0.43449573
   0.56257095  0.20606037  0.47873802
   0.68778607  0.95155418  0.34527846
   0.18719419  0.45149425  0.34528561
   0.81299117  0.37685682  0.65480098
   0.43800517  0.62652803  0.65478338
   0.06167801  0.05079929  0.87478191
   0.18784785  0.28618437  0.38948625
   0.43722801  0.45167788  0.34526443
   0.56299839  0.19556667  0.21207539
   0.56291994  0.36622783  0.30050047
   0.81284947  0.54660128  0.74348651
   0.93731037  0.62205873  0.52143638
   0.18703661  0.95155058  0.34530225
   0.43751522  0.95779943  0.56573404
   0.56214386  0.37199884  0.52144125
   0.68656178  0.63200011  0.78795603
   0.31217356  0.37006607  0.43442575
   0.18779705  0.95798510  0.56583239
   0.93718267  0.11315036  0.16728647
   0.93792379  0.77807265  0.12499009
   0.31214537  0.53098442  0.25641969
   0.06240921  0.03571302  0.38945729
   0.18537673  0.12242722  0.52138804
   0.31282176  0.87665203  0.65480434
   0.43696059  0.95164894  0.34530603
   0.18720838  0.79227019  0.61042480
   0.81184732  0.20175570  0.34528887
   0.93781622  0.95478952  0.47870377
   0.43774310  0.29261849  0.61059723
   0.18760475  0.11324937  0.16707574
   0.06180905  0.54907583  0.87467677
   0.43724690  0.28556746  0.38944607
   0.93722265  0.46218455  0.69937012
   0.68749925  0.45757735  0.56567648
   0.18775563  0.95534641  0.47854224
   0.43741858  0.62261372  0.52133862
   0.68726735  0.62259691  0.52131841
   0.68752542  0.61379917  0.16715639
   0.68827753  0.12678880  0.65495481
   0.31244435  0.53605161  0.38933303
   0.43839942  0.12268077  0.52137805
   0.06349649  0.71361557  0.83265547
   0.93718124  0.45116046  0.34532545
   0.06395530  0.19552672  0.21207303
   0.18750188  0.11600664  0.30067815
   0.93620891  0.13242195  0.78784925
   0.43794148  0.79713058  0.74355653
   0.31372013  0.19522109  0.21209097
   0.06227589  0.87318658  0.52140604
   0.68709383  0.78065570  0.25630937
   0.43709368  0.28081105  0.25637812
   0.31230541  0.87031989  0.43438676
   0.18824375  0.27724156  0.12524678
   0.18796445  0.62188822  0.52134347
   0.18641924  0.29791718  0.87470502
   0.31364848  0.69520867  0.21196349
   0.18823345  0.94587446  0.21219808
   0.31228697  0.70759257  0.56551052
   0.56166165  0.70215909  0.34540001
   0.93802423  0.62639065  0.65483170
   0.43851459  0.94617381  0.21218110
   0.81286457  0.69573413  0.21250080
   0.93770227  0.95808243  0.56568909
   0.56234562  0.04206625  0.61062910
   0.93732553  0.28086780  0.25632796
   0.06354212  0.86640743  0.30069531
   0.31279014  0.71400188  0.83324562
   0.18631353  0.13200500  0.78762165
   0.68780496  0.79891137  0.87449283
   0.56265774  0.86685231  0.30067853
   0.31271201  0.20538603  0.47862562
   0.68695917  0.96184681  0.69944316
   0.93734697  0.61359467  0.16641087
   0.56271260  0.03563282  0.38933896
   0.68765666  0.61486133  0.30050659
   0.56291826  0.70805332  0.56559996
Direct configuration=     2
   0.56226263  0.54270474  0.61060170
   0.31187312  0.36322660  0.16695229
   0.68794033  0.29577029  0.74339252
   0.93800849  0.12250552  0.52137783
   0.31269670  0.37270867  0.52107339
   0.68784467  0.96426729  0.83299845
   0.56120019  0.38247935  0.78773064
   0.31184274  0.04954320  0.87502020
   0.06251648  0.36551949  0.30061068
   0.81298141  0.04973858  0.87499959
   0.06246867  0.20820581  0.56562967
   0.81287919  0.19573372  0.21192513
   0.81270766  0.87747796  0.65491992
   0.43704204  0.29856384  0.87492536
   0.68764943  0.95492749  0.47825369
   0.31261433  0.21436811  0.83301653
   0.06271813  0.87643049  0.65496121
   0.43753013  0.62007705  0.43456020
   0.43688180  0.95576533  0.47826169
   0.56161218  0.52919488  0.12498632
   0.18740533  0.12025352  0.43460091
   0.81262417  0.70502661  0.47826138
   0.31228339  0.54194649  0.61062911
   0.43787846  0.11559298  0.30058285
   0.43749461  0.61603344  0.30048585
   0.68715067  0.45177261  0.34556053
   0.93807266  0.46393908  0.83295895
   0.81186316  0.20535365  0.47828539
   0.68720453  0.28063668  0.25655544
   0.93693355  0.62007512  0.43457260
   0.93837921  0.27914215  0.12506442
   0.43795190  0.78047158  0.25645639
   0.06271929  0.54707934  0.74343468
   0.56298138  0.53573273  0.39005855
   0.81222486  0.04224769  0.61082807
   0.68750916  0.95755163  0.56544657
   0.18731147  0.29285380  0.61060792
   0.56320405  0.37588842  0.65487853
   0.93748320  0.11586187  0.30058653
   0.43851473  0.12610987  0.65499921
   0.81209973  0.86230401  0.16674264
   0.93767187  0.61457138  0.30056411
   0.18620355  0.63166610  0.78755166
   0.06244808  0.53581496  0.39000788
   0.31285094  0.02889156  0.12498177
   0.43673540  0.11331295  0.16704033
   0.68652318  0.13238472  0.78744209
   0.31198528  0.38228046  0.78771955
   0.43704735  0.12019288  0.43477611
   0.56224188  0.20153614  0.34525427
   0.31192957  0.03040081  0.25639384
   0.81291358  0.71483874  0.83299619
   0.81218693  0.70147133  0.34551379
   0.81196771  0.54854247  0.87499023
   0.56340102  0.71410027  0.83292695
   0.31191650  0.86334124  0.16693213
   0.93633387  0.96187718  0.69952061
   0.31213014  0.03642088  0.39018329
   0.18717492  0.96197745  0.69965087
   0.56295117  0.69580934  0.21188213
   0.18680874  0.46227064  0.69938655
   0.81183708  0.71235954  0.69954856
   0.18834130  0.96460119  0.83312589
   0.18848746  0.44581560  0.21184207
   0.68818677  0.44594925  0.21203472
   0.43668572  0.61265880  0.16676322
   0.06217863  0.71167828  0.69947817
   0.06240702  0.36363627  0.16689983
   0.56295140  0.87676427  0.65494167
   0.31186945  0.70132661  0.34540645
   0.56343337  0.70561709  0.47848840
   0.93710347  0.79173354  0.61053398
   0.68804556  0.62688557  0.65498310
   0.06190253  0.21297093  0.69967755
   0.06206708  0.88150951  0.78751519
   0.06223876  0.54186123  0.61061090
   0.43730220  0.79232525  0.61061655
   0.56177753  0.36295547  0.16688730
   0.31364023  0.52923565  0.12501361
   0.56260084  0.03050707  0.25639075
   0.81311003  0.53579071  0.39001108
   0.81173551  0.88146067  0.78751556
   0.43779253  0.46441763  0.83301904
   0.81246348  0.70764656  0.56545567
   0.31180477  0.54913732  0.87506347
   0.18817127  0.77815654  0.12508787
   0.81286710  0.03026907  0.12503400
   0.43767207  0.44513564  0.21180876
   0.43770120  0.96424483  0.83308682
   0.06329661  0.52951565  0.12485166
   0.06196154  0.86978461  0.43438000
   0.68647900  0.11321804  0.16686475
   0.31315135  0.36605207  0.30050426
   0.93728483  0.28606692  0.39004237
   0.18821594  0.12669062  0.65501285
   0.56273554  0.87222440  0.52130110
   0.43763499  0.45805552  0.56563552
   0.81199080  0.86990967  0.43456244
   0.43748891  0.78576473  0.39002185
   0.18719688  0.78570027  0.38998883
   0.31302035  0.04689555  0.74337916
   0.56194035  0.53158336  0.25649308
   0.06162733  0.53143245  0.25656738
   0.56234065  0.71217299  0.69958144
   0.56236188  0.21166500  0.69949016
   0.81195519  0.03020690  0.25644825
   0.68779798  0.46478707  0.83316889
   0.06265544  0.37704152  0.65489524
   0.68826242  0.28550895  0.39001175
   0.43772551  0.29650871  0.74347291
   0.06264441  0.37217443  0.52133638
   0.43755772  0.96191888  0.69947007
   0.43698340  0.63157603  0.78746868
   0.06152960  0.70078641  0.34548613
   0.18720227  0.62034659  0.43444820
   0.81211712  0.37009378  0.43455148
   0.93681471  0.78064487  0.25655927
   0.06257632  0.70754361  0.56557295
   0.81218717  0.21211164  0.69961681
   0.93806170  0.29611247  0.74341490
   0.81244812  0.36546660  0.30072956
   0.56291721  0.20815587  0.56559749
   0.06395094  0.02962893  0.12514940
   0.56155909  0.86329150  0.16694787
   0.31232749  0.20819043  0.56536663
   0.56074641  0.05038959  0.87490950
   0.68735574  0.46188094  0.69951527
   0.93697692  0.29916323  0.87501799
   0.68831613  0.77812671  0.12495962
   0.68688075  0.29895108  0.87514463
   0.81341628  0.53022418  0.12472328
   0.81193962  0.38222852  0.78766613
   0.31299580  0.87238583  0.52117103
   0.43775738  0.45440554  0.47821732
   0.06248383  0.04700785  0.74339017
   0.93653292  0.45628645  0.47825383
   0.06156938  0.38227244  0.78774268
   0.93686537  0.95130986  0.34573694
   0.06293202  0.86277385  0.16690902
   0.56241003  0.37010903  0.43449724
   0.31325837  0.86654984  0.30042931
   0.06157972  0.20171633  0.34537819
   0.06179497  0.70542742  0.47819603
   0.68790671  0.78504537  0.39002078
   0.68759159  0.45538974  0.47822140
   0.93751067  0.79856337  0.87494408
   0.81275425  0.04605331  0.74336969
   0.18717965  0.79755174  0.87522898
   0.93760274  0.45730479  0.56554353
   0.43741747  0.77794557  0.12502772
   0.31243420  0.04256617  0.61069946
   0.18782368  0.29662397  0.74333754
   0.18741018  0.28014382  0.25640744
   0.81230745  0.37293712  0.52117756
   0.56135474  0.88111017  0.78749096
   0.31165590  0.88223377  0.78743956
   0.56305509  0.04594686  0.74337313
   0.06223807  0.04304995  0.61067258
   0.31294301  0.37690577  0.65489624
   0.31201706  0.70569851  0.47826566
   0.93841684  0.94642249  0.21221687
   0.06301528  0.20513375  0.47842585
   0.68782204  0.11602137  0.30061587
   0.93747061  0.78555550  0.38996091
   0.43784231  0.27842314  0.12501729
   0.68768105  0.61968574  0.43450905
   0.18758139  0.61528527  0.30052210
   0.81299909  0.86620801  0.30031761
   0.43579769  0.79878784  0.87521845
   0.06221086  0.37009812  0.43430709
   0.18797315  0.62632017  0.65501398
   0.81275942  0.54226990  0.61068385
   0.81193488  0.87219763  0.52121722
   0.43686865  0.13185813  0.78777446
   0.31198100  0.71178587  0.69945296
   0.93730498  0.29241171  0.61062881
   0.43667252  0.46179939  0.69962804
   0.68759664  0.94617306  0.21203641
   0.31224414  0.20145244  0.34550076
   0.68762301  0.12237026  0.52129024
   0.93729309  0.12682748  0.65486333
   0.18720531  0.61318718  0.16692121
   0.56324045  0.21532816  0.83302829
   0.06316982  0.21389510  0.83308918
   0.93704074  0.11999107  0.43441238
   0.31297496  0.54732700  0.74341426
   0.81235008  0.53124830  0.25646307
   0.68804990  0.27821144  0.12508136
   0.56268933  0.86978313  0.43457879
   0.06440785  0.69623350  0.21191192
   0.93698078  0.63166954  0.78754376
   0.56313376  0.54706572  0.74336920
   0.93850122  0.44512967  0.21194747
   0.81283328  0.20789757  0.56558489
   0.18782016  0.78103252  0.25632449
   0.81268322  0.36374577  0.16687867
   0.06207128  0.03089225  0.25639806
   0.81293953  0.21546342  0.83293777
   0.68784090  0.79278562  0.61059723
   0.18789413  0.79792688  0.74350522
   0.18772718  0.45753684  0.56567404
   0.18765693  0.46389604  0.83296228
   0.81344636  0.03600528  0.39020515
   0.93758122  0.96453311  0.83313607
   0.18792316  0.45540825  0.47826004
   0.56155494  0.54848714  0.87494659
   0.68801421  0.79746853  0.74342508
   0.31192015  0.21253140  0.69971955
   0.93733406  0.79753078  0.74338411
   0.68735481  0.29212752  0.61065859
   0.56258479  0.02918910  0.12501434
   0.68791055  0.12012254  0.43465363
   0.56219149  0.20552235  0.47837533
   0.68805451  0.95131670  0.34538814
   0.18691927  0.45162437  0.34553481
   0.81311169  0.37654023  0.65494940
   0.43801936  0.62699915  0.65492848
   0.06204908  0.05070519  0.87501437
   0.18738593  0.28638699  0.38999357
   0.43755430  0.45176993  0.34542460
   0.56252041  0.19548039  0.21188957
   0.56317794  0.36608302  0.30046620
   0.81268354  0.54684401  0.74330363
   0.93710106  0.62282168  0.52118340
   0.18709281  0.95164859  0.34555077
   0.43778563  0.95770572  0.56557792
   0.56236297  0.37251062  0.52125063
   0.68642520  0.63220377  0.78778520
   0.31232660  0.36981106  0.43461460
   0.18771342  0.95806637  0.56567732
   0.93772561  0.11312387  0.16695262
   0.93823096  0.77762470  0.12479680
   0.31246054  0.53149649  0.25639227
   0.06202617  0.03560600  0.39000454
   0.18651872  0.12259238  0.52115820
   0.31338717  0.87660421  0.65496338
   0.43704086  0.95168001  0.34539902
   0.18723979  0.79209128  0.61053248
   0.81183312  0.20186142  0.34547752
   0.93720748  0.95436981  0.47842766
   0.43761160  0.29248416  0.61067335
   0.18798182  0.11325575  0.16679710
   0.06227101  0.54891497  0.87486723
   0.43713106  0.28602693  0.38997092
   0.93740444  0.46204189  0.69948578
   0.68750569  0.45776830  0.56555925
   0.18805712  0.95538173  0.47830505
   0.43768851  0.62277799  0.52119848
   0.68759687  0.62279992  0.52112982
   0.68766740  0.61358056  0.16677137
   0.68829364  0.12632678  0.65514559
   0.31207660  0.53613961  0.38987413
   0.43778940  0.12251519  0.52105273
   0.06339022  0.71351543  0.83289600
   0.93695854  0.45129027  0.34554233
   0.06432304  0.19555348  0.21183531
   0.18737801  0.11594370  0.30055587
   0.93638880  0.13208256  0.78762653
   0.43818401  0.79748610  0.74343503
   0.31379722  0.19542252  0.21179259
   0.06223064  0.87280989  0.52122228
   0.68729992  0.78094577  0.25636181
   0.43755161  0.28068099  0.25630460
   0.31249658  0.87017880  0.43451555
   0.18817902  0.27767777  0.12516225
   0.18761733  0.62247753  0.52111363
   0.18673193  0.29810458  0.87492101
   0.31349622  0.69547512  0.21167241
   0.18839427  0.94597163  0.21193282
   0.31248765  0.70736696  0.56542092
   0.56192194  0.70207188  0.34559777
   0.93792969  0.62626443  0.65498218
   0.43831473  0.94638487  0.21196500
   0.81265991  0.69625077  0.21236070
   0.93739968  0.95813366  0.56554809
   0.56269933  0.04201281  0.61084371
   0.93712022  0.28038358  0.25643224
   0.06318049  0.86636595  0.30050055
   0.31271681  0.71375906  0.83357405
   0.18640562  0.13164148  0.78743541
   0.68750988  0.79880055  0.87466044
   0.56276683  0.86695908  0.30051192
   0.31293177  0.20505101  0.47834697
   0.68696403  0.96195426  0.69965160
   0.93793096  0.61346564  0.16577474
   0.56309598  0.03549215  0.38994618
   0.68777344  0.61500529  0.30036688
   0.56325346  0.70810171  0.56541431
Direct configuration=     3
   0.56225740  0.54269171  0.61059217
   0.31191955  0.36319640  0.16699254
   0.68792987  0.29584200  0.74342916
   0.93808179  0.12253109  0.52140468
   0.31268649  0.37283159  0.52111310
   0.68788592  0.96427102  0.83296311
   0.56123596  0.38245595  0.78774712
   0.31184372  0.04952506  0.87498616
   0.06259249  0.36551738  0.30061396
   0.81294433  0.04975624  0.87496144
   0.06248892  0.20820001  0.56563427
   0.81292020  0.19575787  0.21194527
   0.81281012  0.87739499  0.65488966
   0.43710795  0.29853713  0.87489067
   0.68770153  0.95499771  0.47830315
   0.31262373  0.21430902  0.83296880
   0.06278653  0.87646434  0.65493400
   0.43751530  0.62009157  0.43454324
   0.43677713  0.95567627  0.47830385
   0.56163976  0.52914101  0.12502347
   0.18736938  0.12018182  0.43457322
   0.81265128  0.70504969  0.47831135
   0.31230520  0.54196593  0.61061636
   0.43784419  0.11562731  0.30058864
   0.43749238  0.61599557  0.30049961
   0.68710398  0.45179723  0.34552759
   0.93802448  0.46391513  0.83292265
   0.81183714  0.20534566  0.47834120
   0.68720109  0.28065304  0.25654410
   0.93697505  0.62005192  0.43455657
   0.93832679  0.27903266  0.12509520
   0.43788818  0.78047024  0.25645717
   0.06273290  0.54709457  0.74347070
   0.56294588  0.53570101  0.38996739
   0.81222522  0.04222635  0.61080491
   0.68749867  0.95761063  0.56546436
   0.18735024  0.29280622  0.61060656
   0.56316527  0.37595183  0.65485242
   0.93753278  0.11585543  0.30060916
   0.43842025  0.12616175  0.65497062
   0.81203155  0.86240767  0.16680027
   0.93769303  0.61457240  0.30057236
   0.18618445  0.63167330  0.78756922
   0.06249252  0.53578855  0.38992262
   0.31290068  0.02895267  0.12501130
   0.43682088  0.11330314  0.16707830
   0.68651445  0.13245039  0.78748274
   0.31197905  0.38225936  0.78772526
   0.43705929  0.12014173  0.43472183
   0.56220750  0.20151447  0.34524586
   0.31192642  0.03042114  0.25639339
   0.81292606  0.71485794  0.83296761
   0.81216449  0.70148718  0.34547871
   0.81193436  0.54860983  0.87495852
   0.56340626  0.71413373  0.83289493
   0.31197157  0.86337372  0.16697858
   0.93639793  0.96182636  0.69948891
   0.31222778  0.03645678  0.39010125
   0.18717292  0.96195801  0.69961091
   0.56300651  0.69575657  0.21190288
   0.18684144  0.46229244  0.69936021
   0.81186031  0.71229712  0.69951926
   0.18835082  0.96456212  0.83308363
   0.18842753  0.44580863  0.21190316
   0.68825886  0.44596664  0.21206169
   0.43675492  0.61269521  0.16681587
   0.06217515  0.71172850  0.69945099
   0.06231086  0.36354279  0.16695660
   0.56289999  0.87667673  0.65490483
   0.31184695  0.70136475  0.34538230
   0.56336030  0.70560898  0.47853885
   0.93716812  0.79173518  0.61051602
   0.68803975  0.62681649  0.65495850
   0.06191352  0.21294423  0.69964273
   0.06204689  0.88152743  0.78754283
   0.06223501  0.54191957  0.61059234
   0.43725491  0.79234338  0.61059148
   0.56183780  0.36292969  0.16693045
   0.31371435  0.52919907  0.12504091
   0.56252880  0.03054868  0.25639251
   0.81305769  0.53576641  0.38992457
   0.81172254  0.88148028  0.78755745
   0.43783057  0.46444081  0.83298079
   0.81253233  0.70763899  0.56547771
   0.31180709  0.54920915  0.87502090
   0.18820401  0.77821168  0.12511212
   0.81282217  0.03034004  0.12507031
   0.43772639  0.44515602  0.21185112
   0.43773475  0.96419824  0.83304669
   0.06328718  0.52944681  0.12487649
   0.06200801  0.86980577  0.43437431
   0.68650822  0.11323115  0.16690604
   0.31314926  0.36603393  0.30050800
   0.93729496  0.28606647  0.38995492
   0.18820965  0.12666467  0.65498593
   0.56270775  0.87214323  0.52133812
   0.43762926  0.45805241  0.56565148
   0.81200537  0.86992169  0.43454297
   0.43750718  0.78583474  0.38993335
   0.18728366  0.78572246  0.38989904
   0.31301335  0.04689375  0.74340459
   0.56190224  0.53151966  0.25648750
   0.06164450  0.53136979  0.25655605
   0.56228504  0.71207456  0.69955457
   0.56232526  0.21178763  0.69946722
   0.81196325  0.03029769  0.25642916
   0.68784330  0.46472364  0.83313106
   0.06274128  0.37699300  0.65487074
   0.68816593  0.28545923  0.38992303
   0.43775043  0.29659940  0.74349785
   0.06265055  0.37213664  0.52136696
   0.43747089  0.96188386  0.69944743
   0.43697572  0.63157427  0.78749383
   0.06158064  0.70086366  0.34544160
   0.18721434  0.62033142  0.43443276
   0.81215258  0.37006958  0.43453699
   0.93690462  0.78059118  0.25654656
   0.06259481  0.70756013  0.56559285
   0.81219529  0.21219041  0.69959677
   0.93807305  0.29619783  0.74344729
   0.81244549  0.36549213  0.30073598
   0.56290798  0.20817009  0.56561291
   0.06390276  0.02970449  0.12517894
   0.56158984  0.86333668  0.16699344
   0.31233497  0.20818787  0.56538172
   0.56082152  0.05039295  0.87486846
   0.68731416  0.46189107  0.69949281
   0.93689143  0.29915811  0.87498669
   0.68828364  0.77818919  0.12499138
   0.68692810  0.29893882  0.87511601
   0.81334540  0.53014633  0.12475145
   0.81190976  0.38222831  0.78768911
   0.31299871  0.87229815  0.52120361
   0.43774096  0.45448534  0.47827169
   0.06252525  0.04701071  0.74341537
   0.93656660  0.45623601  0.47830877
   0.06153254  0.38227529  0.78775687
   0.93692657  0.95133533  0.34569409
   0.06287123  0.86286874  0.16696647
   0.56234682  0.37007804  0.43446953
   0.31323480  0.86658485  0.30044487
   0.06160841  0.20170735  0.34534145
   0.06183226  0.70549027  0.47824047
   0.68782058  0.78510935  0.38993385
   0.68756810  0.45533180  0.47827629
   0.93741159  0.79855320  0.87491023
   0.81280058  0.04610577  0.74341161
   0.18716553  0.79753327  0.87518801
   0.93761062  0.45733624  0.56555245
   0.43749146  0.77797276  0.12506076
   0.31240791  0.04253144  0.61068624
   0.18783583  0.29667637  0.74337710
   0.18744095  0.28020723  0.25641382
   0.81235322  0.37289216  0.52121039
   0.56137275  0.88115660  0.78752670
   0.31163128  0.88225018  0.78747162
   0.56300728  0.04602378  0.74341333
   0.06230175  0.04299397  0.61066626
   0.31294542  0.37688209  0.65487097
   0.31203169  0.70570844  0.47831963
   0.93838488  0.94643112  0.21224000
   0.06300096  0.20511074  0.47848663
   0.68779108  0.11600785  0.30063292
   0.93746516  0.78556472  0.38987267
   0.43792050  0.27834099  0.12503784
   0.68763957  0.61971814  0.43448349
   0.18757078  0.61524694  0.30053083
   0.81303609  0.86620828  0.30034070
   0.43584454  0.79877404  0.87517801
   0.06225889  0.37008191  0.43429351
   0.18799743  0.62633537  0.65498371
   0.81273169  0.54228116  0.61066849
   0.81195205  0.87223944  0.52125226
   0.43688092  0.13191848  0.78780110
   0.31199360  0.71179856  0.69942893
   0.93729860  0.29243103  0.61060785
   0.43668599  0.46180303  0.69960505
   0.68764760  0.94615688  0.21204963
   0.31221629  0.20149536  0.34547232
   0.68763729  0.12246118  0.52132007
   0.93742829  0.12678653  0.65483870
   0.18720717  0.61322233  0.16698003
   0.56332477  0.21529619  0.83298522
   0.06314051  0.21384569  0.83304597
   0.93708425  0.11996040  0.43440698
   0.31299365  0.54732624  0.74343801
   0.81238732  0.53118304  0.25644764
   0.68804159  0.27810538  0.12510877
   0.56265342  0.86976154  0.43454331
   0.06434975  0.69617726  0.21196043
   0.93694204  0.63164789  0.78756702
   0.56310756  0.54699455  0.74339393
   0.93845775  0.44513199  0.21198980
   0.81281719  0.20792309  0.56559471
   0.18781954  0.78100260  0.25632508
   0.81262800  0.36366757  0.16693958
   0.06209890  0.03090016  0.25639297
   0.81291687  0.21544645  0.83290078
   0.68782352  0.79275292  0.61058114
   0.18791388  0.79787298  0.74352510
   0.18773130  0.45757289  0.56568388
   0.18765811  0.46393957  0.83292097
   0.81335231  0.03600777  0.39011492
   0.93753342  0.96452768  0.83309962
   0.18792896  0.45544502  0.47831221
   0.56163771  0.54854698  0.87491493