 288 288   0   0
  0.1280206E+02  0.9726678E-09  0.8423550E-09  0.4500000E-08  0.2500000E-15
  1.000000000000000E-004
  CAR 
 unknown system                          
      6.81876071     -6.02349160  301      4.29348947      1.00000000
     -6.023  0.0000E+00  0.0000E+00
     -5.981  0.0000E+00  0.0000E+00
     -5.938  0.0000E+00  0.0000E+00
     -5.895  0.0000E+00  0.0000E+00
     -5.852  0.0000E+00  0.0000E+00
     -5.809  0.0000E+00  0.0000E+00
     -5.767  0.0000E+00  0.0000E+00
     -5.724  0.0000E+00  0.0000E+00
     -5.681  0.0000E+00  0.0000E+00
     -5.638  0.0000E+00  0.0000E+00
     -5.595  0.0000E+00  0.0000E+00
     -5.553  0.0000E+00  0.0000E+00
     -5.510  0.0000E+00  0.0000E+00
     -5.467  0.0000E+00  0.0000E+00
     -5.424  0.0000E+00  0.0000E+00
     -5.381  0.1621E-15  0.6939E-17
     -5.339  0.4312E-14  0.1915E-15
     -5.296  0.9252E-13  0.4152E-14
     -5.253  0.1689E-11  0.7646E-13
     -5.210  0.2626E-10  0.1201E-11
     -5.167  0.3477E-09  0.1608E-10
     -5.125  0.3921E-08  0.1839E-09
     -5.082  0.3769E-07  0.1797E-08
     -5.039  0.3089E-06  0.1502E-07
     -4.996  0.2161E-05  0.1075E-06
     -4.953  0.1292E-04  0.6607E-06
     -4.910  0.6614E-04  0.3492E-05
     -4.868  0.2905E-03  0.1593E-04
     -4.825  0.1099E-02  0.6295E-04
     -4.782  0.3595E-02  0.2168E-03
     -4.739  0.1024E-01  0.6554E-03
     -4.696  0.2563E-01  0.1753E-02
     -4.654  0.5689E-01  0.4188E-02
     -4.611  0.1133E+00  0.9037E-02
     -4.568  0.2046E+00  0.1779E-01
     -4.525  0.3387E+00  0.3229E-01
     -4.482  0.5181E+00  0.5447E-01
     -4.440  0.7367E+00  0.8601E-01
     -4.397  0.9788E+00  0.1279E+00
     -4.354  0.1221E+01  0.1802E+00
     -4.311  0.1436E+01  0.2416E+00
     -4.268  0.1604E+01  0.3103E+00
     -4.226  0.1718E+01  0.3838E+00
     -4.183  0.1787E+01  0.4603E+00
     -4.140  0.1842E+01  0.5392E+00
     -4.097  0.1920E+01  0.6214E+00
     -4.054  0.2052E+01  0.7092E+00
     -4.012  0.2253E+01  0.8056E+00
     -3.969  0.2507E+01  0.9129E+00
     -3.926  0.2775E+01  0.1032E+01
     -3.883  0.3006E+01  0.1160E+01
     -3.840  0.3154E+01  0.1295E+01
     -3.798  0.3201E+01  0.1432E+01
     -3.755  0.3163E+01  0.1568E+01
     -3.712  0.3089E+01  0.1700E+01
     -3.669  0.3039E+01  0.1830E+01
     -3.626  0.3065E+01  0.1961E+01
     -3.583  0.3189E+01  0.2098E+01
     -3.541  0.3393E+01  0.2243E+01
     -3.498  0.3632E+01  0.2399E+01
     -3.455  0.3852E+01  0.2563E+01
     -3.412  0.4014E+01  0.2735E+01
     -3.369  0.4107E+01  0.2911E+01
     -3.327  0.4143E+01  0.3088E+01
     -3.284  0.4151E+01  0.3266E+01
     -3.241  0.4163E+01  0.3444E+01
     -3.198  0.4208E+01  0.3625E+01
     -3.155  0.4301E+01  0.3809E+01
     -3.113  0.4446E+01  0.3999E+01
     -3.070  0.4632E+01  0.4197E+01
     -3.027  0.4836E+01  0.4404E+01
     -2.984  0.5029E+01  0.4620E+01
     -2.941  0.5182E+01  0.4841E+01
     -2.899  0.5283E+01  0.5068E+01
     -2.856  0.5340E+01  0.5296E+01
     -2.813  0.5383E+01  0.5527E+01
     -2.770  0.5449E+01  0.5760E+01
     -2.727  0.5553E+01  0.5997E+01
     -2.685  0.5672E+01  0.6240E+01
     -2.642  0.5743E+01  0.6486E+01
     -2.599  0.5708E+01  0.6730E+01
     -2.556  0.5566E+01  0.6969E+01
     -2.513  0.5406E+01  0.7200E+01
     -2.470  0.5372E+01  0.7430E+01
     -2.428  0.5584E+01  0.7669E+01
     -2.385  0.6064E+01  0.7929E+01
     -2.342  0.6701E+01  0.8216E+01
     -2.299  0.7288E+01  0.8528E+01
     -2.256  0.7625E+01  0.8854E+01
     -2.214  0.7618E+01  0.9180E+01
     -2.171  0.7334E+01  0.9494E+01
     -2.128  0.6973E+01  0.9793E+01
     -2.085  0.6768E+01  0.1008E+02
     -2.042  0.6866E+01  0.1038E+02
     -2.000  0.7271E+01  0.1069E+02
     -1.957  0.7850E+01  0.1102E+02
     -1.914  0.8406E+01  0.1138E+02
     -1.871  0.8772E+01  0.1176E+02
     -1.828  0.8888E+01  0.1214E+02
     -1.786  0.8820E+01  0.1252E+02
     -1.743  0.8709E+01  0.1289E+02
     -1.700  0.8682E+01  0.1326E+02
     -1.657  0.8790E+01  0.1364E+02
     -1.614  0.9002E+01  0.1402E+02
     -1.572  0.9264E+01  0.1442E+02
     -1.529  0.9538E+01  0.1483E+02
     -1.486  0.9818E+01  0.1525E+02
     -1.443  0.1009E+02  0.1568E+02
     -1.400  0.1032E+02  0.1612E+02
     -1.357  0.1046E+02  0.1657E+02
     -1.315  0.1054E+02  0.1702E+02
     -1.272  0.1070E+02  0.1748E+02
     -1.229  0.1116E+02  0.1796E+02
     -1.186  0.1203E+02  0.1847E+02
     -1.143  0.1323E+02  0.1904E+02
     -1.101  0.1444E+02  0.1966E+02
     -1.058  0.1530E+02  0.2031E+02
     -1.015  0.1563E+02  0.2098E+02
     -0.972  0.1558E+02  0.2165E+02
     -0.929  0.1555E+02  0.2231E+02
     -0.887  0.1594E+02  0.2300E+02
     -0.844  0.1696E+02  0.2372E+02
     -0.801  0.1858E+02  0.2452E+02
     -0.758  0.2067E+02  0.2540E+02
     -0.715  0.2326E+02  0.2640E+02
     -0.673  0.2655E+02  0.2753E+02
     -0.630  0.3068E+02  0.2885E+02
     -0.587  0.3549E+02  0.3037E+02
     -0.544  0.4044E+02  0.3210E+02
     -0.501  0.4484E+02  0.3402E+02
     -0.459  0.4829E+02  0.3609E+02
     -0.416  0.5079E+02  0.3826E+02
     -0.373  0.5266E+02  0.4051E+02
     -0.330  0.5419E+02  0.4283E+02
     -0.287  0.5548E+02  0.4521E+02
     -0.244  0.5644E+02  0.4762E+02
     -0.202  0.5695E+02  0.5006E+02
     -0.159  0.5706E+02  0.5250E+02
     -0.116  0.5692E+02  0.5494E+02
     -0.073  0.5684E+02  0.5737E+02
     -0.030  0.5707E+02  0.5982E+02
      0.012  0.5788E+02  0.6230E+02
      0.055  0.5940E+02  0.6484E+02
      0.098  0.6168E+02  0.6748E+02
      0.141  0.6465E+02  0.7025E+02
      0.184  0.6812E+02  0.7316E+02
      0.226  0.7187E+02  0.7624E+02
      0.269  0.7560E+02  0.7948E+02
      0.312  0.7903E+02  0.8286E+02
      0.355  0.8188E+02  0.8636E+02
      0.398  0.8406E+02  0.8996E+02
      0.440  0.8563E+02  0.9363E+02
      0.483  0.8668E+02  0.9734E+02
      0.526  0.8726E+02  0.1011E+03
      0.569  0.8735E+02  0.1048E+03
      0.612  0.8696E+02  0.1085E+03
      0.654  0.8617E+02  0.1122E+03
      0.697  0.8504E+02  0.1159E+03
      0.740  0.8357E+02  0.1194E+03
      0.783  0.8174E+02  0.1229E+03
      0.826  0.7969E+02  0.1264E+03
      0.869  0.7776E+02  0.1297E+03
      0.911  0.7635E+02  0.1329E+03
      0.954  0.7570E+02  0.1362E+03
      0.997  0.7573E+02  0.1394E+03
      1.040  0.7609E+02  0.1427E+03
      1.083  0.7633E+02  0.1460E+03
      1.125  0.7616E+02  0.1492E+03
      1.168  0.7557E+02  0.1525E+03
      1.211  0.7474E+02  0.1557E+03
      1.254  0.7389E+02  0.1588E+03
      1.297  0.7314E+02  0.1619E+03
      1.339  0.7245E+02  0.1650E+03
      1.382  0.7162E+02  0.1681E+03
      1.425  0.7045E+02  0.1711E+03
      1.468  0.6889E+02  0.1741E+03
      1.511  0.6721E+02  0.1770E+03
      1.553  0.6596E+02  0.1798E+03
      1.596  0.6573E+02  0.1826E+03
      1.639  0.6680E+02  0.1855E+03
      1.682  0.6905E+02  0.1884E+03
      1.725  0.7202E+02  0.1915E+03
      1.767  0.7523E+02  0.1947E+03
      1.810  0.7836E+02  0.1981E+03
      1.853  0.8125E+02  0.2015E+03
      1.896  0.8387E+02  0.2051E+03
      1.939  0.8618E+02  0.2088E+03
      1.982  0.8823E+02  0.2126E+03
      2.024  0.9007E+02  0.2165E+03
      2.067  0.9173E+02  0.2204E+03
      2.110  0.9316E+02  0.2244E+03
      2.153  0.9431E+02  0.2284E+03
      2.196  0.9533E+02  0.2325E+03
      2.238  0.9657E+02  0.2366E+03
      2.281  0.9847E+02  0.2408E+03
      2.324  0.1014E+03  0.2452E+03
      2.367  0.1052E+03  0.2497E+03
      2.410  0.1096E+03  0.2544E+03
      2.452  0.1141E+03  0.2593E+03
      2.495  0.1180E+03  0.2643E+03
      2.538  0.1211E+03  0.2695E+03
      2.581  0.1236E+03  0.2748E+03
      2.624  0.1256E+03  0.2802E+03
      2.666  0.1275E+03  0.2856E+03
      2.709  0.1294E+03  0.2912E+03
      2.752  0.1316E+03  0.2968E+03
      2.795  0.1341E+03  0.3025E+03
      2.838  0.1369E+03  0.3084E+03
      2.880  0.1398E+03  0.3144E+03
      2.923  0.1418E+03  0.3204E+03
      2.966  0.1420E+03  0.3265E+03
      3.009  0.1396E+03  0.3325E+03
      3.052  0.1343E+03  0.3382E+03
      3.095  0.1266E+03  0.3437E+03
      3.137  0.1177E+03  0.3487E+03
      3.180  0.1087E+03  0.3534E+03
      3.223  0.1007E+03  0.3577E+03
      3.266  0.9445E+02  0.3617E+03
      3.309  0.9004E+02  0.3656E+03
      3.351  0.8721E+02  0.3693E+03
      3.394  0.8555E+02  0.3730E+03
      3.437  0.8466E+02  0.3766E+03
      3.480  0.8412E+02  0.3802E+03
      3.523  0.8359E+02  0.3838E+03
      3.565  0.8295E+02  0.3873E+03
      3.608  0.8237E+02  0.3908E+03
      3.651  0.8235E+02  0.3944E+03
      3.694  0.8347E+02  0.3979E+03
      3.737  0.8601E+02  0.4016E+03
      3.779  0.8981E+02  0.4055E+03
      3.822  0.9429E+02  0.4095E+03
      3.865  0.9874E+02  0.4137E+03
      3.908  0.1026E+03  0.4181E+03
      3.951  0.1057E+03  0.4226E+03
      3.993  0.1078E+03  0.4273E+03
      4.036  0.1089E+03  0.4319E+03
      4.079  0.1092E+03  0.4366E+03
      4.122  0.1087E+03  0.4412E+03
      4.165  0.1077E+03  0.4459E+03
      4.208  0.1065E+03  0.4504E+03
      4.250  0.1052E+03  0.4549E+03
      4.293  0.1038E+03  0.4594E+03
      4.336  0.1026E+03  0.4638E+03
      4.379  0.1018E+03  0.4681E+03
      4.422  0.1013E+03  0.4724E+03
      4.464  0.1009E+03  0.4768E+03
      4.507  0.1002E+03  0.4811E+03
      4.550  0.9921E+02  0.4853E+03
      4.593  0.9807E+02  0.4895E+03
      4.636  0.9728E+02  0.4937E+03
      4.678  0.9730E+02  0.4978E+03
      4.721  0.9836E+02  0.5020E+03
      4.764  0.1003E+03  0.5063E+03
      4.807  0.1028E+03  0.5107E+03
      4.850  0.1054E+03  0.5153E+03
      4.892  0.1076E+03  0.5199E+03
      4.935  0.1089E+03  0.5245E+03
      4.978  0.1092E+03  0.5292E+03
      5.021  0.1076E+03  0.5338E+03
      5.064  0.1034E+03  0.5382E+03
      5.106  0.9563E+02  0.5423E+03
      5.149  0.8374E+02  0.5459E+03
      5.192  0.6837E+02  0.5488E+03
      5.235  0.5135E+02  0.5510E+03
      5.278  0.3509E+02  0.5525E+03
      5.320  0.2164E+02  0.5535E+03
      5.363  0.1196E+02  0.5540E+03
      5.406  0.5906E+01  0.5542E+03
      5.449  0.2597E+01  0.5543E+03
      5.492  0.1015E+01  0.5544E+03
      5.535  0.3529E+00  0.5544E+03
      5.577  0.1090E+00  0.5544E+03
      5.620  0.2990E-01  0.5544E+03
      5.663  0.7287E-02  0.5544E+03
      5.706  0.1574E-02  0.5544E+03
      5.749  0.3006E-03  0.5544E+03
      5.791  0.5056E-04  0.5544E+03
      5.834  0.7457E-05  0.5544E+03
      5.877  0.9600E-06  0.5544E+03
      5.920  0.1074E-06  0.5544E+03
      5.963  0.1039E-07  0.5544E+03
      6.005  0.8678E-09  0.5544E+03
      6.048  0.6231E-10  0.5544E+03
      6.091  0.3837E-11  0.5544E+03
      6.134  0.2017E-12  0.5544E+03
      6.177  0.8753E-14  0.5544E+03
      6.219  0.3242E-15  0.5544E+03
      6.262  0.0000E+00  0.5544E+03
      6.305  0.0000E+00  0.5544E+03
      6.348  0.0000E+00  0.5544E+03
      6.391  0.0000E+00  0.5544E+03
      6.433  0.0000E+00  0.5544E+03
      6.476  0.0000E+00  0.5544E+03
      6.519  0.0000E+00  0.5544E+03
      6.562  0.0000E+00  0.5544E+03
      6.605  0.0000E+00  0.5544E+03
      6.648  0.0000E+00  0.5544E+03
      6.690  0.0000E+00  0.5544E+03
      6.733  0.0000E+00  0.5544E+03
      6.776  0.0000E+00  0.5544E+03
      6.819  0.0000E+00  0.5544E+03
