unknown system                          
           1
     9.726678    0.000000    0.000000
     0.000000    8.423550    0.000000
     0.000000    0.000000   45.000000
   Fe   Mn
 281   7
Direct configuration=     1
   0.05334804  0.70193502  0.21143314
   0.31808310  0.72403975  0.87613237
   0.68733279  0.95809449  0.61135335
   0.43811439  0.45755658  0.61119233
   0.43992857  0.28817453  0.25546855
   0.05861796  0.38791457  0.83345725
   0.30835414  0.88752132  0.83349515
   0.44720748  0.62629069  0.70011669
   0.06038393  0.21184155  0.74482250
   0.17854891  0.45095463  0.21132325
   0.56788233  0.21070453  0.47745615
   0.06676760  0.87489304  0.56677316
   0.56792993  0.22391057  0.87611474
   0.80970886  0.53337499  0.12422909
   0.42872914  0.95119394  0.21128585
   0.56665579  0.37500402  0.56689357
   0.81223454  0.04187103  0.38861328
   0.68249272  0.78844694  0.52219091
   0.44276361  0.46072271  0.47746776
   0.43444503  0.96215534  0.74458830
   0.44201915  0.62495608  0.56673735
   0.06047839  0.53224340  0.12436380
   0.30995048  0.03250773  0.12424395
   0.69036944  0.95938113  0.34418319
   0.68226931  0.77729889  0.12410603
   0.05274788  0.37384155  0.29980521
   0.68946260  0.46752880  0.87596211
   0.42864093  0.45119239  0.21129844
   0.80840964  0.37495664  0.43312099
   0.56270234  0.70810987  0.61135411
   0.55997342  0.54114364  0.65571743
   0.93344369  0.12495581  0.43310587
   0.56587635  0.53761026  0.25545228
   0.69026817  0.45933015  0.34419322
   0.19153075  0.61228646  0.16680044
   0.19541586  0.79871924  0.78873016
   0.44736526  0.12590008  0.70015875
   0.92776416  0.62388241  0.29974440
   0.31807211  0.22399642  0.87611452
   0.31673253  0.87474556  0.56677520
   0.81823450  0.22385424  0.87613546
   0.80980231  0.54075026  0.65573937
   0.55921993  0.53195755  0.12427873
   0.56621151  0.86252243  0.16660868
   0.18989432  0.28817501  0.25545379
   0.80839273  0.87499441  0.43312251
   0.57216878  0.37607820  0.70011096
   0.06022799  0.03267662  0.12426371
   0.30969855  0.54075473  0.65579784
   0.56534969  0.20947292  0.34414235
   0.18780677  0.95803352  0.61132921
   0.30277892  0.37384244  0.29978427
   0.43443356  0.79080706  0.65568408
   0.19610439  0.29838432  0.78863001
   0.06628931  0.36243081  0.16656210
   0.69708980  0.62645656  0.70034392
   0.31217893  0.54178048  0.38855866
   0.06798214  0.72385335  0.87611407
   0.93364326  0.63773451  0.83355588
   0.32012357  0.54945441  0.78872624
   0.30337646  0.20184122  0.21143230
   0.06782494  0.71066973  0.47746969
   0.55336955  0.20187381  0.21145235
   0.31125346  0.21145049  0.74455805
   0.07205169  0.37623205  0.70043763
   0.18326879  0.63749245  0.83349162
   0.07136862  0.04887930  0.78878167
   0.44175312  0.12485804  0.56678827
   0.93491559  0.29087404  0.65570609
   0.80343273  0.20182108  0.21142286
   0.92881112  0.95122846  0.21136669
   0.94156881  0.62501274  0.56688316
   0.80861964  0.38787766  0.83349751
   0.19725980  0.62602445  0.70009758
   0.80870517  0.88789018  0.83353788
   0.68477379  0.29075842  0.65580546
   0.31276330  0.20816845  0.61136727
   0.43596395  0.46271328  0.74450508
   0.43716708  0.79192664  0.38861618
   0.68535739  0.96232235  0.74455124
   0.80348037  0.70175987  0.21145104
   0.81300571  0.70773178  0.61127292
   0.43098402  0.77782499  0.12413958
   0.31082482  0.71230835  0.74449149
   0.32139430  0.04912288  0.78878838
   0.81215206  0.54177557  0.38855838
   0.68240939  0.28815366  0.52231798
   0.69501884  0.79807868  0.78867730
   0.18994914  0.78823331  0.25547586
   0.69134229  0.11208811  0.16679273
   0.69286225  0.96062444  0.47746873
   0.94032632  0.95936760  0.34417908
   0.80751275  0.03827390  0.52232010
   0.68341731  0.62501533  0.43310241
   0.44035894  0.45935441  0.34418954
   0.80999683  0.21248066  0.74451268
   0.43960592  0.96749895  0.87605274
   0.56669323  0.87496215  0.56684697
   0.81034201  0.03237937  0.12437712
   0.42781057  0.62382562  0.29972635
   0.81762544  0.72384458  0.87611004
   0.68754101  0.45813665  0.61122196
   0.55864071  0.38785026  0.83319440
   0.80279797  0.37386869  0.29970963
   0.18705866  0.29181621  0.38853399
   0.82138210  0.54889243  0.78881257
   0.18238605  0.78826656  0.52235109
   0.30275020  0.87380899  0.29976199
   0.17876838  0.95115226  0.21126724
   0.18566927  0.46177111  0.74456949
   0.43236354  0.28815454  0.52230809
   0.06532700  0.70948622  0.34418753
   0.18474066  0.79059886  0.65583708
   0.44553720  0.79886678  0.78870635
   0.68344184  0.12504735  0.43308566
   0.93241212  0.78822464  0.52236151
   0.69217861  0.61292135  0.16671663
   0.81537752  0.70935099  0.34418628
   0.93488744  0.46231192  0.74458589
   0.19032480  0.45931524  0.34418920
   0.57009344  0.54928615  0.78889968
   0.56617109  0.36250165  0.16663776
   0.56529311  0.70938673  0.34417189
   0.55268922  0.37392566  0.29975898
   0.18963765  0.46725945  0.87594970
   0.19140062  0.11245892  0.16683539
   0.44520077  0.29897367  0.78883419
   0.69002500  0.78819734  0.25545597
   0.93362812  0.13760098  0.83351702
   0.44305624  0.96082467  0.47746643
   0.56772705  0.72388327  0.87609104
   0.19281974  0.46075849  0.47745782
   0.93232896  0.27794522  0.12408469
   0.31213589  0.04179497  0.38854329
   0.05966355  0.04057863  0.65584536
   0.55841635  0.37489283  0.43311928
   0.93340247  0.62500104  0.43309107
   0.31627088  0.36249075  0.16668664
   0.94688632  0.12645291  0.70014375
   0.55977695  0.04102449  0.65567011
   0.55734542  0.53833401  0.52231646
   0.17788172  0.12378949  0.29969640
   0.44156068  0.11250181  0.16683743
   0.67777316  0.62388949  0.29975511
   0.92781432  0.12393166  0.29971073
   0.81662749  0.37477458  0.56680001
   0.05274133  0.87388118  0.29980189
   0.19167991  0.62503261  0.56681050
   0.94527501  0.79883975  0.78882401
   0.30853750  0.38767510  0.83352147
   0.93940651  0.46709387  0.87592932
   0.43366585  0.63778296  0.83350469
   0.06527162  0.20944937  0.34418944
   0.18937338  0.96704204  0.87598912
   0.93087984  0.77795118  0.12400905
   0.68707191  0.79185971  0.38855503
   0.93466489  0.79071626  0.65585326
   0.94124717  0.11157232  0.16665898
   0.43476620  0.29067201  0.65584933
   0.05346259  0.20193100  0.21141709
   0.67801967  0.95109689  0.21144166
   0.17783578  0.62368469  0.29968039
   0.82199938  0.87586620  0.70015873
   0.94666715  0.62578420  0.70024245
   0.19721586  0.12621451  0.70024329
   0.94285127  0.46066284  0.47746199
   0.81271820  0.20785676  0.61135894
   0.18339535  0.62499263  0.43310296
   0.42774058  0.12388053  0.29980272
   0.67787745  0.12401143  0.29980434
   0.56214842  0.54178289  0.38854402
   0.81539333  0.20928138  0.34418280
   0.43948555  0.46712247  0.87597508
   0.55857166  0.88822615  0.83341391
   0.31791386  0.21079972  0.47745885
   0.19293953  0.96072404  0.47747193
   0.05855788  0.88734361  0.83337528
   0.05745562  0.53820571  0.52232750
   0.94285618  0.96069857  0.47746863
   0.06284756  0.70790840  0.61120964
   0.55739594  0.03824659  0.52235038
   0.69634991  0.29903378  0.78868053
   0.81626929  0.36223986  0.16662298
   0.43340435  0.12503523  0.43309080
   0.06793155  0.21064313  0.47746887
   0.30984510  0.04080702  0.65572850
   0.43221055  0.78834308  0.52221541
   0.18363247  0.13768643  0.83348513
   0.18218134  0.27759133  0.12404897
   0.94035411  0.45931691  0.34418241
   0.31638657  0.86248764  0.16670631
   0.30338122  0.70185907  0.21143983
   0.94128560  0.61222955  0.16676790
   0.18787746  0.45842375  0.61137330
   0.07260154  0.87623737  0.70010190
   0.05977427  0.54063994  0.65582033
   0.30986696  0.53209647  0.12424641
   0.93709115  0.79181555  0.38853777
   0.94610525  0.29878088  0.78863784
   0.18469473  0.29056802  0.65578246
   0.93783031  0.95794935  0.61130115
   0.81109490  0.71099226  0.74456962
   0.68990227  0.28816695  0.25545513
   0.06051052  0.71167270  0.74484542
   0.67862147  0.45097500  0.21130289
   0.81796562  0.21075938  0.47746204
   0.56789667  0.71051339  0.47750250
   0.06617768  0.86245830  0.16653471
   0.93250067  0.28836205  0.52232564
   0.68467022  0.79078842  0.65573017
   0.05843994  0.87498398  0.43310565
   0.06805204  0.22361186  0.87613778
   0.80995794  0.04083985  0.65572934
   0.55957896  0.03323989  0.12429499
   0.30844795  0.37495758  0.43310814
   0.31682485  0.37484395  0.56677478
   0.31788847  0.71064811  0.47745538
   0.05743530  0.03827268  0.52232658
   0.32211416  0.87612069  0.70012270
   0.06601163  0.53761576  0.25537627
   0.68331196  0.13728753  0.83353142
   0.81588507  0.03743245  0.25539100
   0.18343292  0.12497143  0.43311744
   0.69740966  0.12684600  0.70023821
   0.18241381  0.28826330  0.52232674
   0.44002099  0.78809442  0.25545405
   0.81571736  0.53743809  0.25544734
   0.06263536  0.20810166  0.61128408
   0.18708225  0.79178915  0.38852474
   0.30743766  0.53827430  0.52234780
   0.82246773  0.37608852  0.70006935
   0.68721096  0.29177347  0.38855998
   0.19162401  0.12498288  0.56686504
   0.68956767  0.96830669  0.87598496
   0.69186562  0.12512067  0.56670705
   0.44031374  0.95936151  0.34419431
   0.18530174  0.96225644  0.74445384
   0.93993005  0.78825369  0.25545995
   0.55839639  0.87503097  0.43309069
   0.30848436  0.87493812  0.43310971
   0.80728507  0.53820330  0.52234934
   0.92855376  0.45094890  0.21132531
   0.31547367  0.53771925  0.25545466
   0.56217022  0.04176396  0.38855345
   0.93767646  0.45827397  0.61135232
   0.06220177  0.04186768  0.38860077
   0.06208201  0.54181613  0.38854544
   0.43721653  0.29192541  0.38859335
   0.69294536  0.46071294  0.47745040
   0.06673483  0.37469451  0.56679815
   0.55348222  0.70184864  0.21144275
   0.93999779  0.28822578  0.25545910
   0.82050655  0.04921363  0.78886405
   0.19030373  0.95930716  0.34419092
   0.55270670  0.87395024  0.29981320
   0.05839172  0.37497991  0.43311573
   0.31529394  0.70936633  0.34418813
   0.31532663  0.20939575  0.34418133
   0.94167384  0.12502449  0.56689890
   0.43802453  0.95787972  0.61127553
   0.56576967  0.03752168  0.25544307
   0.18237762  0.77799102  0.12411918
   0.06580377  0.03750786  0.25545842
   0.69177019  0.62496606  0.56678591
   0.44137250  0.61224207  0.16677932
   0.30716077  0.03829690  0.52231246
   0.68103544  0.27794255  0.12412293
   0.81794604  0.71070379  0.47744866
   0.43367616  0.13787624  0.83353975
   0.32175025  0.37599614  0.70018356
   0.68350794  0.63768492  0.83351549
   0.56120669  0.71272570  0.74454954
   0.93713240  0.29182826  0.38855956
   0.93932824  0.96690522  0.87593767
   0.93530061  0.96197953  0.74455169
   0.81695565  0.87483517  0.56670367
   0.80275678  0.87403804  0.29982004
   0.31578635  0.03747597  0.25546338
   0.43085615  0.27747281  0.12410694
   0.31253740  0.70798904  0.61137613
   0.43342635  0.62498694  0.43309640
   0.68417262  0.46227481  0.74466759
   0.57133253  0.04977762  0.78869104
   0.07141284  0.54962413  0.78864479
   0.81686722  0.86159049  0.16600176
   0.56041990  0.21063116  0.74450603
   0.56274521  0.20684936  0.61124008
   0.57336002  0.87696530  0.70047774
Direct configuration=     2
   0.05387269  0.70188185  0.21144113
   0.31784191  0.72343681  0.87606422
   0.68747853  0.95799124  0.61134951
   0.43811479  0.45757847  0.61121773
   0.43939298  0.28804709  0.25550772
   0.05896603  0.38770742  0.83354185
   0.30881989  0.88740913  0.83358067
   0.44651509  0.62634469  0.70012703
   0.06089731  0.21192155  0.74475620
   0.17906478  0.45102670  0.21131919
   0.56732696  0.21045759  0.47750843
   0.06640144  0.87482665  0.56675238
   0.56759032  0.22329085  0.87605858
   0.80983696  0.53284004  0.12429640
   0.42921925  0.95120858  0.21128958
   0.56633436  0.37489748  0.56685469
   0.81218918  0.04190898  0.38860312
   0.68302563  0.78872239  0.52217800
   0.44222546  0.46046179  0.47751792
   0.43501113  0.96220056  0.74456985
   0.44158182  0.62491765  0.56672851
   0.06048428  0.53177752  0.12441678
   0.31006023  0.03205995  0.12432060
   0.68990784  0.95929582  0.34421641
   0.68256532  0.77779069  0.12414175
   0.05343108  0.37380192  0.29979994
   0.68937906  0.46804422  0.87587777
   0.42913322  0.45121309  0.21130324
   0.80878180  0.37499329  0.43312234
   0.56274298  0.70804534  0.61134623
   0.56039581  0.54119470  0.65568362
   0.93381322  0.12497911  0.43311123
   0.56522977  0.53762014  0.25547950
   0.68982846  0.45925055  0.34421692
   0.19112848  0.61241405  0.16670681
   0.19507204  0.79871173  0.78870286
   0.44658575  0.12596713  0.70015201
   0.92846963  0.62383090  0.29974976
   0.31767490  0.22340355  0.87605869
   0.31633385  0.87470916  0.56675477
   0.81795018  0.22331230  0.87607580
   0.81026610  0.54083568  0.65570707
   0.55939988  0.53151318  0.12435035
   0.56569828  0.86274107  0.16656917
   0.18936344  0.28804574  0.25548990
   0.80877301  0.87501145  0.43312612
   0.57146292  0.37619879  0.70012383
   0.06023655  0.03223673  0.12431947
   0.31015083  0.54081394  0.65576137
   0.56489973  0.20935890  0.34417345
   0.18786580  0.95794491  0.61133906
   0.30345385  0.37379894  0.29978419
   0.43491114  0.79084218  0.65565183
   0.19558567  0.29841336  0.78863493
   0.06591362  0.36253947  0.16651008
   0.69648583  0.62642572  0.70030770
   0.31214504  0.54183706  0.38856092
   0.06762059  0.72319291  0.87605280
   0.93407393  0.63764138  0.83362675
   0.31975923  0.54945971  0.78873679
   0.30390862  0.20178034  0.21143434
   0.06728597  0.71041621  0.47751931
   0.55391202  0.20180619  0.21145827
   0.31164326  0.21160961  0.74453376
   0.07141679  0.37621461  0.70040647
   0.18374124  0.63737882  0.83354125
   0.07084579  0.04887578  0.78878587
   0.44136310  0.12481049  0.56676872
   0.93538429  0.29091815  0.65567429
   0.80395085  0.20173050  0.21142223
   0.92933139  0.95126700  0.21135545
   0.94123052  0.62495569  0.56685898
   0.80903708  0.38773658  0.83358835
   0.19658032  0.62602211  0.70011306
   0.80904283  0.88764910  0.83361239
   0.68526938  0.29090463  0.65576300
   0.31276668  0.20813125  0.61137327
   0.43632870  0.46269288  0.74447917
   0.43713096  0.79194023  0.38860668
   0.68600332  0.96236684  0.74454593
   0.80400389  0.70165345  0.21145989
   0.81312239  0.70768288  0.61127006
   0.43135493  0.77824894  0.12420245
   0.31122171  0.71235739  0.74446855
   0.32085873  0.04918305  0.78881254
   0.81211571  0.54182673  0.38856093
   0.68296004  0.28845972  0.52228391
   0.69467682  0.79812221  0.78867208
   0.18941220  0.78808624  0.25550711
   0.69087604  0.11226750  0.16671415
   0.69231730  0.96039622  0.47752010
   0.93987063  0.95928904  0.34420753
   0.80806500  0.03852052  0.52226678
   0.68379667  0.62503107  0.43310614
   0.43989628  0.45927707  0.34421617
   0.81071566  0.21250640  0.74449516
   0.43956713  0.96804679  0.87596756
   0.56635356  0.87491463  0.56681863
   0.81037338  0.03191961  0.12439507
   0.42849952  0.62380270  0.29973256
   0.81728190  0.72325778  0.87605562
   0.68765549  0.45809150  0.61124076
   0.55901264  0.38771546  0.83330865
   0.80346822  0.37384267  0.29972100
   0.18705077  0.29186574  0.38854041
   0.82084079  0.54896212  0.78882441
   0.18293452  0.78854300  0.52231182
   0.30342964  0.87376754  0.29976828
   0.17920626  0.95117834  0.21127158
   0.18610091  0.46195073  0.74454303
   0.43292215  0.28846258  0.52226987
   0.06488162  0.70936264  0.34420944
   0.18518720  0.79066325  0.65579461
   0.44501840  0.79888549  0.78869996
   0.68380835  0.12506615  0.43309292
   0.93295909  0.78850890  0.52232061
   0.69170324  0.61302000  0.16663474
   0.81491398  0.70925981  0.34420924
   0.93551147  0.46232797  0.74455450
   0.18986429  0.45924013  0.34421564
   0.56978588  0.54914529  0.78888716
   0.56561821  0.36264628  0.16658159
   0.56485049  0.70928869  0.34420033
   0.55337379  0.37387014  0.29976346
   0.18952480  0.46782615  0.87588175
   0.19097507  0.11272104  0.16674077
   0.44478545  0.29888687  0.78879584
   0.68949088  0.78806686  0.25549796
   0.93406974  0.13748791  0.83355902
   0.44245343  0.96055493  0.47751768
   0.56741881  0.72326588  0.87602975
   0.19226207  0.46051560  0.47751377
   0.93263156  0.27840178  0.12415736
   0.31210878  0.04185515  0.38854922
   0.06012041  0.04066016  0.65581036
   0.55878991  0.37494127  0.43311984
   0.93377611  0.62502955  0.43309372
   0.31577982  0.36265294  0.16664152
   0.94628845  0.12649247  0.70016517
   0.56022964  0.04105767  0.65565164
   0.55790071  0.53868663  0.52226916
   0.17855456  0.12375134  0.29970590
   0.44112132  0.11274809  0.16674575
   0.67847811  0.62384288  0.29975793
   0.92851574  0.12387618  0.29972090
   0.81624020  0.37472402  0.56678142
   0.05343248  0.87382791  0.29980283
   0.19131900  0.62495786  0.56679650
   0.94479775  0.79880156  0.78879973
   0.30891425  0.38754231  0.83360626
   0.93938510  0.46767743  0.87586837
   0.43405663  0.63768598  0.83358345
   0.06482910  0.20933751  0.34420978
   0.18929511  0.96764054  0.87590762
   0.93123187  0.77837145  0.12404069
   0.68705226  0.79189644  0.38855725
   0.93510772  0.79077438  0.65581019
   0.94088396  0.11184895  0.16659046
   0.43517488  0.29079215  0.65580230
   0.05400029  0.20183220  0.21142210
   0.67857922  0.95119287  0.21143402
   0.17851722  0.62368476  0.29969544
   0.82146559  0.87597490  0.70015914
   0.94606696  0.62583321  0.70024364
   0.19656682  0.12628859  0.70023218
   0.94230003  0.46042225  0.47751740
   0.81283997  0.20782484  0.61135537
   0.18376575  0.62502324  0.43310685
   0.42844791  0.12383971  0.29979684
   0.67855140  0.12395171  0.29979433
   0.56211407  0.54183102  0.38854847
   0.81492521  0.20919673  0.34420900
   0.43948395  0.46772192  0.87588188
   0.55889517  0.88796802  0.83351586
   0.31735167  0.21053806  0.47750942
   0.19237379  0.96048689  0.47753016
   0.05893323  0.88727378  0.83346330
   0.05798835  0.53849683  0.52228822
   0.94229953  0.96046617  0.47752587
   0.06288981  0.70787116  0.61122960
   0.55795365  0.03855478  0.52230717
   0.69589296  0.29898895  0.78867407
   0.81576541  0.36237406  0.16657344
   0.43377433  0.12505643  0.43309498
   0.06736710  0.21041640  0.47752060
   0.31030926  0.04084633  0.65568904
   0.43278884  0.78864179  0.52219393
   0.18412103  0.13755445  0.83353437
   0.18244285  0.27800838  0.12411828
   0.93989396  0.45924363  0.34420755
   0.31591117  0.86259179  0.16663808
   0.30391306  0.70182779  0.21144518
   0.94080231  0.61238354  0.16668215
   0.18791121  0.45834665  0.61137501
   0.07187195  0.87631356  0.70011503
   0.06024952  0.54072706  0.65578775
   0.30995807  0.53176517  0.12431527
   0.93707757  0.79185960  0.38854304
   0.94550711  0.29882348  0.78864129
   0.18511546  0.29072020  0.65575272
   0.93786198  0.95785602  0.61131648
   0.81161955  0.71117545  0.74454880
   0.68937391  0.28801341  0.25548722
   0.06101241  0.71189052  0.74477860
   0.67910736  0.45104029  0.21129468
   0.81738322  0.21050249  0.47751295
   0.56733204  0.71027127  0.47755206
   0.06573448  0.86269695  0.16650187
   0.93303368  0.28865228  0.52229084
   0.68510122  0.79093185  0.65570889
   0.05880079  0.87499728  0.43310483
   0.06773517  0.22298991  0.87607929
   0.81037952  0.04088833  0.65569382
   0.55973944  0.03270747  0.12436142
   0.30881572  0.37498723  0.43310947
   0.31644060  0.37478522  0.56675972
   0.31731264  0.71040522  0.47750309
   0.05797335  0.03856995  0.52229093
   0.32137032  0.87614268  0.70011926
   0.06531667  0.53763164  0.25541645
   0.68378128  0.13718173  0.83359428
   0.81520758  0.03744940  0.25543343
   0.18380459  0.12499267  0.43312027
   0.69674370  0.12681781  0.70022174
   0.18295481  0.28854711  0.52229268
   0.43947389  0.78795213  0.25548992
   0.81508588  0.53748605  0.25547894
   0.06269707  0.20806723  0.61129952
   0.18706443  0.79184311  0.38853400
   0.30798116  0.53856156  0.52231093
   0.82179435  0.37617234  0.70008419
   0.68716773  0.29183205  0.38856275
   0.19126092  0.12488429  0.56683245
   0.68942327  0.96877784  0.87591033
   0.69147645  0.12505056  0.56669357
   0.43985657  0.95927553  0.34422179
   0.18576453  0.96224264  0.74444100
   0.93936906  0.78809703  0.25549512
   0.55877305  0.87505998  0.43309328
   0.30884584  0.87496429  0.43311383
   0.80784519  0.53849371  0.52231134
   0.92907820  0.45101263  0.21131265
   0.31489673  0.53769662  0.25548226
   0.56212502  0.04181480  0.38855749
   0.93776045  0.45824332  0.61135416
   0.06215778  0.04189708  0.38859805
   0.06205554  0.54185903  0.38855008
   0.43716368  0.29194597  0.38858803
   0.69237530  0.46046682  0.47750166
   0.06638334  0.37465219  0.56678597
   0.55404641  0.70180577  0.21144246
   0.93946182  0.28806508  0.25549829
   0.82011246  0.04924619  0.78885175
   0.18985079  0.95923027  0.34421415
   0.55339659  0.87388920  0.29980945
   0.05876939  0.37500909  0.43311695
   0.31485093  0.70927047  0.34421095
   0.31488252  0.20930434  0.34421276
   0.94132446  0.12492484  0.56686939
   0.43800806  0.95782169  0.61127671
   0.56513436  0.03757128  0.25548183
   0.18275220  0.77837721  0.12418897
   0.06514681  0.03755246  0.25548081
   0.69138641  0.62493696  0.56676631
   0.44095073  0.61239711  0.16668756
   0.30772596  0.03855890  0.52227300
   0.68143861  0.27834140  0.12418739
   0.81737944  0.71043913  0.47750416
   0.43414061  0.13771926  0.83360499
   0.32113883  0.37607429  0.70019261
   0.68402976  0.63754063  0.83357283
   0.56155324  0.71281569  0.74453448
   0.93711525  0.29187085  0.38856094
   0.93933686  0.96753216  0.87586292
   0.93589605  0.96204393  0.74452395
   0.81654212  0.87479906  0.56669778
   0.80343982  0.87396479  0.29981439
   0.31516282  0.03751775  0.25549571
   0.43131677  0.27789280  0.12416603
   0.31255928  0.70789504  0.61136578
   0.43377711  0.62500969  0.43310119
   0.68482003  0.46240742  0.74465333
   0.57086058  0.04959856  0.78869126
   0.07096730  0.54955948  0.78863851
   0.81641337  0.86180507  0.16597366
   0.56077620  0.21077129  0.74448873
   0.56278626  0.20703444  0.61123709
   0.57260996  0.87692952  0.70044139
Direct configuration=     3
   0.05544666  0.70172233  0.21146512
   0.31711833  0.72162801  0.87585976
   0.68791575  0.95768147  0.61133799
   0.43811601  0.45764415  0.61129392
   0.43778619  0.28766478  0.25562526
   0.06001022  0.38708599  0.83379565
   0.31021711  0.88707258  0.83383721
   0.44443795  0.62650669  0.70015806
   0.06243744  0.21216154  0.74455728
   0.18061240  0.45124291  0.21130701
   0.56566085  0.20971677  0.47766528
   0.06530297  0.87462748  0.56669003
   0.56657150  0.22143168  0.87589012
   0.81022125  0.53123518  0.12449832
   0.43068960  0.95125253  0.21130075
   0.56537006  0.37457783  0.56673805
   0.81205310  0.04202281  0.38857263
   0.68462437  0.78954872  0.52213927
   0.44061099  0.45967904  0.47766842
   0.43670944  0.96233620  0.74451453
   0.44026982  0.62480237  0.56670199
   0.06050195  0.53037986  0.12457573
   0.31038946  0.03071659  0.12455057
   0.68852302  0.95903988  0.34431609
   0.68345332  0.77926611  0.12424888
   0.05548067  0.37368303  0.29978414
   0.68912845  0.46959046  0.87562475
   0.43061010  0.45127520  0.21131764
   0.80989827  0.37510322  0.43312640
   0.56286492  0.70785173  0.61132259
   0.56166301  0.54134785  0.65558217
   0.93492179  0.12504901  0.43312734
   0.56329005  0.53764977  0.25556116
   0.68850932  0.45901173  0.34428799
   0.18992165  0.61279683  0.16642592
   0.19404056  0.79868919  0.78862095
   0.44424721  0.12616829  0.70013179
   0.93058603  0.62367638  0.29976584
   0.31648327  0.22162496  0.87589118
   0.31513781  0.87459995  0.56669348
   0.81709721  0.22168647  0.87589685
   0.81165746  0.54109194  0.65561016
   0.55993974  0.53018007  0.12456521
   0.56415862  0.86339698  0.16645063
   0.18777081  0.28765793  0.25559824
   0.80991384  0.87506257  0.43313697
   0.56934534  0.37656056  0.70016244
   0.06026222  0.03091706  0.12448674
   0.31150767  0.54099159  0.65565195
   0.56354984  0.20901683  0.34426674
   0.18804291  0.95767909  0.61136858
   0.30547863  0.37366847  0.29978395
   0.43634385  0.79094754  0.65555507
   0.19402952  0.29850049  0.78864968
   0.06478654  0.36286547  0.16635404
   0.69467392  0.62633321  0.70019903
   0.31204335  0.54200677  0.38856768
   0.06653593  0.72121159  0.87586901
   0.93536594  0.63736198  0.83383937
   0.31866621  0.54947562  0.78876842
   0.30550511  0.20159771  0.21144046
   0.06566906  0.70965565  0.47766819
   0.55553944  0.20160334  0.21147603
   0.31281268  0.21208699  0.74446089
   0.06951207  0.37616229  0.70031298
   0.18515862  0.63703793  0.83369014
   0.06927732  0.04886522  0.78879848
   0.44019305  0.12466783  0.56671010
   0.93679039  0.29105048  0.65557891
   0.80550520  0.20145877  0.21142035
   0.93089222  0.95138264  0.21132172
   0.94021564  0.62478454  0.56678644
   0.81028938  0.38731336  0.83386088
   0.19454190  0.62601508  0.70015951
   0.81005579  0.88692583  0.83383592
   0.68675616  0.29134324  0.65563562
   0.31277682  0.20801966  0.61139128
   0.43742297  0.46263169  0.74440144
   0.43702261  0.79198102  0.38857819
   0.68794111  0.96250028  0.74453000
   0.80557443  0.70133417  0.21148647
   0.81347244  0.70753619  0.61126146
   0.43246764  0.77952080  0.12439105
   0.31241241  0.71250450  0.74439972
   0.31925203  0.04936357  0.78888505
   0.81200667  0.54198019  0.38856858
   0.68461199  0.28937790  0.52218171
   0.69365079  0.79825281  0.78865640
   0.18780139  0.78764505  0.25560085
   0.68947730  0.11280569  0.16647843
   0.69068245  0.95971157  0.47767418
   0.93850356  0.95905336  0.34429287
   0.80972175  0.03926035  0.52210682
   0.68493474  0.62507828  0.43311733
   0.43850830  0.45904507  0.34429606
   0.81287215  0.21258363  0.74444258
   0.43945074  0.96969030  0.87571201
   0.56533454  0.87477206  0.56673360
   0.81046750  0.03054032  0.12444892
   0.43056638  0.62373393  0.29975119
   0.81625129  0.72149738  0.87589239
   0.68799892  0.45795604  0.61129718
   0.56012843  0.38731108  0.83365141
   0.80547899  0.37376463  0.29975511
   0.18702708  0.29201435  0.38855968
   0.81921685  0.54917118  0.78885994
   0.18457991  0.78937231  0.52219400
   0.30546796  0.87364319  0.29978716
   0.18051993  0.95125659  0.21128458
   0.18739584  0.46248958  0.74446366
   0.43459797  0.28938668  0.52215523
   0.06354549  0.70899188  0.34427518
   0.18652680  0.79085644  0.65566718
   0.44346201  0.79894161  0.78868080
   0.68490788  0.12512254  0.43311467
   0.93460001  0.78936167  0.52219790
   0.69027715  0.61331595  0.16638909
   0.81352338  0.70898627  0.34427813
   0.93738355  0.46237613  0.74446032
   0.18848277  0.45901482  0.34429495
   0.56886320  0.54872273  0.78884960
   0.56395957  0.36308018  0.16641306
   0.56352265  0.70899458  0.34428567
   0.55542750  0.37370357  0.29977691
   0.18918625  0.46952626  0.87567789
   0.18969842  0.11350738  0.16645690
   0.44353948  0.29862649  0.78868080
   0.68788853  0.78767541  0.25562392
   0.93539458  0.13714870  0.83368499
   0.44064499  0.95974571  0.47767145
   0.56649408  0.72141372  0.87584586
   0.19058906  0.45978692  0.47768160
   0.93353934  0.27977144  0.12437535
   0.31202748  0.04203570  0.38856703
   0.06149102  0.04090477  0.65570537
   0.55991059  0.37508660  0.43312150
   0.93489702  0.62511507  0.43310167
   0.31430663  0.36313951  0.16650618
   0.94449485  0.12661115  0.70022945
   0.56158772  0.04115723  0.65559621
   0.55956655  0.53974450  0.52212725
   0.18057310  0.12363687  0.29973441
   0.43980326  0.11348693  0.16647071
   0.68059294  0.62370307  0.29976641
   0.93061999  0.12370975  0.29975140
   0.81507833  0.37457231  0.56672566
   0.05550591  0.87366810  0.29980565
   0.19023628  0.62473361  0.56675448
   0.94336595  0.79868700  0.78872689
   0.31004449  0.38714397  0.83386063
   0.93932086  0.46942812  0.87568552
   0.43522897  0.63739506  0.83381971
   0.06350156  0.20900190  0.34427083
   0.18906030  0.96943606  0.87566312
   0.93228798  0.77963225  0.12413561
   0.68699329  0.79200660  0.38856390
   0.93643622  0.79094873  0.65568100
   0.93979433  0.11267885  0.16638490
   0.43640093  0.29115255  0.65566123
   0.05561339  0.20153582  0.21143710
   0.68025786  0.95148082  0.21141110
   0.18056156  0.62368497  0.29974061
   0.81986422  0.87630100  0.70016038
   0.94426639  0.62598023  0.70024719
   0.19461967  0.12651084  0.70019884
   0.94064630  0.45970048  0.47768363
   0.81320525  0.20772909  0.61134466
   0.18487698  0.62511506  0.43311852
   0.43056991  0.12371726  0.29977919
   0.68057327  0.12377254  0.29976433
   0.56201102  0.54197541  0.38856183
   0.81352087  0.20894277  0.34428759
   0.43947917  0.46952026  0.87560227
   0.55986571  0.88719365  0.83382171
   0.31566509  0.20975308  0.47766115
   0.19067658  0.95977543  0.47770483
   0.06005930  0.88706429  0.83372736
   0.05958655  0.53937019  0.52217039
   0.94062956  0.95976897  0.47769760
   0.06301654  0.70775944  0.61128946
   0.55962678  0.03947935  0.52217757
   0.69452212  0.29885446  0.78865469
   0.81425376  0.36277666  0.16642484
   0.43488428  0.12512004  0.43310752
   0.06567375  0.20973619  0.47767581
   0.31170175  0.04096427  0.65557069
   0.43452371  0.78953793  0.52212948
   0.18558671  0.13715852  0.83368208
   0.18322738  0.27925954  0.12432620
   0.93851353  0.45902380  0.34428296
   0.31448499  0.86290426  0.16643340
   0.30550859  0.70173395  0.21146122
   0.93935246  0.61284551  0.16642491
   0.18801247  0.45811534  0.61138012
   0.06968320  0.87654212  0.70015443
   0.06167528  0.54098844  0.65568998
   0.31023141  0.53077128  0.12452185
   0.93703683  0.79199176  0.38855883
   0.94371270  0.29895129  0.78865165
   0.18637767  0.29117673  0.65566348
   0.93795698  0.95757602  0.61136247
   0.81319350  0.71172499  0.74448632
   0.68778885  0.28755280  0.25558350
   0.06251810  0.71254397  0.74457811
   0.68056503  0.45123617  0.21127005
   0.81563604  0.20973183  0.47766566