unknown system                          
           1
     9.726678    0.000000    0.000000
     0.000000    8.423550    0.000000
     0.000000    0.000000   45.000000
   Fe   Mn
 274  14
Direct configuration=     1
   0.06250155  0.03438978  0.12563910
   0.31329096  0.87114193  0.65386095
   0.18748518  0.11679195  0.78696309
   0.43765074  0.29096927  0.38991383
   0.31395957  0.70668782  0.83127157
   0.81362217  0.20975013  0.83229026
   0.18764939  0.95696962  0.83178542
   0.56284341  0.20739206  0.56481062
   0.06116785  0.03633321  0.74232531
   0.81248596  0.87098586  0.52108533
   0.18870022  0.28716674  0.74232626
   0.93704254  0.45640254  0.34641992
   0.93672571  0.29087186  0.38995182
   0.81279798  0.03463919  0.87420656
   0.18658689  0.78712856  0.60983339
   0.56227395  0.04098196  0.39001106
   0.93870189  0.95910557  0.83240219
   0.31393197  0.53517017  0.87447410
   0.68695384  0.28737594  0.74216547
   0.18898049  0.62039662  0.16824065
   0.81230165  0.20606842  0.47878889
   0.81375078  0.53716732  0.60990466
   0.31259535  0.87344300  0.43466996
   0.81239693  0.04036874  0.25794975
   0.68731929  0.95682465  0.34640848
   0.93633483  0.12058735  0.16871483
   0.93766724  0.12158986  0.52118020
   0.56120063  0.54113352  0.25753120
   0.68644799  0.79100508  0.87436183
   0.56361975  0.37176751  0.16832582
   0.43701160  0.78817698  0.74244609
   0.81265640  0.70714198  0.56497354
   0.56309623  0.86820659  0.78683330
   0.68757706  0.12100057  0.52114328
   0.81350487  0.37009159  0.65380114
   0.93779094  0.45727568  0.83196862
   0.06246883  0.20359470  0.69828403
   0.43709663  0.95373701  0.69805805
   0.31276458  0.20552750  0.83159279
   0.43806496  0.62065354  0.65372435
   0.31144576  0.53671326  0.60992759
   0.93722066  0.45736008  0.56496512
   0.68818312  0.78816634  0.74247790
   0.93652952  0.79124615  0.12590476
   0.68725434  0.79024796  0.38988802
   0.93788103  0.78723961  0.74281134
   0.06296350  0.20680828  0.34633688
   0.81097350  0.04141110  0.39021580
   0.43748304  0.11697505  0.78707554
   0.06223303  0.20769083  0.21301994
   0.06146902  0.37099799  0.16837988
   0.93613535  0.79083341  0.25762089
   0.56297653  0.20480376  0.69842118
   0.68661714  0.95500242  0.69817600
   0.43664959  0.79070105  0.12548613
   0.43719238  0.95686625  0.56483911
   0.81287750  0.36834024  0.78687939
   0.68576489  0.29139783  0.25779617
   0.18802096  0.45690940  0.56490041
   0.06370582  0.87061692  0.16856856
   0.18811938  0.28761021  0.61006700
   0.56393722  0.70665792  0.34643844
   0.31233231  0.20498919  0.69840442
   0.56171188  0.53511031  0.87434959
   0.06277435  0.70712404  0.56482359
   0.68807722  0.61703935  0.78686445
   0.31086364  0.54114016  0.39004130
   0.18749742  0.62078756  0.52111898
   0.56282131  0.87413157  0.43493654
   0.43700250  0.45728865  0.56490816
   0.43735769  0.28864259  0.74233903
   0.81245179  0.87672160  0.30181708
   0.81191028  0.70733242  0.34646184
   0.43804795  0.45547450  0.83142587
   0.68743900  0.95588970  0.47874016
   0.68734225  0.45500593  0.69832401
   0.56271058  0.87108693  0.52118725
   0.56265211  0.37032519  0.65358488
   0.81185532  0.86979186  0.65369593
   0.81303959  0.37440288  0.43477761
   0.81315978  0.54025406  0.25774423
   0.68889081  0.45494457  0.83163020
   0.18864782  0.79059740  0.12552530
   0.68714228  0.29118968  0.38981194
   0.31242094  0.37001374  0.65355529
   0.31239802  0.20699377  0.34633474
   0.81126602  0.53705253  0.74238789
   0.68758427  0.95577010  0.83165155
   0.56234059  0.87060765  0.65357950
   0.31233216  0.70725071  0.56495072
   0.31170630  0.53537489  0.12556877
   0.68716671  0.95841960  0.21316029
   0.31293269  0.20694249  0.56486686
   0.18776151  0.95608878  0.47886781
   0.68789404  0.95708610  0.56491960
   0.43661199  0.78679737  0.60987026
   0.68752711  0.61904383  0.16844603
   0.31311055  0.87499757  0.30186252
   0.31239044  0.70574654  0.47878168
   0.93620352  0.28752382  0.61011088
   0.43813023  0.62534825  0.30204146
   0.81275524  0.86968763  0.16855170
   0.56295902  0.20770025  0.21315507
   0.93734036  0.61914374  0.16843059
   0.93848230  0.78964826  0.87438150
   0.56227262  0.36771599  0.78687596
   0.06248354  0.37065326  0.52115061
   0.31234328  0.36998973  0.16854824
   0.68815525  0.12517517  0.30190602
   0.43932514  0.95563595  0.83144700
   0.18737639  0.29075842  0.12580188
   0.18732353  0.29075930  0.25799821
   0.31226192  0.37376769  0.43484741
   0.56279779  0.03498913  0.12577144
   0.43695002  0.28737510  0.60990222
   0.18796763  0.45825518  0.34669306
   0.43733010  0.29085300  0.12580586
   0.68723448  0.79208542  0.25753413
   0.43746192  0.12080718  0.52113099
   0.18847623  0.29138289  0.87443320
   0.18711972  0.12094242  0.65363416
   0.93808858  0.12114578  0.65372396
   0.31248772  0.20785519  0.21315639
   0.06234871  0.04008448  0.38990766
   0.18816276  0.11850096  0.16797418
   0.06235900  0.53514679  0.61014365
   0.93841021  0.29126236  0.25793078
   0.56286163  0.53637324  0.60991441
   0.93722828  0.95754294  0.56498556
   0.68694610  0.62530823  0.30187973
   0.93676218  0.62431052  0.43496095
   0.93693882  0.61751826  0.78648326
   0.56164331  0.70378846  0.69812341
   0.06254738  0.71010610  0.83216542
   0.93816892  0.12530230  0.30178566
   0.93820375  0.78749404  0.60997659
   0.43835997  0.79143230  0.25754232
   0.31264386  0.36867043  0.78677892
   0.43759806  0.45805763  0.21297942
   0.18712869  0.12143524  0.52119996
   0.81212069  0.70392728  0.69824173
   0.06193445  0.03619285  0.60982884
   0.56208287  0.20587947  0.83145691
   0.31237000  0.87085901  0.52113717
   0.68812406  0.29115305  0.12562380
   0.18678984  0.95860409  0.21333827
   0.68654486  0.28746764  0.61000735
   0.31326899  0.03711361  0.61006874
   0.93747119  0.11688855  0.78695354
   0.43755118  0.79074823  0.87416300
   0.81348251  0.03637575  0.74246712
   0.93716810  0.45606141  0.69827822
   0.18758999  0.62083231  0.65360798
   0.31275077  0.70352770  0.69822608
   0.93710206  0.29104290  0.12568560
   0.43735271  0.45606796  0.47887501
   0.06245923  0.70574738  0.47875566
   0.93673239  0.12426588  0.43478693
   0.43682534  0.12516963  0.30197805
   0.18710213  0.12468531  0.43475642
   0.56254746  0.03413007  0.87436031
   0.18809119  0.95733393  0.56486430
   0.68868647  0.79151125  0.12602346
   0.56269517  0.53433905  0.12578605
   0.31187731  0.04015370  0.38998892
   0.68850412  0.12082617  0.16869851
   0.81250837  0.20781297  0.21289245
   0.06355228  0.54002710  0.25760614
   0.56245662  0.70574104  0.47870027
   0.06285724  0.20691296  0.56488489
   0.56216410  0.37544020  0.30181531
   0.43712690  0.95760145  0.34646221
   0.18782598  0.95555907  0.69826700
   0.43595541  0.62043880  0.16807762
   0.93743574  0.45856982  0.21346046
   0.06184394  0.53421804  0.12569910
   0.81272325  0.37064178  0.52111267
   0.93713639  0.62525463  0.30174731
   0.31424271  0.04068007  0.25758052
   0.68856922  0.78687621  0.60993913
   0.18773220  0.45653201  0.83175413
   0.43731338  0.11805165  0.16796171
   0.31255545  0.37083412  0.52112057
   0.43750842  0.61703069  0.78708648
   0.06135707  0.04063036  0.25764780
   0.56246749  0.70723463  0.56495882
   0.93711755  0.28611318  0.74233083
   0.68556756  0.11678885  0.78661958
   0.18765528  0.45809430  0.21309397
   0.93743023  0.79130073  0.38984633
   0.68638497  0.29314874  0.87442564
   0.56193868  0.87073061  0.16840175
   0.43745943  0.45554187  0.69831461
   0.93859557  0.95636762  0.34628007
   0.68735220  0.62139950  0.52114175
   0.06264913  0.87023408  0.65356953
   0.06263812  0.86902938  0.78665261
   0.06235330  0.36950315  0.65358010
   0.68771059  0.45578975  0.47877809
   0.18831212  0.79036048  0.25750788
   0.43681990  0.12438013  0.43491509
   0.81235448  0.03481482  0.12573294
   0.93734397  0.62083604  0.52113661
   0.06208890  0.87441029  0.43535150
   0.81174103  0.53485381  0.12557601
   0.43775061  0.45732477  0.34653353
   0.81259903  0.20745587  0.34651171
   0.31257608  0.70688604  0.34643372
   0.68748322  0.12047824  0.65351190
   0.56307008  0.87514421  0.30193693
   0.06370617  0.53623877  0.74241594
   0.93887111  0.95913987  0.21332418
   0.81233915  0.70791792  0.21302853
   0.06218356  0.87522151  0.30191779
   0.18774311  0.12533575  0.30188259
   0.06257152  0.70723676  0.34645633
   0.81146210  0.03669725  0.60995649
   0.06211612  0.37415796  0.43498806
   0.56259782  0.20728903  0.34646635
   0.81291414  0.37532537  0.30190026
   0.43746652  0.95597697  0.47882388
   0.56233576  0.54055076  0.38987395
   0.06243589  0.20608141  0.47866931
   0.31294771  0.86788349  0.78653617
   0.93813245  0.95528182  0.69822967
   0.06263354  0.37630170  0.30182746
   0.68690451  0.62084674  0.65371209
   0.68785943  0.45699228  0.56484022
   0.43825781  0.95908790  0.21337554
   0.31245134  0.20595727  0.47875502
   0.43736633  0.12031267  0.65343576
   0.68735043  0.62427718  0.43486170
   0.81303747  0.20454301  0.69825277
   0.81250727  0.70593391  0.47876657
   0.81171865  0.87426913  0.43497105
   0.93719093  0.95602978  0.47889953
   0.56245420  0.20569563  0.47878171
   0.18768620  0.62416130  0.43484155
   0.31142265  0.03733792  0.74230067
   0.93690116  0.62085033  0.65370338
   0.56285247  0.70630675  0.83154604
   0.31250333  0.37380086  0.30187681
   0.56235216  0.70794060  0.21309690
   0.18753266  0.45589523  0.47875964
   0.31468109  0.03517390  0.87394650
   0.18676188  0.45559897  0.69837386
   0.81108138  0.53387255  0.87449406
   0.18733764  0.29091527  0.38994217
   0.43708374  0.62450803  0.43499384
   0.06270604  0.70790772  0.21309567
   0.56174296  0.37447573  0.43523642
   0.43780049  0.62157994  0.52118574
   0.81293144  0.70991650  0.83129374
   0.06237227  0.36879856  0.78677845
   0.43759588  0.29168421  0.87462226
   0.31284412  0.03476260  0.12556827
   0.68764637  0.12347781  0.43473377
   0.18736753  0.95729137  0.34649253
   0.06269416  0.20906969  0.83248160
   0.56245037  0.03550524  0.61025848
   0.68748067  0.45834821  0.21334248
   0.18789838  0.78778152  0.74258993
   0.18761146  0.62652878  0.30197632
   0.43607295  0.79160350  0.39023792
   0.43651972  0.29169638  0.25772854
   0.06369012  0.53556401  0.87439889
   0.56425770  0.03679688  0.74240830
   0.18760781  0.79060045  0.87422539
   0.93744284  0.45583658  0.47877048
   0.81233099  0.54037642  0.38991627
   0.81211324  0.20716188  0.56488052
   0.18708196  0.61688497  0.78672421
   0.06288174  0.54115418  0.38990301
   0.06335488  0.70405238  0.69814656
   0.31203956  0.54238852  0.25707252
   0.31173800  0.70529564  0.21365717
   0.31227907  0.87088930  0.16722965
   0.56278046  0.53693445  0.74232262
   0.68748342  0.45622984  0.34648382
   0.93468037  0.29339358  0.87392899
   0.56301036  0.04113209  0.25732867
   0.06490040  0.03223620  0.87395397
   0.18670199  0.79227100  0.39012637
   0.81227925  0.37039315  0.16769836
   0.56258403  0.37092992  0.52123917
   0.06267535  0.87082721  0.52123928
   0.81168397  0.86923878  0.78641222
   0.31190562  0.53596177  0.74265837
Direct configuration=     2
   0.06250039  0.03486509  0.12574697
   0.31306572  0.87106299  0.65384017
   0.18749564  0.11729081  0.78693058
   0.43770212  0.29100729  0.39001712
   0.31372999  0.70649494  0.83135310
   0.81358120  0.20911074  0.83225743
   0.18754839  0.95685822  0.83181121
   0.56279319  0.20704228  0.56488251
   0.06134202  0.03644596  0.74237863
   0.81246554  0.87115593  0.52118003
   0.18840781  0.28707906  0.74237069
   0.93720244  0.45658844  0.34636380
   0.93673324  0.29083488  0.39002993
   0.81262783  0.03537793  0.87415619
   0.18679044  0.78722216  0.60979427
   0.56223012  0.04099658  0.39008774
   0.93872504  0.95871025  0.83236776
   0.31375985  0.53572368  0.87434330
   0.68712115  0.28730416  0.74223560
   0.18877814  0.62050493  0.16820449
   0.81225505  0.20600336  0.47869954
   0.81347079  0.53722109  0.60986018
   0.31256510  0.87354211  0.43470036
   0.81250648  0.04050775  0.25788100
   0.68729817  0.95694235  0.34635803
   0.93647210  0.12069318  0.16862086
   0.93760466  0.12177958  0.52124468
   0.56151455  0.54107829  0.25753292
   0.68661114  0.79045755  0.87426501
   0.56349458  0.37172221  0.16821808
   0.43712010  0.78798544  0.74247202
   0.81270048  0.70687983  0.56500749
   0.56297075  0.86822711  0.78678974
   0.68771429  0.12124958  0.52121800
   0.81329119  0.37015545  0.65381007
   0.93781352  0.45713844  0.83198972
   0.06247825  0.20368196  0.69827370
   0.43719330  0.95388548  0.69809199
   0.31273438  0.20547966  0.83169426
   0.43792351  0.62068076  0.65373512
   0.31165024  0.53686863  0.60987033
   0.93728679  0.45708240  0.56499653
   0.68807666  0.78804766  0.74249994
   0.93658171  0.79074675  0.12602710
   0.68724832  0.79028303  0.38998670
   0.93783782  0.78715764  0.74276143
   0.06288519  0.20690629  0.34630332
   0.81126928  0.04126395  0.39026356
   0.43744935  0.11743071  0.78701910
   0.06218989  0.20756453  0.21307426
   0.06156615  0.37107605  0.16828026
   0.93638443  0.79080216  0.25760724
   0.56285645  0.20464473  0.69839923
   0.68679877  0.95489896  0.69818629
   0.43677575  0.79020313  0.12556202
   0.43725245  0.95667114  0.56489761
   0.81282296  0.36847221  0.78683986
   0.68607054  0.29133623  0.25775149
   0.18790605  0.45672151  0.56494154
   0.06358530  0.87082142  0.16846242
   0.18793822  0.28749237  0.60998762
   0.56365686  0.70677585  0.34640508
   0.31239921  0.20485379  0.69837345
   0.56184969  0.53581565  0.87422644
   0.06272656  0.70679151  0.56488786
   0.68801143  0.61740738  0.78685465
   0.31115936  0.54107681  0.39012279
   0.18765027  0.62107091  0.52120042
   0.56266001  0.87407648  0.43491784
   0.43707256  0.45710964  0.56495779
   0.43741561  0.28840049  0.74238372
   0.81245018  0.87645964  0.30179191
   0.81204752  0.70730976  0.34640376
   0.43802144  0.45540257  0.83154924
   0.68744598  0.95593537  0.47866117
   0.68731524  0.45479717  0.69830009
   0.56266872  0.87129822  0.52123803
   0.56260546  0.37036559  0.65361280
   0.81203742  0.86995712  0.65372490
   0.81291701  0.37430978  0.43476737
   0.81307267  0.54031112  0.25771098
   0.68879407  0.45506744  0.83172396
   0.18849532  0.79013591  0.12560246
   0.68712428  0.29118306  0.38992672
   0.31246223  0.37016895  0.65360315
   0.31241331  0.20711904  0.34629768
   0.81152075  0.53697559  0.74243664
   0.68768813  0.95576245  0.83174125
   0.56239276  0.87068763  0.65359932
   0.31232700  0.70696873  0.56498931
   0.31179239  0.53593963  0.12565088
   0.68719552  0.95830772  0.21319647
   0.31291974  0.20671664  0.56491956
   0.18772751  0.95612386  0.47878281
   0.68786646  0.95688436  0.56495687
   0.43676402  0.78684864  0.60981728
   0.68751673  0.61921349  0.16838308
   0.31304295  0.87495210  0.30180947
   0.31237131  0.70577547  0.47870640
   0.93640362  0.28745384  0.61003299
   0.43805105  0.62517304  0.30198383
   0.81277489  0.86986154  0.16844634
   0.56297448  0.20760220  0.21316954
   0.93739632  0.61925716  0.16837073
   0.93828897  0.78908521  0.87432147
   0.56223183  0.36792490  0.78684706
   0.06250455  0.37104426  0.52121452
   0.31239754  0.37000470  0.16844338
   0.68805545  0.12521371  0.30189527
   0.43918961  0.95550672  0.83153597
   0.18740860  0.29031708  0.12591351
   0.18730010  0.29072760  0.25791469
   0.31229204  0.37376066  0.43481936
   0.56276160  0.03540273  0.12584425
   0.43706895  0.28739933  0.60984304
   0.18786071  0.45817536  0.34659346
   0.43730593  0.29044574  0.12591673
   0.68735495  0.79193730  0.25753031
   0.43731484  0.12113933  0.52120188
   0.18860633  0.29079759  0.87436456
   0.18719893  0.12092501  0.65367086
   0.93795205  0.12096352  0.65374586
   0.31252153  0.20770818  0.21316895
   0.06222935  0.04021747  0.39000013
   0.18796308  0.11881825  0.16798433
   0.06238164  0.53552251  0.61006108
   0.93823079  0.29120733  0.25785013
   0.56278260  0.53657384  0.60984637
   0.93724679  0.95730986  0.56502199
   0.68703242  0.62527945  0.30183942
   0.93689574  0.62425392  0.43492493
   0.93700512  0.61802075  0.78650964
   0.56174166  0.70375809  0.69812895
   0.06255226  0.70955677  0.83215098
   0.93804575  0.12534312  0.30178566
   0.93804678  0.78752857  0.60991209
   0.43812678  0.79142243  0.25756258
   0.31264062  0.36866536  0.78675353
   0.43769118  0.45790799  0.21302155
   0.18724298  0.12166460  0.52125452
   0.81218738  0.70401760  0.69825660
   0.06204150  0.03644925  0.60978027
   0.56211761  0.20575036  0.83154226
   0.31244247  0.87105898  0.52121176
   0.68804198  0.29060970  0.12571807
   0.18690074  0.95850749  0.21335499
   0.68670721  0.28750075  0.60993633
   0.31308807  0.03708897  0.61000090
   0.93748232  0.11741482  0.78694900
   0.43758004  0.79015168  0.87409638
   0.81336915  0.03654014  0.74247596
   0.93723443  0.45571700  0.69828285
   0.18756424  0.62086062  0.65364505
   0.31271570  0.70361237  0.69823766
   0.93714945  0.29050018  0.12577094
   0.43733089  0.45601593  0.47878858
   0.06242977  0.70563139  0.47869684
   0.93681795  0.12418924  0.43477665
   0.43700237  0.12510042  0.30193915
   0.18711426  0.12453435  0.43474711
   0.56262012  0.03485229  0.87424350
   0.18800977  0.95716493  0.56492540
   0.68861568  0.79095153  0.12611004
   0.56274801  0.53475900  0.12585651
   0.31195240  0.04030452  0.39007125
   0.68842605  0.12092135  0.16860206
   0.81247639  0.20767787  0.21296895
   0.06329871  0.54018303  0.25759591
   0.56246746  0.70573805  0.47865107
   0.06278555  0.20666377  0.56494140
   0.56215281  0.37532340  0.30177530
   0.43717724  0.95752266  0.34641105
   0.18773100  0.95531860  0.69827341
   0.43609711  0.62064822  0.16805538
   0.93749370  0.45834017  0.21346251
   0.06178242  0.53468746  0.12579306
   0.81270227  0.37096206  0.52119321
   0.93721121  0.62524266  0.30173572
   0.31386456  0.04056142  0.25757438
   0.68831787  0.78690275  0.60987811
   0.18770461  0.45650479  0.83184359
   0.43740904  0.11851791  0.16798273
   0.31253055  0.37106571  0.52119694
   0.43755594  0.61734552  0.78703329
   0.06157660  0.04061372  0.25762201
   0.56247224  0.70692347  0.56500305
   0.93720842  0.28624986  0.74238043
   0.68580923  0.11724426  0.78661216
   0.18750431  0.45792189  0.21312050
   0.93733578  0.79127417  0.38995517
   0.68641582  0.29229332  0.87435961
   0.56192885  0.87089571  0.16831772
   0.43743916  0.45523037  0.69829526
   0.93847225  0.95656157  0.34624961
   0.68743250  0.62164183  0.52121233
   0.06262890  0.87030299  0.65361059
   0.06272916  0.86904524  0.78668400
   0.06238093  0.36972680  0.65361597
   0.68770734  0.45580707  0.47870461
   0.18815899  0.79058833  0.25752153
   0.43691462  0.12423947  0.43488059
   0.81241036  0.03546923  0.12584279
   0.93724021  0.62114366  0.52121465
   0.06212081  0.87430760  0.43529707
   0.81184009  0.53539933  0.12563062
   0.43757778  0.45737361  0.34646516
   0.81267439  0.20740849  0.34645846
   0.31258080  0.70706687  0.34640025
   0.68750769  0.12056623  0.65356467
   0.56300957  0.87516512  0.30191818
   0.06348504  0.53625340  0.74243663
   0.93875057  0.95884570  0.21333037
   0.81237422  0.70769915  0.21306786
   0.06220449  0.87514141  0.30187928
   0.18770959  0.12528136  0.30184615
   0.06253536  0.70731014  0.34640871
   0.81165690  0.03682705  0.60990676
   0.06214831  0.37411041  0.43495272
   0.56251749  0.20727597  0.34641020
   0.81284249  0.37522864  0.30186190
   0.43744766  0.95589140  0.47873342
   0.56229443  0.54053294  0.38997952
   0.06241096  0.20588713  0.47861488
   0.31293571  0.86793229  0.78653600
   0.93797065  0.95500544  0.69822130
   0.06268306  0.37615000  0.30181276
   0.68704458  0.62082926  0.65372525
   0.68786038  0.45685342  0.56490381
   0.43815122  0.95889167  0.21336812
   0.31247290  0.20585360  0.47868538
   0.43739341  0.12048531  0.65350238
   0.68735126  0.62418773  0.43483075
   0.81294717  0.20450729  0.69822710
   0.81250292  0.70589500  0.47869288
   0.81186260  0.87416283  0.43493041
   0.93719511  0.95607719  0.47882325
   0.56244984  0.20564550  0.47871054
   0.18759401  0.62405861  0.43482842
   0.31156565  0.03734527  0.74235172
   0.93703741  0.62084317  0.65372364
   0.56292791  0.70619430  0.83163286
   0.31248439  0.37402660  0.30187814
   0.56234471  0.70783869  0.21312017
   0.18750559  0.45583992  0.47868750
   0.31462468  0.03600022  0.87389286
   0.18688927  0.45524745  0.69834310
   0.81119168  0.53470386  0.87438092
   0.18731478  0.29088788  0.39002966
   0.43707658  0.62444135  0.43495655
   0.06265384  0.70776778  0.21312260
   0.56183594  0.37431822  0.43519868
   0.43768239  0.62179592  0.52125688
   0.81295161  0.70939465  0.83136735
   0.06246577  0.36897146  0.78676866
   0.43744730  0.29103312  0.87449787
   0.31278046  0.03532943  0.12558460
   0.68757833  0.12346435  0.43474991
   0.18737779  0.95725621  0.34642612
   0.06270555  0.20851184  0.83240188
   0.56243070  0.03578319  0.61015206
   0.68746270  0.45822058  0.21336314
   0.18782761  0.78768059  0.74258052
   0.18760049  0.62622675  0.30194548
   0.43636124  0.79144017  0.39028056
   0.43669502  0.29155118  0.25767287
   0.06376174  0.53620515  0.87429250
   0.56400324  0.03688705  0.74244388
   0.18768212  0.78994409  0.87417268
   0.93743680  0.45581309  0.47868338
   0.81229484  0.54041949  0.39000601
   0.81212467  0.20688792  0.56493738
   0.18708395  0.61738202  0.78674171
   0.06274674  0.54112358  0.39000852
   0.06320725  0.70410328  0.69816594
   0.31208573  0.54211855  0.25714042
   0.31185005  0.70562173  0.21361358
   0.31233664  0.87095339  0.16723452
   0.56291726  0.53707558  0.74234854
   0.68753136  0.45643765  0.34643190
   0.93487005  0.29263546  0.87396195
   0.56294106  0.04118263  0.25734786
   0.06477001  0.03304886  0.87394162
   0.18674552  0.79204275  0.39016512
   0.81230256  0.37053469  0.16766368
   0.56255180  0.37119348  0.52126671
   0.06261361  0.87109245  0.52127103
   0.81178444  0.86911963  0.78642900
   0.31178898  0.53615681  0.74265769
Direct configuration=     3
   0.06249734  0.03610951  0.12602937
   0.31247599  0.87085632  0.65378576
   0.18752301  0.11859690  0.78684549
   0.43783662  0.29110683  0.39028756
   0.31312892  0.70598995  0.83156653
   0.81347395  0.20743674  0.83217147
   0.18728395  0.95656656  0.83187872
   0.56266172  0.20612651  0.56507071
   0.06179804  0.03674116  0.74251822
   0.81241205  0.87160120  0.52142798
   0.18764223  0.28684949  0.74248701
   0.93762110  0.45707516  0.34621686
   0.93675294  0.29073808  0.39023446
   0.81218237  0.03731207  0.87402432
   0.18732335  0.78746721  0.60969183
   0.56211538  0.04103487  0.39028852
   0.93878564  0.95767524  0.83227761
   0.31330921  0.53717285  0.87400087
   0.68755918  0.28711624  0.74241921
   0.18824833  0.62078850  0.16810980
   0.81213304  0.20583303  0.47846563
   0.81273772  0.53736188  0.60974372
   0.31248593  0.87380158  0.43477995
   0.81279330  0.04087171  0.25770102
   0.68724289  0.95725049  0.34622596
   0.93683149  0.12097026  0.16837482
   0.93744083  0.12227628  0.52141348
   0.56233643  0.54093370  0.25753741
   0.68703827  0.78902403  0.87401152
   0.56316685  0.37160361  0.16793599
   0.43740418  0.78748397  0.74253993
   0.81281589  0.70619348  0.56509639
   0.56264224  0.86828085  0.78667568
   0.68807358  0.12190151  0.52141363
   0.81273173  0.37032265  0.65383345
   0.93787264  0.45677910  0.83204495
   0.06250290  0.20391043  0.69824666
   0.43744642  0.95427421  0.69818085
   0.31265533  0.20535441  0.83195993
   0.43755318  0.62075202  0.65376333
   0.31218559  0.53727539  0.60972040
   0.93745993  0.45635539  0.56507879
   0.68779794  0.78773694  0.74255766
   0.93671835  0.78943923  0.12634739
   0.68723258  0.79037484  0.39024506
   0.93772468  0.78694301  0.74263075
   0.06268017  0.20716290  0.34621548
   0.81204365  0.04087870  0.39038860
   0.43736113  0.11862372  0.78687135
   0.06207696  0.20723387  0.21321650
   0.06182044  0.37128043  0.16801946
   0.93703657  0.79072033  0.25757148
   0.56254208  0.20422835  0.69834176
   0.68727429  0.95462807  0.69821323
   0.43710608  0.78889948  0.12576073
   0.43740973  0.95616032  0.56505075
   0.81268017  0.36881773  0.78673638
   0.68687078  0.29117495  0.25763453
   0.18760520  0.45622960  0.56504925
   0.06326977  0.87135684  0.16818454
   0.18746391  0.28718383  0.60977977
   0.56292282  0.70708460  0.34631773
   0.31257435  0.20449931  0.69829236
   0.56221051  0.53766231  0.87390402
   0.06260143  0.70592089  0.56505613
   0.68783919  0.61837094  0.78682898
   0.31193359  0.54091096  0.39033614
   0.18805047  0.62181278  0.52141364
   0.56223769  0.87393226  0.43486888
   0.43725598  0.45664095  0.56508771
   0.43756725  0.28776664  0.74250072
   0.81244594  0.87577380  0.30172599
   0.81240684  0.70725041  0.34625169
   0.43795205  0.45521425  0.83187226
   0.68746426  0.95605495  0.47845435
   0.68724454  0.45425060  0.69823747
   0.56255913  0.87185142  0.52137099
   0.56248332  0.37047138  0.65368587
   0.81251418  0.87038979  0.65380077
   0.81259607  0.37406601  0.43474057
   0.81284459  0.54046052  0.25762391
   0.68854080  0.45538915  0.83196944
   0.18809605  0.78892767  0.12580446
   0.68707717  0.29116574  0.39022723
   0.31257031  0.37057533  0.65372845
   0.31245335  0.20744700  0.34620065
   0.81218768  0.53677412  0.74256428
   0.68796003  0.95574242  0.83197611
   0.56252937  0.87089702  0.65365121
   0.31231347  0.70623045  0.56509035
   0.31201779  0.53741820  0.12586585
   0.68727095  0.95801480  0.21329120
   0.31288584  0.20612536  0.56505753
   0.18763849  0.95621571  0.47856027
   0.68779424  0.95635618  0.56505445
   0.43716205  0.78698288  0.60967858
   0.68748957  0.61965770  0.16821826
   0.31286596  0.87483306  0.30167059
   0.31232124  0.70585121  0.47850932
   0.93692753  0.28727065  0.60982907
   0.43784374  0.62471433  0.30183293
   0.81282632  0.87031686  0.16817049
   0.56301496  0.20734548  0.21320741
   0.93754283  0.61955410  0.16821399
   0.93778283  0.78761106  0.87416428
   0.56212504  0.36847188  0.78677139
   0.06255956  0.37206796  0.52138183
   0.31253957  0.37004390  0.16816884
   0.68779415  0.12531463  0.30186714
   0.43883477  0.95516838  0.83176893
   0.18749291  0.28916158  0.12620577
   0.18723878  0.29064460  0.25769604
   0.31237091  0.37374226  0.43474594
   0.56266684  0.03648559  0.12603486
   0.43738034  0.28746278  0.60968808
   0.18758078  0.45796638  0.34633268
   0.43724268  0.28937946  0.12620700
   0.68767036  0.79154951  0.25752030
   0.43692979  0.12200893  0.52138749
   0.18894695  0.28926520  0.87418485
   0.18740629  0.12087942  0.65376693
   0.93759460  0.12048635  0.65380320
   0.31261006  0.20732329  0.21320184
   0.06191687  0.04056566  0.39024223
   0.18744027  0.11964896  0.16801092
   0.06244091  0.53650623  0.60984490
   0.93776103  0.29106324  0.25763898
   0.56257569  0.53709903  0.60966822
   0.93729524  0.95669961  0.56511735
   0.68725839  0.62520411  0.30173386
   0.93724542  0.62410573  0.43483062
   0.93717872  0.61933631  0.78657871
   0.56199915  0.70367857  0.69814345
   0.06256503  0.70811854  0.83211317
   0.93772330  0.12545000  0.30178568
   0.93763580  0.78761897  0.60974321
   0.43751626  0.79139659  0.25761560
   0.31263215  0.36865209  0.78668708
   0.43793498  0.45751622  0.21313185
   0.18754221  0.12226511  0.52139735
   0.81236199  0.70425406  0.69829552
   0.06232179  0.03712055  0.60965313
   0.56220856  0.20541231  0.83176571
   0.31263223  0.87158252  0.52140703
   0.68782709  0.28918715  0.12596486
   0.18719111  0.95825459  0.21339877
   0.68713227  0.28758742  0.60975040
   0.31261439  0.03702447  0.60982328
   0.93751144  0.11879267  0.78693714
   0.43765561  0.78858981  0.87392198
   0.81307238  0.03697053  0.74249911
   0.93740808  0.45481529  0.69829496
   0.18749682  0.62093475  0.65374210
   0.31262387  0.70383405  0.69826799
   0.93727355  0.28907928  0.12599438
   0.43727379  0.45587970  0.47856227
   0.06235263  0.70532771  0.47854285
   0.93704195  0.12398858  0.43474975
   0.43746586  0.12491923  0.30183731
   0.18714603  0.12413911  0.43472274
   0.56281038  0.03674316  0.87393769
   0.18779660  0.95672246  0.56508536
   0.68843032  0.78948611  0.12633671
   0.56288635  0.53585847  0.12604099
   0.31214899  0.04069941  0.39028681
   0.68822168  0.12117055  0.16834952
   0.81239268  0.20732415  0.21316924
   0.06263485  0.54059129  0.25756911
   0.56249585  0.70573022  0.47852227
   0.06259784  0.20601135  0.56508933
   0.56212324  0.37501762  0.30167057
   0.43730903  0.95731638  0.34627710
   0.18748234  0.95468900  0.69829019
   0.43646809  0.62119651  0.16799716
   0.93764545  0.45773889  0.21346788
   0.06162137  0.53591646  0.12603908
   0.81264734  0.37180057  0.52140407
   0.93740709  0.62521135  0.30170537
   0.31287452  0.04025078  0.25755831
   0.68765982  0.78697225  0.60971834
   0.18763239  0.45643353  0.83207781
   0.43765950  0.11973867  0.16803778
   0.31246536  0.37167204  0.52139688
   0.43768036  0.61816978  0.78689402
   0.06215136  0.04057018  0.25755448
   0.56248467  0.70610880  0.56511885
   0.93744635  0.28660770  0.74251028
   0.68644193  0.11843660  0.78659273
   0.18710904  0.45747049  0.21318995
   0.93708851  0.79120461  0.39024014
   0.68649660  0.29005368  0.87418672
   0.56190312  0.87132799  0.16809771
   0.43738609  0.45441483  0.69824461
   0.93814938  0.95706935  0.34616985
   0.68764275  0.62227627  0.52139712
   0.06257592  0.87048339  0.65371811
   0.06296754  0.86908676  0.78676618
   0.06245328  0.37031236  0.65370990
   0.68769885  0.45585241  0.47851222
   0.18775807  0.79118485  0.25755727
   0.43716260  0.12387121  0.43479026
   0.81255668  0.03718255  0.12613040
   0.93696854  0.62194904  0.52141896
   0.06220436  0.87403872  0.43515456
   0.81209942  0.53682755  0.12577360
   0.43712528  0.45750145  0.34628615