<?xml version="1.0" encoding="ISO-8859-1"?>
<modeling>
 <generator>
  <i name="program" type="string">vasp </i>
  <i name="version" type="string">5.4.4.18Apr17-6-g9f103f2a35  </i>
  <i name="subversion" type="string">(build May 29 2019 08:40:53) complex            parallel </i>
  <i name="platform" type="string">LinuxPGI </i>
  <i name="date" type="string">2021 11 22 </i>
  <i name="time" type="string">02:55:17 </i>
 </generator>
 <incar>
  <i type="int" name="ISTART">     2</i>
  <i type="string" name="PREC">accurate</i>
  <i type="string" name="ALGO"> Fast</i>
  <i type="int" name="ICHARG">     2</i>
  <i type="int" name="INIWAV">     1</i>
  <i type="int" name="NELM">   100</i>
  <i type="int" name="NELMIN">     4</i>
  <i type="int" name="IBRION">     2</i>
  <i name="EDIFF">      0.00001000</i>
  <i type="int" name="NSW">   500</i>
  <i type="int" name="ISIF">     2</i>
  <i type="int" name="ISYM">     2</i>
  <i name="ENCUT">    500.00000000</i>
  <i name="POTIM">      0.25000000</i>
  <i type="string" name="LREAL"> Auto</i>
  <i type="int" name="ISMEAR">     0</i>
  <i name="SIGMA">      0.15000000</i>
  <i type="logical" name="LWAVE"> F  </i>
  <i type="logical" name="LCHARG"> F  </i>
  <v type="int" name="KPOINT_BSE">    -1     0     0     0</v>
  <i type="int" name="NELM">   100</i>
 </incar>
 <structure name="primitive_cell" >
  <crystal>
   <varray name="basis" >
    <v>       9.72667800       0.00000000       0.00000000 </v>
    <v>       0.00000000       8.42355000       0.00000000 </v>
    <v>       0.00000000       0.00000000      45.00000000 </v>
   </varray>
   <i name="volume">   3686.99213101 </i>
   <varray name="rec_basis" >
    <v>       0.10281002       0.00000000       0.00000000 </v>
    <v>       0.00000000       0.11871479       0.00000000 </v>
    <v>       0.00000000       0.00000000       0.02222222 </v>
   </varray>
  </crystal>
  <varray name="positions" >
   <v>       0.31260773       0.20894100      -0.30227668 </v>
   <v>       0.43575149       0.29362521      -0.25865580 </v>
   <v>       0.18936444       0.29346596      -0.25851200 </v>
   <v>       0.18897052       0.45732937      -0.30212051 </v>
   <v>       0.31237133       0.04310077      -0.25852274 </v>
   <v>      -0.43848547       0.20898713      -0.30252767 </v>
   <v>       0.43730330       0.45769741      -0.30222127 </v>
   <v>       0.06363982       0.20947878      -0.30235122 </v>
   <v>       0.31317101       0.37373285      -0.34643405 </v>
   <v>       0.18835935      -0.04068179      -0.30222373 </v>
   <v>       0.18812131       0.12551131      -0.34634560 </v>
   <v>       0.43750574       0.12525889      -0.34646014 </v>
   <v>       0.43746169      -0.04154213      -0.30236874 </v>
   <v>      -0.43927589       0.04312068      -0.25859074 </v>
   <v>       0.06436661       0.04316512      -0.25845356 </v>
   <v>       0.06356433       0.37388949      -0.34635866 </v>
   <v>       0.31252173      -0.45862702      -0.25842224 </v>
   <v>      -0.43818692       0.37375407      -0.34642210 </v>
   <v>       0.31306313      -0.12500416      -0.34637470 </v>
   <v>      -0.44004092      -0.45863287      -0.25866026 </v>
   <v>       0.31235478       0.37734216      -0.21476129 </v>
   <v>       0.06483997      -0.45907064      -0.25836699 </v>
   <v>       0.18816633       0.29075291      -0.39007147 </v>
   <v>      -0.31404541       0.29330295      -0.25856973 </v>
   <v>       0.43779955       0.29081992      -0.39010429 </v>
   <v>      -0.06101495       0.29338873      -0.25852421 </v>
   <v>       0.18815570       0.12680094      -0.21437741 </v>
   <v>      -0.31419274       0.45876161      -0.30246288 </v>
   <v>       0.31307047       0.04124192      -0.39010674 </v>
   <v>       0.18879629      -0.37650939      -0.34658649 </v>
   <v>       0.43802667      -0.37637532      -0.34640137 </v>
   <v>       0.31345939      -0.29248441      -0.30207237 </v>
   <v>       0.43675483       0.12666943      -0.21413835 </v>
   <v>      -0.31344491      -0.04120339      -0.30264962 </v>
   <v>      -0.06222226       0.45778195      -0.30234699 </v>
   <v>       0.43559412      -0.20907602      -0.25862926 </v>
   <v>      -0.31313367       0.12468883      -0.34651031 </v>
   <v>       0.18965996      -0.20881372      -0.25834786 </v>
   <v>      -0.06248890      -0.04098124      -0.30250476 </v>
   <v>      -0.43778816      -0.12530100      -0.34633771 </v>
   <v>       0.06298517      -0.12491112      -0.34651731 </v>
   <v>      -0.06249643       0.12513210      -0.34654361 </v>
   <v>       0.06440324       0.37624280      -0.21460617 </v>
   <v>       0.31285202      -0.45998356      -0.39018762 </v>
   <v>      -0.43875905      -0.29251615      -0.30250687 </v>
   <v>      -0.43915981       0.37685109      -0.21428666 </v>
   <v>       0.06354076      -0.29230254      -0.30234864 </v>
   <v>       0.06267609       0.04086233      -0.39016315 </v>
   <v>       0.31224184      -0.12462110      -0.21430318 </v>
   <v>      -0.43733323       0.04070054      -0.39018817 </v>
   <v>      -0.18794878       0.20976445      -0.30264648 </v>
   <v>      -0.43740152      -0.45967267      -0.39004024 </v>
   <v>       0.43600025      -0.37522540      -0.21448482 </v>
   <v>       0.18810199      -0.37483775      -0.21450227 </v>
   <v>       0.06272318      -0.46003789      -0.39027352 </v>
   <v>      -0.31369119      -0.37601876      -0.34652238 </v>
   <v>      -0.18856670       0.37407594      -0.34637743 </v>
   <v>      -0.31263622       0.29029582      -0.39023164 </v>
   <v>      -0.06340674       0.29054491      -0.39005438 </v>
   <v>      -0.43893597      -0.12391893      -0.21408293 </v>
   <v>       0.06345216      -0.12418776      -0.21411664 </v>
   <v>      -0.31334637       0.12654527      -0.21402458 </v>
   <v>       0.43801756      -0.20965919      -0.38996329 </v>
   <v>      -0.06132471      -0.20832437      -0.25828669 </v>
   <v>      -0.31328113      -0.20829285      -0.25832218 </v>
   <v>      -0.06162002       0.12613857      -0.21402620 </v>
   <v>      -0.18747105       0.04248393      -0.25832988 </v>
   <v>      -0.06306858      -0.37595189      -0.34660497 </v>
   <v>       0.18819753      -0.20986258      -0.39022277 </v>
   <v>      -0.18733765      -0.45847971      -0.25839191 </v>
   <v>      -0.18828141      -0.12534734      -0.34657890 </v>
   <v>       0.31324048       0.20698536      -0.43463488 </v>
   <v>       0.31266628       0.20921614      -0.16966730 </v>
   <v>      -0.18883797      -0.29225250      -0.30269850 </v>
   <v>       0.43778382       0.45561722      -0.43451001 </v>
   <v>      -0.18851605       0.04019010      -0.39025823 </v>
   <v>       0.18777417       0.45608309      -0.43459398 </v>
   <v>      -0.06140578      -0.37394589      -0.21421844 </v>
   <v>      -0.18761351       0.37593004      -0.21423317 </v>
   <v>      -0.43748341       0.20639530      -0.43451138 </v>
   <v>      -0.31290576      -0.20975361      -0.39020660 </v>
   <v>      -0.31258622      -0.37452174      -0.21400268 </v>
   <v>       0.06250121       0.20666952      -0.43470687 </v>
   <v>       0.43850344      -0.04313331      -0.43454244 </v>
   <v>       0.18751607      -0.04326986      -0.43462414 </v>
   <v>      -0.06303536      -0.20971762      -0.39032874 </v>
   <v>      -0.43746071       0.21014446      -0.16967285 </v>
   <v>       0.06304422       0.20951948      -0.16955082 </v>
   <v>       0.18818069       0.46131768      -0.16962656 </v>
   <v>       0.43733148       0.46187374      -0.16966512 </v>
   <v>       0.43673566      -0.04069703      -0.16939030 </v>
   <v>       0.18827245      -0.04073949      -0.16909279 </v>
   <v>      -0.18843206      -0.46002273      -0.39033386 </v>
   <v>      -0.18706808      -0.12424897      -0.21402275 </v>
   <v>      -0.31316006       0.45578703      -0.43449683 </v>
   <v>      -0.06194434       0.45645580      -0.43465506 </v>
   <v>       0.31274926      -0.29428024      -0.43490793 </v>
   <v>      -0.31268573      -0.04335394      -0.43469160 </v>
   <v>       0.31227537      -0.28921235      -0.16938298 </v>
   <v>      -0.06330401      -0.04338903      -0.43472573 </v>
   <v>      -0.31284585       0.46029502      -0.16940734 </v>
   <v>      -0.31238375      -0.04040459      -0.16923086 </v>
   <v>      -0.06244525      -0.04045411      -0.16911212 </v>
   <v>      -0.06280204       0.46126917      -0.16901348 </v>
   <v>      -0.43767899      -0.29362725      -0.43456603 </v>
   <v>       0.06255627      -0.29379433      -0.43461179 </v>
   <v>      -0.18836320       0.20517633      -0.43461299 </v>
   <v>      -0.18839470       0.21009988      -0.16953227 </v>
   <v>       0.06262008      -0.28886232      -0.16929352 </v>
   <v>      -0.43824961      -0.28971315      -0.16930446 </v>
   <v>       0.43741768       0.29492887      -0.12729071 </v>
   <v>       0.18762210       0.29378117      -0.12725203 </v>
   <v>       0.31131979       0.04114436      -0.12713921 </v>
   <v>       0.31269376       0.37250278      -0.47801131 </v>
   <v>       0.43776953       0.12232627      -0.47810615 </v>
   <v>       0.18770639       0.12217977      -0.47821161 </v>
   <v>      -0.43822422       0.04239467      -0.12720198 </v>
   <v>       0.06412870       0.04083356      -0.12713462 </v>
   <v>       0.31333801      -0.45375158      -0.12731580 </v>
   <v>      -0.43838482       0.37138094      -0.47783762 </v>
   <v>       0.06328183       0.37190657      -0.47790776 </v>
   <v>       0.31255522      -0.12737280      -0.47831731 </v>
   <v>       0.43606793      -0.20687515      -0.12726517 </v>
   <v>       0.18831207      -0.20532279      -0.12714441 </v>
   <v>      -0.43845728      -0.45536480      -0.12738201 </v>
   <v>      -0.31222769       0.29445530      -0.12728032 </v>
   <v>      -0.06305852       0.29402055      -0.12708053 </v>
   <v>       0.06299716      -0.45415932      -0.12713896 </v>
   <v>       0.43733373      -0.37766479      -0.47805560 </v>
   <v>      -0.31320914       0.12163650      -0.47785752 </v>
   <v>       0.18748714      -0.37745417      -0.47812425 </v>
   <v>      -0.06239177       0.12155665      -0.47792576 </v>
   <v>      -0.43774654      -0.12727904      -0.47790253 </v>
   <v>       0.06266391      -0.12741097      -0.47806304 </v>
   <v>      -0.18790481      -0.29348227      -0.43450200 </v>
   <v>      -0.18692277      -0.28904285      -0.16920553 </v>
   <v>      -0.06191729      -0.20593442      -0.12716685 </v>
   <v>      -0.31239754      -0.20627148      -0.12721416 </v>
   <v>      -0.18728449       0.04160728      -0.12721829 </v>
   <v>      -0.31284961      -0.37680863      -0.47775833 </v>
   <v>      -0.18760316       0.37180748      -0.47772571 </v>
   <v>      -0.06202071      -0.37650973      -0.47785599 </v>
   <v>      -0.18795717      -0.45574669      -0.12706233 </v>
   <v>      -0.18754476      -0.12667598      -0.47784687 </v>
   <v>       0.31249868       0.20437401       0.47886626 </v>
   <v>      -0.43831994       0.20424066       0.47902052 </v>
   <v>       0.43646737       0.45489400       0.47869410 </v>
   <v>       0.18816742       0.45544949       0.47867799 </v>
   <v>       0.06301663       0.20390137       0.47880107 </v>
   <v>       0.43686170      -0.04454036       0.47888488 </v>
   <v>       0.18785874      -0.04466889       0.47889303 </v>
   <v>       0.31223573      -0.29343027       0.47895956 </v>
   <v>      -0.31340763       0.45473408       0.47886024 </v>
   <v>      -0.31319442      -0.04437534       0.47906110 </v>
   <v>      -0.06139349       0.45539575       0.47874597 </v>
   <v>      -0.06149533      -0.04453935       0.47885225 </v>
   <v>      -0.18738321       0.20314013       0.47910052 </v>
   <v>      -0.43868261      -0.29325924       0.47875980 </v>
   <v>       0.06324681      -0.29292191       0.47876241 </v>
   <v>      -0.18699260      -0.29348441       0.47892165 </v>
   <v>       0.43598811       0.12120808       0.43505699 </v>
   <v>       0.18840506       0.12109553       0.43503891 </v>
   <v>       0.31226442       0.37102876       0.43483044 </v>
   <v>       0.31206629      -0.12768050       0.43514349 </v>
   <v>       0.06376903       0.37071367       0.43479599 </v>
   <v>      -0.43895382       0.37095984       0.43467950 </v>
   <v>       0.18818648      -0.37799332       0.43502438 </v>
   <v>       0.43679851      -0.37850624       0.43487982 </v>
   <v>      -0.06093504       0.12066717       0.43487152 </v>
   <v>      -0.31334045       0.12071969       0.43487689 </v>
   <v>      -0.43873752      -0.12839510       0.43500034 </v>
   <v>       0.06395939      -0.12822341       0.43496564 </v>
   <v>      -0.06092049      -0.37792652       0.43488558 </v>
   <v>      -0.18698921       0.37113018       0.43493941 </v>
   <v>      -0.31357485      -0.37786454       0.43469130 </v>
   <v>      -0.18724925      -0.12835887       0.43503707 </v>
   <v>       0.18788952       0.28665746       0.39042618 </v>
   <v>       0.43719760       0.28754783       0.39040811 </v>
   <v>       0.31206099       0.03761542       0.39052447 </v>
   <v>       0.31276119      -0.46247948       0.39049862 </v>
   <v>      -0.43808613       0.03750632       0.39036347 </v>
   <v>       0.06305095       0.03699649       0.39032265 </v>
   <v>       0.06278627      -0.46331012       0.39041347 </v>
   <v>      -0.43798866      -0.46279844       0.39026488 </v>
   <v>       0.43689214      -0.21309725       0.39062068 </v>
   <v>       0.18841679      -0.21201642       0.39049852 </v>
   <v>      -0.06246462       0.28670565       0.39016433 </v>
   <v>      -0.31267921       0.28747719       0.39007334 </v>
   <v>      -0.31335894      -0.21266592       0.39041418 </v>
   <v>      -0.18719423       0.03751457       0.39028983 </v>
   <v>      -0.06214313      -0.21240163       0.39037607 </v>
   <v>      -0.18782690      -0.46327475       0.39026661 </v>
   <v>       0.31220835       0.20287113       0.34655123 </v>
   <v>       0.43771353       0.45307923       0.34638559 </v>
   <v>       0.18719228      -0.04625874       0.34660685 </v>
   <v>       0.06230339       0.20260769       0.34646079 </v>
   <v>       0.18792244       0.45255832       0.34626205 </v>
   <v>      -0.43709866       0.20334165       0.34641468 </v>
   <v>       0.43696865      -0.04646580       0.34648802 </v>
   <v>       0.31225614      -0.29648250       0.34651673 </v>
   <v>      -0.31277623       0.45249027       0.34640552 </v>
   <v>      -0.06287069       0.45228131       0.34636080 </v>
   <v>      -0.06199876      -0.04546719       0.34644015 </v>
   <v>      -0.31204054      -0.04614146       0.34638400 </v>
   <v>      -0.43751452      -0.29690193       0.34653068 </v>
   <v>       0.06298782      -0.29568832       0.34640256 </v>
   <v>      -0.18738975       0.20337743       0.34645938 </v>
   <v>      -0.18750316      -0.29645949       0.34631962 </v>
   <v>       0.31389786       0.36968881       0.30266796 </v>
   <v>       0.18743099       0.11930303       0.30269284 </v>
   <v>       0.43749129       0.12072256       0.30253524 </v>
   <v>       0.06197167       0.36924237       0.30273652 </v>
   <v>      -0.43694742       0.36933560       0.30232802 </v>
   <v>       0.31219190      -0.13039816       0.30236800 </v>
   <v>       0.43800138      -0.38160223       0.30251565 </v>
   <v>       0.18812439      -0.38069877       0.30243060 </v>
   <v>      -0.06295846       0.11968093       0.30263270 </v>
   <v>      -0.43701931      -0.13031210       0.30258381 </v>
   <v>      -0.31201320       0.12069048       0.30239810 </v>
   <v>       0.06252914      -0.12912024       0.30245689 </v>
   <v>      -0.31256336      -0.38205597       0.30240229 </v>
   <v>      -0.18881437       0.36919220       0.30232061 </v>
   <v>      -0.06377497      -0.38123575       0.30228666 </v>
   <v>      -0.18763061      -0.12936993       0.30245398 </v>
   <v>       0.31209223       0.03456713       0.12478085 </v>
   <v>       0.43733063       0.28466886       0.12508811 </v>
   <v>       0.18760409       0.28429119       0.12523545 </v>
   <v>       0.31242606      -0.46596383       0.12496398 </v>
   <v>      -0.43788437       0.03469305       0.12474656 </v>
   <v>       0.06303940       0.03446337       0.12484354 </v>
   <v>      -0.43793244      -0.46667666       0.12453511 </v>
   <v>       0.06283389      -0.46585393       0.12488927 </v>
   <v>      -0.31255686       0.28490169       0.12499285 </v>
   <v>      -0.06220085       0.28443019       0.12503675 </v>
   <v>       0.43728742      -0.21595923       0.12482092 </v>
   <v>       0.18767351      -0.21532891       0.12487920 </v>
   <v>       0.43884251       0.28557695       0.25893411 </v>
   <v>       0.18792196       0.28538191       0.25887871 </v>
   <v>       0.31205092       0.03517539       0.25893422 </v>
   <v>      -0.31270192      -0.21566174       0.12438334 </v>
   <v>      -0.18707020       0.03493779       0.12469519 </v>
   <v>      -0.06211654      -0.21544387       0.12474244 </v>
   <v>       0.31276744      -0.46431132       0.25895708 </v>
   <v>      -0.43718925       0.03756947       0.25907420 </v>
   <v>       0.06176541       0.03475667       0.25885229 </v>
   <v>      -0.18715458      -0.46652062       0.12449411 </v>
   <v>      -0.43651720      -0.46653095       0.25910321 </v>
   <v>      -0.31217339       0.28626604       0.25896971 </v>
   <v>       0.06142641      -0.46305371       0.25881394 </v>
   <v>      -0.06427982       0.28603672       0.25889284 </v>
   <v>       0.43727050      -0.21483494       0.25896211 </v>
   <v>       0.18682329      -0.21412137       0.25882924 </v>
   <v>      -0.18692101       0.03627906       0.25892593 </v>
   <v>      -0.31123396      -0.21627801       0.25918221 </v>
   <v>      -0.06192492      -0.21398437       0.25869706 </v>
   <v>      -0.18813758      -0.46534986       0.25897061 </v>
   <v>       0.31209360       0.36661270       0.16975438 </v>
   <v>       0.43638971       0.11932903       0.16973732 </v>
   <v>       0.18752066       0.11959590       0.16986859 </v>
   <v>      -0.43814930       0.36757493       0.16957312 </v>
   <v>       0.06321102       0.36651155       0.16982805 </v>
   <v>       0.31213626      -0.13160257       0.16954245 </v>
   <v>       0.43660271      -0.38293026       0.16950584 </v>
   <v>       0.18736942      -0.38350011       0.16967935 </v>
   <v>      -0.31239417       0.11911553       0.16972520 </v>
   <v>      -0.43830107      -0.13197288       0.16963114 </v>
   <v>      -0.06144218       0.11914660       0.16987047 </v>
   <v>       0.06287722      -0.13170207       0.16973685 </v>
   <v>       0.31255958       0.20188530       0.21419993 </v>
   <v>      -0.31261689      -0.38316644       0.16934912 </v>
   <v>      -0.06109877      -0.38338996       0.16950617 </v>
   <v>      -0.18708228       0.36704299       0.16974399 </v>
   <v>       0.43762924       0.45128428       0.21438534 </v>
   <v>      -0.43697390       0.20285952       0.21450461 </v>
   <v>       0.18677786      -0.04765477       0.21447784 </v>
   <v>       0.43738458      -0.04761091       0.21445778 </v>
   <v>       0.18726176       0.45170216       0.21407406 </v>
   <v>       0.06202391       0.20154334       0.21409771 </v>
   <v>      -0.18668733      -0.13161066       0.16954924 </v>
   <v>      -0.31227172       0.45058692       0.21475057 </v>
   <v>       0.31204943      -0.29832116       0.21436989 </v>
   <v>      -0.06217269      -0.04733054       0.21462655 </v>
   <v>      -0.06268095       0.45120163       0.21435563 </v>
   <v>      -0.31195975      -0.04703788       0.21456796 </v>
   <v>      -0.43827947      -0.29842841       0.21463440 </v>
   <v>       0.06265991      -0.29794486       0.21443366 </v>
   <v>      -0.18750407       0.20207906       0.21448965 </v>
   <v>      -0.18627736      -0.29855263       0.21462003 </v>
  </varray>
 </structure>
 <varray name="primitive_index" >
  <v type="int" >        1 </v>
  <v type="int" >       76 </v>
  <v type="int" >      105 </v>
  <v type="int" >      221 </v>
  <v type="int" >      116 </v>
  <v type="int" >        2 </v>
  <v type="int" >      202 </v>
  <v type="int" >      184 </v>
  <v type="int" >      255 </v>
  <v type="int" >      107 </v>
  <v type="int" >      242 </v>
  <v type="int" >      164 </v>
  <v type="int" >      273 </v>
  <v type="int" >      248 </v>
  <v type="int" >      229 </v>
  <v type="int" >      239 </v>
  <v type="int" >       91 </v>
  <v type="int" >      253 </v>
  <v type="int" >      260 </v>
  <v type="int" >      123 </v>
  <v type="int" >       14 </v>
  <v type="int" >       30 </v>
  <v type="int" >        6 </v>
  <v type="int" >      156 </v>
  <v type="int" >       55 </v>
  <v type="int" >      250 </v>
  <v type="int" >       24 </v>
  <v type="int" >      131 </v>
  <v type="int" >      172 </v>
  <v type="int" >      240 </v>
  <v type="int" >      266 </v>
  <v type="int" >       54 </v>
  <v type="int" >      181 </v>
  <v type="int" >       86 </v>
  <v type="int" >       19 </v>
  <v type="int" >       65 </v>
  <v type="int" >      109 </v>
  <v type="int" >       80 </v>
  <v type="int" >      222 </v>
  <v type="int" >      238 </v>
  <v type="int" >      134 </v>
  <v type="int" >      254 </v>
  <v type="int" >      108 </v>
  <v type="int" >      157 </v>
  <v type="int" >      179 </v>
  <v type="int" >       44 </v>
  <v type="int" >      203 </v>
  <v type="int" >       21 </v>
  <v type="int" >      149 </v>
  <v type="int" >       38 </v>
  <v type="int" >       79 </v>
  <v type="int" >       17 </v>
  <v type="int" >      122 </v>
  <v type="int" >      130 </v>
  <v type="int" >      135 </v>
  <v type="int" >       89 </v>
  <v type="int" >      206 </v>
  <v type="int" >      186 </v>
  <v type="int" >      286 </v>
  <v type="int" >      199 </v>
  <v type="int" >      270 </v>
  <v type="int" >       36 </v>
  <v type="int" >      283 </v>
  <v type="int" >      275 </v>
  <v type="int" >      213 </v>
  <v type="int" >      187 </v>
  <v type="int" >       10 </v>
  <v type="int" >      174 </v>
  <v type="int" >      140 </v>
  <v type="int" >      234 </v>
  <v type="int" >       78 </v>
  <v type="int" >      236 </v>
  <v type="int" >       81 </v>
  <v type="int" >      178 </v>
  <v type="int" >       66 </v>
  <v type="int" >      223 </v>
  <v type="int" >       63 </v>
  <v type="int" >      106 </v>
  <v type="int" >      218 </v>
  <v type="int" >       73 </v>
  <v type="int" >      126 </v>
  <v type="int" >      103 </v>
  <v type="int" >      198 </v>
  <v type="int" >       84 </v>
  <v type="int" >      113 </v>
  <v type="int" >      133 </v>
  <v type="int" >      183 </v>
  <v type="int" >      166 </v>
  <v type="int" >      212 </v>
  <v type="int" >      142 </v>
  <v type="int" >      247 </v>
  <v type="int" >      159 </v>
  <v type="int" >       23 </v>
  <v type="int" >      277 </v>
  <v type="int" >      117 </v>
  <v type="int" >       68 </v>
  <v type="int" >      180 </v>
  <v type="int" >      160 </v>
  <v type="int" >       69 </v>
  <v type="int" >      177 </v>
  <v type="int" >      114 </v>
  <v type="int" >      125 </v>
  <v type="int" >      264 </v>
  <v type="int" >      282 </v>
  <v type="int" >       85 </v>
  <v type="int" >      124 </v>
  <v type="int" >      127 </v>
  <v type="int" >      231 </v>
  <v type="int" >       75 </v>
  <v type="int" >       13 </v>
  <v type="int" >      182 </v>
  <v type="int" >      272 </v>
  <v type="int" >      100 </v>
  <v type="int" >      271 </v>
  <v type="int" >       11 </v>
  <v type="int" >       98 </v>
  <v type="int" >       37 </v>
  <v type="int" >      259 </v>
  <v type="int" >      115 </v>
  <v type="int" >       28 </v>
  <v type="int" >      211 </v>
  <v type="int" >      261 </v>
  <v type="int" >       74 </v>
  <v type="int" >      194 </v>
  <v type="int" >      256 </v>
  <v type="int" >      208 </v>
  <v type="int" >      249 </v>
  <v type="int" >       42 </v>
  <v type="int" >      244 </v>
  <v type="int" >      120 </v>
  <v type="int" >       61 </v>
  <v type="int" >      176 </v>
  <v type="int" >       31 </v>
  <v type="int" >        9 </v>
  <v type="int" >      278 </v>
  <v type="int" >      251 </v>
  <v type="int" >       35 </v>
  <v type="int" >       53 </v>
  <v type="int" >      173 </v>
  <v type="int" >       22 </v>
  <v type="int" >      288 </v>
  <v type="int" >      214 </v>
  <v type="int" >      101 </v>
  <v type="int" >      243 </v>
  <v type="int" >      205 </v>
  <v type="int" >      193 </v>
  <v type="int" >        7 </v>
  <v type="int" >       45 </v>
  <v type="int" >      262 </v>
  <v type="int" >      268 </v>
  <v type="int" >       87 </v>
  <v type="int" >      281 </v>
  <v type="int" >       59 </v>
  <v type="int" >       64 </v>
  <v type="int" >       47 </v>
  <v type="int" >      163 </v>
  <v type="int" >      154 </v>
  <v type="int" >      227 </v>
  <v type="int" >       52 </v>
  <v type="int" >       71 </v>
  <v type="int" >      246 </v>
  <v type="int" >       32 </v>
  <v type="int" >       48 </v>
  <v type="int" >      155 </v>
  <v type="int" >       99 </v>
  <v type="int" >       92 </v>
  <v type="int" >      147 </v>
  <v type="int" >      201 </v>
  <v type="int" >      112 </v>
  <v type="int" >      252 </v>
  <v type="int" >      162 </v>
  <v type="int" >       58 </v>
  <v type="int" >      279 </v>
  <v type="int" >      195 </v>
  <v type="int" >      145 </v>
  <v type="int" >      146 </v>
  <v type="int" >       97 </v>
  <v type="int" >      144 </v>
  <v type="int" >      225 </v>
  <v type="int" >      192 </v>
  <v type="int" >      280 </v>
  <v type="int" >      167 </v>
  <v type="int" >       33 </v>
  <v type="int" >      111 </v>
  <v type="int" >      265 </v>
  <v type="int" >      220 </v>
  <v type="int" >       27 </v>
  <v type="int" >      216 </v>
  <v type="int" >      189 </v>
  <v type="int" >       15 </v>
  <v type="int" >       29 </v>
  <v type="int" >       93 </v>
  <v type="int" >      151 </v>
  <v type="int" >       40 </v>
  <v type="int" >      204 </v>
  <v type="int" >       12 </v>
  <v type="int" >      224 </v>
  <v type="int" >      121 </v>
  <v type="int" >       25 </v>
  <v type="int" >       39 </v>
  <v type="int" >      119 </v>
  <v type="int" >      274 </v>
  <v type="int" >       56 </v>
  <v type="int" >      263 </v>
  <v type="int" >      141 </v>
  <v type="int" >       49 </v>
  <v type="int" >      196 </v>
  <v type="int" >      200 </v>
  <v type="int" >       50 </v>
  <v type="int" >      175 </v>
  <v type="int" >       20 </v>
  <v type="int" >      150 </v>
  <v type="int" >       88 </v>
  <v type="int" >       83 </v>
  <v type="int" >      165 </v>
  <v type="int" >      188 </v>
  <v type="int" >      128 </v>
  <v type="int" >      153 </v>
  <v type="int" >      245 </v>
  <v type="int" >      276 </v>
  <v type="int" >      168 </v>
  <v type="int" >       90 </v>
  <v type="int" >      235 </v>
  <v type="int" >       18 </v>
  <v type="int" >      233 </v>
  <v type="int" >       41 </v>
  <v type="int" >      257 </v>
  <v type="int" >       72 </v>
  <v type="int" >      170 </v>
  <v type="int" >      129 </v>
  <v type="int" >      219 </v>
  <v type="int" >      185 </v>
  <v type="int" >       34 </v>
  <v type="int" >      267 </v>
  <v type="int" >      139 </v>
  <v type="int" >      158 </v>
  <v type="int" >      269 </v>
  <v type="int" >      228 </v>
  <v type="int" >      104 </v>
  <v type="int" >      209 </v>
  <v type="int" >       94 </v>
  <v type="int" >      148 </v>
  <v type="int" >      217 </v>
  <v type="int" >      284 </v>
  <v type="int" >      232 </v>
  <v type="int" >       62 </v>
  <v type="int" >      138 </v>
  <v type="int" >       82 </v>
  <v type="int" >      197 </v>
  <v type="int" >        3 </v>
  <v type="int" >       77 </v>
  <v type="int" >      169 </v>
  <v type="int" >      237 </v>
  <v type="int" >      285 </v>
  <v type="int" >       26 </v>
  <v type="int" >        8 </v>
  <v type="int" >       16 </v>
  <v type="int" >      152 </v>
  <v type="int" >       96 </v>
  <v type="int" >       51 </v>
  <v type="int" >      241 </v>
  <v type="int" >      136 </v>
  <v type="int" >      230 </v>
  <v type="int" >       60 </v>
  <v type="int" >      161 </v>
  <v type="int" >        5 </v>
  <v type="int" >       67 </v>
  <v type="int" >        4 </v>
  <v type="int" >      171 </v>
  <v type="int" >      287 </v>
  <v type="int" >      143 </v>
  <v type="int" >      210 </v>
  <v type="int" >      132 </v>
  <v type="int" >       95 </v>
  <v type="int" >      190 </v>
  <v type="int" >      258 </v>
  <v type="int" >      191 </v>
  <v type="int" >      215 </v>
  <v type="int" >       70 </v>
  <v type="int" >      102 </v>
  <v type="int" >      137 </v>
  <v type="int" >      226 </v>
  <v type="int" >       57 </v>
  <v type="int" >      110 </v>
  <v type="int" >       46 </v>
  <v type="int" >      207 </v>
  <v type="int" >      118 </v>
  <v type="int" >       43 </v>
 </varray>
 <kpoints>
  <generation param="Gamma">
   <v type="int" name="divisions">       4        4        1 </v>
   <v name="usershift">      0.00000000       0.00000000       0.00000000 </v>
   <v name="genvec1">      0.25000000       0.00000000       0.00000000 </v>
   <v name="genvec2">      0.00000000       0.25000000       0.00000000 </v>
   <v name="genvec3">      0.00000000       0.00000000       1.00000000 </v>
   <v name="shift">      0.00000000       0.00000000       0.00000000 </v>
  </generation>
  <varray name="kpointlist" >
   <v>       0.00000000       0.00000000       0.00000000 </v>
   <v>       0.25000000       0.00000000       0.00000000 </v>
   <v>       0.50000000       0.00000000       0.00000000 </v>
   <v>       0.00000000       0.25000000       0.00000000 </v>
   <v>       0.25000000       0.25000000       0.00000000 </v>
   <v>       0.50000000       0.25000000       0.00000000 </v>
   <v>      -0.25000000       0.25000000       0.00000000 </v>
   <v>       0.00000000       0.50000000       0.00000000 </v>
   <v>       0.25000000       0.50000000       0.00000000 </v>
   <v>       0.50000000       0.50000000       0.00000000 </v>
  </varray>
  <varray name="weights" >
   <v>       0.06250000 </v>
   <v>       0.12500000 </v>
   <v>       0.06250000 </v>
   <v>       0.12500000 </v>
   <v>       0.12500000 </v>
   <v>       0.12500000 </v>
   <v>       0.12500000 </v>
   <v>       0.06250000 </v>
   <v>       0.12500000 </v>
   <v>       0.06250000 </v>
  </varray>
 </kpoints>
 <parameters>
  <separator name="general" >
   <i type="string" name="SYSTEM">unknown system</i>
   <i type="logical" name="LCOMPAT"> F  </i>
  </separator>
  <separator name="electronic" >
   <i type="string" name="PREC">accura</i>
   <i name="ENMAX">    500.00000000</i>
   <i name="ENAUG">    838.43500000</i>
   <i name="EDIFF">      0.00001000</i>
   <i type="int" name="IALGO">    68</i>
   <i type="int" name="IWAVPR">    11</i>
   <i type="int" name="NBANDS">  1380</i>
   <i name="NELECT">   2289.00000000</i>
   <i type="int" name="TURBO">     0</i>
   <i type="int" name="IRESTART">     0</i>
   <i type="int" name="NREBOOT">     0</i>
   <i type="int" name="NMIN">     0</i>
   <i name="EREF">      0.00000000</i>
   <separator name="electronic smearing" >
    <i type="int" name="ISMEAR">     0</i>
    <i name="SIGMA">      0.15000000</i>
    <i name="KSPACING">      0.50000000</i>
    <i type="logical" name="KGAMMA"> T  </i>
   </separator>
   <separator name="electronic projectors" >
    <i type="logical" name="LREAL"> T  </i>
    <v name="ROPT">     -0.00025000     -0.00025000</v>
    <i type="int" name="LMAXPAW">  -100</i>
    <i type="int" name="LMAXMIX">     2</i>
    <i type="logical" name="NLSPLINE"> F  </i>
   </separator>
   <separator name="electronic startup" >
    <i type="int" name="ISTART">     0</i>
    <i type="int" name="ICHARG">     2</i>
    <i type="int" name="INIWAV">     1</i>
   </separator>
   <separator name="electronic spin" >
    <i type="int" name="ISPIN">     1</i>
    <i type="logical" name="LNONCOLLINEAR"> F  </i>
    <v name="MAGMOM">      1.00000000      1.00000000      1.00000000      1.00000000      1.00000000      1.00000000      1.00000000      1.00000000      1.00000000      1.00000000      1.00000000      1.00000000      1.00000000      1.00000000      1.00000000      1.00000000      1.00000000      1.00000000      1.00000000      1.00000000
      1.00000000      1.00000000      1.00000000      1.00000000      1.00000000      1.00000000      1.00000000      1.00000000      1.00000000      1.00000000      1.00000000      1.00000000      1.00000000      1.00000000      1.00000000      1.00000000      1.00000000      1.00000000      1.00000000      1.00000000
      1.00000000      1.00000000      1.00000000      1.00000000      1.00000000      1.00000000      1.00000000      1.00000000      1.00000000      1.00000000      1.00000000      1.00000000      1.00000000      1.00000000      1.00000000      1.00000000      1.00000000      1.00000000      1.00000000      1.00000000
      1.00000000      1.00000000      1.00000000      1.00000000      1.00000000      1.00000000      1.00000000      1.00000000      1.00000000      1.00000000      1.00000000      1.00000000      1.00000000      1.00000000      1.00000000      1.00000000      1.00000000      1.00000000      1.00000000      1.00000000
      1.00000000      1.00000000      1.00000000      1.00000000      1.00000000      1.00000000      1.00000000      1.00000000      1.00000000      1.00000000      1.00000000      1.00000000      1.00000000      1.00000000      1.00000000      1.00000000      1.00000000      1.00000000      1.00000000      1.00000000
      1.00000000      1.00000000      1.00000000      1.00000000      1.00000000      1.00000000      1.00000000      1.00000000      1.00000000      1.00000000      1.00000000      1.00000000      1.00000000      1.00000000      1.00000000      1.00000000      1.00000000      1.00000000      1.00000000      1.00000000
      1.00000000      1.00000000      1.00000000      1.00000000      1.00000000      1.00000000      1.00000000      1.00000000      1.00000000      1.00000000      1.00000000      1.00000000      1.00000000      1.00000000      1.00000000      1.00000000      1.00000000      1.00000000      1.00000000      1.00000000
      1.00000000      1.00000000      1.00000000      1.00000000      1.00000000      1.00000000      1.00000000      1.00000000      1.00000000      1.00000000      1.00000000      1.00000000      1.00000000      1.00000000      1.00000000      1.00000000      1.00000000      1.00000000      1.00000000      1.00000000
      1.00000000      1.00000000      1.00000000      1.00000000      1.00000000      1.00000000      1.00000000      1.00000000      1.00000000      1.00000000      1.00000000      1.00000000      1.00000000      1.00000000      1.00000000      1.00000000      1.00000000      1.00000000      1.00000000      1.00000000
      1.00000000      1.00000000      1.00000000      1.00000000      1.00000000      1.00000000      1.00000000      1.00000000      1.00000000      1.00000000      1.00000000      1.00000000      1.00000000      1.00000000      1.00000000      1.00000000      1.00000000      1.00000000      1.00000000      1.00000000
      1.00000000      1.00000000      1.00000000      1.00000000      1.00000000      1.00000000      1.00000000      1.00000000      1.00000000      1.00000000      1.00000000      1.00000000      1.00000000      1.00000000      1.00000000      1.00000000      1.00000000      1.00000000      1.00000000      1.00000000
      1.00000000      1.00000000      1.00000000      1.00000000      1.00000000      1.00000000      1.00000000      1.00000000      1.00000000      1.00000000      1.00000000      1.00000000      1.00000000      1.00000000      1.00000000      1.00000000      1.00000000      1.00000000      1.00000000      1.00000000
      1.00000000      1.00000000      1.00000000      1.00000000      1.00000000      1.00000000      1.00000000      1.00000000      1.00000000      1.00000000      1.00000000      1.00000000      1.00000000      1.00000000      1.00000000      1.00000000      1.00000000      1.00000000      1.00000000      1.00000000
      1.00000000      1.00000000      1.00000000      1.00000000      1.00000000      1.00000000      1.00000000      1.00000000      1.00000000      1.00000000      1.00000000      1.00000000      1.00000000      1.00000000      1.00000000      1.00000000      1.00000000      1.00000000      1.00000000      1.00000000
      1.00000000      1.00000000      1.00000000      1.00000000      1.00000000      1.00000000      1.00000000      1.00000000</v>
    <i name="NUPDOWN">     -1.00000000</i>
    <i type="logical" name="LSORBIT"> F  </i>
    <v name="SAXIS">      0.00000000      0.00000000      1.00000000</v>
    <i type="logical" name="LSPIRAL"> F  </i>
    <v name="QSPIRAL">      0.00000000      0.00000000      0.00000000</v>
    <i type="logical" name="LZEROZ"> F  </i>
   </separator>
   <separator name="electronic exchange-correlation" >
    <i type="logical" name="LASPH"> F  </i>
    <i type="logical" name="LMETAGGA"> F  </i>
   </separator>
   <separator name="electronic convergence" >
    <i type="int" name="NELM">   100</i>
    <i type="int" name="NELMDL">     0</i>
    <i type="int" name="NELMIN">     4</i>
    <i name="ENINI">    500.00000000</i>
    <separator name="electronic convergence detail" >
     <i type="logical" name="LDIAG"> T  </i>
     <i type="logical" name="LSUBROT"> F  </i>
     <i name="WEIMIN">      0.00100000</i>
     <i name="EBREAK">      0.00000000</i>
     <i name="DEPER">      0.30000000</i>
     <i type="int" name="NRMM">     4</i>
     <i name="TIME">      0.40000000</i>
    </separator>
   </separator>
   <separator name="electronic mixer" >
    <i name="AMIX">      0.40000000</i>
    <i name="BMIX">      1.00000000</i>
    <i name="AMIN">      0.10000000</i>
    <i name="AMIX_MAG">      1.60000000</i>
    <i name="BMIX_MAG">      1.00000000</i>
    <separator name="electronic mixer details" >
     <i type="int" name="IMIX">     4</i>
     <i type="logical" name="MIXFIRST"> F  </i>
     <i type="int" name="MAXMIX">   -45</i>
     <i name="WC">    100.00000000</i>
     <i type="int" name="INIMIX">     1</i>
     <i type="int" name="MIXPRE">     1</i>
     <i type="int" name="MREMOVE">     5</i>
    </separator>
   </separator>
   <separator name="electronic dipolcorrection" >
    <i type="logical" name="LDIPOL"> F  </i>
    <i type="logical" name="LMONO"> F  </i>
    <i type="int" name="IDIPOL">     0</i>
    <i name="EPSILON">      1.00000000</i>
    <v name="DIPOL">   -100.00000000   -100.00000000   -100.00000000</v>
    <i name="EFIELD">      0.00000000</i>
   </separator>
  </separator>
  <separator name="grids" >
   <i type="int" name="NGX">    72</i>
   <i type="int" name="NGY">    64</i>
   <i type="int" name="NGZ">   336</i>
   <i type="int" name="NGXF">   144</i>
   <i type="int" name="NGYF">   128</i>
   <i type="int" name="NGZF">   672</i>
   <i type="logical" name="ADDGRID"> F  </i>
  </separator>
  <separator name="ionic" >
   <i type="int" name="NSW">   500</i>
   <i type="int" name="IBRION">     2</i>
   <i type="int" name="MDALGO">     0</i>
   <i type="int" name="ISIF">     2</i>
   <i name="PSTRESS">      0.00000000</i>
   <i name="EDIFFG">      0.00010000</i>
   <i type="int" name="NFREE">     1</i>
   <i name="POTIM">      0.25000000</i>
   <i name="SMASS">     -3.00000000</i>
   <i name="SCALEE">      1.00000000</i>
  </separator>
  <separator name="ionic md" >
   <i name="TEBEG">      0.00010000</i>
   <i name="TEEND">      0.00010000</i>
   <i type="int" name="NBLOCK">     1</i>
   <i type="int" name="KBLOCK">   500</i>
   <i type="int" name="NPACO">   256</i>
   <i name="APACO">     16.00000000</i>
  </separator>
  <separator name="symmetry" >
   <i type="int" name="ISYM">     2</i>
   <i name="SYMPREC">      0.00001000</i>
  </separator>
  <separator name="dos" >
   <i type="int" name="LORBIT">     0</i>
   <v name="RWIGS">     -1.00000000     -1.00000000</v>
   <i type="int" name="NEDOS">   301</i>
   <i name="EMIN">     10.00000000</i>
   <i name="EMAX">    -10.00000000</i>
   <i name="EFERMI">      0.00000000</i>
  </separator>
  <separator name="writing" >
   <i type="int" name="NWRITE">     2</i>
   <i type="logical" name="LWAVE"> F  </i>
   <i type="logical" name="LDOWNSAMPLE"> F  </i>
   <i type="logical" name="LCHARG"> F  </i>
   <i type="logical" name="LPARD"> F  </i>
   <i type="logical" name="LVTOT"> F  </i>
   <i type="logical" name="LVHAR"> F  </i>
   <i type="logical" name="LELF"> F  </i>
   <i type="logical" name="LOPTICS"> F  </i>
   <v name="STM">      0.00000000      0.00000000      0.00000000      0.00000000      0.00000000      0.00000000      0.00000000</v>
  </separator>
  <separator name="performance" >
   <i type="int" name="NPAR">    10</i>
   <i type="int" name="NSIM">     4</i>
   <i type="int" name="NBLK">    -1</i>
   <i type="logical" name="LPLANE"> T  </i>
   <i type="logical" name="LSCALAPACK"> F  </i>
   <i type="logical" name="LSCAAWARE"> F  </i>
   <i type="logical" name="LSCALU"> F  </i>
   <i type="logical" name="LASYNC"> F  </i>
   <i type="logical" name="LORBITALREAL"> F  </i>
  </separator>
  <separator name="miscellaneous" >
   <i type="int" name="IDIOT">     3</i>
   <i type="int" name="ISPECIAL">     0</i>
   <i type="logical" name="LMUSIC"> F  </i>
   <v name="POMASS">     55.84700000     54.93800000</v>
   <v name="DARWINR">      0.00000000      0.00000000</v>
   <v name="DARWINV">      1.00000000      1.00000000</v>
   <i type="logical" name="LCORR"> T  </i>
  </separator>
  <i type="logical" name="GGA_COMPAT"> T  </i>
  <i type="logical" name="LBERRY"> F  </i>
  <i type="int" name="ICORELEVEL">     0</i>
  <i type="logical" name="LDAU"> F  </i>
  <i type="int" name="I_CONSTRAINED_M">     0</i>
  <separator name="electronic exchange-correlation" >
   <i type="string" name="GGA">--</i>
   <i type="int" name="VOSKOWN">     0</i>
   <i type="logical" name="LHFCALC"> F  </i>
   <i type="string" name="PRECFOCK"></i>
   <i type="logical" name="LSYMGRAD"> F  </i>
   <i type="logical" name="LHFONE"> F  </i>
   <i type="logical" name="LRHFCALC"> F  </i>
   <i type="logical" name="LTHOMAS"> F  </i>
   <i type="logical" name="LMODELHF"> F  </i>
   <i name="ENCUT4O">     -1.00000000</i>
   <i type="int" name="EXXOEP">     0</i>
   <i type="int" name="FOURORBIT">     0</i>
   <i name="AEXX">      0.00000000</i>
   <i name="HFALPHA">      0.00000000</i>
   <i name="MCALPHA">      0.00000000</i>
   <i name="ALDAX">      1.00000000</i>
   <i name="AGGAX">      1.00000000</i>
   <i name="ALDAC">      1.00000000</i>
   <i name="AGGAC">      1.00000000</i>
   <i type="int" name="NKREDX">     1</i>
   <i type="int" name="NKREDY">     1</i>
   <i type="int" name="NKREDZ">     1</i>
   <i type="logical" name="SHIFTRED"> F  </i>
   <i type="logical" name="ODDONLY"> F  </i>
   <i type="logical" name="EVENONLY"> F  </i>
   <i type="int" name="LMAXFOCK">     0</i>
   <i type="int" name="NMAXFOCKAE">     0</i>
   <i type="logical" name="LFOCKAEDFT"> F  </i>
   <i name="HFSCREEN">      0.00000000</i>
   <i name="HFSCREENC">      0.00000000</i>
   <i type="int" name="NBANDSGWLOW">     0</i>
  </separator>
  <separator name="vdW DFT" >
   <i type="logical" name="LUSE_VDW"> F  </i>
   <i name="Zab_VDW">     -0.84910000</i>
   <i name="PARAM1">      0.12340000</i>
   <i name="PARAM2">      1.00000000</i>
   <i name="PARAM3">      0.00000000</i>
  </separator>
  <separator name="model GW" >
   <i type="int" name="MODEL_GW">     0</i>
   <i name="MODEL_EPS0">      7.68123361</i>
   <i name="MODEL_ALPHA">      1.00000000</i>
  </separator>
  <separator name="linear response parameters" >
   <i type="logical" name="LEPSILON"> F  </i>
   <i type="logical" name="LRPA"> F  </i>
   <i type="logical" name="LNABLA"> F  </i>
   <i type="logical" name="LVEL"> F  </i>
   <i type="int" name="KINTER">     0</i>
   <i name="CSHIFT">      0.10000000</i>
   <i name="OMEGAMAX">     -1.00000000</i>
   <i name="DEG_THRESHOLD">      0.00200000</i>
   <i name="RTIME">     -0.10000000</i>
   <i name="WPLASMAI">      0.00000000</i>
   <v name="DFIELD">      0.00000000      0.00000000      0.00000000</v>
   <v name="WPLASMA">      0.00000000      0.00000000      0.00000000      0.00000000      0.00000000      0.00000000      0.00000000      0.00000000      0.00000000</v>
  </separator>
  <separator name="orbital magnetization" >
   <i type="logical" name="NUCIND"> F  </i>
   <v name="MAGPOS">      0.00000000      0.00000000      0.00000000</v>
   <i type="logical" name="LNICSALL"> T  </i>
   <i type="logical" name="ORBITALMAG"> F  </i>
   <i type="logical" name="LMAGBLOCH"> F  </i>
   <i type="logical" name="LCHIMAG"> F  </i>
   <i type="logical" name="LGAUGE"> T  </i>
   <i type="int" name="MAGATOM">     0</i>
   <v name="MAGDIPOL">      0.00000000      0.00000000      0.00000000</v>
   <v name="AVECCONST">      0.00000000      0.00000000      0.00000000</v>
  </separator>
  <separator name="response functions" >
   <i type="logical" name="LADDER"> F  </i>
   <i type="logical" name="LRPAFORCE"> F  </i>
   <i type="logical" name="LFXC"> F  </i>
   <i type="logical" name="LHARTREE"> T  </i>
   <i type="int" name="IBSE">     0</i>
   <v type="int" name="KPOINT">    -1     0     0     0</v>
   <i type="logical" name="LTCTE"> F  </i>
   <i type="logical" name="LTETE"> F  </i>
   <i type="logical" name="LTRIPLET"> F  </i>
   <i type="logical" name="LFXCEPS"> F  </i>
   <i type="logical" name="LFXHEG"> F  </i>
   <i type="int" name="NATURALO">     2</i>
   <i type="logical" name="L2ORDER"> F  </i>
   <i type="logical" name="LMP2LT"> F  </i>
   <i type="logical" name="LUSEW"> F  </i>
   <i name="ENCUTGW">     -2.00000000</i>
   <i name="ENCUTGWSOFT">     -2.00000000</i>
   <i name="ENCUTLF">     -1.00000000</i>
   <i type="int" name="LMAXMP2">    -1</i>
   <i name="SCISSOR">      0.00000000</i>
   <i type="int" name="NOMEGA">     0</i>
   <i type="int" name="NOMEGAR">     0</i>
   <i type="int" name="NBANDSGW">    -1</i>
   <i type="int" name="NBANDSO">    -1</i>
   <i type="int" name="NBANDSV">    -1</i>
   <i type="int" name="NELM">   100</i>
   <i type="int" name="NELMHF">     1</i>
   <i type="int" name="DIM">     3</i>
   <i type="int" name="ANTIRES">     0</i>
   <i name="OMEGAMAX">    -30.00000000</i>
   <i name="OMEGAMIN">    -30.00000000</i>
   <i name="OMEGATL">   -200.00000000</i>
   <i type="int" name="OMEGAGRID">   140</i>
   <i name="CSHIFT">     -0.10000000</i>
   <i type="logical" name="SELFENERGY"> F  </i>
   <i type="logical" name="LSPECTRAL"> F  </i>
   <i type="logical" name="LSPECTRALGW"> F  </i>
   <i type="logical" name="LSINGLES"> F  </i>
   <i type="logical" name="LFERMIGW"> F  </i>
   <i type="logical" name="ODDONLYGW"> F  </i>
   <i type="logical" name="EVENONLYGW"> F  </i>
   <i type="int" name="NKREDLFX">     1</i>
   <i type="int" name="NKREDLFY">     1</i>
   <i type="int" name="NKREDLFZ">     1</i>
   <i type="int" name="MAXMEM">  2800</i>
   <i type="int" name="TELESCOPE">     0</i>
   <i type="int" name="TAUPAR">     1</i>
   <i type="int" name="OMEGAPAR">    -1</i>
   <i name="LAMBDA">      1.00000000</i>
  </separator>
  <separator name="External order field" >
   <i name="OFIELD_KAPPA">      0.00000000</i>
   <v name="OFIELD_K">      0.00000000      0.00000000      0.00000000</v>
   <i name="OFIELD_Q6_NEAR">      0.00000000</i>
   <i name="OFIELD_Q6_FAR">      0.00000000</i>
   <i name="OFIELD_A">      0.00000000</i>
  </separator>
 </parameters>
 <atominfo>
  <atoms>     288 </atoms>
  <types>       2 </types>
  <array name="atoms" >
   <dimension dim="1">ion</dimension>
   <field type="string">element</field>
   <field type="int">atomtype</field>
   <set>
    <rc><c>Fe</c><c>   1</c></rc>
    <rc><c>Fe</c><c>   1</c></rc>
    <rc><c>Fe</c><c>   1</c></rc>
    <rc><c>Fe</c><c>   1</c></rc>
    <rc><c>Fe</c><c>   1</c></rc>
    <rc><c>Fe</c><c>   1</c></rc>
    <rc><c>Fe</c><c>   1</c></rc>
    <rc><c>Fe</c><c>   1</c></rc>
    <rc><c>Fe</c><c>   1</c></rc>
    <rc><c>Fe</c><c>   1</c></rc>
    <rc><c>Fe</c><c>   1</c></rc>
    <rc><c>Fe</c><c>   1</c></rc>
    <rc><c>Fe</c><c>   1</c></rc>
    <rc><c>Fe</c><c>   1</c></rc>
    <rc><c>Fe</c><c>   1</c></rc>
    <rc><c>Fe</c><c>   1</c></rc>
    <rc><c>Fe</c><c>   1</c></rc>
    <rc><c>Fe</c><c>   1</c></rc>
    <rc><c>Fe</c><c>   1</c></rc>
    <rc><c>Fe</c><c>   1</c></rc>
    <rc><c>Fe</c><c>   1</c></rc>
    <rc><c>Fe</c><c>   1</c></rc>
    <rc><c>Fe</c><c>   1</c></rc>
    <rc><c>Fe</c><c>   1</c></rc>
    <rc><c>Fe</c><c>   1</c></rc>
    <rc><c>Fe</c><c>   1</c></rc>
    <rc><c>Fe</c><c>   1</c></rc>
    <rc><c>Fe</c><c>   1</c></rc>
    <rc><c>Fe</c><c>   1</c></rc>
    <rc><c>Fe</c><c>   1</c></rc>
    <rc><c>Fe</c><c>   1</c></rc>
    <rc><c>Fe</c><c>   1</c></rc>
    <rc><c>Fe</c><c>   1</c></rc>
    <rc><c>Fe</c><c>   1</c></rc>
    <rc><c>Fe</c><c>   1</c></rc>
    <rc><c>Fe</c><c>   1</c></rc>
    <rc><c>Fe</c><c>   1</c></rc>
    <rc><c>Fe</c><c>   1</c></rc>
    <rc><c>Fe</c><c>   1</c></rc>
    <rc><c>Fe</c><c>   1</c></rc>
    <rc><c>Fe</c><c>   1</c></rc>
    <rc><c>Fe</c><c>   1</c></rc>
    <rc><c>Fe</c><c>   1</c></rc>
    <rc><c>Fe</c><c>   1</c></rc>
    <rc><c>Fe</c><c>   1</c></rc>
    <rc><c>Fe</c><c>   1</c></rc>
    <rc><c>Fe</c><c>   1</c></rc>
    <rc><c>Fe</c><c>   1</c></rc>
    <rc><c>Fe</c><c>   1</c></rc>
    <rc><c>Fe</c><c>   1</c></rc>
    <rc><c>Fe</c><c>   1</c></rc>
    <rc><c>Fe</c><c>   1</c></rc>
    <rc><c>Fe</c><c>   1</c></rc>
    <rc><c>Fe</c><c>   1</c></rc>
    <rc><c>Fe</c><c>   1</c></rc>
    <rc><c>Fe</c><c>   1</c></rc>
    <rc><c>Fe</c><c>   1</c></rc>
    <rc><c>Fe</c><c>   1</c></rc>
    <rc><c>Fe</c><c>   1</c></rc>
    <rc><c>Fe</c><c>   1</c></rc>
    <rc><c>Fe</c><c>   1</c></rc>
    <rc><c>Fe</c><c>   1</c></rc>
    <rc><c>Fe</c><c>   1</c></rc>
    <rc><c>Fe</c><c>   1</c></rc>
    <rc><c>Fe</c><c>   1</c></rc>
    <rc><c>Fe</c><c>   1</c></rc>
    <rc><c>Fe</c><c>   1</c></rc>
    <rc><c>Fe</c><c>   1</c></rc>
    <rc><c>Fe</c><c>   1</c></rc>
    <rc><c>Fe</c><c>   1</c></rc>
    <rc><c>Fe</c><c>   1</c></rc>
    <rc><c>Fe</c><c>   1</c></rc>
    <rc><c>Fe</c><c>   1</c></rc>
    <rc><c>Fe</c><c>   1</c></rc>
    <rc><c>Fe</c><c>   1</c></rc>
    <rc><c>Fe</c><c>   1</c></rc>
    <rc><c>Fe</c><c>   1</c></rc>
    <rc><c>Fe</c><c>   1</c></rc>
    <rc><c>Fe</c><c>   1</c></rc>
    <rc><c>Fe</c><c>   1</c></rc>
    <rc><c>Fe</c><c>   1</c></rc>
    <rc><c>Fe</c><c>   1</c></rc>
    <rc><c>Fe</c><c>   1</c></rc>
    <rc><c>Fe</c><c>   1</c></rc>
    <rc><c>Fe</c><c>   1</c></rc>
    <rc><c>Fe</c><c>   1</c></rc>
    <rc><c>Fe</c><c>   1</c></rc>
    <rc><c>Fe</c><c>   1</c></rc>
    <rc><c>Fe</c><c>   1</c></rc>
    <rc><c>Fe</c><c>   1</c></rc>
    <rc><c>Fe</c><c>   1</c></rc>
    <rc><c>Fe</c><c>   1</c></rc>
    <rc><c>Fe</c><c>   1</c></rc>
    <rc><c>Fe</c><c>   1</c></rc>
    <rc><c>Fe</c><c>   1</c></rc>
    <rc><c>Fe</c><c>   1</c></rc>
    <rc><c>Fe</c><c>   1</c></rc>
    <rc><c>Fe</c><c>   1</c></rc>
    <rc><c>Fe</c><c>   1</c></rc>
    <rc><c>Fe</c><c>   1</c></rc>
    <rc><c>Fe</c><c>   1</c></rc>
    <rc><c>Fe</c><c>   1</c></rc>
    <rc><c>Fe</c><c>   1</c></rc>
    <rc><c>Fe</c><c>   1</c></rc>
    <rc><c>Fe</c><c>   1</c></rc>
    <rc><c>Fe</c><c>   1</c></rc>
    <rc><c>Fe</c><c>   1</c></rc>
    <rc><c>Fe</c><c>   1</c></rc>
    <rc><c>Fe</c><c>   1</c></rc>
    <rc><c>Fe</c><c>   1</c></rc>
    <rc><c>Fe</c><c>   1</c></rc>
    <rc><c>Fe</c><c>   1</c></rc>
    <rc><c>Fe</c><c>   1</c></rc>
    <rc><c>Fe</c><c>   1</c></rc>
    <rc><c>Fe</c><c>   1</c></rc>
    <rc><c>Fe</c><c>   1</c></rc>
    <rc><c>Fe</c><c>   1</c></rc>
    <rc><c>Fe</c><c>   1</c></rc>
    <rc><c>Fe</c><c>   1</c></rc>
    <rc><c>Fe</c><c>   1</c></rc>
    <rc><c>Fe</c><c>   1</c></rc>
    <rc><c>Fe</c><c>   1</c></rc>
    <rc><c>Fe</c><c>   1</c></rc>
    <rc><c>Fe</c><c>   1</c></rc>
    <rc><c>Fe</c><c>   1</c></rc>
    <rc><c>Fe</c><c>   1</c></rc>
    <rc><c>Fe</c><c>   1</c></rc>
    <rc><c>Fe</c><c>   1</c></rc>
    <rc><c>Fe</c><c>   1</c></rc>
    <rc><c>Fe</c><c>   1</c></rc>
    <rc><c>Fe</c><c>   1</c></rc>
    <rc><c>Fe</c><c>   1</c></rc>
    <rc><c>Fe</c><c>   1</c></rc>
    <rc><c>Fe</c><c>   1</c></rc>
    <rc><c>Fe</c><c>   1</c></rc>
    <rc><c>Fe</c><c>   1</c></rc>
    <rc><c>Fe</c><c>   1</c></rc>
    <rc><c>Fe</c><c>   1</c></rc>
    <rc><c>Fe</c><c>   1</c></rc>
    <rc><c>Fe</c><c>   1</c></rc>
    <rc><c>Fe</c><c>   1</c></rc>
    <rc><c>Fe</c><c>   1</c></rc>
    <rc><c>Fe</c><c>   1</c></rc>
    <rc><c>Fe</c><c>   1</c></rc>
    <rc><c>Fe</c><c>   1</c></rc>
    <rc><c>Fe</c><c>   1</c></rc>
    <rc><c>Fe</c><c>   1</c></rc>
    <rc><c>Fe</c><c>   1</c></rc>
    <rc><c>Fe</c><c>   1</c></rc>
    <rc><c>Fe</c><c>   1</c></rc>
    <rc><c>Fe</c><c>   1</c></rc>
    <rc><c>Fe</c><c>   1</c></rc>
    <rc><c>Fe</c><c>   1</c></rc>
    <rc><c>Fe</c><c>   1</c></rc>
    <rc><c>Fe</c><c>   1</c></rc>
    <rc><c>Fe</c><c>   1</c></rc>
    <rc><c>Fe</c><c>   1</c></rc>
    <rc><c>Fe</c><c>   1</c></rc>
    <rc><c>Fe</c><c>   1</c></rc>
    <rc><c>Fe</c><c>   1</c></rc>
    <rc><c>Fe</c><c>   1</c></rc>
    <rc><c>Fe</c><c>   1</c></rc>
    <rc><c>Fe</c><c>   1</c></rc>
    <rc><c>Fe</c><c>   1</c></rc>
    <rc><c>Fe</c><c>   1</c></rc>
    <rc><c>Fe</c><c>   1</c></rc>
    <rc><c>Fe</c><c>   1</c></rc>
    <rc><c>Fe</c><c>   1</c></rc>
    <rc><c>Fe</c><c>   1</c></rc>
    <rc><c>Fe</c><c>   1</c></rc>
    <rc><c>Fe</c><c>   1</c></rc>
    <rc><c>Fe</c><c>   1</c></rc>
    <rc><c>Fe</c><c>   1</c></rc>
    <rc><c>Fe</c><c>   1</c></rc>
    <rc><c>Fe</c><c>   1</c></rc>
    <rc><c>Fe</c><c>   1</c></rc>
    <rc><c>Fe</c><c>   1</c></rc>
    <rc><c>Fe</c><c>   1</c></rc>
    <rc><c>Fe</c><c>   1</c></rc>
    <rc><c>Fe</c><c>   1</c></rc>
    <rc><c>Fe</c><c>   1</c></rc>
    <rc><c>Fe</c><c>   1</c></rc>
    <rc><c>Fe</c><c>   1</c></rc>
    <rc><c>Fe</c><c>   1</c></rc>
    <rc><c>Fe</c><c>   1</c></rc>
    <rc><c>Fe</c><c>   1</c></rc>
    <rc><c>Fe</c><c>   1</c></rc>
    <rc><c>Fe</c><c>   1</c></rc>
    <rc><c>Fe</c><c>   1</c></rc>
    <rc><c>Fe</c><c>   1</c></rc>
    <rc><c>Fe</c><c>   1</c></rc>
    <rc><c>Fe</c><c>   1</c></rc>
    <rc><c>Fe</c><c>   1</c></rc>
    <rc><c>Fe</c><c>   1</c></rc>
    <rc><c>Fe</c><c>   1</c></rc>
    <rc><c>Fe</c><c>   1</c></rc>
    <rc><c>Fe</c><c>   1</c></rc>
    <rc><c>Fe</c><c>   1</c></rc>
    <rc><c>Fe</c><c>   1</c></rc>
    <rc><c>Fe</c><c>   1</c></rc>
    <rc><c>Fe</c><c>   1</c></rc>
    <rc><c>Fe</c><c>   1</c></rc>
    <rc><c>Fe</c><c>   1</c></rc>
    <rc><c>Fe</c><c>   1</c></rc>
    <rc><c>Fe</c><c>   1</c></rc>
    <rc><c>Fe</c><c>   1</c></rc>
    <rc><c>Fe</c><c>   1</c></rc>
    <rc><c>Fe</c><c>   1</c></rc>
    <rc><c>Fe</c><c>   1</c></rc>
    <rc><c>Fe</c><c>   1</c></rc>
    <rc><c>Fe</c><c>   1</c></rc>
    <rc><c>Fe</c><c>   1</c></rc>
    <rc><c>Fe</c><c>   1</c></rc>
    <rc><c>Fe</c><c>   1</c></rc>
    <rc><c>Fe</c><c>   1</c></rc>
    <rc><c>Fe</c><c>   1</c></rc>
    <rc><c>Fe</c><c>   1</c></rc>
    <rc><c>Fe</c><c>   1</c></rc>
    <rc><c>Fe</c><c>   1</c></rc>
    <rc><c>Fe</c><c>   1</c></rc>
    <rc><c>Fe</c><c>   1</c></rc>
    <rc><c>Fe</c><c>   1</c></rc>
    <rc><c>Fe</c><c>   1</c></rc>
    <rc><c>Fe</c><c>   1</c></rc>
    <rc><c>Fe</c><c>   1</c></rc>
    <rc><c>Fe</c><c>   1</c></rc>
    <rc><c>Fe</c><c>   1</c></rc>
    <rc><c>Fe</c><c>   1</c></rc>
    <rc><c>Fe</c><c>   1</c></rc>
    <rc><c>Fe</c><c>   1</c></rc>
    <rc><c>Fe</c><c>   1</c></rc>
    <rc><c>Fe</c><c>   1</c></rc>
    <rc><c>Fe</c><c>   1</c></rc>
    <rc><c>Fe</c><c>   1</c></rc>
    <rc><c>Fe</c><c>   1</c></rc>
    <rc><c>Fe</c><c>   1</c></rc>
    <rc><c>Fe</c><c>   1</c></rc>
    <rc><c>Fe</c><c>   1</c></rc>
    <rc><c>Fe</c><c>   1</c></rc>
    <rc><c>Fe</c><c>   1</c></rc>
    <rc><c>Fe</c><c>   1</c></rc>
    <rc><c>Fe</c><c>   1</c></rc>
    <rc><c>Fe</c><c>   1</c></rc>
    <rc><c>Fe</c><c>   1</c></rc>
    <rc><c>Fe</c><c>   1</c></rc>
    <rc><c>Fe</c><c>   1</c></rc>
    <rc><c>Fe</c><c>   1</c></rc>
    <rc><c>Fe</c><c>   1</c></rc>
    <rc><c>Fe</c><c>   1</c></rc>
    <rc><c>Fe</c><c>   1</c></rc>
    <rc><c>Fe</c><c>   1</c></rc>
    <rc><c>Fe</c><c>   1</c></rc>
    <rc><c>Fe</c><c>   1</c></rc>
    <rc><c>Fe</c><c>   1</c></rc>
    <rc><c>Fe</c><c>   1</c></rc>
    <rc><c>Fe</c><c>   1</c></rc>
    <rc><c>Fe</c><c>   1</c></rc>
    <rc><c>Fe</c><c>   1</c></rc>
    <rc><c>Fe</c><c>   1</c></rc>
    <rc><c>Fe</c><c>   1</c></rc>
    <rc><c>Fe</c><c>   1</c></rc>
    <rc><c>Fe</c><c>   1</c></rc>
    <rc><c>Fe</c><c>   1</c></rc>
    <rc><c>Fe</c><c>   1</c></rc>
    <rc><c>Fe</c><c>   1</c></rc>
    <rc><c>Fe</c><c>   1</c></rc>
    <rc><c>Fe</c><c>   1</c></rc>
    <rc><c>Fe</c><c>   1</c></rc>
    <rc><c>Fe</c><c>   1</c></rc>
    <rc><c>Fe</c><c>   1</c></rc>
    <rc><c>Fe</c><c>   1</c></rc>
    <rc><c>Fe</c><c>   1</c></rc>
    <rc><c>Fe</c><c>   1</c></rc>
    <rc><c>Mn</c><c>   2</c></rc>
    <rc><c>Mn</c><c>   2</c></rc>
    <rc><c>Mn</c><c>   2</c></rc>
    <rc><c>Mn</c><c>   2</c></rc>
    <rc><c>Mn</c><c>   2</c></rc>
    <rc><c>Mn</c><c>   2</c></rc>
    <rc><c>Mn</c><c>   2</c></rc>
    <rc><c>Mn</c><c>   2</c></rc>
    <rc><c>Mn</c><c>   2</c></rc>
    <rc><c>Mn</c><c>   2</c></rc>
    <rc><c>Mn</c><c>   2</c></rc>
    <rc><c>Mn</c><c>   2</c></rc>
    <rc><c>Mn</c><c>   2</c></rc>
    <rc><c>Mn</c><c>   2</c></rc>
    <rc><c>Mn</c><c>   2</c></rc>
   </set>
  </array>
  <array name="atomtypes" >
   <dimension dim="1">type</dimension>
   <field type="int">atomspertype</field>
   <field type="string">element</field>
   <field>mass</field>
   <field>valence</field>
   <field type="string">pseudopotential</field>
   <set>
    <rc><c> 273</c><c>Fe</c><c>     55.84700000</c><c>      8.00000000</c><c>  PAW_PBE Fe_GW 31Mar2010               </c></rc>
    <rc><c>  15</c><c>Mn</c><c>     54.93800000</c><c>      7.00000000</c><c>  PAW_PBE Mn_GW 31Mar2010               </c></rc>
   </set>
  </array>
 </atominfo>
 <structure name="initialpos" >
  <crystal>
   <varray name="basis" >
    <v>       9.72667800       0.00000000       0.00000000 </v>
    <v>       0.00000000       8.42355000       0.00000000 </v>
    <v>       0.00000000       0.00000000      45.00000000 </v>
   </varray>
   <i name="volume">   3686.99213101 </i>
   <varray name="rec_basis" >
    <v>       0.10281002       0.00000000       0.00000000 </v>
    <v>       0.00000000       0.11871479       0.00000000 </v>
    <v>       0.00000000       0.00000000       0.02222222 </v>
   </varray>
  </crystal>
  <varray name="positions" >
   <v>       0.31260773       0.20894100       0.69772332 </v>
   <v>       0.56151453       0.20898713       0.69747233 </v>
   <v>       0.93572018       0.28603672       0.25889284 </v>
   <v>       0.06287722       0.86829793       0.16973685 </v>
   <v>       0.56169893       0.86802712       0.16963114 </v>
   <v>       0.18816633       0.29075291       0.60992853 </v>
   <v>       0.43646737       0.45489400       0.47869410 </v>
   <v>       0.81186242       0.53465014       0.25897061 </v>
   <v>       0.06266391       0.87258903       0.52193696 </v>
   <v>       0.81252895       0.04248393       0.74167012 </v>
   <v>       0.43776953       0.12232627       0.52189385 </v>
   <v>       0.06230339       0.20260769       0.34646079 </v>
   <v>       0.56175039       0.71028685       0.83069554 </v>
   <v>       0.31235478       0.37734216       0.78523871 </v>
   <v>       0.81280577       0.03751457       0.39028983 </v>
   <v>       0.31209360       0.36661270       0.16975438 </v>
   <v>       0.56259848       0.54032733       0.60995976 </v>
   <v>       0.81236939       0.87063007       0.30245398 </v>
   <v>       0.93777774       0.45778195       0.69765301 </v>
   <v>       0.43749129       0.12072256       0.30253524 </v>
   <v>       0.06267609       0.04086233       0.60983685 </v>
   <v>       0.68715039       0.62319137       0.52224167 </v>
   <v>       0.81156794       0.53997727       0.60966614 </v>
   <v>       0.18815570       0.12680094       0.78562259 </v>
   <v>       0.43696865       0.95353420       0.34648802 </v>
   <v>       0.93807508       0.78601563       0.25869706 </v>
   <v>       0.93753538       0.28670565       0.39016433 </v>
   <v>       0.56161518       0.37138094       0.52216238 </v>
   <v>       0.93785687       0.78759837       0.39037607 </v>
   <v>       0.06483997       0.54092936       0.74163301 </v>
   <v>       0.56225346       0.87272096       0.52209747 </v>
   <v>       0.18840506       0.12109553       0.43503891 </v>
   <v>       0.06278627       0.53668988       0.39041347 </v>
   <v>       0.68744314       0.28490169       0.12499285 </v>
   <v>       0.93808271       0.79406558       0.87283315 </v>
   <v>       0.68665363       0.12654527       0.78597542 </v>
   <v>       0.56177578       0.04239467       0.87279802 </v>
   <v>       0.56266677       0.04070054       0.60981183 </v>
   <v>       0.31225614       0.70351750       0.34651673 </v>
   <v>       0.43771353       0.45307923       0.34638559 </v>
   <v>       0.43733063       0.28466886       0.12508811 </v>
   <v>       0.06299716       0.54584068       0.87286104 </v>
   <v>       0.81372264       0.70144737       0.21462003 </v>
   <v>       0.56084019       0.37685109       0.78571334 </v>
   <v>       0.18816742       0.45544949       0.47867799 </v>
   <v>       0.56172053       0.70157159       0.21463440 </v>
   <v>       0.93860651       0.45539575       0.47874597 </v>
   <v>       0.31226442       0.37102876       0.43483044 </v>
   <v>       0.06298782       0.70431168       0.34640256 </v>
   <v>       0.31389786       0.36968881       0.30266796 </v>
   <v>       0.56185070       0.36757493       0.16957312 </v>
   <v>       0.06324681       0.70707809       0.47876241 </v>
   <v>       0.68760246       0.79372852       0.87278584 </v>
   <v>       0.31345939       0.70751559       0.69792763 </v>
   <v>       0.43779955       0.29081992       0.60989571 </v>
   <v>       0.93800124       0.95453281       0.34644015 </v>
   <v>       0.93731905       0.45120163       0.21435563 </v>
   <v>       0.06395939       0.87177659       0.43496564 </v>
   <v>       0.68659237       0.45473408       0.47886024 </v>
   <v>       0.18736942       0.61649989       0.16967935 </v>
   <v>       0.18748714       0.62254583       0.52187575 </v>
   <v>       0.81284542       0.53347938       0.12449411 </v>
   <v>       0.18777417       0.45608309       0.56540602 </v>
   <v>       0.68680558       0.95562466       0.47906110 </v>
   <v>       0.43559412       0.79092398       0.74137074 </v>
   <v>       0.43778382       0.45561722       0.56548999 </v>
   <v>       0.93855782       0.11914660       0.16987047 </v>
   <v>       0.93805566       0.45645580       0.56534494 </v>
   <v>       0.31227537       0.71078765       0.83061702 </v>
   <v>       0.81331267       0.86838934       0.16954924 </v>
   <v>       0.81300740       0.70651559       0.47892165 </v>
   <v>       0.31242606       0.53403617       0.12496398 </v>
   <v>       0.56251659       0.20639530       0.56548862 </v>
   <v>       0.43606793       0.79312485       0.87273483 </v>
   <v>       0.06262008       0.71113768       0.83070648 </v>
   <v>       0.43575149       0.29362521       0.74134420 </v>
   <v>       0.43727050       0.78516506       0.25896211 </v>
   <v>       0.81171859       0.87465266       0.65342110 </v>
   <v>       0.81205122       0.20976445       0.69735352 </v>
   <v>       0.18965996       0.79118628       0.74165214 </v>
   <v>       0.31266628       0.20921614       0.83033270 </v>
   <v>       0.68782661       0.28626604       0.25896971 </v>
   <v>       0.31219190       0.86960184       0.30236800 </v>
   <v>       0.43850344       0.95686669       0.56545756 </v>
   <v>       0.56232101       0.70637275       0.56543397 </v>
   <v>       0.68655509       0.95879661       0.69735038 </v>
   <v>       0.18785874       0.95533111       0.47889303 </v>
   <v>       0.56305258       0.36933560       0.30232802 </v>
   <v>       0.68630881       0.62398124       0.65347762 </v>
   <v>       0.81118563       0.36919220       0.30232061 </v>
   <v>       0.31252173       0.54137298       0.74157776 </v>
   <v>       0.56104618       0.37095984       0.43467950 </v>
   <v>       0.81217310       0.53672525       0.39026661 </v>
   <v>       0.81292980       0.03493779       0.12469519 </v>
   <v>       0.56302610       0.20285952       0.21450461 </v>
   <v>       0.18752066       0.11959590       0.16986859 </v>
   <v>       0.18788952       0.28665746       0.39042618 </v>
   <v>       0.18770639       0.12217977       0.52178839 </v>
   <v>       0.06376903       0.37071367       0.43479599 </v>
   <v>       0.31131979       0.04114436       0.87286079 </v>
   <v>       0.81204283       0.54425331       0.87293767 </v>
   <v>       0.68772828       0.45058692       0.21475057 </v>
   <v>       0.68741378       0.62547826       0.78599732 </v>
   <v>       0.31205092       0.03517539       0.25893422 </v>
   <v>       0.18936444       0.29346596       0.74148800 </v>
   <v>       0.93859422       0.62605411       0.78578156 </v>
   <v>       0.18835935       0.95931821       0.69777627 </v>
   <v>       0.06440324       0.37624280       0.78539383 </v>
   <v>       0.68686633       0.12468883       0.65348969 </v>
   <v>       0.68804025       0.95296212       0.21456796 </v>
   <v>       0.56201134       0.53720156       0.39026488 </v>
   <v>       0.93906496       0.12066717       0.43487152 </v>
   <v>       0.18751607       0.95673014       0.56537586 </v>
   <v>       0.68715415       0.46029502       0.83059266 </v>
   <v>       0.31333801       0.54624842       0.87268420 </v>
   <v>       0.31237133       0.04310077       0.74147726 </v>
   <v>       0.68683994       0.45578703       0.56550317 </v>
   <v>       0.81249593       0.20207906       0.21448965 </v>
   <v>       0.68722377       0.45249027       0.34640552 </v>
   <v>       0.68679086       0.12163650       0.52214248 </v>
   <v>       0.56290134       0.20334165       0.34641468 </v>
   <v>       0.43600025       0.62477460       0.78551518 </v>
   <v>       0.55995908       0.54136713       0.74133974 </v>
   <v>       0.06255627       0.70620567       0.56538821 </v>
   <v>       0.68761625       0.95959541       0.83076914 </v>
   <v>       0.68709424       0.79024639       0.60979340 </v>
   <v>       0.81163680       0.20517633       0.56538701 </v>
   <v>       0.93704154       0.11968093       0.30263270 </v>
   <v>       0.06303940       0.03446337       0.12484354 </v>
   <v>       0.18810199       0.62516225       0.78549773 </v>
   <v>       0.68580726       0.45876161       0.69753712 </v>
   <v>       0.43762924       0.45128428       0.21438534 </v>
   <v>       0.93696464       0.79028238       0.60967126 </v>
   <v>       0.06298517       0.87508888       0.65348269 </v>
   <v>       0.06272318       0.53996211       0.60972648 </v>
   <v>       0.31213626       0.86839743       0.16954245 </v>
   <v>       0.31204943       0.70167884       0.21436989 </v>
   <v>       0.56348280       0.53346905       0.25910321 </v>
   <v>       0.43728742       0.78404077       0.12482092 </v>
   <v>       0.18819753       0.79013742       0.60977723 </v>
   <v>       0.56248548       0.70309807       0.34653068 </v>
   <v>       0.43733148       0.46187374       0.83033488 </v>
   <v>       0.93890123       0.61661004       0.16950617 </v>
   <v>       0.43719760       0.28754783       0.39040811 </v>
   <v>       0.68642515       0.62213546       0.43469130 </v>
   <v>       0.81275075       0.87164113       0.43503707 </v>
   <v>       0.18818648       0.62200668       0.43502438 </v>
   <v>       0.93788346       0.78455613       0.12474244 </v>
   <v>       0.31224184       0.87537890       0.78569682 </v>
   <v>       0.06197167       0.36924237       0.30273652 </v>
   <v>       0.31220835       0.20287113       0.34655123 </v>
   <v>       0.43638971       0.11932903       0.16973732 </v>
   <v>       0.56298069       0.86968790       0.30258381 </v>
   <v>       0.81261679       0.20314013       0.47910052 </v>
   <v>       0.31206629       0.87231950       0.43514349 </v>
   <v>       0.68595459       0.29330295       0.74143027 </v>
   <v>       0.31285202       0.54001644       0.60981238 </v>
   <v>       0.18767351       0.78467109       0.12487920 </v>
   <v>       0.18827245       0.95926051       0.83090721 </v>
   <v>       0.68731427       0.95664606       0.56530840 </v>
   <v>       0.68760583       0.11911553       0.16972520 </v>
   <v>       0.56126248       0.87160490       0.43500034 </v>
   <v>       0.93850467       0.95546065       0.47885225 </v>
   <v>       0.43750574       0.12525889       0.65353986 </v>
   <v>       0.43800138       0.61839777       0.30251565 </v>
   <v>       0.06304422       0.20951948       0.83044918 </v>
   <v>       0.06305095       0.03699649       0.39032265 </v>
   <v>       0.68743664       0.61794403       0.30240229 </v>
   <v>       0.18682329       0.78587863       0.25882924 </v>
   <v>       0.56211563       0.03469305       0.12474656 </v>
   <v>       0.31255958       0.20188530       0.21419993 </v>
   <v>       0.31307047       0.04124192       0.60989326 </v>
   <v>       0.81271551       0.04160728       0.87278171 </v>
   <v>       0.93693142       0.62404811       0.65339503 </v>
   <v>       0.18743099       0.11930303       0.30269284 </v>
   <v>       0.93760823       0.12155665       0.52207424 </v>
   <v>       0.93669599       0.95661097       0.56527427 </v>
   <v>       0.81116203       0.70774750       0.69730150 </v>
   <v>       0.56124095       0.70748385       0.69749313 </v>
   <v>       0.31274926       0.70571976       0.56509207 </v>
   <v>       0.43675483       0.12666943       0.78586165 </v>
   <v>       0.43741768       0.29492887       0.87270929 </v>
   <v>       0.56253929       0.21014446       0.83032715 </v>
   <v>       0.06363982       0.20947878       0.69764878 </v>
   <v>       0.06283389       0.53414607       0.12488927 </v>
   <v>       0.68736378       0.29029582       0.60976836 </v>
   <v>       0.93837998       0.12613857       0.78597380 </v>
   <v>       0.18812439       0.61930123       0.30243060 </v>
   <v>       0.68664106       0.78733408       0.39041418 </v>
   <v>       0.18677786       0.95234523       0.21447784 </v>
   <v>       0.18726176       0.45170216       0.21407406 </v>
   <v>       0.31276119       0.53752052       0.39049862 </v>
   <v>       0.56168006       0.20424066       0.47902052 </v>
   <v>       0.18831207       0.79467721       0.87285559 </v>
   <v>       0.81301079       0.37113018       0.43493941 </v>
   <v>       0.81261025       0.20337743       0.34645938 </v>
   <v>       0.06142641       0.53694629       0.25881394 </v>
   <v>       0.06250121       0.20666952       0.56529313 </v>
   <v>       0.56106403       0.87608107       0.78591707 </v>
   <v>       0.81249684       0.70354051       0.34631962 </v>
   <v>       0.43679851       0.62149376       0.43487982 </v>
   <v>       0.43730330       0.45769741       0.69777873 </v>
   <v>       0.06354076       0.70769746       0.69765136 </v>
   <v>       0.18719228       0.95374126       0.34660685 </v>
   <v>       0.31249868       0.20437401       0.47886626 </v>
   <v>       0.81143330       0.37407594       0.65362257 </v>
   <v>       0.06265991       0.70205514       0.21443366 </v>
   <v>       0.68777231       0.29445530       0.87271968 </v>
   <v>       0.68729808       0.78433826       0.12438334 </v>
   <v>       0.81291772       0.36704299       0.16974399 </v>
   <v>       0.06328183       0.37190657       0.52209224 </v>
   <v>       0.18818069       0.46131768       0.83037344 </v>
   <v>       0.68671887       0.79170715       0.74167782 </v>
   <v>       0.93797929       0.62349027       0.52214401 </v>
   <v>       0.06202391       0.20154334       0.21409771 </v>
   <v>       0.68732079       0.28747719       0.39007334 </v>
   <v>       0.31276744       0.53568868       0.25895708 </v>
   <v>       0.81238649       0.37593004       0.78576683 </v>
   <v>       0.56206756       0.53332334       0.12453511 </v>
   <v>       0.18841679       0.78798358       0.39049852 </v>
   <v>       0.18897052       0.45732937       0.69787949 </v>
   <v>       0.93751110       0.95901876       0.69749524 </v>
   <v>       0.81148395       0.04019010       0.60974177 </v>
   <v>       0.18792244       0.45255832       0.34626205 </v>
   <v>       0.31206099       0.03761542       0.39052447 </v>
   <v>       0.93782731       0.95266946       0.21462655 </v>
   <v>       0.56131739       0.70674076       0.47875980 </v>
   <v>       0.18792196       0.28538191       0.25887871 </v>
   <v>       0.06436661       0.04316512       0.74154644 </v>
   <v>       0.43660271       0.61706974       0.16950584 </v>
   <v>       0.81160530       0.21009988       0.83046773 </v>
   <v>       0.06176541       0.03475667       0.25885229 </v>
   <v>       0.31209223       0.03456713       0.12478085 </v>
   <v>       0.81266235       0.54152029       0.74160809 </v>
   <v>       0.93622503       0.61876425       0.30228666 </v>
   <v>       0.31324048       0.20698536       0.56536512 </v>
   <v>       0.81307899       0.03627906       0.25892593 </v>
   <v>       0.56221184       0.87469900       0.65366229 </v>
   <v>       0.06356433       0.37388949       0.65364134 </v>
   <v>       0.18879629       0.62349061       0.65341351 </v>
   <v>       0.06321102       0.36651155       0.16982805 </v>
   <v>       0.18812131       0.12551131       0.65365440 </v>
   <v>       0.81245524       0.87332402       0.52215313 </v>
   <v>       0.43733373       0.62233521       0.52194440 </v>
   <v>       0.68798680       0.12069048       0.30239810 </v>
   <v>       0.43598811       0.12120808       0.43505699 </v>
   <v>       0.43673566       0.95930297       0.83060970 </v>
   <v>       0.56072411       0.04312068       0.74140926 </v>
   <v>       0.93694148       0.29402055       0.87291947 </v>
   <v>       0.93898505       0.29338873       0.74147579 </v>
   <v>       0.81307723       0.71095715       0.83079447 </v>
   <v>       0.68665955       0.12071969       0.43487689 </v>
   <v>       0.56181308       0.37375407       0.65357790 </v>
   <v>       0.93750357       0.12513210       0.65345639 </v>
   <v>       0.31317101       0.37373285       0.65356595 </v>
   <v>       0.56154272       0.54463520       0.87261799 </v>
   <v>       0.18760409       0.28429119       0.12523545 </v>
   <v>       0.43738458       0.95238909       0.21445778 </v>
   <v>       0.06412870       0.04083356       0.87286538 </v>
   <v>       0.31306313       0.87499584       0.65362530 </v>
   <v>       0.31255522       0.87262720       0.52168269 </v>
   <v>       0.06301663       0.20390137       0.47880107 </v>
   <v>       0.68795946       0.95385854       0.34638400 </v>
   <v>       0.93755475       0.95954589       0.83088788 </v>
   <v>       0.43689214       0.78690275       0.39062068 </v>
   <v>       0.43802667       0.62362468       0.65359863 </v>
   <v>       0.93779915       0.28443019       0.12503675 </v>
   <v>       0.43686170       0.95545964       0.47888488 </v>
   <v>       0.43884251       0.28557695       0.25893411 </v>
   <v>       0.06345216       0.87581224       0.78588336 </v>
   <v>       0.31269376       0.37250278       0.52198869 </v>
   <v>       0.18762210       0.29378117       0.87274797 </v>
   <v>       0.43746169       0.95845787       0.69763126 </v>
   <v>       0.93712931       0.45228131       0.34636080 </v>
   <v>       0.93867529       0.79167563       0.74171331 </v>
   <v>       0.06252914       0.87087976       0.30245689 </v>
   <v>       0.81293192       0.87575103       0.78597725 </v>
   <v>       0.81209519       0.70651773       0.56549800 </v>
   <v>       0.93907951       0.62207348       0.43488558 </v>
   <v>       0.56191387       0.03750632       0.39036347 </v>
   <v>       0.31223573       0.70656973       0.47895956 </v>
   <v>       0.93719796       0.46126917       0.83098652 </v>
   <v>       0.43801756       0.79034081       0.61003671 </v>
   <v>       0.56281075       0.03756947       0.25907420 </v>
   <v>       0.68876604       0.78372199       0.25918221 </v>
   <v>       0.93659326       0.29054491       0.60994562 </v>
   <v>       0.68738311       0.61683356       0.16934912 </v>
   <v>       0.81239684       0.37180748       0.52227429 </v>
  </varray>
 </structure>
 <calculation>
  <scstep>
   <time name="dav">  145.81  145.81</time>
   <time name="total">  146.26  146.26</time>
   <energy>
    <i name="alphaZ">  16277.55763135 </i>
    <i name="ewald"> 774737.69217197 </i>
    <i name="hartreedc">-965007.58869478 </i>
    <i name="XCdc">  -6526.10063671 </i>
    <i name="pawpsdc"> 162148.49262465 </i>
    <i name="pawaedc">-159453.03229289 </i>
    <i name="eentropy">     -0.96911940 </i>
    <i name="bandstr">  39742.25427756 </i>
    <i name="atom"> 168497.18126305 </i>
    <i name="e_fr_energy">  30415.48722480 </i>
    <i name="e_wo_entrp">  30416.45634420 </i>
    <i name="e_0_energy">  30415.97178450 </i>
   </energy>
  </scstep>
  <scstep>
   <time name="dav">  141.52  141.52</time>
   <time name="total">  141.53  141.52</time>
   <energy>
    <i name="e_fr_energy">   1527.41061831 </i>
    <i name="e_wo_entrp">   1528.78523038 </i>
    <i name="e_0_energy">   1528.09792434 </i>
   </energy>
  </scstep>
  <scstep>
   <time name="dav">  176.27  176.27</time>
   <time name="total">  176.28  176.28</time>
   <energy>
    <i name="e_fr_energy">  -1899.80862539 </i>
    <i name="e_wo_entrp">  -1896.27672297 </i>
    <i name="e_0_energy">  -1898.04267418 </i>
   </energy>
  </scstep>
  <scstep>
   <time name="dav">  216.31  216.30</time>
   <time name="total">  216.31  216.31</time>
   <energy>
    <i name="e_fr_energy">  -2611.71112158 </i>
    <i name="e_wo_entrp">  -2608.25452457 </i>
    <i name="e_0_energy">  -2609.98282308 </i>
   </energy>
  </scstep>
  <scstep>
   <time name="dav">  208.14  208.13</time>
   <time name="total">  212.82  212.82</time>
   <energy>
    <i name="e_fr_energy">  -2741.48294659 </i>
    <i name="e_wo_entrp">  -2737.90796253 </i>
    <i name="e_0_energy">  -2739.69545456 </i>
   </energy>
  </scstep>
  <scstep>
   <time name="diag">   29.67   29.67</time>
   <time name="diis">   76.63   76.63</time>
   <time name="orth">    8.76    8.76</time>
   <time name="total">  120.14  120.14</time>
   <energy>
    <i name="e_fr_energy">  -8807.54205872 </i>
    <i name="e_wo_entrp">  -8804.21213840 </i>
    <i name="e_0_energy">  -8805.87709856 </i>
   </energy>
  </scstep>
  <scstep>
   <time name="diag">   28.79   28.79</time>
   <time name="diis">   78.35   78.34</time>
   <time name="orth">    8.76    8.76</time>
   <time name="total">  120.75  120.74</time>
   <energy>
    <i name="e_fr_energy"> -12379.75156938 </i>
    <i name="e_wo_entrp"> -12377.01046578 </i>
    <i name="e_0_energy"> -12378.38101758 </i>
   </energy>
  </scstep>
  <scstep>
[...]
   <v>      -0.00029211       0.00264240      -0.00601383 </v>
   <v>      -0.00212880      -0.00385741       0.01617143 </v>
   <v>      -0.00128925      -0.00297774       0.00461915 </v>
   <v>       0.00238670       0.00121299       0.00768173 </v>
   <v>       0.00079203      -0.00202856       0.00467303 </v>
   <v>       0.00014737       0.00237679       0.00538458 </v>
   <v>      -0.00009445      -0.00028785       0.00857393 </v>
   <v>      -0.00018030       0.00057237      -0.00518944 </v>
   <v>      -0.00313248      -0.00785287       0.00426496 </v>
   <v>       0.00086391       0.00294559      -0.00847095 </v>
   <v>       0.00060517      -0.00526469       0.00466907 </v>
   <v>       0.00056065       0.00555474      -0.02683283 </v>
   <v>       0.00065236       0.00380243      -0.00667556 </v>
   <v>       0.00832819      -0.01133695      -0.01857217 </v>
   <v>      -0.00209494      -0.00080628      -0.00252797 </v>
   <v>       0.00057223       0.00269321       0.00707177 </v>
   <v>      -0.00127890      -0.00346258      -0.00485206 </v>
   <v>      -0.00043073       0.00683721      -0.01265605 </v>
   <v>       0.01370325      -0.00202886      -0.01451611 </v>
   <v>       0.00180038      -0.00263933       0.01556679 </v>
   <v>      -0.00118901       0.00095900       0.00461457 </v>
   <v>       0.00113566       0.00160257       0.00137308 </v>
   <v>      -0.00195041       0.00009901       0.00569573 </v>
   <v>      -0.00169525       0.00192335      -0.00975922 </v>
   <v>       0.00143497      -0.00014306      -0.00475701 </v>
   <v>      -0.00933959      -0.00781082      -0.01604727 </v>
   <v>      -0.00132709       0.00176230      -0.01976162 </v>
   <v>      -0.01192132       0.00839026      -0.01246986 </v>
   <v>      -0.00264500      -0.00100022      -0.00591460 </v>
   <v>       0.00032360      -0.00200593      -0.00399951 </v>
   <v>      -0.00136432       0.00972638      -0.01265959 </v>
   <v>      -0.00176708       0.00233433       0.00523384 </v>
   <v>       0.00367075      -0.00064249      -0.00680761 </v>
   <v>       0.00015923       0.00349206      -0.00977825 </v>
   <v>      -0.00387646      -0.00101727      -0.01153577 </v>
   <v>       0.00196067      -0.00522288       0.00524814 </v>
   <v>       0.00286862      -0.00003828      -0.01508902 </v>
   <v>       0.00404640       0.01173369      -0.01030176 </v>
   <v>       0.00024560       0.00170842      -0.00394085 </v>
   <v>       0.00123988       0.00237757      -0.01050073 </v>
   <v>       0.00435342      -0.00321398       0.01124588 </v>
   <v>      -0.00005890      -0.00761719       0.00355393 </v>
   <v>       0.00276875      -0.00635495       0.00529634 </v>
   <v>       0.00302221       0.00524418       0.01109319 </v>
   <v>      -0.00229495      -0.00251924       0.00644385 </v>
   <v>      -0.00326015      -0.00237336       0.00897547 </v>
   <v>      -0.00069427       0.00297999       0.00218726 </v>
   <v>      -0.00158934       0.00027191       0.00839557 </v>
   <v>       0.00255224      -0.00290643       0.01098863 </v>
   <v>       0.00264463       0.00454415      -0.00210601 </v>
   <v>       0.00112344      -0.00187138      -0.00826644 </v>
   <v>       0.00333985      -0.00463075      -0.00704753 </v>
   <v>      -0.00152373      -0.00034232       0.00847065 </v>
   <v>       0.00004845      -0.00607422      -0.00773294 </v>
   <v>      -0.00003679      -0.00479484      -0.00326473 </v>
   <v>      -0.00183984       0.00119990       0.00353473 </v>
   <v>       0.00085924      -0.00059533      -0.00321209 </v>
   <v>       0.00214501       0.00139999       0.00724068 </v>
   <v>      -0.00149198      -0.00007658      -0.00206212 </v>
   <v>      -0.00205978       0.00046935       0.00889111 </v>
   <v>      -0.00114180       0.00280621      -0.00755114 </v>
   <v>      -0.00109380       0.00553057      -0.00873167 </v>
   <v>       0.00032210       0.00548076      -0.00541697 </v>
   <v>       0.00132083       0.00058442       0.01438289 </v>
   <v>       0.01091477       0.00000453      -0.00693683 </v>
   <v>       0.00176183      -0.00002612      -0.00066883 </v>
   <v>       0.00195332       0.00258142       0.00562200 </v>
   <v>       0.00101891      -0.00703363       0.01017992 </v>
   <v>      -0.00009134       0.00503427      -0.00962858 </v>
   <v>      -0.00089449      -0.00306797       0.00634086 </v>
   <v>       0.00047000       0.00512093       0.01006517 </v>
   <v>       0.00187367      -0.00851239       0.01039160 </v>
   <v>      -0.00092534      -0.00562326       0.00591800 </v>
   <v>       0.00161607      -0.00362437       0.01017427 </v>
   <v>       0.00178184      -0.00799408       0.00485108 </v>
   <v>      -0.00264761      -0.00430604       0.00945199 </v>
   <v>       0.00086740       0.00156832      -0.00849186 </v>
   <v>      -0.00025341       0.00195129       0.01405494 </v>
   <v>       0.00233112       0.00272298       0.00122899 </v>
   <v>      -0.00013390      -0.00058476      -0.00828058 </v>
   <v>       0.00183865      -0.00681911       0.00579392 </v>
   <v>      -0.00025620      -0.00899567       0.00357616 </v>
   <v>       0.00014628      -0.00500186       0.00661432 </v>
   <v>      -0.00003888       0.00187380      -0.01286535 </v>
   <v>       0.00351616       0.00417127      -0.00752966 </v>
   <v>       0.00025576       0.00151845       0.00438763 </v>
   <v>      -0.01525022       0.00269474      -0.01461723 </v>
   <v>      -0.00001385      -0.00239953       0.00508719 </v>
   <v>       0.00117044      -0.00332603       0.00250922 </v>
   <v>      -0.00084862       0.00139060       0.00793084 </v>
   <v>      -0.00220964      -0.00102248      -0.00988322 </v>
   <v>      -0.00283111       0.00134323       0.00423786 </v>
   <v>       0.00016818      -0.00189962       0.00294661 </v>
   <v>       0.00153221       0.00422946      -0.00459301 </v>
   <v>      -0.00302888       0.00226644      -0.00190158 </v>
   <v>      -0.00007184       0.00263349      -0.00673597 </v>
   <v>       0.00105018      -0.00630176       0.00332513 </v>
   <v>      -0.00228867      -0.00014845       0.00575322 </v>
   <v>       0.00242884       0.00360520      -0.01120385 </v>
   <v>      -0.00267604      -0.00239203       0.00191012 </v>
   <v>       0.00211635      -0.00347814       0.00797885 </v>
   <v>      -0.00034542      -0.00206588       0.00444948 </v>
   <v>      -0.00055541       0.00110420      -0.01736116 </v>
   <v>       0.00104080       0.00219613      -0.01507161 </v>
   <v>       0.00205091       0.00293647       0.00853600 </v>
   <v>       0.00294789       0.00195328      -0.00651990 </v>
   <v>       0.00142736      -0.00156942       0.00598824 </v>
   <v>       0.00119600       0.00396183       0.00435358 </v>
   <v>      -0.00224630      -0.00715116       0.00874373 </v>
   <v>      -0.00137637       0.00108450      -0.01938597 </v>
   <v>      -0.00100175      -0.00070271       0.01316830 </v>
   <v>      -0.00015363      -0.00038473      -0.00520143 </v>
   <v>       0.00094576      -0.00155352      -0.00273294 </v>
   <v>       0.00010278      -0.00275676       0.00004628 </v>
   <v>      -0.00184028      -0.00009130      -0.00407878 </v>
   <v>       0.00242700      -0.00042556       0.00116354 </v>
   <v>      -0.00047664      -0.00145005      -0.00540287 </v>
   <v>       0.00493099      -0.00417869       0.00500066 </v>
   <v>      -0.00045485       0.00510589      -0.01418537 </v>
   <v>       0.00148845       0.00408881       0.00271894 </v>
   <v>       0.00340282       0.00048345      -0.02232632 </v>
   <v>      -0.00253753       0.00105466      -0.00215412 </v>
   <v>      -0.00157931      -0.00550710       0.00398384 </v>
   <v>       0.00225273      -0.00062700       0.00615208 </v>
   <v>       0.00103526       0.00223995      -0.00519474 </v>
   <v>       0.00157011       0.00476437       0.00611027 </v>
   <v>       0.00054283      -0.00162200      -0.00529607 </v>
   <v>       0.00048140       0.00285994      -0.01461745 </v>
   <v>      -0.00108234       0.00287023      -0.00320655 </v>
   <v>      -0.00649112       0.00853133      -0.01506189 </v>
   <v>       0.00154727      -0.00235290       0.00699450 </v>
   <v>       0.00100710       0.00354597      -0.00290650 </v>
   <v>       0.00337995       0.00113999       0.01089498 </v>
   <v>       0.00234881      -0.00041073       0.01417664 </v>
   <v>       0.00124720       0.00341038       0.00127399 </v>
   <v>       0.00232266       0.00212972       0.01024995 </v>
   <v>       0.00032917       0.00143427      -0.00892110 </v>
   <v>      -0.00266036       0.00407156      -0.00773125 </v>
   <v>       0.00057536      -0.00327674       0.00217787 </v>
   <v>      -0.00239578       0.00230035       0.01270508 </v>
   <v>       0.00103456       0.00147990       0.00604977 </v>
   <v>       0.00111772       0.00258616      -0.00334649 </v>
   <v>       0.00673435       0.00346212      -0.01163093 </v>
   <v>      -0.00222932      -0.00061384      -0.00669981 </v>
   <v>       0.00003982       0.00208559       0.00581188 </v>
   <v>      -0.00091332       0.00085815       0.00543222 </v>
   <v>       0.00199111      -0.00016835      -0.00350281 </v>
   <v>      -0.00152448      -0.00330485       0.00403376 </v>
   <v>       0.00120050      -0.00417196       0.00069854 </v>
   <v>      -0.00268722      -0.00246955       0.00647163 </v>
   <v>       0.00000213      -0.00199598       0.00614943 </v>
   <v>       0.00063285       0.00219984      -0.00352800 </v>
   <v>       0.00045779       0.00223887       0.00161737 </v>
   <v>       0.00117725      -0.00295875       0.00672454 </v>
   <v>      -0.00081650       0.00261776      -0.00144883 </v>
   <v>       0.00055071      -0.00220598       0.00538270 </v>
   <v>      -0.00171978       0.00447255      -0.00905334 </v>
   <v>      -0.00009275       0.00085990      -0.00943576 </v>
   <v>      -0.00077128      -0.00167989       0.01439631 </v>
   <v>       0.01478734      -0.00749612      -0.01384308 </v>
   <v>      -0.00109485      -0.00238434       0.01423415 </v>
   <v>       0.00221749      -0.00020096      -0.00417452 </v>
   <v>      -0.00340619      -0.00069346       0.00230278 </v>
   <v>      -0.00164662      -0.00060305       0.00881736 </v>
   <v>      -0.00249918       0.00099332      -0.00822385 </v>
   <v>      -0.00029502      -0.00007981       0.00462545 </v>
   <v>      -0.00125784       0.00289460       0.00264664 </v>
   <v>      -0.00115919      -0.00510886       0.00314607 </v>
   <v>       0.00106061       0.00023172       0.00467602 </v>
   <v>       0.00108264       0.00151891       0.00481462 </v>
   <v>       0.00116274       0.00052252       0.00759555 </v>
   <v>      -0.00679109       0.00785858      -0.00953820 </v>
   <v>      -0.00152609       0.00287795       0.00401721 </v>
   <v>      -0.00194459       0.00166865      -0.01281401 </v>
   <v>       0.00218435      -0.00494790       0.00749136 </v>
   <v>      -0.00195358       0.00008446      -0.00778844 </v>
   <v>      -0.00136835       0.00678761      -0.01207373 </v>
   <v>      -0.00907242      -0.00064314      -0.00693543 </v>
   <v>      -0.00235824      -0.01014366       0.00904763 </v>
   <v>       0.00102462       0.00199584       0.00595289 </v>
   <v>      -0.00820405       0.00111563      -0.00264457 </v>
   <v>       0.00012764       0.00448494      -0.00668512 </v>
   <v>      -0.00176632       0.00353572       0.01204836 </v>
   <v>      -0.00134653       0.00078077       0.00801608 </v>
   <v>       0.00074105      -0.00513571       0.00651184 </v>
   <v>       0.00124014      -0.00278003      -0.00508187 </v>
   <v>      -0.00145802      -0.00102497       0.01103508 </v>
   <v>       0.00116147       0.00249863       0.00190318 </v>
   <v>      -0.00076514      -0.00355480       0.00850060 </v>
   <v>      -0.00072297      -0.00137365       0.00215011 </v>
   <v>      -0.00024210       0.00227858       0.00658234 </v>
   <v>      -0.00257078      -0.00166001       0.01118778 </v>
   <v>       0.00093572       0.00455706      -0.00794174 </v>
   <v>      -0.01591583      -0.00793559      -0.01954924 </v>
   <v>      -0.00192007       0.00131188       0.00798724 </v>
   <v>       0.00065826      -0.00795692       0.00636959 </v>
   <v>       0.00125483       0.00172059      -0.01475904 </v>
   <v>       0.00029265       0.00094738       0.00915391 </v>
   <v>      -0.00160758       0.00824884       0.00728952 </v>
   <v>       0.00125198       0.00380407      -0.00712396 </v>
   <v>      -0.00147087       0.00126794       0.00619680 </v>
   <v>      -0.00127331       0.00341809      -0.00117339 </v>
   <v>      -0.00030637       0.00102443      -0.01203447 </v>
   <v>      -0.00064483       0.00350721       0.01374327 </v>
   <v>       0.00011271      -0.00145516       0.00557207 </v>
   <v>       0.00106439       0.00362620       0.00148392 </v>
   <v>       0.00182497       0.00147480       0.00475512 </v>
   <v>       0.00056269       0.00565792      -0.00917670 </v>
   <v>       0.00254571      -0.00187987       0.00490839 </v>
   <v>       0.00433551      -0.01334711      -0.01164228 </v>
   <v>       0.01378856      -0.00053189      -0.01144477 </v>
   <v>      -0.00062091      -0.00112640      -0.00241855 </v>
   <v>      -0.00097362      -0.00002421      -0.00655754 </v>
   <v>       0.00182280       0.00165381       0.00653366 </v>
   <v>      -0.00043952      -0.00267225       0.00550531 </v>
   <v>      -0.00163395      -0.00331974       0.00251918 </v>
   <v>      -0.00154286      -0.00464786       0.00753158 </v>
   <v>      -0.00211880      -0.00548172       0.00346281 </v>
   <v>       0.00130852       0.00087184       0.00145237 </v>
   <v>       0.00013945       0.00238654       0.00687128 </v>
   <v>      -0.00168197      -0.00302798       0.00580579 </v>
   <v>       0.00004584       0.00465890       0.00463886 </v>
   <v>       0.00194235      -0.00839124       0.00924427 </v>
   <v>       0.00008789       0.00200893      -0.00431461 </v>
   <v>      -0.00043361       0.00272237      -0.00832231 </v>
   <v>      -0.00210004       0.00426970       0.01251743 </v>
   <v>       0.00090520      -0.00292898       0.00397314 </v>
   <v>      -0.00689077       0.01016210      -0.01009357 </v>
   <v>      -0.01185384       0.00279400      -0.01908669 </v>
   <v>      -0.00054075       0.00236074       0.00615333 </v>
   <v>       0.00017086       0.00276322       0.00595520 </v>
   <v>      -0.00247198      -0.00162993       0.00907496 </v>
   <v>      -0.00191086       0.00076182       0.00307248 </v>
   <v>       0.00049078       0.00070599      -0.00485299 </v>
   <v>       0.00825579      -0.00413911      -0.00885280 </v>
   <v>      -0.00198509      -0.00212200       0.01130735 </v>
   <v>       0.00106133      -0.00058541       0.00401309 </v>
   <v>       0.00105876      -0.01963590      -0.00590635 </v>
   <v>      -0.00382692      -0.00347458      -0.00346363 </v>
   <v>      -0.00055318      -0.00055306       0.00647299 </v>
   <v>      -0.00062941       0.00261180       0.00282157 </v>
   <v>       0.00190149       0.00310381       0.00459688 </v>
   <v>      -0.00186128       0.00555123       0.00100476 </v>
   <v>      -0.00083169      -0.00053671       0.00524411 </v>
   <v>      -0.00300678      -0.00153382      -0.01074099 </v>
   <v>       0.00185151      -0.00078321      -0.00561532 </v>
   <v>      -0.00136235       0.00311992       0.00965004 </v>
   <v>       0.00011390      -0.00566799      -0.01703781 </v>
   <v>       0.00168177      -0.00829525       0.01024300 </v>
   <v>       0.00215503      -0.00270157       0.00431213 </v>
   <v>       0.00096567      -0.00075855       0.01113634 </v>
   <v>      -0.00119268       0.00453600       0.00827661 </v>
   <v>      -0.00055579       0.00179041       0.00071564 </v>
   <v>      -0.00079212       0.00084306      -0.01912739 </v>
   <v>      -0.00085678       0.00726204      -0.00659907 </v>
  </varray>
  <varray name="stress" >
   <v>      -0.44596505       0.03024853       0.02849584 </v>
   <v>       0.03024855       0.90418454      -2.18671005 </v>
   <v>       0.02849621      -2.18670937      -0.63633782 </v>
  </varray>
  <energy>
   <i name="e_fr_energy">  -2326.03900916 </i>
   <i name="e_wo_entrp">  -2323.28614456 </i>
   <i name="e_0_energy">     -5.50572920 </i>
  </energy>
  <time name="totalsc"> 1725.42 1725.40</time>
 </calculation>
 <calculation>
  <scstep>
   <time name="dav">  135.03  135.03</time>
   <time name="total">  140.48  140.47</time>
   <energy>
    <i name="alphaZ">  16277.55763135 </i>
    <i name="ewald"> 771539.59155091 </i>
    <i name="hartreedc">-958650.37245454 </i>
    <i name="XCdc">  -6671.29313545 </i>
    <i name="pawpsdc"> 201615.23841463 </i>
    <i name="pawaedc">-199176.65770876 </i>
    <i name="eentropy">     -5.50630527 </i>
    <i name="bandstr">   4248.22196741 </i>
    <i name="atom"> 168497.18126305 </i>
    <i name="e_fr_energy">  -2326.03877668 </i>
    <i name="e_wo_entrp">  -2320.53247141 </i>
    <i name="e_0_energy">  -2323.28562404 </i>
   </energy>
  </scstep>
  <scstep>
   <time name="diag">   30.00   30.00</time>
   <time name="diis">   48.55   48.55</time>
   <time name="orth">    8.82    8.82</time>
   <time name="total">   92.76   92.76</time>
   <energy>
    <i name="e_fr_energy">  -2327.18757255 </i>
    <i name="e_wo_entrp">  -2321.65224252 </i>
    <i name="e_0_energy">  -2324.41990754 </i>
   </energy>
  </scstep>
  <scstep>
   <time name="diag">   30.05   30.05</time>
   <time name="diis">   49.96   49.96</time>
   <time name="orth">    8.66    8.66</time>
   <time name="total">   94.16   94.16</time>
   <energy>
    <i name="e_fr_energy">  -2326.34385198 </i>
    <i name="e_wo_entrp">  -2320.83912622 </i>
    <i name="e_0_energy">  -2323.59148910 </i>
   </energy>
  </scstep>
  <scstep>
   <time name="diag">   30.71   30.71</time>
   <time name="diis">   45.48   45.48</time>
   <time name="orth">    9.11    9.11</time>
   <time name="total">   90.69   90.68</time>
   <energy>
    <i name="e_fr_energy">  -2326.21712494 </i>
    <i name="e_wo_entrp">  -2320.71142608 </i>
    <i name="e_0_energy">  -2323.46427551 </i>
   </energy>
  </scstep>
  <scstep>
   <time name="diag">   28.87   28.86</time>
   <time name="diis">   47.06   47.06</time>
   <time name="orth">    9.68    9.68</time>
   <time name="total">   90.98   90.98</time>
   <energy>
    <i name="e_fr_energy">  -2326.12867052 </i>
    <i name="e_wo_entrp">  -2320.62399944 </i>
    <i name="e_0_energy">  -2323.37633498 </i>
   </energy>
  </scstep>
  <scstep>
   <time name="diag">   29.58   29.58</time>
   <time name="diis">   44.78   44.78</time>
   <time name="orth">    8.65    8.65</time>
   <time name="total">   88.48   88.47</time>
   <energy>
    <i name="e_fr_energy">  -2326.07060860 </i>
    <i name="e_wo_entrp">  -2320.55998371 </i>
    <i name="e_0_energy">  -2323.31529616 </i>
   </energy>
  </scstep>
  <scstep>
   <time name="diag">   29.77   29.77</time>
   <time name="diis">   50.46   50.46</time>
   <time name="orth">    8.65    8.65</time>
   <time name="total">   94.31   94.31</time>
   <energy>
    <i name="e_fr_energy">  -2326.13943388 </i>
    <i name="e_wo_entrp">  -2320.65999249 </i>
    <i name="e_0_energy">  -2323.39971318 </i>
   </energy>
  </scstep>
  <scstep>
   <time name="diag">   30.02   30.02</time>
   <time name="diis">   44.64   44.64</time>
   <time name="orth">    8.72    8.72</time>
   <time name="total">   88.81   88.81</time>
   <energy>
    <i name="e_fr_energy">  -2326.06508719 </i>
    <i name="e_wo_entrp">  -2320.54889328 </i>
    <i name="e_0_energy">  -2323.30699024 </i>
   </energy>
  </scstep>
  <scstep>
   <time name="diag">   29.83   29.83</time>
   <time name="diis">   45.56   45.56</time>
   <time name="orth">    8.77    8.77</time