unknown system                          
            1
     9.726678    0.000000    0.000000
     0.000000    8.423550    0.000000
     0.000000    0.000000   45.000000
   Fe   Mn
 273  15
Direct configuration=     1
   0.31260773  0.20894100  0.69772332
   0.56151453  0.20898713  0.69747233
   0.93572018  0.28603672  0.25889284
   0.06287722  0.86829793  0.16973685
   0.56169893  0.86802712  0.16963114
   0.18816633  0.29075291  0.60992853
   0.43646737  0.45489400  0.47869410
   0.81186242  0.53465014  0.25897061
   0.06266391  0.87258903  0.52193696
   0.81252895  0.04248393  0.74167012
   0.43776953  0.12232627  0.52189385
   0.06230339  0.20260769  0.34646079
   0.56175039  0.71028685  0.83069554
   0.31235478  0.37734216  0.78523871
   0.81280577  0.03751457  0.39028983
   0.31209360  0.36661270  0.16975438
   0.56259848  0.54032733  0.60995976
   0.81236939  0.87063007  0.30245398
   0.93777774  0.45778195  0.69765301
   0.43749129  0.12072256  0.30253524
   0.06267609  0.04086233  0.60983685
   0.68715039  0.62319137  0.52224167
   0.81156794  0.53997727  0.60966614
   0.18815570  0.12680094  0.78562259
   0.43696865  0.95353420  0.34648802
   0.93807508  0.78601563  0.25869706
   0.93753538  0.28670565  0.39016433
   0.56161518  0.37138094  0.52216238
   0.93785687  0.78759837  0.39037607
   0.06483997  0.54092936  0.74163301
   0.56225346  0.87272096  0.52209747
   0.18840506  0.12109553  0.43503891
   0.06278627  0.53668988  0.39041347
   0.68744314  0.28490169  0.12499285
   0.93808271  0.79406558  0.87283315
   0.68665363  0.12654527  0.78597542
   0.56177578  0.04239467  0.87279802
   0.56266677  0.04070054  0.60981183
   0.31225614  0.70351750  0.34651673
   0.43771353  0.45307923  0.34638559
   0.43733063  0.28466886  0.12508811
   0.06299716  0.54584068  0.87286104
   0.81372264  0.70144737  0.21462003
   0.56084019  0.37685109  0.78571334
   0.18816742  0.45544949  0.47867799
   0.56172053  0.70157159  0.21463440
   0.93860651  0.45539575  0.47874597
   0.31226442  0.37102876  0.43483044
   0.06298782  0.70431168  0.34640256
   0.31389786  0.36968881  0.30266796
   0.56185070  0.36757493  0.16957312
   0.06324681  0.70707809  0.47876241
   0.68760246  0.79372852  0.87278584
   0.31345939  0.70751559  0.69792763
   0.43779955  0.29081992  0.60989571
   0.93800124  0.95453281  0.34644015
   0.93731905  0.45120163  0.21435563
   0.06395939  0.87177659  0.43496564
   0.68659237  0.45473408  0.47886024
   0.18736942  0.61649989  0.16967935
   0.18748714  0.62254583  0.52187575
   0.81284542  0.53347938  0.12449411
   0.18777417  0.45608309  0.56540602
   0.68680558  0.95562466  0.47906110
   0.43559412  0.79092398  0.74137074
   0.43778382  0.45561722  0.56548999
   0.93855782  0.11914660  0.16987047
   0.93805566  0.45645580  0.56534494
   0.31227537  0.71078765  0.83061702
   0.81331267  0.86838934  0.16954924
   0.81300740  0.70651559  0.47892165
   0.31242606  0.53403617  0.12496398
   0.56251659  0.20639530  0.56548862
   0.43606793  0.79312485  0.87273483
   0.06262008  0.71113768  0.83070648
   0.43575149  0.29362521  0.74134420
   0.43727050  0.78516506  0.25896211
   0.81171859  0.87465266  0.65342110
   0.81205122  0.20976445  0.69735352
   0.18965996  0.79118628  0.74165214
   0.31266628  0.20921614  0.83033270
   0.68782661  0.28626604  0.25896971
   0.31219190  0.86960184  0.30236800
   0.43850344  0.95686669  0.56545756
   0.56232101  0.70637275  0.56543397
   0.68655509  0.95879661  0.69735038
   0.18785874  0.95533111  0.47889303
   0.56305258  0.36933560  0.30232802
   0.68630881  0.62398124  0.65347762
   0.81118563  0.36919220  0.30232061
   0.31252173  0.54137298  0.74157776
   0.56104618  0.37095984  0.43467950
   0.81217310  0.53672525  0.39026661
   0.81292980  0.03493779  0.12469519
   0.56302610  0.20285952  0.21450461
   0.18752066  0.11959590  0.16986859
   0.18788952  0.28665746  0.39042618
   0.18770639  0.12217977  0.52178839
   0.06376903  0.37071367  0.43479599
   0.31131979  0.04114436  0.87286079
   0.81204283  0.54425331  0.87293767
   0.68772828  0.45058692  0.21475057
   0.68741378  0.62547826  0.78599732
   0.31205092  0.03517539  0.25893422
   0.18936444  0.29346596  0.74148800
   0.93859422  0.62605411  0.78578156
   0.18835935  0.95931821  0.69777627
   0.06440324  0.37624280  0.78539383
   0.68686633  0.12468883  0.65348969
   0.68804025  0.95296212  0.21456796
   0.56201134  0.53720156  0.39026488
   0.93906496  0.12066717  0.43487152
   0.18751607  0.95673014  0.56537586
   0.68715415  0.46029502  0.83059266
   0.31333801  0.54624842  0.87268420
   0.31237133  0.04310077  0.74147726
   0.68683994  0.45578703  0.56550317
   0.81249593  0.20207906  0.21448965
   0.68722377  0.45249027  0.34640552
   0.68679086  0.12163650  0.52214248
   0.56290134  0.20334165  0.34641468
   0.43600025  0.62477460  0.78551518
   0.55995908  0.54136713  0.74133974
   0.06255627  0.70620567  0.56538821
   0.68761625  0.95959541  0.83076914
   0.68709424  0.79024639  0.60979340
   0.81163680  0.20517633  0.56538701
   0.93704154  0.11968093  0.30263270
   0.06303940  0.03446337  0.12484354
   0.18810199  0.62516225  0.78549773
   0.68580726  0.45876161  0.69753712
   0.43762924  0.45128428  0.21438534
   0.93696464  0.79028238  0.60967126
   0.06298517  0.87508888  0.65348269
   0.06272318  0.53996211  0.60972648
   0.31213626  0.86839743  0.16954245
   0.31204943  0.70167884  0.21436989
   0.56348280  0.53346905  0.25910321
   0.43728742  0.78404077  0.12482092
   0.18819753  0.79013742  0.60977723
   0.56248548  0.70309807  0.34653068
   0.43733148  0.46187374  0.83033488
   0.93890123  0.61661004  0.16950617
   0.43719760  0.28754783  0.39040811
   0.68642515  0.62213546  0.43469130
   0.81275075  0.87164113  0.43503707
   0.18818648  0.62200668  0.43502438
   0.93788346  0.78455613  0.12474244
   0.31224184  0.87537890  0.78569682
   0.06197167  0.36924237  0.30273652
   0.31220835  0.20287113  0.34655123
   0.43638971  0.11932903  0.16973732
   0.56298069  0.86968790  0.30258381
   0.81261679  0.20314013  0.47910052
   0.31206629  0.87231950  0.43514349
   0.68595459  0.29330295  0.74143027
   0.31285202  0.54001644  0.60981238
   0.18767351  0.78467109  0.12487920
   0.18827245  0.95926051  0.83090721
   0.68731427  0.95664606  0.56530840
   0.68760583  0.11911553  0.16972520
   0.56126248  0.87160490  0.43500034
   0.93850467  0.95546065  0.47885225
   0.43750574  0.12525889  0.65353986
   0.43800138  0.61839777  0.30251565
   0.06304422  0.20951948  0.83044918
   0.06305095  0.03699649  0.39032265
   0.68743664  0.61794403  0.30240229
   0.18682329  0.78587863  0.25882924
   0.56211563  0.03469305  0.12474656
   0.31255958  0.20188530  0.21419993
   0.31307047  0.04124192  0.60989326
   0.81271551  0.04160728  0.87278171
   0.93693142  0.62404811  0.65339503
   0.18743099  0.11930303  0.30269284
   0.93760823  0.12155665  0.52207424
   0.93669599  0.95661097  0.56527427
   0.81116203  0.70774750  0.69730150
   0.56124095  0.70748385  0.69749313
   0.31274926  0.70571976  0.56509207
   0.43675483  0.12666943  0.78586165
   0.43741768  0.29492887  0.87270929
   0.56253929  0.21014446  0.83032715
   0.06363982  0.20947878  0.69764878
   0.06283389  0.53414607  0.12488927
   0.68736378  0.29029582  0.60976836
   0.93837998  0.12613857  0.78597380
   0.18812439  0.61930123  0.30243060
   0.68664106  0.78733408  0.39041418
   0.18677786  0.95234523  0.21447784
   0.18726176  0.45170216  0.21407406
   0.31276119  0.53752052  0.39049862
   0.56168006  0.20424066  0.47902052
   0.18831207  0.79467721  0.87285559
   0.81301079  0.37113018  0.43493941
   0.81261025  0.20337743  0.34645938
   0.06142641  0.53694629  0.25881394
   0.06250121  0.20666952  0.56529313
   0.56106403  0.87608107  0.78591707
   0.81249684  0.70354051  0.34631962
   0.43679851  0.62149376  0.43487982
   0.43730330  0.45769741  0.69777873
   0.06354076  0.70769746  0.69765136
   0.18719228  0.95374126  0.34660685
   0.31249868  0.20437401  0.47886626
   0.81143330  0.37407594  0.65362257
   0.06265991  0.70205514  0.21443366
   0.68777231  0.29445530  0.87271968
   0.68729808  0.78433826  0.12438334
   0.81291772  0.36704299  0.16974399
   0.06328183  0.37190657  0.52209224
   0.18818069  0.46131768  0.83037344
   0.68671887  0.79170715  0.74167782
   0.93797929  0.62349027  0.52214401
   0.06202391  0.20154334  0.21409771
   0.68732079  0.28747719  0.39007334
   0.31276744  0.53568868  0.25895708
   0.81238649  0.37593004  0.78576683
   0.56206756  0.53332334  0.12453511
   0.18841679  0.78798358  0.39049852
   0.18897052  0.45732937  0.69787949
   0.93751110  0.95901876  0.69749524
   0.81148395  0.04019010  0.60974177
   0.18792244  0.45255832  0.34626205
   0.31206099  0.03761542  0.39052447
   0.93782731  0.95266946  0.21462655
   0.56131739  0.70674076  0.47875980
   0.18792196  0.28538191  0.25887871
   0.06436661  0.04316512  0.74154644
   0.43660271  0.61706974  0.16950584
   0.81160530  0.21009988  0.83046773
   0.06176541  0.03475667  0.25885229
   0.31209223  0.03456713  0.12478085
   0.81266235  0.54152029  0.74160809
   0.93622503  0.61876425  0.30228666
   0.31324048  0.20698536  0.56536512
   0.81307899  0.03627906  0.25892593
   0.56221184  0.87469900  0.65366229
   0.06356433  0.37388949  0.65364134
   0.18879629  0.62349061  0.65341351
   0.06321102  0.36651155  0.16982805
   0.18812131  0.12551131  0.65365440
   0.81245524  0.87332402  0.52215313
   0.43733373  0.62233521  0.52194440
   0.68798680  0.12069048  0.30239810
   0.43598811  0.12120808  0.43505699
   0.43673566  0.95930297  0.83060970
   0.56072411  0.04312068  0.74140926
   0.93694148  0.29402055  0.87291947
   0.93898505  0.29338873  0.74147579
   0.81307723  0.71095715  0.83079447
   0.68665955  0.12071969  0.43487689
   0.56181308  0.37375407  0.65357790
   0.93750357  0.12513210  0.65345639
   0.31317101  0.37373285  0.65356595
   0.56154272  0.54463520  0.87261799
   0.18760409  0.28429119  0.12523545
   0.43738458  0.95238909  0.21445778
   0.06412870  0.04083356  0.87286538
   0.31306313  0.87499584  0.65362530
   0.31255522  0.87262720  0.52168269
   0.06301663  0.20390137  0.47880107
   0.68795946  0.95385854  0.34638400
   0.93755475  0.95954589  0.83088788
   0.43689214  0.78690275  0.39062068
   0.43802667  0.62362468  0.65359863
   0.93779915  0.28443019  0.12503675
   0.43686170  0.95545964  0.47888488
   0.43884251  0.28557695  0.25893411
   0.06345216  0.87581224  0.78588336
   0.31269376  0.37250278  0.52198869
   0.18762210  0.29378117  0.87274797
   0.43746169  0.95845787  0.69763126
   0.93712931  0.45228131  0.34636080
   0.93867529  0.79167563  0.74171331
   0.06252914  0.87087976  0.30245689
   0.81293192  0.87575103  0.78597725
   0.81209519  0.70651773  0.56549800
   0.93907951  0.62207348  0.43488558
   0.56191387  0.03750632  0.39036347
   0.31223573  0.70656973  0.47895956
   0.93719796  0.46126917  0.83098652
   0.43801756  0.79034081  0.61003671
   0.56281075  0.03756947  0.25907420
   0.68876604  0.78372199  0.25918221
   0.93659326  0.29054491  0.60994562
   0.68738311  0.61683356  0.16934912
   0.81239684  0.37180748  0.52227429
Direct configuration=     2
   0.31257801  0.20865031  0.69771487
   0.56182200  0.20873992  0.69754523
   0.93640668  0.28601568  0.25878038
   0.06276200  0.86821164  0.16942367
   0.56197586  0.86783099  0.16934007
   0.18797702  0.29068329  0.60990177
   0.43685630  0.45491163  0.47877062
   0.81212386  0.53499484  0.25880467
   0.06277247  0.87256688  0.52185924
   0.81248065  0.04228818  0.74169161
   0.43759953  0.12228059  0.52180721
   0.06242895  0.20277921  0.34653221
   0.56190479  0.71035461  0.83063982
   0.31236994  0.37691306  0.78539828
   0.81270772  0.03747843  0.39036489
   0.31227970  0.36689606  0.16946165
   0.56256825  0.54053727  0.60995545
   0.81229963  0.87040012  0.30247320
   0.93770995  0.45809243  0.69767797
   0.43741335  0.12033601  0.30255883
   0.06274908  0.04078862  0.60984111
   0.68719202  0.62290523  0.52201123
   0.81177762  0.53999948  0.60969346
   0.18800988  0.12661979  0.78567096
   0.43708546  0.95347923  0.34656742
   0.93796158  0.78596368  0.25861300
   0.93746141  0.28698418  0.39023366
   0.56178081  0.37171079  0.52196098
   0.93775125  0.78734545  0.39039233
   0.06415826  0.54135821  0.74163837
   0.56212950  0.87247353  0.52194830
   0.18824093  0.12123986  0.43505837
   0.06269153  0.53675040  0.39041310
   0.68744974  0.28486882  0.12540009
   0.93793605  0.79386204  0.87286380
   0.68676552  0.12644395  0.78590334
   0.56181878  0.04278962  0.87277515
   0.56253691  0.04045615  0.60983076
   0.31224450  0.70348555  0.34658229
   0.43761988  0.45311600  0.34648483
   0.43737700  0.28458833  0.12546352
   0.06284129  0.54510828  0.87284549
   0.81346896  0.70154249  0.21444179
   0.56120475  0.37662396  0.78572513
   0.18785764  0.45528403  0.47875927
   0.56185238  0.70168439  0.21449248
   0.93826745  0.45527689  0.47881260
   0.31225955  0.37115111  0.43487051
   0.06287312  0.70409152  0.34648183
   0.31351331  0.36965598  0.30262865
   0.56213786  0.36790408  0.16927479
   0.06291366  0.70655659  0.47883119
   0.68756142  0.79381980  0.87280113
   0.31311127  0.70775304  0.69785788
   0.43767559  0.29075078  0.60988275
   0.93792579  0.95425083  0.34652523
   0.93735446  0.45145292  0.21426398
   0.06369315  0.87164357  0.43496785
   0.68686035  0.45487656  0.47890641
   0.18738852  0.61690147  0.16937266
   0.18735990  0.62239284  0.52175073
   0.81269894  0.53374916  0.12496340
   0.18763603  0.45607981  0.56540929
   0.68692998  0.95546270  0.47904522
   0.43612797  0.79143713  0.74145802
   0.43774753  0.45575754  0.56547150
   0.93835242  0.11872211  0.16953755
   0.93807223  0.45644247  0.56534106
   0.31232436  0.71076147  0.83056132
   0.81309142  0.86804777  0.16923242
   0.81274540  0.70592508  0.47898131
   0.31238567  0.53417524  0.12536559
   0.56244146  0.20635999  0.56548520
   0.43636362  0.79331636  0.87276775
   0.06247172  0.71082667  0.83066514
   0.43631288  0.29312508  0.74142095
   0.43735859  0.78527001  0.25884356
   0.81198499  0.87460434  0.65343239
   0.81213183  0.20951174  0.69744645
   0.18913491  0.79158898  0.74166748
   0.31257741  0.20946252  0.83039711
   0.68776496  0.28595954  0.25881374
   0.31236245  0.86957773  0.30238641
   0.43818775  0.95676351  0.56547103
   0.56220915  0.70634113  0.56543929
   0.68691283  0.95872254  0.69749429
   0.18760673  0.95536803  0.47894184
   0.56285032  0.36929781  0.30238687
   0.68655644  0.62415516  0.65345547
   0.81158093  0.36924465  0.30237348
   0.31250270  0.54165601  0.74158676
   0.56144084  0.37094231  0.43475190
   0.81234669  0.53683154  0.39030951
   0.81286784  0.03485666  0.12514400
   0.56287380  0.20261043  0.21437204
   0.18754588  0.11905232  0.16956679
   0.18779090  0.28690798  0.39041249
   0.18769688  0.12226420  0.52172990
   0.06347765  0.37088186  0.43483953
   0.31163164  0.04189331  0.87284238
   0.81230049  0.54371946  0.87293912
   0.68765130  0.45100645  0.21455493
   0.68753161  0.62570899  0.78592788
   0.31208903  0.03534062  0.25882772
   0.18895253  0.29294921  0.74154579
   0.93832998  0.62611232  0.78575803
   0.18798481  0.95898858  0.69777507
   0.06406295  0.37595082  0.78549392
   0.68707764  0.12457760  0.65349901
   0.68788479  0.95254801  0.21443088
   0.56215821  0.53721243  0.39029480
   0.93867503  0.12080154  0.43490806
   0.18754920  0.95673950  0.56540745
   0.68730158  0.46006014  0.83058765
   0.31320998  0.54550454  0.87267947
   0.31243192  0.04285997  0.74155807
   0.68697272  0.45590973  0.56546249
   0.81251168  0.20200421  0.21435175
   0.68721271  0.45268219  0.34652624
   0.68678502  0.12195508  0.52196805
   0.56274969  0.20317506  0.34651045
   0.43644198  0.62522187  0.78558176
   0.56073298  0.54164510  0.74143125
   0.06268470  0.70631031  0.56541790
   0.68746565  0.95977552  0.83074158
   0.68706913  0.79025280  0.60981853
   0.81185936  0.20535725  0.56539678
   0.93721429  0.11971830  0.30261584
   0.06296360  0.03439444  0.12526312
   0.18780518  0.62542059  0.78556303
   0.68615942  0.45879834  0.69760893
   0.43759633  0.45155488  0.21428827
   0.93719394  0.79030921  0.60972659
   0.06293845  0.87487345  0.65349216
   0.06270681  0.54006560  0.60976987
   0.31220389  0.86832221  0.16925012
   0.31223626  0.70165916  0.21424189
   0.56312952  0.53402193  0.25891879
   0.43735612  0.78408334  0.12525129
   0.18817618  0.79024106  0.60980039
   0.56251717  0.70328810  0.34661404
   0.43730750  0.46142333  0.83037343
   0.93853721  0.61699939  0.16919298
   0.43726585  0.28749170  0.39040485
   0.68656476  0.62197157  0.43479016
   0.81259358  0.87163537  0.43505613
   0.18806129  0.62183965  0.43502645
   0.93775928  0.78454483  0.12518716
   0.31237428  0.87565971  0.78570571
   0.06213184  0.36935896  0.30266365
   0.31231854  0.20284065  0.34663175
   0.43662284  0.11886120  0.16942716
   0.56284123  0.86968262  0.30258578
   0.81258326  0.20381759  0.47910326
   0.31219379  0.87220989  0.43514072
   0.68625608  0.29294968  0.74150386
   0.31271056  0.54029435  0.60982377
   0.18764344  0.78467497  0.12529836
   0.18827881  0.95968377  0.83082640
   0.68726312  0.95648305  0.56534251
   0.68755783  0.11869734  0.16939966
   0.56156883  0.87159626  0.43503432
   0.93824879  0.95541713  0.47886727
   0.43748528  0.12491335  0.65351096
   0.43782362  0.61870310  0.30251851
   0.06305698  0.20982409  0.83049491
   0.06288306  0.03696959  0.39035758
   0.68752177  0.61837537  0.30245479
   0.18707328  0.78576271  0.25873337
   0.56216478  0.03469616  0.12519029
   0.31251799  0.20188333  0.21416872
   0.31288302  0.04092998  0.60987399
   0.81251600  0.04198840  0.87278685
   0.93713364  0.62421094  0.65339788
   0.18749908  0.11940696  0.30264239
   0.93779366  0.12188861  0.52192352
   0.93702524  0.95660042  0.56532238
   0.81147823  0.70796704  0.69740395
   0.56150814  0.70775163  0.69754293
   0.31267311  0.70592755  0.56512197
   0.43696246  0.12652845  0.78585920
   0.43735973  0.29472829  0.87267088
   0.56239903  0.21009322  0.83038907
   0.06328973  0.20915508  0.69766667
   0.06282023  0.53429655  0.12530505
   0.68751401  0.29031620  0.60978083
   0.93819672  0.12608946  0.78592754
   0.18790742  0.61932251  0.30244658
   0.68688995  0.78738816  0.39042778
   0.18697602  0.95217728  0.21435489
   0.18735519  0.45181122  0.21405426
   0.31255191  0.53749750  0.39048177
   0.56210332  0.20479163  0.47902431
   0.18819545  0.79450999  0.87286060
   0.81290664  0.37117088  0.43503433
   0.81254098  0.20344059  0.34656139
   0.06173445  0.53649940  0.25871927
   0.06259228  0.20660189  0.56532566
   0.56127775  0.87616705  0.78586689
   0.81257362  0.70358240  0.34642688
   0.43704926  0.62140442  0.43492282
   0.43733292  0.45779314  0.69776071
   0.06330230  0.70791336  0.69764372
   0.18739022  0.95352229  0.34665691
   0.31245955  0.20489400  0.47893736
   0.81170142  0.37418047  0.65360888
   0.06260309  0.70194434  0.21428022
   0.68774467  0.29425584  0.87271924
   0.68738240  0.78421880  0.12487760
   0.81267302  0.36742024  0.16942579
   0.06322530  0.37202820  0.52190635
   0.18795058  0.46086679  0.83042872
   0.68694395  0.79194934  0.74171861
   0.93781748  0.62320772  0.52193040
   0.06220296  0.20168667  0.21407139
   0.68741770  0.28748247  0.39015134
   0.31256024  0.53557261  0.25881124
   0.81236161  0.37580371  0.78574622
   0.56226030  0.53355005  0.12499015
   0.18819515  0.78767640  0.39049221
   0.18863299  0.45769726  0.69781274
   0.93750752  0.95878075  0.69758093
   0.81173779  0.04015379  0.60978220
   0.18791096  0.45272279  0.34636037
   0.31221944  0.03758421  0.39050840
   0.93767954  0.95234695  0.21447009
   0.56183425  0.70622911  0.47882568
   0.18785153  0.28551840  0.25877448
   0.06383731  0.04280978  0.74158722
   0.43684943  0.61740589  0.16922997
   0.81181887  0.21024921  0.83049600
   0.06196631  0.03521251  0.25876667
   0.31217564  0.03452693  0.12520961
   0.81262820  0.54186991  0.74164483
   0.93655173  0.61898513  0.30235243
   0.31300128  0.20675102  0.56536497
   0.81300201  0.03605431  0.25880440
   0.56219374  0.87466221  0.65362524
   0.06333990  0.37410648  0.65361051
   0.18850986  0.62372668  0.65340570
   0.06298039  0.36678917  0.16952313
   0.18788694  0.12514926  0.65361623
   0.81248442  0.87305461  0.52197674
   0.43756049  0.62218782  0.52179858
   0.68782520  0.12026952  0.30243792
   0.43638375  0.12126528  0.43505609
   0.43692949  0.95962619  0.83058084
   0.56126091  0.04288787  0.74149613
   0.93706937  0.29415924  0.87286909
   0.93853583  0.29302556  0.74153772
   0.81303031  0.71077799  0.83075430
   0.68680174  0.12083081  0.43489895
   0.56195497  0.37388473  0.65355702
   0.93754227  0.12497459  0.65345076
   0.31299078  0.37389894  0.65353543
   0.56156951  0.54423188  0.87263802
   0.18760033  0.28430128  0.12558814
   0.43747898  0.95217227  0.21435038
   0.06396088  0.04159737  0.87285158
   0.31286100  0.87476539  0.65359554
   0.31254056  0.87272567  0.52166695
   0.06269017  0.20453309  0.47886749
   0.68773455  0.95373314  0.34647331
   0.93751841  0.95980452  0.83082914
   0.43697917  0.78702119  0.39059414
   0.43784576  0.62386520  0.65355669
   0.93774255  0.28436353  0.12543505
   0.43721847  0.95542073  0.47892821
   0.43830985  0.28544297  0.25878458
   0.06331387  0.87600032  0.78583454
   0.31261219  0.37257199  0.52183451
   0.18759070  0.29384712  0.87270620
   0.43748664  0.95837127  0.69765326
   0.93727467  0.45268866  0.34646787
   0.93839642  0.79193103  0.74169825
   0.06256928  0.87062991  0.30247416
   0.81272796  0.87590870  0.78588645
   0.81217387  0.70636127  0.56547619
   0.93878702  0.62187714  0.43490944
   0.56202638  0.03751741  0.39036518
   0.31234919  0.70602121  0.47898726
   0.93730499  0.46083279  0.83106084
   0.43779396  0.79036634  0.61003329
   0.56263138  0.03714327  0.25892659
   0.68851271  0.78394918  0.25899523
   0.93676883  0.29053338  0.60995700
   0.68745790  0.61717539  0.16899578
   0.81237673  0.37212762  0.52204081
Direct configuration=     3
   0.31249303  0.20781928  0.69769071
   0.56270101  0.20803319  0.69775363
   0.93836926  0.28595553  0.25845888
   0.06243261  0.86796493  0.16852835
   0.56276755  0.86727026  0.16850792
   0.18743580  0.29048426  0.60982527
   0.43796821  0.45496201  0.47898940
   0.81287126  0.53598027  0.25833030
   0.06308282  0.87250356  0.52163705
   0.81234259  0.04172854  0.74175305
   0.43711350  0.12214999  0.52155951
   0.06278790  0.20326958  0.34673639
   0.56234621  0.71054833  0.83048052
   0.31241330  0.37568631  0.78585446
   0.81242740  0.03737513  0.39057945
   0.31281174  0.36770615  0.16862476
   0.56248182  0.54113748  0.60994310
   0.81210021  0.86974274  0.30252812
   0.93751615  0.45898003  0.69774934
   0.43719051  0.11923091  0.30262627
   0.06295774  0.04057791  0.60985330
   0.68731104  0.62208720  0.52135246
   0.81237706  0.54006296  0.60977158
   0.18759300  0.12610191  0.78580922
   0.43741941  0.95332205  0.34679442
   0.93763711  0.78581516  0.25837270
   0.93724994  0.28778047  0.39043185
   0.56225432  0.37265380  0.52138519
   0.93744930  0.78662240  0.39043880
   0.06220937  0.54258424  0.74165368
   0.56177509  0.87176616  0.52152186
   0.18777171  0.12165250  0.43511398
   0.06242067  0.53692341  0.39041201
   0.68746861  0.28477486  0.12656436
   0.93751678  0.79328017  0.87295143
   0.68708539  0.12615428  0.78569725
   0.56194172  0.04391874  0.87270977
   0.56216566  0.03975745  0.60988485
   0.31221120  0.70339421  0.34676973
   0.43735214  0.45322111  0.34676855
   0.43750957  0.28435811  0.12653679
   0.06239567  0.54301444  0.87280104
   0.81274371  0.70181442  0.21393220
   0.56224698  0.37597461  0.78575884
   0.18697202  0.45481099  0.47899165
   0.56222932  0.70200689  0.21408677
   0.93729812  0.45493708  0.47900310
   0.31224563  0.37150090  0.43498506
   0.06254522  0.70346212  0.34670848
   0.31241394  0.36956212  0.30251628
   0.56295882  0.36884507  0.16842192
   0.06196122  0.70506569  0.47902782
   0.68744407  0.79408076  0.87284482
   0.31211605  0.70843191  0.69765846
   0.43732119  0.29055313  0.60984570
   0.93771010  0.95344467  0.34676847
   0.93745568  0.45217132  0.21400196
   0.06293201  0.87126328  0.43497417
   0.68762647  0.45528391  0.47903841
   0.18744313  0.61804954  0.16849588
   0.18699613  0.62195545  0.52139334
   0.81228016  0.53452044  0.12630503
   0.18724111  0.45607043  0.56541863
   0.68728559  0.95499968  0.47899983
   0.43765419  0.79290418  0.74170753
   0.43764376  0.45615871  0.56541865
   0.93776522  0.11750854  0.16858577
   0.93811962  0.45640434  0.56532996
   0.31246440  0.71068663  0.83040209
   0.81245889  0.86707127  0.16832667
   0.81199636  0.70423689  0.47915188
   0.31227021  0.53457283  0.12651373
   0.56222666  0.20625906  0.56547543
   0.43720898  0.79386385  0.87286184
   0.06204758  0.70993753  0.83054694
   0.43791781  0.29169527  0.74164038
   0.43761043  0.78557007  0.25850464
   0.81274660  0.87446621  0.65346464
   0.81236228  0.20878930  0.69771213
   0.18763385  0.79274026  0.74171134
   0.31232335  0.21016686  0.83058125
   0.68758873  0.28508331  0.25836785
   0.31285003  0.86950880  0.30243904
   0.43728526  0.95646850  0.56550954
   0.56188936  0.70625074  0.56545450
   0.68793555  0.95851078  0.69790571
   0.18688629  0.95547358  0.47908140
   0.56227208  0.36918978  0.30255513
   0.68726439  0.62465239  0.65339216
   0.81271103  0.36939460  0.30252462
   0.31244830  0.54246516  0.74161251
   0.56256910  0.37089219  0.43495890
   0.81284295  0.53713539  0.39043217
   0.81269070  0.03462473  0.12642710
   0.56243840  0.20189832  0.21399302
   0.18761797  0.11749831  0.16870395
   0.18750897  0.28762418  0.39037337
   0.18766969  0.12250559  0.52156270
   0.06264461  0.37136269  0.43496403
   0.31252316  0.04403445  0.87278976
   0.81303710  0.54219325  0.87294327
   0.68743123  0.45220583  0.21399564
   0.68786847  0.62636862  0.78572935
   0.31219801  0.03581299  0.25852327
   0.18777493  0.29147188  0.74171102
   0.93757455  0.62627872  0.78569076
   0.18691403  0.95804618  0.69777163
   0.06309009  0.37511606  0.78578006
   0.68768174  0.12425961  0.65352566
   0.68744036  0.95136414  0.21403899
   0.56257810  0.53724351  0.39038034
   0.93756026  0.12118569  0.43501254
   0.18764393  0.95676627  0.56549777
   0.68772305  0.45938865  0.83057332
   0.31284398  0.54337789  0.87266593
   0.31260515  0.04217153  0.74178908
   0.68735231  0.45626053  0.56534621
   0.81255670  0.20179020  0.21395752
   0.68718109  0.45323084  0.34687136
   0.68676833  0.12286587  0.52146935
   0.56231614  0.20269881  0.34678427
   0.43770481  0.62650057  0.78577210
   0.56294546  0.54243980  0.74169288
   0.06305187  0.70660946  0.56550277
   0.68703511  0.96029043  0.83066280
   0.68699736  0.79027113  0.60989035
   0.81249562  0.20587445  0.56542473
   0.93770814  0.11982512  0.30256762
   0.06274688  0.03419737  0.12646263
   0.18695664  0.62615917  0.78574971
   0.68716621  0.45890332  0.69781420
   0.43750227  0.45232846  0.21401079
   0.93784947  0.79038591  0.60988474
   0.06280488  0.87425758  0.65351926
   0.06266002  0.54036147  0.60989391
   0.31239722  0.86810719  0.16841438
   0.31277039  0.70160291  0.21387597
   0.56211955  0.53560255  0.25839156
   0.43755253  0.78420506  0.12648165
   0.18811515  0.79053734  0.60986661
   0.56260779  0.70383138  0.34685233
   0.43723894  0.46013569  0.83048364
   0.93749654  0.61811251  0.16829762
   0.43746096  0.28733124  0.39039554
   0.68696388  0.62150302  0.43507280
   0.81214424  0.87161892  0.43511062
   0.18770339  0.62136214  0.43503237
   0.93740427  0.78451251  0.12645857
   0.31275289  0.87646251  0.78573112
   0.06258973  0.36969224  0.30245532
   0.31263354  0.20275353  0.34686194
   0.43728932  0.11752374  0.16854045
   0.56244253  0.86966753  0.30259141
   0.81248741  0.20575435  0.47911110
   0.31255832  0.87189653  0.43513279
   0.68711801  0.29193974  0.74171425
   0.31230615  0.54108886  0.60985632
   0.18755749  0.78468606  0.12649666
   0.18829701  0.96089379  0.83059537
   0.68711687  0.95601701  0.56544002
   0.68742058  0.11750180  0.16846898
   0.56244466  0.87157155  0.43513144
   0.93751728  0.95529272  0.47891022
   0.43742680  0.12392548  0.65342835
   0.43731543  0.61957600  0.30252670
   0.06309346  0.21069494  0.83062563
   0.06240310  0.03689268  0.39045744
   0.68776512  0.61960852  0.30260490
   0.18778796  0.78543131  0.25845930
   0.56230528  0.03470505  0.12645887
   0.31239910  0.20187771  0.21407951
   0.31234712  0.04003821  0.60981890
   0.81194563  0.04307796  0.87280153
   0.93771176  0.62467644  0.65340601
   0.18769373  0.11970407  0.30249814
   0.93832378  0.12283762  0.52149260
   0.93796653  0.95657027  0.56545993
   0.81238219  0.70859469  0.69769683
   0.56227202  0.70851716  0.69768531
   0.31245541  0.70652160  0.56520746
   0.43755604  0.12612540  0.78585219
   0.43719408  0.29415486  0.87256106
   0.56199803  0.20994674  0.83056611
   0.06228886  0.20822969  0.69771780
   0.06278117  0.53472676  0.12649371
   0.68794350  0.29037445  0.60981647
   0.93767283  0.12594905  0.78579529
   0.18728712  0.61938332  0.30249229
   0.68760149  0.78754275  0.39046667
   0.18754253  0.95169715  0.21400339
   0.18762230  0.45212299  0.21399763
   0.31195361  0.53743169  0.39043362
   0.56331337  0.20636678  0.47903515
   0.18786203  0.79403194  0.87287494
   0.81260888  0.37128724  0.43530571
   0.81234293  0.20362114  0.34685304
   0.06261509  0.53522181  0.25844863
   0.06285264  0.20640853  0.56541867
   0.56188874  0.87641285  0.78572340
   0.81279310  0.70370215  0.34673353
   0.43776612  0.62114900  0.43504576
   0.43741759  0.45806682  0.69770919
   0.06262055  0.70853060  0.69762186
   0.18795608  0.95289629  0.34680003
   0.31234767  0.20638059  0.47914064
   0.81246793  0.37447929  0.65356975