 288 288   0   0
  0.1280206E+02  0.9726678E-09  0.8423550E-09  0.4500000E-08  0.2500000E-15
  1.000000000000000E-004
  CAR 
 unknown system                          
    437.07032955   -268.02331861  301     75.25449249      1.00000000
   -268.023  0.0000E+00  0.0000E+00
   -265.673  0.0000E+00  0.0000E+00
   -263.323  0.0000E+00  0.0000E+00
   -260.972  0.0000E+00  0.0000E+00
   -258.622  0.0000E+00  0.0000E+00
   -256.272  0.0000E+00  0.0000E+00
   -253.921  0.0000E+00  0.0000E+00
   -251.571  0.0000E+00  0.0000E+00
   -249.221  0.0000E+00  0.0000E+00
   -246.871  0.0000E+00  0.0000E+00
   -244.520  0.0000E+00  0.0000E+00
   -242.170  0.0000E+00  0.0000E+00
   -239.820  0.0000E+00  0.0000E+00
   -237.469  0.0000E+00  0.0000E+00
   -235.119  0.5785E-01  0.1360E+00
   -232.769  0.5671E+00  0.3008E+01
   -230.418  0.1812E+00  0.3976E+01
   -228.068  0.5185E+00  0.5619E+01
   -225.718  0.1347E+01  0.1164E+02
   -223.367  0.7487E+00  0.1598E+02
   -221.017  0.7203E-01  0.1699E+02
   -218.667  0.1158E+00  0.1750E+02
   -216.316  0.6695E-01  0.1786E+02
   -213.966  0.4146E-01  0.1815E+02
   -211.616  0.5227E-01  0.1837E+02
   -209.266  0.5906E-01  0.1874E+02
   -206.915  0.5961E-01  0.1909E+02
   -204.565  0.1167E+00  0.1967E+02
   -202.215  0.1800E+00  0.2072E+02
   -199.864  0.5688E+00  0.2306E+02
   -197.514  0.1256E+01  0.2803E+02
   -195.164  0.2358E+01  0.3734E+02
   -192.813  0.4244E+01  0.5373E+02
   -190.463  0.4718E+01  0.7549E+02
   -188.113  0.2601E+01  0.8959E+02
   -185.762  0.9607E+00  0.9586E+02
   -183.412  0.7636E+00  0.9949E+02
   -181.062  0.1852E+01  0.1071E+03
   -178.711  0.2415E+01  0.1179E+03
   -176.361  0.2875E+01  0.1317E+03
   -174.011  0.3401E+01  0.1472E+03
   -171.661  0.3290E+01  0.1619E+03
   -169.310  0.2651E+01  0.1746E+03
   -166.960  0.2747E+01  0.1876E+03
   -164.610  0.2565E+01  0.1994E+03
   -162.259  0.2270E+01  0.2097E+03
   -159.909  0.1965E+01  0.2190E+03
   -157.559  0.2098E+01  0.2288E+03
   -155.208  0.2307E+01  0.2384E+03
   -152.858  0.2430E+01  0.2496E+03
   -150.508  0.2791E+01  0.2618E+03
   -148.157  0.2500E+01  0.2741E+03
   -145.807  0.2794E+01  0.2871E+03
   -143.457  0.2196E+01  0.2988E+03
   -141.106  0.2173E+01  0.3102E+03
   -138.756  0.2008E+01  0.3189E+03
   -136.406  0.1701E+01  0.3265E+03
   -134.056  0.1421E+01  0.3340E+03
   -131.705  0.1010E+01  0.3395E+03
   -129.355  0.1172E+01  0.3457E+03
   -127.005  0.1226E+01  0.3516E+03
   -124.654  0.1364E+01  0.3581E+03
   -122.304  0.1264E+01  0.3649E+03
   -119.954  0.1372E+01  0.3722E+03
   -117.603  0.1203E+01  0.3778E+03
   -115.253  0.1412E+01  0.3843E+03
   -112.903  0.1560E+01  0.3908E+03
   -110.552  0.1848E+01  0.3995E+03
   -108.202  0.2244E+01  0.4088E+03
   -105.852  0.2813E+01  0.4216E+03
   -103.501  0.2282E+01  0.4325E+03
   -101.151  0.1288E+01  0.4395E+03
    -98.801  0.2375E+00  0.4414E+03
    -96.451  0.1164E+00  0.4421E+03
    -94.100  0.5471E-01  0.4423E+03
    -91.750  0.1084E+00  0.4426E+03
    -89.400  0.3576E-01  0.4428E+03
    -87.049  0.6792E-01  0.4431E+03
    -84.699  0.4438E-01  0.4435E+03
    -82.349  0.6372E-01  0.4437E+03
    -79.998  0.2127E-01  0.4439E+03
    -77.648  0.1834E-01  0.4440E+03
    -75.298  0.6438E-01  0.4444E+03
    -72.947  0.2129E-01  0.4446E+03
    -70.597  0.9364E-01  0.4449E+03
    -68.247  0.6277E-01  0.4452E+03
    -65.896  0.3191E-01  0.4454E+03
    -63.546  0.4801E-01  0.4456E+03
    -61.196  0.2127E-01  0.4458E+03
    -58.846  0.7248E-01  0.4460E+03
    -56.495  0.2575E-01  0.4462E+03
    -54.145  0.1098E-01  0.4463E+03
    -51.795  0.4698E-01  0.4465E+03
    -49.444  0.3191E-01  0.4467E+03
    -47.094  0.6382E-01  0.4470E+03
    -44.744  0.4931E-01  0.4471E+03
    -42.393  0.1732E-01  0.4473E+03
    -40.043  0.5660E-01  0.4475E+03
    -37.693  0.7542E-01  0.4478E+03
    -35.342  0.1064E-01  0.4478E+03
    -32.992  0.4415E-01  0.4481E+03
    -30.642  0.8870E-02  0.4482E+03
    -28.291  0.4590E-10  0.4482E+03
    -25.941  0.7441E-01  0.4485E+03
    -23.591  0.1828E-01  0.4487E+03
    -21.241  0.1092E-01  0.4489E+03
    -18.890  0.6937E-03  0.4490E+03
    -16.540  0.2511E-01  0.4492E+03
    -14.190  0.2127E-01  0.4493E+03
    -11.839  0.3179E-01  0.4494E+03
     -9.489  0.3694E-01  0.4497E+03
     -7.139  0.1064E-01  0.4497E+03
     -4.788  0.1064E-01  0.4498E+03
     -2.438  0.2190E-01  0.4499E+03
     -0.088  0.1038E+00  0.4502E+03
      2.263  0.1298E-01  0.4503E+03
      4.613  0.2127E-01  0.4504E+03
      6.963  0.8037E-01  0.4506E+03
      9.314  0.1241E-01  0.4507E+03
     11.664  0.7284E-01  0.4509E+03
     14.014  0.6380E-01  0.4511E+03
     16.364  0.3343E-01  0.4513E+03
     18.715  0.5096E-01  0.4514E+03
     21.065  0.9124E-02  0.4515E+03
     23.415  0.5873E-01  0.4517E+03
     25.766  0.3191E-01  0.4519E+03
     28.116  0.1057E+00  0.4521E+03
     30.466  0.5294E-01  0.4524E+03
     32.817  0.4255E-01  0.4525E+03
     35.167  0.4830E-01  0.4527E+03
     37.517  0.7407E-01  0.4529E+03
     39.868  0.4459E-03  0.4530E+03
     42.218  0.7750E-01  0.4532E+03
     44.568  0.4326E-01  0.4535E+03
     46.919  0.7463E-01  0.4539E+03
     49.269  0.5919E-01  0.4541E+03
     51.619  0.9239E-01  0.4546E+03
     53.969  0.4535E-01  0.4548E+03
     56.320  0.1548E+00  0.4554E+03
     58.670  0.1140E+00  0.4557E+03
     61.020  0.7368E-01  0.4560E+03
     63.371  0.5926E-01  0.4563E+03
     65.721  0.3181E-01  0.4566E+03
     68.071  0.7453E-01  0.4569E+03
     70.422  0.6340E-01  0.4573E+03
     72.772  0.5929E-01  0.4577E+03
     75.122  0.4443E-01  0.4580E+03
     77.473  0.1503E+00  0.4585E+03
     79.823  0.9805E-01  0.4589E+03
     82.173  0.7175E-01  0.4593E+03
     84.524  0.1293E+00  0.4598E+03
     86.874  0.8386E-01  0.4601E+03
     89.224  0.8510E-01  0.4606E+03
     91.574  0.5973E-01  0.4609E+03
     93.925  0.7012E-01  0.4613E+03
     96.275  0.1127E+00  0.4619E+03
     98.625  0.7978E-01  0.4622E+03
    100.976  0.8480E-01  0.4626E+03
    103.326  0.7553E-01  0.4631E+03
    105.676  0.1305E+00  0.4636E+03
    108.027  0.1080E+00  0.4641E+03
    110.377  0.6892E-01  0.4645E+03
    112.727  0.8251E-01  0.4650E+03
    115.078  0.1603E+00  0.4656E+03
    117.428  0.1488E+00  0.4662E+03
    119.778  0.1382E+00  0.4666E+03
    122.129  0.1785E+00  0.4673E+03
    124.479  0.6153E-01  0.4677E+03
    126.829  0.8108E-01  0.4683E+03
    129.179  0.1237E+00  0.4688E+03
    131.530  0.1593E+00  0.4692E+03
    133.880  0.1241E+00  0.4700E+03
    136.230  0.1375E+00  0.4706E+03
    138.581  0.1498E+00  0.4713E+03
    140.931  0.1564E+00  0.4718E+03
    143.281  0.7265E-01  0.4724E+03
    145.632  0.1578E+00  0.4730E+03
    147.982  0.1306E+00  0.4736E+03
    150.332  0.1753E+00  0.4743E+03
    152.683  0.6606E-01  0.4750E+03
    155.033  0.1359E+00  0.4756E+03
    157.383  0.1006E+00  0.4762E+03
    159.733  0.1246E+00  0.4767E+03
    162.084  0.1490E+00  0.4773E+03
    164.434  0.1905E+00  0.4781E+03
    166.784  0.1074E+00  0.4789E+03
    169.135  0.1629E+00  0.4795E+03
    171.485  0.2126E-01  0.4801E+03
    173.835  0.1178E+00  0.4808E+03
    176.186  0.2374E+00  0.4817E+03
    178.536  0.1959E+00  0.4822E+03
    180.886  0.1469E+00  0.4830E+03
    183.237  0.1609E+00  0.4837E+03
    185.587  0.8396E-01  0.4844E+03
    187.937  0.2423E+00  0.4852E+03
    190.288  0.1651E+00  0.4859E+03
    192.638  0.2110E+00  0.4870E+03
    194.988  0.3290E+00  0.4880E+03
    197.338  0.3056E+00  0.4893E+03
    199.689  0.2089E+00  0.4904E+03
    202.039  0.3239E+00  0.4915E+03
    204.389  0.3136E+00  0.4926E+03
    206.740  0.3747E+00  0.4940E+03
    209.090  0.2346E+00  0.4953E+03
    211.440  0.2454E+00  0.4965E+03
    213.791  0.3895E+00  0.4979E+03
    216.141  0.2348E+00  0.4993E+03
    218.491  0.3480E+00  0.5012E+03
    220.842  0.3627E+00  0.5028E+03
    223.192  0.3680E+00  0.5041E+03
    225.542  0.3940E+00  0.5059E+03
    227.893  0.3378E+00  0.5075E+03
    230.243  0.4062E+00  0.5097E+03
    232.593  0.4640E+00  0.5116E+03
    234.943  0.3498E+00  0.5135E+03
    237.294  0.4913E+00  0.5155E+03
    239.644  0.4763E+00  0.5175E+03
    241.994  0.5798E+00  0.5201E+03
    244.345  0.7960E+00  0.5234E+03
    246.695  0.9590E+00  0.5274E+03
    249.045  0.6793E+00  0.5306E+03
    251.396  0.6456E+00  0.5334E+03
    253.746  0.9549E+00  0.5374E+03
    256.096  0.5336E+00  0.5398E+03
    258.447  0.3464E+00  0.5420E+03
    260.797  0.1207E+00  0.5429E+03
    263.147  0.4466E-01  0.5434E+03
    265.498  0.3427E-01  0.5436E+03
    267.848  0.5317E-01  0.5437E+03
    270.198  0.1850E-03  0.5438E+03
    272.548  0.0000E+00  0.5439E+03
    274.899  0.2080E-01  0.5440E+03
    277.249  0.5318E-01  0.5441E+03
    279.599  0.1064E-01  0.5441E+03
    281.950  0.2911E-01  0.5442E+03
    284.300  0.2127E-01  0.5443E+03
    286.650  0.4255E-01  0.5444E+03
    289.001  0.3106E-01  0.5445E+03
    291.351  0.1064E-01  0.5446E+03
    293.701  0.7446E-01  0.5449E+03
    296.052  0.3191E-01  0.5450E+03
    298.402  0.1044E-01  0.5451E+03
    300.752  0.3477E-09  0.5451E+03
    303.103  0.1060E-01  0.5452E+03
    305.453  0.2309E-03  0.5454E+03
    307.803  0.1823E-01  0.5455E+03
    310.153  0.2127E-01  0.5457E+03
    312.504  0.7158E-01  0.5458E+03
    314.854  0.1142E-01  0.5459E+03
    317.204  0.3543E-01  0.5461E+03
    319.555  0.1299E-16  0.5461E+03
    321.905  0.1064E-01  0.5462E+03
    324.255  0.0000E+00  0.5462E+03
    326.606  0.5582E-03  0.5462E+03
    328.956  0.2127E-01  0.5463E+03
    331.306  0.4752E-07  0.5464E+03
    333.657  0.7185E-01  0.5466E+03
    336.007  0.0000E+00  0.5468E+03
    338.357  0.3993E-01  0.5469E+03
    340.708  0.5299E-01  0.5470E+03
    343.058  0.3062E-01  0.5471E+03
    345.408  0.3862E-01  0.5473E+03
    347.758  0.1064E-01  0.5474E+03
    350.109  0.6382E-01  0.5475E+03
    352.459  0.6509E-01  0.5477E+03
    354.809  0.1252E-01  0.5480E+03
    357.160  0.4824E-01  0.5482E+03
    359.510  0.6133E-01  0.5485E+03
    361.860  0.1064E-01  0.5486E+03
    364.211  0.1064E-01  0.5486E+03
    366.561  0.0000E+00  0.5486E+03
    368.911  0.0000E+00  0.5486E+03
    371.262  0.1064E-01  0.5487E+03
    373.612  0.1123E-01  0.5487E+03
    375.962  0.1064E-01  0.5488E+03
    378.313  0.3191E-01  0.5489E+03
    380.663  0.1180E-01  0.5491E+03
    383.013  0.1657E-01  0.5492E+03
    385.363  0.1985E-01  0.5493E+03
    387.714  0.7639E-01  0.5496E+03
    390.064  0.3574E-01  0.5498E+03
    392.414  0.7912E-01  0.5504E+03
    394.765  0.1059E+00  0.5509E+03
    397.115  0.8564E-01  0.5512E+03
    399.465  0.2478E+00  0.5521E+03
    401.816  0.2051E+00  0.5531E+03
    404.166  0.1700E+00  0.5542E+03
    406.516  0.0000E+00  0.5544E+03
    408.867  0.0000E+00  0.5544E+03
    411.217  0.0000E+00  0.5544E+03
    413.567  0.0000E+00  0.5544E+03
    415.918  0.0000E+00  0.5544E+03
    418.268  0.0000E+00  0.5544E+03
    420.618  0.0000E+00  0.5544E+03
    422.968  0.0000E+00  0.5544E+03
    425.319  0.0000E+00  0.5544E+03
    427.669  0.0000E+00  0.5544E+03
    430.019  0.0000E+00  0.5544E+03
    432.370  0.0000E+00  0.5544E+03
    434.720  0.0000E+00  0.5544E+03
    437.070  0.0000E+00  0.5544E+03
