  288  288    5    1
  0.1280206E+02  0.9726678E-09  0.8423550E-09  0.4500000E-08  0.2500000E-15
  1.000000000000000E-004
  CAR 
 unknown system                          
   2290     10   1386
 
  0.0000000E+00  0.0000000E+00  0.0000000E+00  0.6250000E-01
    1     -192.062835   1.000000
    2     -188.750514   1.000000
    3     -187.776919   1.000000
    4     -189.558939   1.000000
    5     -188.426240   1.000000
    6     -191.545865   1.000000
    7     -190.572465   1.000000
    8     -190.938854   1.000000
    9     -190.561380   1.000000
   10     -193.370597   1.000000
   11     -192.012856   1.000000
   12     -192.003927   1.000000
   13     -193.671825   1.000000
   14     -190.189708   1.000000
   15     -190.591345   1.000000
   16     -192.811286   1.000000
   17     -190.724996   1.000000
   18     -192.432472   1.000000
   19     -191.090630   1.000000
   20     -191.919167   1.000000
   21     -193.725311   1.000000
   22     -194.411242   1.000000
   23     -194.020358   1.000000
   24     -193.345432   1.000000
   25     -193.157405   1.000000
   26     -191.838776   1.000000
   27     -195.057269   1.000000
   28     -222.827091   1.000000
   29     -194.718740   1.000000
   30     -222.552135   1.000000
   31     -195.457816   1.000000
   32     -193.341969   1.000000
   33     -223.088093   1.000000
   34     -224.228661   1.000000
   35     -224.062288   1.000000
   36     -222.710710   1.000000
   37     -224.466723   1.000000
   38     -224.477178   1.000000
   39     -196.998844   1.000000
   40     -224.431515   1.000000
   41     -223.784968   1.000000
   42     -225.219314   1.000000
   43     -224.218657   1.000000
   44     -224.779677   1.000000
   45     -226.000364   1.000000
   46     -225.340117   1.000000
   47     -224.401038   1.000000
   48     -225.328376   1.000000
   49     -225.263222   1.000000
   50     -226.445307   1.000000
   51     -225.248073   1.000000
   52     -225.397158   1.000000
   53     -225.774449   1.000000
   54     -225.715027   1.000000
   55     -225.328933   1.000000
   56     -226.293701   1.000000
   57     -227.211002   1.000000
   58     -226.641617   1.000000
   59     -226.015521   1.000000
   60     -226.443311   1.000000
   61     -228.022584   1.000000
   62     -235.275736   1.000000
   63     -234.717837   1.000000
   64     -227.139692   1.000000
   65     -234.256856   1.000000
   66     -234.089361   1.000000
   67     -233.928745   1.000000
   68     -233.676588   1.000000
   69     -233.419828   1.000000
   70     -233.599005   1.000000
   71     -233.490311   1.000000
   72     -231.476918   1.000000
   73     -231.474978   1.000000
   74     -229.929163   1.000000
   75     -227.122252   1.000000
   76     -223.080924   1.000000
   77     -209.350529   1.000000
   78     -220.638598   1.000000
   79     -206.267320   1.000000
   80     -202.886433   1.000000
   81     -199.065399   1.000000
   82     -200.728414   1.000000
   83     -201.055281   1.000000
   84     -200.023750   1.000000
   85     -201.259086   1.000000
   86     -199.950596   1.000000
   87     -197.779150   1.000000
   88     -200.154486   1.000000
   89     -197.167052   1.000000
   90     -200.534942   1.000000
   91     -198.456456   1.000000
   92     -201.469432   1.000000
   93     -200.538366   1.000000
   94     -203.943185   1.000000
   95     -197.237833   1.000000
   96     -203.516416   1.000000
   97     -199.939887   1.000000
   98     -201.826019   1.000000
   99     -201.668995   1.000000
  100     -199.318295   1.000000
  101     -199.891249   1.000000
  102     -194.829927   1.000000
  103     -197.726831   1.000000
  104     -197.188661   1.000000
  105     -194.400749   1.000000
  106     -196.834883   1.000000
  107     -198.809433   1.000000
  108     -199.001441   1.000000
  109     -193.716310   1.000000
  110     -194.021016   1.000000
  111     -191.780061   1.000000
  112     -195.609940   1.000000
  113     -195.263524   1.000000
  114     -192.261421   1.000000
  115     -192.340926   1.000000
  116     -190.426871   1.000000
  117     -193.785217   1.000000
  118     -192.325658   1.000000
  119     -198.606157   1.000000
  120     -193.270381   1.000000
  121     -194.759251   1.000000
  122     -195.728577   1.000000
  123     -193.726093   1.000000
  124     -194.913660   1.000000
  125     -192.955969   1.000000
  126     -191.281714   1.000000
  127     -192.250767   1.000000
  128     -193.458059   1.000000
  129     -191.468619   1.000000
  130     -191.459356   1.000000
  131     -190.037161   1.000000
  132     -193.220640   1.000000
  133     -194.247049   1.000000
  134     -190.497452   1.000000
  135     -190.115904   1.000000
  136     -193.545541   1.000000
  137     -193.217537   1.000000
  138     -194.752306   1.000000
  139     -191.698943   1.000000
  140     -190.520940   1.000000
  141     -195.114322   1.000000
  142     -192.235134   1.000000
  143     -192.263361   1.000000
  144     -190.534654   1.000000
  145     -193.377324   1.000000
  146     -193.586894   1.000000
  147     -191.899907   1.000000
  148     -194.216471   1.000000
  149     -193.225682   1.000000
  150     -192.740779   1.000000
  151     -193.470912   1.000000
  152     -193.790146   1.000000
  153     -191.064781   1.000000
  154     -192.646023   1.000000
  155     -191.582603   1.000000
  156     -193.354709   1.000000
  157     -191.672387   1.000000
  158     -191.150515   1.000000
  159     -192.688158   1.000000
  160     -188.314424   1.000000
  161     -191.707179   1.000000
  162     -192.078873   1.000000
  163     -190.721229   1.000000
  164     -192.280638   1.000000
  165     -191.702709   1.000000
  166     -194.026823   1.000000
  167     -191.827417   1.000000
  168     -188.384692   1.000000
  169     -191.292865   1.000000
  170     -192.011342   1.000000
  171     -191.209939   1.000000
  172     -190.291245   1.000000
  173     -193.703801   1.000000
  174     -192.083028   1.000000
  175     -191.382573   1.000000
  176     -188.846952   1.000000
  177     -192.866877   1.000000
  178     -191.089229   1.000000
  179     -189.263590   1.000000
  180     -191.398302   1.000000
  181     -191.530685   1.000000
  182     -194.238360   1.000000
  183     -194.048553   1.000000
  184     -192.991880   1.000000
  185     -192.228144   1.000000
  186     -193.368738   1.000000
  187     -192.772008   1.000000
  188     -191.374468   1.000000
  189     -194.020541   1.000000
  190     -191.988944   1.000000
  191     -190.398153   1.000000
  192     -191.929945   1.000000
  193     -190.386632   1.000000
  194     -190.169154   1.000000
  195     -192.779594   1.000000
  196     -188.592325   1.000000
  197     -190.482999   1.000000
  198     -190.634749   1.000000
  199     -191.547669   1.000000
  200     -192.978842   1.000000
  201     -192.379314   1.000000
  202     -192.074358   1.000000
  203     -191.897286   1.000000
  204     -191.016757   1.000000
  205     -190.176999   1.000000
  206     -189.230240   1.000000
  207     -191.248360   1.000000
  208     -189.141872   1.000000
  209     -190.641645   1.000000
  210     -190.882195   1.000000
  211     -190.128649   1.000000
  212     -192.030164   1.000000
  213     -190.607122   1.000000
  214     -189.948028   1.000000
  215     -188.780924   1.000000
  216     -191.394104   1.000000
  217     -192.077234   1.000000
  218     -190.262183   1.000000
  219     -189.328393   1.000000
  220     -190.293827   1.000000
  221     -191.669602   1.000000
  222     -189.096785   1.000000
  223     -190.852650   1.000000
  224     -189.101728   1.000000
  225     -187.801915   1.000000
  226     -189.753813   1.000000
  227     -189.935852   1.000000
  228     -189.157856   1.000000
  229     -187.271248   1.000000
  230     -185.756012   1.000000
  231     -189.551894   1.000000
  232     -191.462547   1.000000
  233     -192.138445   1.000000
  234     -189.434334   1.000000
  235     -190.536074   1.000000
  236     -191.912440   1.000000
  237     -191.204069   1.000000
  238     -189.644116   1.000000
  239     -189.578599   1.000000
  240     -182.687620   1.000000
  241     -186.235042   1.000000
  242     -188.299558   1.000000
  243     -190.323709   1.000000
  244     -189.036554   1.000000
  245     -188.695637   1.000000
  246     -190.126853   1.000000
  247     -184.738702   1.000000
  248     -187.733235   1.000000
  249     -188.898570   1.000000
  250     -182.128411   1.000000
  251     -188.568662   1.000000
  252     -189.729583   1.000000
  253     -188.470119   1.000000
  254     -188.518162   1.000000
  255     -182.032555   1.000000
  256     -184.456725   1.000000
  257     -188.844395   1.000000
  258     -189.501182   1.000000
  259     -188.010566   1.000000
  260     -188.359292   1.000000
  261     -187.784686   1.000000
  262     -188.972761   1.000000
  263     -182.571489   1.000000
  264     -182.194901   1.000000
  265     -183.413585   1.000000
  266     -185.466403   1.000000
  267     -183.144983   1.000000
  268     -187.381559   1.000000
  269     -181.723298   1.000000
  270     -187.896205   1.000000
  271     -187.893316   1.000000
  272     -187.122801   1.000000
  273     -182.592127   1.000000
  274     -181.204247   1.000000
  275     -180.739747   1.000000
  276     -187.019079   1.000000
  277     -181.427023   1.000000
  278     -182.641559   1.000000
  279     -182.089153   1.000000
  280     -183.109225   1.000000
  281     -180.964258   1.000000
  282     -186.163926   1.000000
  283     -187.091353   1.000000
  284     -181.082350   1.000000
  285     -182.718455   1.000000
  286     -182.042549   1.000000
  287     -181.741325   1.000000
  288     -180.485025   1.000000
  289     -180.945481   1.000000
  290     -181.739264   1.000000
  291     -179.689667   1.000000
  292     -179.924496   1.000000
  293     -179.976617   1.000000
  294     -179.931910   1.000000
  295     -180.833744   1.000000
  296     -181.334610   1.000000
  297     -179.757469   1.000000
  298     -179.945309   1.000000
  299     -179.699322   1.000000
  300     -183.794553   1.000000
  301     -180.995623   1.000000
  302     -184.373280   1.000000
  303     -180.862034   1.000000
  304     -178.949021   1.000000
  305     -180.247720   1.000000
  306     -184.865335   1.000000
  307     -178.567554   1.000000
  308     -180.373903   1.000000
  309     -179.562905   1.000000
  310     -179.548884   1.000000
  311     -180.663488   1.000000
  312     -185.727451   1.000000
  313     -177.601410   1.000000
  314     -184.973949   1.000000
  315     -179.047876   1.000000
  316     -177.826292   1.000000
  317     -181.135875   1.000000
  318     -185.119466   1.000000
  319     -178.404322   1.000000
  320     -180.093850   1.000000
  321     -180.068280   1.000000
  322     -178.330790   1.000000
  323     -179.435571   1.000000
  324     -177.211117   1.000000
  325     -177.541998   1.000000
  326     -177.573399   1.000000
  327     -177.624448   1.000000
  328     -178.416812   1.000000
  329     -179.542608   1.000000
  330     -178.763825   1.000000
  331     -177.557669   1.000000
  332     -177.591317   1.000000
  333     -176.773111   1.000000
  334     -178.731746   1.000000
  335     -175.794635   1.000000
  336     -176.583520   1.000000
  337     -176.984266   1.000000
  338     -178.938152   1.000000
  339     -176.424253   1.000000
  340     -177.812899   1.000000
  341     -178.195962   1.000000
  342     -178.264375   1.000000
  343     -176.973593   1.000000
  344     -178.453405   1.000000
  345     -177.669755   1.000000
  346     -175.814605   1.000000
  347     -177.343592   1.000000
  348     -176.500471   1.000000
  349     -178.254493   1.000000
  350     -177.670689   1.000000
  351     -176.060797   1.000000
  352     -176.798067   1.000000
  353     -174.645050   1.000000
  354     -177.463090   1.000000
  355     -176.023952   1.000000
  356     -176.582896   1.000000
  357     -176.102527   1.000000
  358     -177.554724   1.000000
  359     -176.729907   1.000000
  360     -175.520523   1.000000
  361     -177.394547   1.000000
  362     -174.922771   1.000000
  363     -177.011303   1.000000
  364     -172.775074   1.000000
  365     -173.899515   1.000000
  366     -174.958867   1.000000
  367     -172.911122   1.000000
  368     -175.059610   1.000000
  369     -174.784344   1.000000
  370     -176.485563   1.000000
  371     -175.659181   1.000000
  372     -176.086116   1.000000
  373     -175.803737   1.000000
  374     -176.380453   1.000000
  375     -175.547864   1.000000
  376     -176.038245   1.000000
  377     -175.063163   1.000000
  378     -176.194262   1.000000
  379     -175.308418   1.000000
  380     -175.723560   1.000000
  381     -174.483778   1.000000
  382     -173.993278   1.000000
  383     -176.152607   1.000000
  384     -172.608843   1.000000
  385     -174.620182   1.000000
  386     -173.836129   1.000000
  387     -175.536021   1.000000
  388     -174.417474   1.000000
  389     -174.897400   1.000000
  390     -176.907189   1.000000
  391     -173.318463   1.000000
  392     -173.654428   1.000000
  393     -174.888131   1.000000
  394     -174.820343   1.000000
  395     -174.600243   1.000000
  396     -171.406373   1.000000
  397     -174.392533   1.000000
  398     -174.503459   1.000000
  399     -173.222157   1.000000
  400     -171.024991   1.000000
  401     -176.015934   1.000000
  402     -174.906011   1.000000
  403     -173.682755   1.000000
  404     -174.551919   1.000000
  405     -173.832523   1.000000
  406     -171.351106   1.000000
  407     -173.318723   1.000000
  408     -174.260643   1.000000
  409     -172.660798   1.000000
  410     -174.078296   1.000000
  411     -173.464163   1.000000
  412     -174.245603   1.000000
  413     -168.483498   1.000000
  414     -172.407634   1.000000
  415     -174.563574   1.000000
  416     -172.603020   1.000000
  417     -170.936234   1.000000
  418     -168.660087   1.000000
  419     -172.613633   1.000000
  420     -173.087434   1.000000
  421     -169.094448   1.000000
  422     -171.666364   1.000000
  423     -170.858453   1.000000
  424     -173.945785   1.000000
  425     -171.548531   1.000000
  426     -169.646762   1.000000
  427     -173.297318   1.000000
  428     -168.572814   1.000000
  429     -170.234613   1.000000
  430     -172.503344   1.000000
  431     -173.433493   1.000000
  432     -170.395468   1.000000
  433     -169.899105   1.000000
  434     -171.839326   1.000000
  435     -171.020440   1.000000
  436     -170.674279   1.000000
  437     -171.350925   1.000000
  438     -171.045533   1.000000
  439     -171.767302   1.000000
  440     -171.575721   1.000000
  441     -170.494067   1.000000
  442     -172.368284   1.000000
  443     -171.061678   1.000000
  444     -169.081498   1.000000
  445     -168.966452   1.000000
  446     -169.385725   1.000000
  447     -170.234352   1.000000
  448     -168.909892   1.000000
  449     -171.158380   1.000000
  450     -166.772096   1.000000
  451     -172.013457   1.000000
  452     -169.461173   1.000000
  453     -170.139016   1.000000
  454     -169.456985   1.000000
  455     -169.559890   1.000000
  456     -169.378085   1.000000
  457     -170.247582   1.000000
  458     -169.241964   1.000000
  459     -168.153796   1.000000
  460     -167.481251   1.000000
  461     -170.016656   1.000000
  462     -169.571008   1.000000
  463     -169.841470   1.000000
  464     -168.928476   1.000000
  465     -171.421123   1.000000
  466     -169.377627   1.000000
  467     -167.856435   1.000000
  468     -170.939481   1.000000
  469     -168.029416   1.000000
  470     -168.439889   1.000000
  471     -169.618483   1.000000
  472     -169.838593   1.000000
  473     -167.519331   1.000000
  474     -171.313163   1.000000
  475     -166.777217   1.000000
  476     -169.425921   1.000000
  477     -169.230836   1.000000
  478     -166.695203   1.000000
  479     -167.674278   1.000000
  480     -168.757268   1.000000
  481     -166.632119   1.000000
  482     -167.396742   1.000000
  483     -168.193287   1.000000
  484     -165.659698   1.000000
  485     -168.139067   1.000000
  486     -166.377249   1.000000
  487     -167.157165   1.000000
  488     -168.024654   1.000000
  489     -166.363454   1.000000
  490     -166.397316   1.000000
  491     -167.610898   1.000000
  492     -167.554206   1.000000
  493     -169.213457   1.000000
  494     -167.952377   1.000000
  495     -167.316290   1.000000
  496     -168.006564   1.000000
  497     -165.481631   1.000000
  498     -165.667836   1.000000
  499     -164.175822   1.000000
  500     -165.436192   1.000000
  501     -167.421787   1.000000
  502     -167.886228   1.000000
  503     -166.105337   1.000000
  504     -166.672147   1.000000
  505     -166.115401   1.000000
  506     -165.315437   1.000000
  507     -166.940870   1.000000
  508     -166.513925   1.000000
  509     -167.115432   1.000000
  510     -165.027988   1.000000
  511     -163.745293   1.000000
  512     -164.393223   1.000000
  513     -164.218078   1.000000
  514     -162.818788   1.000000
  515     -164.506355   1.000000
  516     -166.275162   1.000000
  517     -167.522251   1.000000
  518     -163.050766   1.000000
  519     -166.828888   1.000000
  520     -163.401831   1.000000
  521     -165.192354   1.000000
  522     -160.529375   1.000000
  523     -165.817030   1.000000
  524     -164.312017   1.000000
  525     -164.949233   1.000000
  526     -165.359951   1.000000
  527     -164.745328   1.000000
  528     -161.607365   1.000000
  529     -164.293154   1.000000
  530     -164.793489   1.000000
  531     -161.172503   1.000000
  532     -166.559470   1.000000
  533     -164.520595   1.000000
  534     -165.591208   1.000000
  535     -162.600958   1.000000
  536     -165.409073   1.000000
  537     -164.745383   1.000000
  538     -165.599223   1.000000
  539     -162.515993   1.000000
  540     -165.261154   1.000000
  541     -164.750241   1.000000
  542     -161.803954   1.000000
  543     -163.126561   1.000000
  544     -161.070678   1.000000
  545     -163.862557   1.000000
  546     -163.139483   1.000000
  547     -161.864557   1.000000
  548     -164.138603   1.000000
  549     -162.909366   1.000000
  550     -160.957937   1.000000
  551     -160.385587   1.000000
  552     -161.188645   1.000000
  553     -162.754799   1.000000
  554     -159.574148   1.000000
  555     -161.981809   1.000000
  556     -164.000423   1.000000
  557     -158.339713   1.000000
  558     -161.861037   1.000000
  559     -163.222431   1.000000
  560     -157.117935   1.000000
  561     -157.474045   1.000000
  562     -159.921124   1.000000
  563     -161.029087   1.000000
  564     -161.782417   1.000000
  565     -158.942402   1.000000
  566     -157.715489   1.000000
  567     -156.300508   1.000000
  568     -159.611325   1.000000
  569     -158.554891   1.000000
  570     -159.505429   1.000000
  571     -158.209309   1.000000
  572     -159.834339   1.000000
  573     -162.244722   1.000000
  574     -157.418872   1.000000
  575     -161.856333   1.000000
  576     -155.294009   1.000000
  577     -157.539823   1.000000
  578     -161.494876   1.000000
  579     -154.602709   1.000000
  580     -161.975047   1.000000
  581     -156.653131   1.000000
  582     -160.640464   1.000000
  583     -160.155597   1.000000
  584     -156.505693   1.000000
  585     -158.174878   1.000000
  586     -155.913183   1.000000
  587     -160.007658   1.000000
  588     -159.718209   1.000000
  589     -160.272232   1.000000
  590     -159.748004   1.000000
  591     -158.282616   1.000000
  592     -157.120872   1.000000
  593     -158.380899   1.000000
  594     -155.963157   1.000000
  595     -157.542644   1.000000
  596     -158.595961   1.000000
  597     -159.295099   1.000000
  598     -158.439121   1.000000
  599     -155.672014   1.000000
  600     -156.749560   1.000000
  601     -157.093551   1.000000
  602     -154.960607   1.000000
  603     -157.015133   1.000000
  604     -159.094127   1.000000
  605     -155.606404   1.000000
  606     -156.748499   1.000000
  607     -155.635782   1.000000
  608     -152.288316   1.000000
  609     -158.756088   1.000000
  610     -158.701096   1.000000
  611     -157.183199   1.000000
  612     -158.670663   1.000000
  613     -154.972678   1.000000
  614     -159.819184   1.000000
  615     -151.917263   1.000000
  616     -160.266532   1.000000
  617     -158.746376   1.000000
  618     -152.962412   1.000000
  619     -158.230090   1.000000
  620     -156.222482   1.000000
  621     -153.454701   1.000000
  622     -155.235341   1.000000
  623     -152.546206   1.000000
  624     -156.106303   1.000000
  625     -155.111444   1.000000
  626     -159.227244   1.000000
  627     -153.088644   1.000000
  628     -154.742571   1.000000
  629     -155.623956   1.000000
  630     -155.542316   1.000000
  631     -155.771701   1.000000
  632     -154.377664   1.000000
  633     -155.481825   1.000000
  634     -156.132474   1.000000
  635     -152.017973   1.000000
  636     -154.246241   1.000000
  637     -156.043056   1.000000
  638     -152.316194   1.000000
  639     -152.703891   1.000000
  640     -155.069585   1.000000
  641     -153.759327   1.000000
  642     -152.156295   1.000000
  643     -155.092595   1.000000
  644     -154.528759   1.000000
  645     -154.045784   1.000000
  646     -152.111816   1.000000
  647     -148.855468   1.000000
  648     -150.453379   1.000000
  649     -152.192728   1.000000
  650     -154.208627   1.000000
  651     -154.889201   1.000000
  652     -154.214742   1.000000
  653     -153.838694   1.000000
  654     -150.192309   1.000000
  655     -152.577171   1.000000
  656     -152.088747   1.000000
  657     -154.919149   1.000000
  658     -153.601240   1.000000
  659     -150.700168   1.000000
  660     -154.217696   1.000000
  661     -151.065966   1.000000
  662     -152.330122   1.000000
  663     -149.470254   1.000000
  664     -153.597026   1.000000
  665     -150.379064   1.000000
  666     -151.589909   1.000000
  667     -154.577776   1.000000
  668     -157.351031   1.000000
  669     -152.395488   1.000000
  670     -152.576410   1.000000
  671     -151.591235   1.000000
  672     -153.764500   1.000000
  673     -151.124359   1.000000
  674     -149.171472   1.000000
  675     -153.019240   1.000000
  676     -151.137140   1.000000
  677     -150.361555   1.000000
  678     -152.277729   1.000000
  679     -147.454695   1.000000
  680     -153.979682   1.000000
  681     -153.401019   1.000000
  682     -151.581514   1.000000
  683     -150.705309   1.000000
  684     -151.602245   1.000000
  685     -151.165764   1.000000
  686     -149.913610   1.000000
  687     -152.271273   1.000000
  688     -150.962972   1.000000
  689     -147.714865   1.000000
  690     -150.784444   1.000000
  691     -153.541039   1.000000
  692     -148.938843   1.000000
  693     -149.753807   1.000000
  694     -148.167965   1.000000
  695     -150.656234   1.000000
  696     -150.736840   1.000000
  697     -147.703011   1.000000
  698     -150.557771   1.000000
  699     -149.747713   1.000000
  700     -154.332831   1.000000
  701     -151.043229   1.000000
  702     -150.783554   1.000000
  703     -150.822478   1.000000
  704     -150.136934   1.000000
  705     -152.009519   1.000000
  706     -148.238261   1.000000
  707     -151.913287   1.000000
  708     -154.078953   1.000000
  709     -148.676002   1.000000
  710     -149.850168   1.000000
  711     -149.464694   1.000000
  712     -147.993229   1.000000
  713     -149.832670   1.000000
  714     -148.684943   1.000000
  715     -149.528929   1.000000
  716     -152.086131   1.000000
  717     -150.632513   1.000000
  718     -147.302560   1.000000
  719     -144.711318   1.000000
  720     -147.820462   1.000000
  721     -144.679405   1.000000
  722     -148.744633   1.000000
  723     -147.633995   1.000000
  724     -146.522496   1.000000
  725     -147.129447   1.000000
  726     -150.664640   1.000000
  727     -148.505634   1.000000
  728     -150.255504   1.000000
  729     -147.128036   1.000000
  730     -145.424873   1.000000
  731     -148.819719   1.000000
  732     -147.725368   1.000000
  733     -148.241385   1.000000
  734     -147.972671   1.000000
  735     -148.454076   1.000000
  736     -150.636302   1.000000
  737     -149.196890   1.000000
  738     -147.726644   1.000000
  739     -148.471776   1.000000
  740     -147.082118   1.000000
  741     -149.230829   1.000000
  742     -149.378527   1.000000
  743     -149.105183   1.000000
  744     -147.510987   1.000000
  745     -141.842600   1.000000
  746     -143.938125   1.000000
  747     -149.480437   1.000000
  748     -144.064656   1.000000
  749     -144.944875   1.000000
  750     -147.161026   1.000000
  751     -147.507358   1.000000
  752     -146.976915   1.000000
  753     -146.676419   1.000000
  754     -143.374367   1.000000
  755     -143.702748   1.000000
  756     -143.735956   1.000000
  757     -145.571693   1.000000
  758     -146.813131   1.000000
  759     -144.933989   1.000000
  760     -144.781325   1.000000
  761     -146.182161   1.000000
  762     -144.820844   1.000000
  763     -141.624679   1.000000
  764     -148.476592   1.000000
  765     -143.246930   1.000000
  766     -147.151847   1.000000
  767     -146.881148   1.000000
  768     -147.185249   1.000000
  769     -142.566122   1.000000
  770     -142.572088   1.000000
  771     -144.108744   1.000000
  772     -144.313038   1.000000
  773     -146.100806   1.000000
  774     -145.410955   1.000000
  775     -144.607270   1.000000
  776     -138.692484   1.000000
  777     -144.203039   1.000000
  778     -147.409533   1.000000
  779     -144.652046   1.000000
  780     -141.832559   1.000000
  781     -143.278318   1.000000
  782     -143.177232   1.000000
  783     -147.348627   1.000000
  784     -144.428728   1.000000
  785     -142.973014   1.000000
  786     -144.335342   1.000000
  787     -142.557166   1.000000
  788     -143.205413   1.000000
  789     -142.205317   1.000000
  790     -139.039887   1.000000
  791     -140.902713   1.000000
  792     -143.996206   1.000000
  793     -144.541269   1.000000
  794     -141.894468   1.000000
  795     -141.684759   1.000000
  796     -144.533879   1.000000
  797     -139.993261   1.000000
  798     -142.955515   1.000000
  799     -141.385673   1.000000
  800     -140.946717   1.000000
  801     -142.620535   1.000000
  802     -141.105047   1.000000
  803     -141.503340   1.000000
  804     -139.314834   1.000000
  805     -141.213826   1.000000
  806     -139.686185   1.000000
  807     -139.817833   1.000000
  808     -139.255782   1.000000
  809     -141.721138   1.000000
  810     -136.474494   1.000000
  811     -137.558025   1.000000
  812     -137.530155   1.000000
  813     -142.005133   1.000000
  814     -139.911070   1.000000
  815     -142.462898   1.000000
  816     -142.399661   1.000000
  817     -137.473935   1.000000
  818     -141.500154   1.000000
  819     -142.170328   1.000000
  820     -137.655324   1.000000
  821     -141.619183   1.000000
  822     -136.236257   1.000000
  823     -138.973664   1.000000
  824     -136.746619   1.000000
  825     -138.238628   1.000000
  826     -141.750975   1.000000
  827     -138.188235   1.000000
  828     -141.689883   1.000000
  829     -138.474713   1.000000
  830     -136.620464   1.000000
  831     -137.802739   1.000000
  832     -135.233963   1.000000
  833     -134.068852   1.000000
  834     -137.545073   1.000000
  835     -137.559909   1.000000
  836     -135.900014   1.000000
  837     -140.459940   1.000000
  838     -135.446037   1.000000
  839     -134.194333   1.000000
  840     -135.647087   1.000000
  841     -128.287582   1.000000
  842     -134.015529   1.000000
  843     -138.153729   1.000000
  844     -134.451833   1.000000
  845     -136.963946   1.000000
  846     -136.548814   1.000000
  847     -134.438387   1.000000
  848     -135.152957   1.000000
  849     -134.923056   1.000000
  850     -131.470269   1.000000
  851     -133.833709   1.000000
  852     -136.485304   1.000000
  853     -130.849722   1.000000
  854     -135.323338   1.000000
  855     -135.385069   1.000000
  856     -134.313267   1.000000
  857     -135.287009   1.000000
  858     -130.554680   1.000000
  859     -131.006504   1.000000
  860     -131.589065   1.000000
  861     -133.622986   1.000000
  862     -135.428698   1.000000
  863     -131.512225   1.000000
  864     -130.928366   1.000000
  865     -129.912613   1.000000
  866     -131.993938   1.000000
  867     -131.868095   1.000000
  868     -128.985922   1.000000
  869     -129.398138   1.000000
  870     -129.124822   1.000000
  871     -128.197588   1.000000
  872     -131.494492   1.000000
  873     -132.488583   1.000000
  874     -131.281518   1.000000
  875     -129.975828   1.000000
  876     -129.436543   1.000000
  877     -127.907083   1.000000
  878     -129.800671   1.000000
  879     -129.434467   1.000000
  880     -129.088804   1.000000
  881     -127.984616   1.000000
  882     -125.390384   1.000000
  883     -126.162505   1.000000
  884     -125.345180   1.000000
  885     -125.794980   1.000000
  886     -124.231578   1.000000
  887     -126.381372   1.000000
  888     -127.292935   1.000000
  889     -127.086194   1.000000
  890     -127.645381   1.000000
  891     -125.891058   1.000000
  892     -124.502158   1.000000
  893     -126.687396   1.000000
  894     -128.831801   1.000000
  895     -123.527093   1.000000
  896     -126.108824   1.000000
  897     -126.341284   1.000000
  898     -125.061088   1.000000
  899     -126.025702   1.000000
  900     -122.477155   1.000000
  901     -125.768670   1.000000