       N       E                     dE             d eps       ncg     rms          rms(c)
DAV:   1     0.290736378644E+05    0.29074E+05   -0.86149E+05 27930   0.196E+03
DAV:   2     0.118764192832E+04   -0.27886E+05   -0.27267E+05 27720   0.601E+02
DAV:   3    -0.194941101020E+04   -0.31371E+04   -0.27188E+04 38920   0.279E+02
DAV:   4    -0.261908684324E+04   -0.66968E+03   -0.60963E+03 51002   0.973E+01
DAV:   5    -0.273855584499E+04   -0.11947E+03   -0.11180E+03 48286   0.396E+01    0.204E+02
RMM:   6    -0.521183819330E+04   -0.24733E+04   -0.94630E+03 47933   0.222E+02    0.552E+02
RMM:   7    -0.376239047705E+04    0.14494E+04   -0.45382E+03 28395   0.148E+02    0.374E+02
RMM:   8    -0.960746031074E+04   -0.58451E+04   -0.12812E+04 41162   0.308E+02    0.805E+02
RMM:   9    -0.118635413137E+05   -0.22561E+04   -0.13009E+04 49215   0.140E+02    0.731E+02
RMM:  10    -0.878414945450E+04    0.30794E+04   -0.33143E+03 45731   0.138E+02    0.573E+02
RMM:  11    -0.548191362177E+04    0.33022E+04   -0.12074E+04 46061   0.314E+02    0.697E+02
RMM:  12    -0.587287533006E+04   -0.39096E+03   -0.97113E+03 46981   0.181E+02    0.648E+02
RMM:  13    -0.784989759830E+04   -0.19770E+04   -0.81521E+03 50031   0.189E+02    0.659E+02
RMM:  14    -0.765374469027E+04    0.19615E+03   -0.54168E+03 48653   0.132E+02    0.572E+02
RMM:  15    -0.575647978578E+04    0.18973E+04   -0.32683E+03 44867   0.143E+02    0.490E+02
RMM:  16    -0.426800191455E+04    0.14885E+04   -0.21739E+03 35243   0.907E+01    0.396E+02
RMM:  17    -0.392687545743E+04    0.34113E+03   -0.20679E+03 44145   0.103E+02    0.303E+02
RMM:  18    -0.375919570990E+04    0.16768E+03   -0.22713E+03 43336   0.642E+01    0.323E+02
RMM:  19    -0.324240083771E+04    0.51679E+03   -0.67456E+02 28030   0.519E+01    0.316E+02
RMM:  20    -0.255102781008E+04    0.69137E+03   -0.38687E+02 30764   0.336E+01    0.210E+02
RMM:  21    -0.242777424779E+04    0.12325E+03   -0.77161E+02 43862   0.215E+01    0.154E+02
RMM:  22    -0.246221744350E+04   -0.34443E+02   -0.37715E+02 37367   0.214E+01    0.159E+02
RMM:  23    -0.237256956276E+04    0.89648E+02   -0.24039E+02 35272   0.184E+01    0.114E+02
RMM:  24    -0.234351648679E+04    0.29053E+02   -0.20558E+02 41450   0.119E+01    0.784E+01
RMM:  25    -0.233587117759E+04    0.76453E+01   -0.10261E+02 42464   0.732E+00    0.628E+01
RMM:  26    -0.234008986639E+04   -0.42187E+01   -0.63706E+01 33605   0.903E+00    0.661E+01
RMM:  27    -0.234458680814E+04   -0.44969E+01   -0.54240E+01 38183   0.609E+00    0.670E+01
RMM:  28    -0.234046128434E+04    0.41255E+01   -0.36196E+01 44369   0.290E+00    0.575E+01
RMM:  29    -0.233756963792E+04    0.28916E+01   -0.14682E+01 36038   0.271E+00    0.537E+01
RMM:  30    -0.233787941379E+04   -0.30978E+00   -0.78300E+00 30317   0.476E+00    0.522E+01
RMM:  31    -0.234160532083E+04   -0.37259E+01   -0.66231E+00 31555   0.393E+00    0.549E+01
RMM:  32    -0.234705788055E+04   -0.54526E+01   -0.88331E+00 38677   0.299E+00    0.606E+01
RMM:  33    -0.235632684935E+04   -0.92690E+01   -0.86197E+00 33102   0.356E+00    0.707E+01
RMM:  34    -0.235396119563E+04    0.23657E+01   -0.71959E+00 41911   0.224E+00    0.676E+01
RMM:  35    -0.235086795686E+04    0.30932E+01   -0.25637E+00 39816   0.127E+00    0.644E+01
RMM:  36    -0.234365518496E+04    0.72128E+01   -0.10764E+00 28763   0.210E+00    0.555E+01
RMM:  37    -0.233891849330E+04    0.47367E+01   -0.16013E+00 28802   0.260E+00    0.496E+01
RMM:  38    -0.233222919242E+04    0.66893E+01   -0.33300E+00 30515   0.305E+00    0.410E+01
RMM:  39    -0.232940651248E+04    0.28227E+01   -0.53218E+00 36250   0.281E+00    0.377E+01
RMM:  40    -0.232843462864E+04    0.97188E+00   -0.50069E+00 38140   0.231E+00    0.368E+01
RMM:  41    -0.232756947567E+04    0.86515E+00   -0.36655E+00 39177   0.164E+00    0.351E+01
RMM:  42    -0.232708227625E+04    0.48720E+00   -0.21505E+00 38451   0.119E+00    0.335E+01
RMM:  43    -0.232662995312E+04    0.45232E+00   -0.11378E+00 32651   0.119E+00    0.332E+01
RMM:  44    -0.232681867843E+04   -0.18873E+00   -0.73761E-01 31906   0.111E+00    0.338E+01
RMM:  45    -0.232669950053E+04    0.11918E+00   -0.62745E-01 31472   0.121E+00    0.329E+01
RMM:  46    -0.232624079989E+04    0.45870E+00   -0.58182E-01 29353   0.139E+00    0.310E+01
RMM:  47    -0.232623394878E+04    0.68511E-02   -0.53581E-01 30479   0.127E+00    0.311E+01
RMM:  48    -0.232594555615E+04    0.28839E+00   -0.94413E-01 36755   0.111E+00    0.309E+01
RMM:  49    -0.232561155157E+04    0.33400E+00   -0.85478E-01 38155   0.799E-01    0.307E+01
RMM:  50    -0.232556512710E+04    0.46424E-01   -0.56509E-01 42633   0.448E-01    0.307E+01
RMM:  51    -0.246800544836E+04   -0.14244E+03   -0.19909E+02 35521   0.181E+01    0.130E+02
RMM:  52    -0.248742482546E+04   -0.19419E+02   -0.24226E+02 46277   0.646E+00    0.142E+02
RMM:  53    -0.251984205336E+04   -0.32417E+02   -0.12332E+02 39787   0.530E+00    0.158E+02
RMM:  54    -0.253121427731E+04   -0.11372E+02   -0.10078E+02 46319   0.286E+00    0.169E+02
RMM:  55    -0.253894224235E+04   -0.77280E+01   -0.78029E+01 42760   0.358E+00    0.176E+02
RMM:  56    -0.243534821761E+04    0.10359E+03   -0.68509E+01 31072   0.131E+01    0.140E+02
RMM:  57    -0.243121839575E+04    0.41298E+01   -0.65461E+01 37029   0.905E+00    0.140E+02
RMM:  58    -0.246300665991E+04   -0.31788E+02   -0.60044E+01 38307   0.809E+00    0.150E+02
RMM:  59    -0.247657313015E+04   -0.13566E+02   -0.65350E+01 40727   0.702E+00    0.153E+02
RMM:  60    -0.248737923208E+04   -0.10806E+02   -0.46031E+01 42628   0.426E+00    0.161E+02
RMM:  61    -0.248296405907E+04    0.44152E+01   -0.45945E+01 36886   0.638E+00    0.161E+02
RMM:  62    -0.249159735963E+04   -0.86333E+01   -0.34151E+01 45461   0.283E+00    0.168E+02
RMM:  63    -0.249456455471E+04   -0.29672E+01   -0.21652E+01 46480   0.144E+00    0.172E+02
RMM:  64    -0.250457363839E+04   -0.10009E+02   -0.24700E+01 33364   0.560E+00    0.175E+02
RMM:  65    -0.250519449365E+04   -0.62086E+00   -0.16138E+01 33612   0.438E+00    0.177E+02
RMM:  66    -0.255980262955E+04   -0.54608E+02   -0.48572E+01 34180   0.835E+00    0.196E+02
RMM:  67    -0.252747496593E+04    0.32328E+02   -0.18995E+01 37468   0.498E+00    0.190E+02
RMM:  68    -0.251747126230E+04    0.10004E+02   -0.12592E+01 29116   0.683E+00    0.186E+02
RMM:  69    -0.250742324227E+04    0.10048E+02   -0.21708E+01 29194   0.873E+00    0.185E+02
RMM:  70    -0.249023064209E+04    0.17193E+02   -0.17506E+01 28640   0.865E+00    0.182E+02
RMM:  71    -0.249386196452E+04   -0.36313E+01   -0.19086E+01 29394   0.782E+00    0.184E+02
RMM:  72    -0.249394970514E+04   -0.87741E-01   -0.11034E+01 28863   0.685E+00    0.184E+02
RMM:  73    -0.251136275787E+04   -0.17413E+02   -0.12009E+01 34926   0.423E+00    0.186E+02
RMM:  74    -0.252020538514E+04   -0.88426E+01   -0.80424E+00 37523   0.271E+00    0.188E+02
RMM:  75    -0.252347517845E+04   -0.32698E+01   -0.57784E+00 43905   0.115E+00    0.190E+02
RMM:  76    -0.249523659516E+04    0.28239E+02   -0.26543E+01 29602   0.919E+00    0.187E+02
RMM:  77    -0.252543173996E+04   -0.30195E+02   -0.13522E+01 28123   0.790E+00    0.192E+02
RMM:  78    -0.254054301783E+04   -0.15111E+02   -0.18650E+01 41629   0.303E+00    0.195E+02
RMM:  79    -0.254248022449E+04   -0.19372E+01   -0.94855E+00 45632   0.106E+00    0.197E+02
RMM:  80    -0.253678046201E+04    0.56998E+01   -0.52597E+00 36978   0.200E+00    0.197E+02
RMM:  81    -0.261574425820E+04   -0.78964E+02   -0.26198E+01 32882   0.674E+00    0.210E+02
RMM:  82    -0.259715534200E+04    0.18589E+02   -0.11651E+01 35014   0.405E+00    0.208E+02
RMM:  83    -0.259656420002E+04    0.59114E+00   -0.11617E+01 44787   0.116E+00    0.210E+02
RMM:  84    -0.259395495473E+04    0.26092E+01   -0.18510E+00 32313   0.112E+00    0.210E+02
RMM:  85    -0.258908073966E+04    0.48742E+01   -0.11234E+00 42694   0.573E-01    0.210E+02
RMM:  86    -0.258512800473E+04    0.39527E+01   -0.10294E+01 28279   0.637E+00    0.210E+02
RMM:  87    -0.255221179466E+04    0.32916E+02   -0.47204E+00 27776   0.556E+00    0.202E+02
RMM:  88    -0.254091810384E+04    0.11294E+02   -0.27487E+00 33399   0.218E+00    0.199E+02
RMM:  89    -0.253669048336E+04    0.42276E+01   -0.27798E+00 32973   0.225E+00    0.198E+02
RMM:  90    -0.252342184447E+04    0.13269E+02   -0.20357E+00 31865   0.210E+00    0.194E+02
RMM:  91    -0.249965766321E+04    0.23764E+02   -0.13672E+01 29055   0.676E+00    0.190E+02
RMM:  92    -0.249037095259E+04    0.92867E+01   -0.64136E+00 27742   0.638E+00    0.187E+02
RMM:  93    -0.248079764635E+04    0.95733E+01   -0.11857E+01 30949   0.551E+00    0.184E+02
RMM:  94    -0.244265251949E+04    0.38145E+02   -0.17218E+01 35266   0.538E+00    0.162E+02
RMM:  95    -0.241863644987E+04    0.24016E+02   -0.11311E+01 34331   0.456E+00    0.148E+02
RMM:  96    -0.281853249935E+04   -0.39990E+03   -0.32663E+02 31337   0.290E+01    0.229E+02
RMM:  97    -0.247736650727E+04    0.34117E+03   -0.10853E+02 27720   0.268E+01    0.159E+02
RMM:  98    -0.242723733282E+04    0.50129E+02   -0.40546E+01 30669   0.999E+00    0.127E+02
RMM:  99    -0.243436181517E+04   -0.71245E+01   -0.46091E+01 37901   0.734E+00    0.132E+02
RMM: 100    -0.243365617170E+04    0.70564E+00   -0.24126E+01 42781   0.346E+00
   1 F= -.24336562E+04 E0= -.24312593E+04  d E =-.243366E+04
       N       E                     dE             d eps       ncg     rms          rms(c)
DAV:   1    -0.246399349755E+04   -0.29632E+02   -0.18892E+03 30534   0.553E+01    0.150E+02
RMM:   2    -0.586417954553E+05   -0.56178E+05   -0.92293E+04 47098   0.925E+02    0.257E+03
RMM:   3    -0.589772774525E+05   -0.33548E+03   -0.77721E+04 50605   0.670E+02    0.236E+03
RMM:   4    -0.598849172134E+05   -0.90764E+03   -0.66472E+04 50730   0.573E+02    0.391E+03
RMM:   5    -0.641169939640E+05   -0.42321E+04   -0.11153E+05 50770   0.669E+02    0.361E+03
RMM:   6    -0.748480874975E+05   -0.10731E+05   -0.13200E+05 50694   0.725E+02    0.487E+03
RMM:   7    -0.875814212205E+05   -0.12733E+05   -0.15560E+05 50712   0.798E+02    0.479E+03
RMM:   8    -0.989715584238E+05   -0.11390E+05   -0.14061E+05 50730   0.771E+02    0.472E+03
RMM:   9    -0.912317593387E+05    0.77398E+04   -0.95082E+04 50497   0.603E+02    0.414E+03
RMM:  10    -0.823123456926E+05    0.89194E+04   -0.54827E+04 50570   0.370E+02    0.356E+03
RMM:  11    -0.684030768177E+05    0.13909E+05   -0.26896E+04 48707   0.230E+02    0.308E+03
RMM:  12    -0.434714402921E+05    0.24932E+05   -0.22438E+04 49986   0.152E+02    0.245E+03
RMM:  13    -0.343571691717E+05    0.91143E+04   -0.13999E+04 48584   0.141E+02    0.225E+03
RMM:  14    -0.353507852321E+05   -0.99362E+03   -0.18211E+04 45581   0.994E+01    0.220E+03
RMM:  15    -0.352043566663E+05    0.14643E+03   -0.14105E+04 44150   0.127E+02    0.230E+03
RMM:  16    -0.364565406264E+05   -0.12522E+04   -0.13413E+04 45223   0.791E+01    0.219E+03
RMM:  17    -0.346963523724E+05    0.17602E+04   -0.50769E+03 43403   0.669E+01    0.218E+03
RMM:  18    -0.340341991471E+05    0.66215E+03   -0.24368E+03 41402   0.316E+01    0.216E+03
RMM:  19    -0.310368239594E+05    0.29974E+04   -0.14596E+03 43820   0.245E+01    0.223E+03
RMM:  20    -0.295955831454E+05    0.14412E+04   -0.34421E+02 39790   0.158E+01    0.210E+03
RMM:  21    -0.127772087606E+05    0.16818E+05   -0.21455E+03 35721   0.508E+01    0.170E+03
RMM:  22     0.473689613902E+04    0.17514E+05   -0.94949E+03 48576   0.969E+01    0.142E+03
RMM:  23     0.122017997207E+05    0.74649E+04   -0.69050E+03 50706   0.137E+02    0.107E+03
RMM:  24     0.154127893577E+05    0.32110E+04   -0.10018E+04 50826   0.154E+02    0.147E+03
RMM:  25     0.140095452182E+05   -0.14032E+04   -0.21604E+04 47335   0.225E+02    0.137E+03
RMM:  26     0.115824275624E+05   -0.24271E+04   -0.25924E+04 46133   0.277E+02    0.156E+03
RMM:  27     0.816015404385E+04   -0.34223E+04   -0.30311E+04 45800   0.347E+02    0.223E+03
RMM:  28     0.420022502157E+04   -0.39599E+04   -0.32064E+04 46455   0.403E+02    0.284E+03
RMM:  29    -0.146036111494E+03   -0.43463E+04   -0.34390E+04 47408   0.422E+02    0.272E+03
RMM:  30    -0.327075895194E+04   -0.31247E+04   -0.29999E+04 46891   0.393E+02    0.254E+03
RMM:  31    -0.719876457582E+04   -0.39280E+04   -0.31298E+04 48785   0.377E+02    0.233E+03
RMM:  32    -0.103643311317E+05   -0.31656E+04   -0.30424E+04 49810   0.334E+02    0.205E+03
RMM:  33    -0.126673280475E+05   -0.23030E+04   -0.27703E+04 50599   0.267E+02    0.173E+03
RMM:  34    -0.110128453519E+05    0.16545E+04   -0.16043E+04 48051   0.211E+02    0.127E+03
RMM:  35    -0.114758543253E+05   -0.46301E+03   -0.10116E+04 47434   0.133E+02    0.114E+03
RMM:  36    -0.113917286579E+05    0.84126E+02   -0.57243E+03 46350   0.963E+01    0.117E+03
RMM:  37    -0.126115153776E+05   -0.12198E+04   -0.28371E+03 40908   0.564E+01    0.119E+03
RMM:  38    -0.122676427374E+05    0.34387E+03   -0.11273E+03 42993   0.329E+01    0.120E+03
RMM:  39    -0.125749596080E+05   -0.30732E+03   -0.92788E+02 45664   0.193E+01    0.127E+03
RMM:  40    -0.115449877477E+05    0.10300E+04   -0.43899E+02 39237   0.195E+01    0.125E+03
RMM:  41    -0.110211511037E+05    0.52384E+03   -0.27881E+02 42736   0.915E+00    0.125E+03
RMM:  42    -0.103746677370E+05    0.64648E+03   -0.10398E+02 38625   0.869E+00    0.123E+03
RMM:  43    -0.110948575879E+05   -0.72019E+03   -0.31230E+02 40666   0.824E+00    0.129E+03
RMM:  44    -0.102928801466E+05    0.80198E+03   -0.30205E+02 34177   0.122E+01    0.126E+03
RMM:  45    -0.102707519618E+05    0.22128E+02   -0.46713E+02 44141   0.873E+00    0.126E+03
RMM:  46    -0.102698982039E+05    0.85376E+00   -0.46741E+02 44331   0.783E+00    0.126E+03
RMM:  47    -0.139416881653E+05   -0.36718E+04   -0.67936E+03 37629   0.122E+02    0.149E+03
RMM:  48    -0.104087144609E+05    0.35330E+04   -0.25043E+03 33841   0.787E+01    0.116E+03
RMM:  49    -0.867301431409E+04    0.17357E+04   -0.24644E+03 38127   0.626E+01    0.110E+03
RMM:  50    -0.818064981599E+04    0.49236E+03   -0.10328E+03 33326   0.468E+01    0.958E+02
RMM:  51    -0.838566299256E+04   -0.20501E+03   -0.54712E+02 42193   0.245E+01    0.981E+02
RMM:  52    -0.653191699170E+04    0.18537E+04   -0.12309E+03 36455   0.490E+01    0.525E+02
RMM:  53    -0.503729321779E+04    0.14946E+04   -0.15054E+03 34513   0.668E+01    0.535E+02
RMM:  54    -0.516959341428E+04   -0.13230E+03   -0.11751E+03 35086   0.515E+01    0.477E+02
RMM:  55    -0.385973480494E+04    0.13099E+04   -0.96559E+02 35833   0.493E+01    0.388E+02
RMM:  56    -0.368171228362E+04    0.17802E+03   -0.72362E+02 37711   0.332E+01    0.381E+02
RMM:  57    -0.333026436174E+04    0.35145E+03   -0.16330E+03 36754   0.569E+01    0.414E+02
RMM:  58    -0.240848354282E+04    0.92178E+03   -0.54356E+02 30391   0.469E+01    0.318E+02
RMM:  59    -0.194945873297E+04    0.45902E+03   -0.14790E+03 48285   0.384E+01    0.291E+02
RMM:  60    -0.164626754233E+04    0.30319E+03   -0.15470E+03 44885   0.419E+01    0.270E+02
RMM:  61    -0.154017526826E+04    0.10609E+03   -0.20047E+03 46622   0.548E+01    0.262E+02
RMM:  62    -0.928385116497E+03    0.61179E+03   -0.53349E+03 48591   0.111E+02    0.373E+02
RMM:  63    -0.107594165007E+04   -0.14756E+03   -0.29072E+03 46795   0.127E+02    0.460E+02
RMM:  64    -0.184020691250E+04   -0.76427E+03   -0.37893E+03 48748   0.119E+02    0.432E+02
RMM:  65    -0.251148704594E+04   -0.67128E+03   -0.34545E+03 47635   0.120E+02    0.446E+02
RMM:  66    -0.313944496172E+04   -0.62796E+03   -0.38579E+03 48491   0.111E+02    0.499E+02
RMM:  67    -0.538482868796E+04   -0.22454E+04   -0.14904E+04 49603   0.199E+02    0.111E+03
RMM:  68    -0.755949579131E+04   -0.21747E+04   -0.16835E+04 48229   0.206E+02    0.138E+03
RMM:  69    -0.964509295405E+04   -0.20856E+04   -0.18095E+04 48795   0.231E+02    0.131E+03
RMM:  70    -0.108561872430E+05   -0.12111E+04   -0.17895E+04 50920   0.192E+02    0.108E+03
RMM:  71    -0.110879515952E+05   -0.23176E+03   -0.14518E+04 47919   0.148E+02    0.907E+02
RMM:  72    -0.980343773846E+04    0.12845E+04   -0.74151E+03 45729   0.118E+02    0.708E+02
RMM:  73    -0.572746182625E+04    0.40760E+04   -0.23881E+03 31131   0.867E+01    0.514E+02
RMM:  74    -0.467895093634E+04    0.10485E+04   -0.15491E+03 40417   0.425E+01    0.443E+02
RMM:  75    -0.406441760455E+04    0.61453E+03   -0.82752E+02 33812   0.389E+01    0.389E+02
RMM:  76    -0.324889293515E+04    0.81552E+03   -0.81500E+02 33912   0.366E+01    0.313E+02
RMM:  77    -0.276986853373E+04    0.47902E+03   -0.12556E+03 44832   0.659E+01    0.344E+02
RMM:  78    -0.239108004844E+04    0.37879E+03   -0.21178E+03 49752   0.461E+01    0.264E+02
RMM:  79    -0.234581907539E+04    0.45261E+02   -0.16440E+03 44058   0.422E+01    0.222E+02
RMM:  80    -0.238217055573E+04   -0.36351E+02   -0.17630E+03 46553   0.476E+01    0.209E+02
RMM:  81    -0.247188115320E+04   -0.89711E+02   -0.15069E+03 49551   0.414E+01    0.197E+02
RMM:  82    -0.343860625826E+04   -0.96673E+03   -0.35565E+03 42830   0.808E+01    0.458E+02
RMM:  83    -0.326004482876E+04    0.17856E+03   -0.21290E+03 50783   0.501E+01    0.294E+02
RMM:  84    -0.341174240390E+04   -0.15170E+03   -0.76872E+02 41604   0.632E+01    0.277E+02
RMM:  85    -0.338910885999E+04    0.22634E+02   -0.40379E+02 49525   0.555E+01    0.226E+02
RMM:  86    -0.359247065166E+04   -0.20336E+03    0.23220E+02 50285   0.530E+01    0.233E+02
RMM:  87    -0.440516430880E+04   -0.81269E+03   -0.14687E+03 45502   0.935E+01    0.380E+02
RMM:  88    -0.434148073486E+04    0.63684E+02   -0.36034E+02 50319   0.771E+01    0.329E+02
RMM:  89    -0.448105641146E+04   -0.13958E+03   -0.10532E+02 51651   0.710E+01    0.362E+02
RMM:  90    -0.476569912984E+04   -0.28464E+03   -0.20561E+02 50631   0.726E+01    0.381E+02
RMM:  91    -0.491520316189E+04   -0.14950E+03   -0.24004E+02 51829   0.715E+01    0.395E+02
RMM:  92    -0.523645173206E+04   -0.32125E+03   -0.60705E+02 45343   0.833E+01    0.400E+02
RMM:  93    -0.512033347184E+04    0.11612E+03   -0.47220E+02 49810   0.739E+01    0.393E+02
RMM:  94    -0.527861687883E+04   -0.15828E+03   -0.51687E+02 48152   0.682E+01    0.398E+02
RMM:  95    -0.546126759371E+04   -0.18265E+03   -0.75370E+02 51708   0.615E+01    0.402E+02
RMM:  96    -0.567951900618E+04   -0.21825E+03   -0.67568E+02 46911   0.591E+01    0.414E+02
RMM:  97    -0.647984821640E+04   -0.80033E+03   -0.21183E+03 43985   0.814E+01    0.490E+02
RMM:  98    -0.685963908868E+04   -0.37979E+03   -0.23727E+03 50117   0.705E+01    0.514E+02
RMM:  99    -0.703248482187E+04   -0.17285E+03   -0.26059E+03 45161   0.729E+01    0.532E+02
RMM: 100    -0.692024078114E+04    0.11224E+03   -0.30561E+03 49611   0.606E+01
   2 F= -.69202408E+04 E0= -.69184814E+04  d E =-.448658E+04
       N       E                     dE             d eps       ncg     rms          rms(c)
DAV:   1    -0.730971701399E+04   -0.27723E+03   -0.73018E+03 55300   0.652E+01    0.726E+02
RMM:   2    -0.894584491141E+05   -0.82149E+05   -0.12479E+06 39754   0.533E+03    0.158E+04
RMM:   3    -0.179695119958E+06   -0.90237E+05   -0.11304E+06 47310   0.962E+03    0.162E+04
RMM:   4    -0.251118863707E+06   -0.71424E+05   -0.45912E+05 45555   0.108E+04    0.172E+04
RMM:   5    -0.305570516277E+06   -0.54452E+05    0.16811E+04 45073   0.121E+04    0.175E+04
RMM:   6    -0.319435232296E+06   -0.13865E+05    0.10903E+05 46455   0.125E+04    0.178E+04
RMM:   7    -0.384911975073E+06   -0.65477E+05   -0.45608E+05 46295   0.122E+04    0.182E+04
RMM:   8    -0.383561868616E+06    0.13501E+04    0.17780E+03 44911   0.115E+04    0.177E+04
RMM:   9    -0.432257961388E+06   -0.48696E+05   -0.37748E+05 46875   0.121E+04    0.180E+04
RMM:  10    -0.399217978495E+06    0.33040E+05   -0.40493E+04 42600   0.106E+04    0.175E+04
RMM:  11    -0.439485611352E+06   -0.40268E+05   -0.49921E+05 46861   0.115E+04    0.179E+04
RMM:  12    -0.457531515809E+06   -0.18046E+05   -0.52955E+05 44488   0.106E+04    0.178E+04
RMM:  13    -0.467259099179E+06   -0.97276E+04   -0.18328E+05 44747   0.101E+04    0.172E+04
RMM:  14    -0.460789123617E+06    0.64700E+04   -0.47449E+05 44051   0.103E+04    0.177E+04
RMM:  15    -0.506603227011E+06   -0.45814E+05   -0.57346E+05 46289   0.103E+04    0.175E+04
RMM:  16    -0.513069170681E+06   -0.64659E+04   -0.63206E+05 44381   0.963E+03    0.175E+04
RMM:  17    -0.539249006369E+06   -0.26180E+05   -0.50977E+05 45187   0.944E+03    0.172E+04
RMM:  18    -0.542572119445E+06   -0.33231E+04   -0.38787E+05 43050   0.960E+03    0.172E+04
RMM:  19    -0.498088092446E+06    0.44484E+05   -0.46385E+05 46627   0.912E+03    0.172E+04
RMM:  20    -0.488206897687E+06    0.98812E+04   -0.57600E+05 43247   0.835E+03    0.171E+04
RMM:  21    -0.430632677896E+06    0.57574E+05   -0.52922E+05 43649   0.712E+03    0.166E+04
RMM:  22    -0.419215649645E+06    0.11417E+05   -0.37068E+05 39181   0.652E+03    0.161E+04
RMM:  23    -0.405909841587E+06    0.13306E+05   -0.39391E+05 42069   0.641E+03    0.159E+04
RMM:  24    -0.329008812067E+06    0.76901E+05   -0.37068E+05 38613   0.522E+03    0.155E+04
RMM:  25    -0.310896759114E+06    0.18112E+05   -0.25464E+05 35499   0.500E+03    0.148E+04
RMM:  26    -0.292239463234E+06    0.18657E+05   -0.44073E+05 40641   0.455E+03    0.153E+04
RMM:  27    -0.293605828113E+06   -0.13664E+04   -0.40191E+05 37113   0.390E+03    0.146E+04
RMM:  28    -0.287275765981E+06    0.63301E+04    0.18515E+04 32055   0.404E+03    0.138E+04
RMM:  29    -0.263286853648E+06    0.23989E+05   -0.27785E+05 36569   0.397E+03    0.141E+04
RMM:  30    -0.286880225324E+06   -0.23593E+05   -0.30092E+05 38735   0.387E+03    0.145E+04
RMM:  31    -0.286963945091E+06   -0.83720E+02   -0.22453E+05 35518   0.352E+03    0.138E+04
RMM:  32    -0.247457113696E+06    0.39507E+05   -0.13050E+05 31992   0.308E+03    0.130E+04
RMM:  33    -0.281631598922E+06   -0.34174E+05    0.25650E+05 29552   0.357E+03    0.128E+04
RMM:  34    -0.318147939253E+06   -0.36516E+05   -0.12805E+05 35580   0.501E+03    0.146E+04
RMM:  35    -0.333285013242E+06   -0.15137E+05   -0.17770E+05 37272   0.506E+03    0.148E+04
RMM:  36    -0.220509315323E+06    0.11278E+06    0.61978E+05 42756   0.493E+03    0.143E+04
RMM:  37    -0.287288266766E+06   -0.66779E+05   -0.65680E+04 37684   0.517E+03    0.153E+04
RMM:  38    -0.388219363549E+07   -0.35949E+07   -0.35529E+07 50304   0.655E+03    0.129E+04
RMM:  39    -0.235232018384E+06    0.36470E+07   -0.91849E+05 49815   0.714E+03    0.173E+04
RMM:  40    -0.240448116000E+06   -0.52161E+04   -0.11531E+05 39954   0.441E+03    0.155E+04
RMM:  41    -0.235607684044E+06    0.48404E+04    0.25363E+05 31405   0.384E+03    0.135E+04
RMM:  42    -0.213402322400E+06    0.22205E+05   -0.38049E+05 39355   0.350E+03    0.137E+04
RMM:  43    -0.170005792965E+06    0.43397E+05    0.31394E+05 34834   0.267E+03    0.122E+04
RMM:  44    -0.192722026002E+06   -0.22716E+05    0.10500E+05 31621   0.238E+03    0.112E+04
RMM:  45     0.205137684813E+06    0.39786E+06    0.37960E+06 50421   0.271E+03    0.110E+04
RMM:  46    -0.163486423621E+06   -0.36862E+06   -0.52089E+04 29014   0.238E+03    0.102E+04
RMM:  47     0.811949538391E+05    0.24468E+06   -0.74553E+06 34594   0.166E+04    0.165E+04
RMM:  48    -0.479286490290E+06   -0.56048E+06   -0.17261E+06 48168   0.391E+04    0.178E+04
RMM:  49    -0.777845174996E+06   -0.29856E+06   -0.74831E+04 48777   0.460E+04    0.189E+04
RMM:  50    -0.141898175661E+08   -0.13412E+08   -0.14216E+07 50289   0.187E+05    0.159E+04
RMM:  51    -0.516334832625E+06    0.13673E+08   -0.25161E+06 49969   0.740E+04    0.172E+04
RMM:  52    -0.503146902435E+06    0.13188E+05    0.34454E+06 49200   0.575E+04    0.179E+04
RMM:  53    -0.137501747352E+07   -0.87187E+06   -0.26353E+06 46065   0.551E+04    0.182E+04
RMM:  54    -0.186523912702E+07   -0.49022E+06    0.70418E+05 45692   0.688E+04    0.190E+04
RMM:  55    -0.319775363761E+07   -0.13325E+07   -0.78147E+06 47569   0.780E+04    0.199E+04
RMM:  56    -0.250133170920E+07    0.69642E+06   -0.30215E+06 45513   0.714E+04    0.203E+04
RMM:  57    -0.223899113546E+07    0.26234E+06   -0.61873E+06 45554   0.485E+04    0.189E+04
RMM:  58    -0.211355235655E+07    0.12544E+06   -0.55775E+06 49118   0.501E+04    0.194E+04
RMM:  59    -0.150124574650E+07    0.61231E+06   -0.16791E+05 48207   0.449E+04    0.194E+04
RMM:  60    -0.181435710337E+07   -0.31311E+06   -0.11657E+06 45819   0.442E+04    0.186E+04
RMM:  61    -0.179264239556E+07    0.21715E+05   -0.67792E+05 46762   0.455E+04    0.185E+04
RMM:  62    -0.128860670769E+07    0.50404E+06   -0.30285E+05 46378   0.357E+04    0.189E+04
RMM:  63    -0.145535322389E+07   -0.16675E+06   -0.90523E+05 45514   0.322E+04    0.181E+04
RMM:  64    -0.110597831653E+07    0.34937E+06    0.10126E+06 45231   0.313E+04    0.183E+04
RMM:  65    -0.286252993888E+07   -0.17566E+07   -0.60594E+06 50665   0.344E+04    0.158E+04
RMM:  66    -0.128482158651E+07    0.15777E+07   -0.19357E+06 48379   0.520E+04    0.176E+04
RMM:  67    -0.168264732295E+07   -0.39783E+06   -0.94488E+05 47261   0.464E+04    0.177E+04
RMM:  68    -0.208281336421E+07   -0.40017E+06   -0.10051E+06 45894   0.504E+04    0.182E+04
RMM:  69    -0.245937457124E+07   -0.37656E+06   -0.26770E+04 45100   0.597E+04    0.179E+04
RMM:  70    -0.270845807601E+07   -0.24908E+06   -0.31758E+05 44379   0.667E+04    0.178E+04
RMM:  71    -0.286154869384E+07   -0.15309E+06    0.57563E+05 45354   0.738E+04    0.179E+04
RMM:  72    -0.275228485299E+07    0.10926E+06    0.13590E+06 45560   0.706E+04    0.178E+04
RMM:  73    -0.277814612429E+07   -0.25861E+05    0.11269E+06 45312   0.721E+04    0.177E+04
RMM:  74    -0.275239139184E+07    0.25755E+05    0.10336E+06 45724   0.720E+04    0.179E+04
RMM:  75    -0.284946702571E+07   -0.97076E+05    0.36887E+05 46246   0.731E+04    0.182E+04
RMM:  76    -0.296888247763E+07   -0.11942E+06    0.23745E+05 46089   0.710E+04    0.183E+04
RMM:  77    -0.251769058387E+07    0.45119E+06    0.30388E+05 45570   0.595E+04    0.184E+04
RMM:  78    -0.229568878778E+07    0.22200E+06    0.10423E+06 45319   0.576E+04    0.181E+04
RMM:  79    -0.221562069879E+07    0.80068E+05    0.88203E+05 46579   0.590E+04    0.184E+04
RMM:  80    -0.207522827774E+07    0.14039E+06   -0.38691E+05 46889   0.512E+04    0.191E+04
RMM:  81    -0.204486199196E+07    0.30366E+05    0.32003E+05 45908   0.468E+04    0.188E+04
RMM:  82    -0.280508869039E+07   -0.76023E+06    0.14372E+06 46190   0.657E+04    0.182E+04
RMM:  83    -0.421209267130E+07   -0.14070E+07    0.24286E+06 46304   0.984E+04    0.180E+04
RMM:  84    -0.457174271782E+07   -0.35965E+06   -0.79582E+05 47021   0.103E+05    0.183E+04
RMM:  85    -0.480354883856E+07   -0.23181E+06    0.26690E+05 46578   0.104E+05    0.176E+04
RMM:  86    -0.485296909184E+07   -0.49420E+05    0.92152E+05 46658   0.107E+05    0.174E+04
RMM:  87    -0.158832778883E+07    0.32646E+07    0.30456E+05 46813   0.496E+04    0.170E+04
RMM:  88    -0.178161792162E+07   -0.19329E+06    0.42499E+05 45923   0.443E+04    0.164E+04
RMM:  89    -0.107217236906E+09   -0.10544E+09   -0.34909E+08 50424   0.519E+05    0.152E+04
RMM:  90    -0.269685571822E+06    0.10695E+09    0.10164E+06 50390   0.616E+04    0.150E+04
RMM:  91    -0.688279293578E+06   -0.41859E+06   -0.14665E+06 50266   0.420E+04    0.151E+04
RMM:  92    -0.196269930589E+06    0.49201E+06    0.56229E+05 49423   0.186E+04    0.133E+04
RMM:  93    -0.136662767386E+06    0.59607E+05   -0.51343E+05 49004   0.112E+04    0.131E+04
RMM:  94    -0.257173465899E+06   -0.12051E+06   -0.76935E+05 50750   0.107E+04    0.148E+04
RMM:  95    -0.330877324640E+06   -0.73704E+05   -0.11183E+06 50062   0.988E+03    0.120E+04
RMM:  96    -0.409649101074E+06   -0.78772E+05   -0.32953E+05 47598   0.111E+04    0.117E+04
RMM:  97    -0.653627000743E+06   -0.24398E+06   -0.19796E+06 50660   0.131E+04    0.132E+04
RMM:  98    -0.408575312884E+06    0.24505E+06   -0.11900E+06 49531   0.874E+03    0.111E+04
RMM:  99    -0.278801752918E+06    0.12977E+06    0.21261E+06 46098   0.125E+04    0.862E+03
RMM: 100    -0.451133329744E+05    0.23369E+06   -0.98169E+05 50602   0.107E+04
   3 F= -.45113333E+05 E0= -.45113164E+05  d E =-.426797E+05
       N       E                     dE             d eps       ncg     rms          rms(c)
DAV:   1    -0.337152494394E+06   -0.58351E+05   -0.29481E+06 41342   0.113E+04    0.200E+04
RMM:   2    -0.139785564470E+06    0.19737E+06   -0.51125E+06 37667   0.156E+04    0.852E+03
RMM:   3    -0.297952462760E+06   -0.15817E+06   -0.94324E+05 49805   0.123E+04    0.845E+03
RMM:   4    -0.205760267520E+06    0.92192E+05   -0.68279E+05 47486   0.597E+03    0.752E+03
RMM:   5    -0.468294036543E+05    0.15893E+06   -0.54473E+05 50686   0.236E+03    0.856E+03
RMM:   6    -0.669548800880E+05   -0.20125E+05   -0.11928E+06 50324   0.496E+03    0.602E+03
RMM:   7    -0.122799222140E+06   -0.55844E+05   -0.66631E+05 48811   0.497E+03    0.710E+03
RMM:   8    -0.372375866440E+05    0.85562E+05   -0.53073E+05 50469   0.294E+03    0.691E+03
RMM:   9    -0.419070547813E+05   -0.46695E+04   -0.47299E+05 49537   0.260E+03    0.640E+03
RMM:  10    -0.192653423814E+05    0.22642E+05   -0.36445E+05 50699   0.163E+03    0.738E+03
RMM:  11    -0.845732593912E+05   -0.65308E+05   -0.29283E+05 46636   0.296E+03    0.539E+03
RMM:  12    -0.252344522826E+05    0.59339E+05   -0.21782E+05 49074   0.106E+03    0.950E+03
RMM:  13    -0.554650124574E+04    0.19688E+05   -0.15618E+05 49912   0.990E+02    0.893E+03
RMM:  14    -0.348936629416E+05   -0.29347E+05   -0.30710E+05 45132   0.136E+03    0.774E+03
RMM:  15    -0.535600965931E+05   -0.18666E+05   -0.21754E+05 47666   0.122E+03    0.811E+03
RMM:  16    -0.554260306679E+05   -0.18659E+04   -0.63054E+05 48376   0.589E+03    0.346E+03
RMM:  17    -0.760687567160E+05   -0.20643E+05   -0.51000E+05 47329   0.455E+03    0.561E+03
RMM:  18    -0.125199257701E+06   -0.49131E+05   -0.41014E+05 45379   0.425E+03    0.809E+03
RMM:  19    -0.192401701614E+06   -0.67202E+05   -0.30354E+05 43119   0.435E+03    0.925E+03
RMM:  20    -0.224950679945E+06   -0.32549E+05   -0.23179E+05 40955   0.434E+03    0.103E+04
RMM:  21    -0.251889435823E+06   -0.26939E+05   -0.26102E+05 38889   0.435E+03    0.108E+04
RMM:  22    -0.267302794797E+06   -0.15413E+05   -0.15785E+05 37492   0.443E+03    0.112E+04
RMM:  23    -0.270797593164E+06   -0.34948E+04   -0.16491E+05 37487   0.460E+03    0.113E+04
RMM:  24    -0.276801982859E+06   -0.60044E+04   -0.20884E+05 37429   0.464E+03    0.114E+04
RMM:  25    -0.282599680695E+06   -0.57977E+04   -0.17489E+05 37899   0.474E+03    0.113E+04
RMM:  26    -0.149481436398E+06    0.13312E+06   -0.18977E+05 43243   0.322E+03    0.109E+04
RMM:  27    -0.229669692439E+06   -0.80188E+05    0.27805E+05 29097   0.388E+03    0.992E+03
RMM:  28    -0.258144126608E+06   -0.28474E+05   -0.32209E+05 35476   0.449E+03    0.112E+04
RMM:  29    -0.262831212894E+06   -0.46871E+04   -0.35443E+05 40718   0.399E+03    0.123E+04
RMM:  30    -0.285811062330E+06   -0.22980E+05    0.37922E+05 29348   0.428E+03    0.949E+03
RMM:  31    -0.265362166376E+06    0.20449E+05   -0.13889E+05 37086   0.504E+03    0.104E+04
RMM:  32    -0.212651814690E+06    0.52710E+05   -0.39396E+05 40533   0.409E+03    0.105E+04
RMM:  33    -0.190818266605E+06    0.21834E+05    0.14486E+04 30168   0.383E+03    0.935E+03
RMM:  34    -0.211445040254E+06   -0.20627E+05   -0.12783E+05 33920   0.402E+03    0.992E+03
RMM:  35    -0.176435709630E+06    0.35009E+05   -0.31578E+05 35200   0.344E+03    0.100E+04
RMM:  36    -0.161546253740E+06    0.14889E+05   -0.10861E+04 28762   0.302E+03    0.947E+03
RMM:  37    -0.153771247027E+06    0.77750E+04    0.88771E+04 28730   0.318E+03    0.880E+03
RMM:  38    -0.188151753294E+06   -0.34381E+05   -0.33601E+05 36210   0.354E+03    0.103E+04
RMM:  39    -0.200838304869E+06   -0.12687E+05   -0.32295E+05 36255   0.303E+03    0.105E+04
RMM:  40    -0.177692675943E+06    0.23146E+05    0.48340E+04 28300   0.290E+03    0.953E+03
RMM:  41    -0.163989856032E+06    0.13703E+05    0.55336E+04 29918   0.326E+03    0.893E+03
RMM:  42    -0.188687777533E+06   -0.24698E+05   -0.35509E+05 36100   0.350E+03    0.105E+04
RMM:  43    -0.214465862986E+06   -0.25778E+05   -0.34846E+05 39598   0.324E+03    0.106E+04
RMM:  44    -0.258935627781E+06   -0.44470E+05    0.14403E+05 31252   0.391E+03    0.944E+03
RMM:  45    -0.321130685910E+06   -0.62195E+05    0.74227E+04 36780   0.617E+03    0.985E+03
RMM:  46    -0.350748555585E+06   -0.29618E+05   -0.60154E+05 46229   0.640E+03    0.115E+04
RMM:  47    -0.377010422926E+06   -0.26262E+05   -0.46499E+05 39450   0.609E+03    0.120E+04
RMM:  48    -0.349609716358E+06    0.27401E+05   -0.14580E+05 39938   0.636E+03    0.113E+04
RMM:  49    -0.422682611120E+06   -0.73073E+05   -0.56505E+05 43036   0.754E+03    0.124E+04
RMM:  50    -0.399458872437E+06    0.23224E+05   -0.33191E+05 42899   0.735E+03    0.119E+04
RMM:  51    -0.418481203758E+06   -0.19022E+05   -0.62277E+05 44041   0.750E+03    0.125E+04
RMM:  52    -0.464693511275E+06   -0.46212E+05   -0.10727E+06 50489   0.696E+03    0.144E+04
RMM:  53    -0.420601344323E+06    0.44092E+05   -0.47445E+05 40850   0.695E+03    0.141E+04
RMM:  54    -0.425083714452E+06   -0.44824E+04   -0.56966E+05 47239   0.669E+03    0.158E+04
RMM:  55    -0.446762597802E+06   -0.21679E+05   -0.53124E+05 40547   0.704E+03    0.148E+04
RMM:  56    -0.416145963453E+06    0.30617E+05   -0.40604E+05 43237   0.627E+03    0.132E+04
RMM:  57    -0.151305047791E+06    0.26484E+06   -0.63021E+05 48641   0.226E+03    0.142E+04
RMM:  58    -0.823416795874E+05    0.68963E+05   -0.15652E+05 46148   0.230E+03    0.120E+04
RMM:  59    -0.872858924635E+05   -0.49442E+04   -0.24933E+05 40133   0.203E+03    0.121E+04
RMM:  60    -0.912062334255E+05   -0.39203E+04   -0.95499E+04 33828   0.137E+03    0.124E+04
RMM:  61    -0.117370258456E+06   -0.26164E+05   -0.50782E+04 30759   0.114E+03    0.132E+04
RMM:  62    -0.378943275907E+05    0.79476E+05   -0.94769E+05 48660   0.269E+03    0.803E+03
RMM:  63    -0.992919087823E+05   -0.61398E+05   -0.68764E+05 43775   0.704E+03    0.576E+03
RMM:  64    -0.243244072604E+06   -0.14395E+06   -0.74238E+05 47964   0.852E+03    0.815E+03
RMM:  65    -0.330969109581E+06   -0.87725E+05   -0.61617E+05 42731   0.853E+03    0.761E+03
RMM:  66    -0.204915926817E+06    0.12605E+06   -0.27436E+05 43125   0.546E+03    0.578E+03
RMM:  67    -0.117007795318E+06    0.87908E+05   -0.61236E+05 50313   0.403E+03    0.561E+03
RMM:  68    -0.104551429534E+06    0.12456E+05   -0.47637E+05 49988   0.328E+03    0.721E+03
RMM:  69    -0.728049926396E+05    0.31746E+05   -0.36465E+05 49786   0.188E+03    0.873E+03
RMM:  70    -0.509975438325E+05    0.21807E+05   -0.29982E+05 49267   0.121E+03    0.888E+03
RMM:  71     0.108167097290E+05    0.61814E+05   -0.17073E+05 49205   0.137E+03    0.737E+03
RMM:  72    -0.268293470970E+05   -0.37646E+05   -0.22972E+05 48385   0.142E+03    0.870E+03
RMM:  73    -0.470319238038E+05   -0.20203E+05   -0.18190E+05 48901   0.939E+02    0.914E+03
RMM:  74    -0.986254778784E+05   -0.51594E+05   -0.24413E+05 50635   0.128E+03    0.905E+03
RMM:  75    -0.517422732736E+05    0.46883E+05   -0.10519E+05 47886   0.778E+02    0.102E+04
RMM:  76    -0.508777812657E+05    0.86449E+03   -0.45504E+04 48921   0.434E+02    0.112E+04
RMM:  77    -0.544794350541E+05   -0.36017E+04   -0.22532E+04 50726   0.299E+02    0.113E+04
RMM:  78    -0.571162297702E+05   -0.26368E+04   -0.17894E+04 48476   0.225E+02    0.117E+04
RMM:  79    -0.494747182262E+05    0.76415E+04   -0.17175E+04 44428   0.247E+02    0.117E+04
RMM:  80    -0.502026323139E+05   -0.72791E+03   -0.90270E+03 48089   0.138E+02    0.117E+04
RMM:  81    -0.525043134262E+05   -0.23017E+04   -0.64683E+03 47303   0.139E+02    0.118E+04
RMM:  82    -0.486614772211E+05    0.38428E+04   -0.43890E+03 45695   0.114E+02    0.119E+04
RMM:  83    -0.504859504560E+05   -0.18245E+04   -0.25161E+03 44762   0.782E+01    0.118E+04
RMM:  84    -0.462109777558E+05    0.42750E+04   -0.14352E+03 39592   0.751E+01    0.118E+04
RMM:  85    -0.451481207744E+05    0.10629E+04   -0.89687E+02 38281   0.357E+01    0.118E+04
RMM:  86    -0.448063301273E+05    0.34179E+03   -0.16121E+02 43234   0.224E+01    0.118E+04
RMM:  87     0.177923767956E+05    0.62599E+05   -0.75625E+04 50852   0.436E+02    0.104E+04
RMM:  88     0.598832225160E+05    0.42091E+05   -0.43477E+04 50840   0.843E+02    0.973E+03
RMM:  89     0.242559253965E+05   -0.35627E+05   -0.37991E+05 50881   0.129E+03    0.759E+03
RMM:  90     0.202428900110E+04   -0.22232E+05   -0.31526E+05 50575   0.248E+03    0.627E+03
RMM:  91    -0.328730388979E+05   -0.34897E+05   -0.32821E+05 50551   0.244E+03    0.571E+03
RMM:  92    -0.431109771988E+05   -0.10238E+05   -0.28727E+05 50435   0.186E+03    0.777E+03
RMM:  93    -0.758142134197E+05   -0.32703E+05   -0.29538E+05 50646   0.152E+03    0.826E+03
RMM:  94    -0.634691273217E+05    0.12345E+05   -0.15990E+05 50644   0.110E+03    0.966E+03
RMM:  95    -0.489804084289E+05    0.14489E+05   -0.84410E+04 50950   0.814E+02    0.100E+04
RMM:  96    -0.419683360948E+05    0.70121E+04   -0.68979E+04 50759   0.599E+02    0.110E+04
RMM:  97     0.223922545982E+05    0.64361E+05   -0.17037E+05 50729   0.114E+03    0.900E+03
RMM:  98     0.890629328953E+03   -0.21502E+05   -0.22656E+05 50126   0.131E+03    0.909E+03
RMM:  99    -0.254823692708E+05   -0.26373E+05   -0.90369E+04 48774   0.717E+02    0.104E+04
RMM: 100    -0.311486587827E+05   -0.56663E+04   -0.44924E+04 50880   0.498E+02
   4 F= -.31148659E+05 E0= -.31148120E+05  d E =-.287150E+05
       N       E                     dE             d eps       ncg     rms          rms(c)
DAV:   1    -0.450624830097E+05   -0.19580E+05   -0.91141E+04 54502   0.605E+02    0.103E+04
RMM:   2     0.863430523992E+04    0.53697E+05   -0.18383E+06 46739   0.106E+04    0.104E+04
RMM:   3    -0.130025947272E+06   -0.13866E+06   -0.13709E+06 49674   0.141E+04    0.966E+03
RMM:   4    -0.213993630204E+06   -0.83968E+05   -0.89618E+05 50150   0.100E+04    0.888E+03
RMM:   5    -0.189117456162E+06    0.24876E+05   -0.60727E+05 49378   0.685E+03    0.851E+03
RMM:   6    -0.185711560520E+06    0.34059E+04   -0.59116E+05 47315   0.436E+03    0.887E+03
RMM:   7    -0.231801532923E+06   -0.46090E+05   -0.46236E+05 41621   0.404E+03    0.100E+04
RMM:   8    -0.248083469202E+06   -0.16282E+05   -0.34008E+05 40042   0.359E+03    0.113E+04
RMM:   9    -0.241836406808E+06    0.62471E+04   -0.17426E+05 37302   0.350E+03    0.121E+04
RMM:  10    -0.304302298628E+06   -0.62466E+05   -0.37101E+05 38805   0.395E+03    0.131E+04
RMM:  11    -0.344842845612E+06   -0.40541E+05    0.18856E+05 37653   0.512E+03    0.123E+04
RMM:  12    -0.477979963984E+06   -0.13314E+06   -0.13324E+05 39985   0.821E+03    0.118E+04
RMM:  13    -0.400879579338E+06    0.77100E+05   -0.41868E+05 44887   0.721E+03    0.132E+04
RMM:  14    -0.412833751014E+06   -0.11954E+05   -0.19107E+05 41562   0.688E+03    0.126E+04
RMM:  15    -0.468037199574E+06   -0.55203E+05   -0.30417E+05 44345   0.774E+03    0.128E+04
RMM:  16    -0.432500268251E+06    0.35537E+05   -0.24720E+05 44812   0.775E+03    0.127E+04
RMM:  17    -0.455316695960E+06   -0.22816E+05   -0.43326E+05 44197   0.782E+03    0.130E+04
RMM:  18    -0.455561123831E+06   -0.24443E+03   -0.12119E+05 43892   0.810E+03    0.126E+04
RMM:  19    -0.483979040268E+06   -0.28418E+05   -0.52136E+05 46157   0.885E+03    0.134E+04
RMM:  20    -0.489533370597E+06   -0.55543E+04   -0.24124E+05 43903   0.841E+03    0.130E+04
RMM:  21    -0.685556932644E+06   -0.19602E+06    0.23766E+05 44419   0.132E+04    0.125E+04
RMM:  22    -0.117627548648E+07   -0.49072E+06    0.34602E+05 49349   0.262E+04    0.133E+04
RMM:  23    -0.111230895637E+07    0.63967E+05   -0.45388E+05 47676   0.265E+04    0.136E+04
RMM:  24    -0.994442819605E+06    0.11787E+06    0.97733E+05 44749   0.230E+04    0.113E+04
RMM:  25    -0.724240544524E+06    0.27020E+06    0.11095E+06 46893   0.205E+04    0.117E+04
RMM:  26    -0.634622670528E+06    0.89618E+05    0.83742E+05 46260   0.176E+04    0.114E+04
RMM:  27    -0.129692078919E+07   -0.66230E+06    0.68292E+05 50520   0.220E+04    0.908E+03
RMM:  28    -0.504079053713E+06    0.79284E+06   -0.80409E+05 49471   0.212E+04    0.105E+04
RMM:  29    -0.764531650805E+06   -0.26045E+06    0.14016E+05 48507   0.218E+04    0.116E+04
RMM:  30    -0.117324539589E+07   -0.40871E+06   -0.27995E+06 50276   0.209E+04    0.124E+04
RMM:  31    -0.815711350104E+06    0.35753E+06   -0.14583E+05 48554   0.214E+04    0.119E+04
RMM:  32    -0.562338516621E+06    0.25337E+06    0.19875E+06 46432   0.191E+04    0.109E+04
RMM:  33    -0.680228537845E+06   -0.11789E+06    0.10027E+06 46903   0.220E+04    0.115E+04
RMM:  34    -0.602338152765E+06    0.77890E+05    0.15974E+06 46825   0.211E+04    0.119E+04
RMM:  35    -0.732307651087E+06   -0.12997E+06    0.73453E+05 47109   0.225E+04    0.119E+04
RMM:  36    -0.631671490857E+06    0.10064E+06    0.14550E+06 47152   0.216E+04    0.118E+04
RMM:  37    -0.709994378979E+06   -0.78323E+05    0.89087E+05 47051   0.221E+04    0.115E+04
RMM:  38    -0.641587995921E+06    0.68406E+05    0.13915E+06 46881   0.215E+04    0.118E+04
RMM:  39    -0.781756406064E+06   -0.14017E+06    0.49959E+05 46982   0.223E+04    0.119E+04
RMM:  40    -0.702100271443E+06    0.79656E+05    0.10929E+06 46811   0.216E+04    0.122E+04
RMM:  41    -0.177771263468E+07   -0.10756E+07   -0.33869E+06 50597   0.262E+04    0.108E+04
RMM:  42    -0.591421233034E+06    0.11863E+07   -0.76273E+05 49948   0.251E+04    0.121E+04
RMM:  43    -0.709185937200E+06   -0.11776E+06    0.56785E+05 47204   0.201E+04    0.118E+04
RMM:  44    -0.528353890151E+06    0.18083E+06    0.16474E+06 46909   0.184E+04    0.109E+04
RMM:  45    -0.605768126866E+06   -0.77414E+05    0.56839E+04 47434   0.177E+04    0.113E+04
RMM:  46    -0.575515960154E+06    0.30252E+05    0.10521E+06 47383   0.184E+04    0.116E+04
RMM:  47    -0.549029825297E+06    0.26486E+05    0.12219E+05 47775   0.158E+04    0.121E+04
RMM:  48    -0.601602448899E+06   -0.52573E+05    0.20244E+05 45293   0.151E+04    0.126E+04
RMM:  49    -0.611071802110E+06   -0.94694E+04    0.90647E+05 46576   0.174E+04    0.128E+04
RMM:  50    -0.644433056739E+06   -0.33361E+05    0.29538E+05 47669   0.185E+04    0.137E+04
RMM:  51    -0.845757981748E+06   -0.20132E+06   -0.34088E+05 45635   0.189E+04    0.140E+04
RMM:  52    -0.618240300279E+06    0.22752E+06    0.81686E+05 47423   0.176E+04    0.127E+04
RMM:  53    -0.653228968253E+06   -0.34989E+05   -0.12592E+06 47899   0.156E+04    0.128E+04
RMM:  54    -0.638589536593E+06    0.14639E+05   -0.84501E+05 44519   0.131E+04    0.130E+04
RMM:  55    -0.810533959191E+06   -0.17194E+06   -0.59608E+05 45489   0.156E+04    0.136E+04
RMM:  56    -0.807372472673E+06    0.31615E+04   -0.76256E+05 47115   0.169E+04    0.135E+04
RMM:  57     0.392140776570E+05    0.84659E+06   -0.19705E+06 50533   0.856E+03    0.591E+03
RMM:  58    -0.175188192761E+06   -0.21440E+06   -0.39937E+05 49862   0.169E+04    0.839E+03
RMM:  59    -0.319410103788E+06   -0.14422E+06   -0.95110E+05 46320   0.116E+04    0.832E+03
RMM:  60    -0.281170742469E+06    0.38239E+05   -0.42631E+05 47071   0.900E+03    0.837E+03
RMM:  61    -0.376562635621E+06   -0.95392E+05   -0.10184E+05 43947   0.103E+04    0.886E+03
RMM:  62    -0.382967173293E+06   -0.64045E+04   -0.10361E+06 41575   0.778E+03    0.854E+03
RMM:  63    -0.191986810154E+06    0.19098E+06    0.16035E+06 43445   0.715E+03    0.741E+03
RMM:  64    -0.395423814092E+06   -0.20344E+06   -0.10414E+06 45929   0.710E+03    0.986E+03
RMM:  65    -0.475997913444E+07   -0.43646E+07   -0.42598E+07 50470   0.741E+03    0.509E+03
RMM:  66    -0.212809384357E+06    0.45472E+07   -0.13277E+06 50514   0.944E+03    0.841E+03
RMM:  67    -0.337568466036E+06   -0.12476E+06   -0.98166E+05 45645   0.706E+03    0.102E+04
RMM:  68    -0.156218143121E+06    0.18135E+06   -0.38968E+05 40898   0.261E+03    0.953E+03
RMM:  69    -0.278803720038E+06   -0.12259E+06    0.66601E+05 32221   0.441E+03    0.828E+03
RMM:  70    -0.392706208553E+06   -0.11390E+06   -0.87194E+05 42459   0.671E+03    0.109E+04
RMM:  71    -0.389646528974E+06    0.30597E+04   -0.19880E+05 39412   0.509E+03    0.989E+03
RMM:  72    -0.219188955416E+06    0.17046E+06   -0.11738E+05 36676   0.391E+03    0.999E+03
RMM:  73    -0.239095592753E+06   -0.19907E+05   -0.13254E+05 34810   0.408E+03    0.106E+04
RMM:  74    -0.182013623519E+06    0.57082E+05    0.25561E+05 29389   0.370E+03    0.942E+03
RMM:  75    -0.153829826583E+06    0.28184E+05   -0.23465E+03 31651   0.408E+03    0.944E+03
RMM:  76    -0.141666781170E+06    0.12163E+05   -0.21131E+05 33224   0.334E+03    0.102E+04
RMM:  77    -0.243073393685E+06   -0.10141E+06    0.17139E+06 30559   0.745E+03    0.788E+03
RMM:  78    -0.464238409408E+06   -0.22117E+06   -0.67212E+05 47000   0.140E+04    0.119E+04
RMM:  79    -0.400175459912E+06    0.64063E+05   -0.27015E+05 41280   0.962E+03    0.103E+04
RMM:  80    -0.247933921175E+06    0.15224E+06   -0.47355E+04 47541   0.990E+03    0.942E+03
RMM:  81    -0.350294065714E+06   -0.10236E+06   -0.14728E+06 48699   0.113E+04    0.922E+03
RMM:  82    -0.286257745172E+06    0.64036E+05   -0.52685E+05 45728   0.884E+03    0.980E+03
RMM:  83    -0.308225638219E+06   -0.21968E+05   -0.29836E+05 45862   0.816E+03    0.993E+03
RMM:  84    -0.324967602378E+06   -0.16742E+05   -0.33493E+05 44875   0.835E+03    0.105E+04
RMM:  85    -0.328481332841E+06   -0.35137E+04   -0.33168E+05 44890   0.836E+03    0.983E+03
RMM:  86    -0.347977972156E+06   -0.19497E+05   -0.50558E+05 44992   0.864E+03    0.111E+04
RMM:  87    -0.397518604033E+06   -0.49541E+05   -0.21742E+05 43450   0.102E+04    0.109E+04
RMM:  88    -0.386483155484E+06    0.11035E+05   -0.58720E+05 44618   0.107E+04    0.109E+04
RMM:  89    -0.419828077659E+06   -0.33345E+05   -0.68637E+05 46794   0.110E+04    0.118E+04
RMM:  90    -0.413525656457E+06    0.63024E+04    0.86326E+03 41621   0.113E+04    0.112E+04
RMM:  91    -0.396568381698E+06    0.16957E+05    0.12788E+05 48172   0.123E+04    0.117E+04
RMM:  92    -0.487060078423E+06   -0.90492E+05   -0.81994E+05 46123   0.128E+04    0.127E+04
RMM:  93    -0.417255074880E+06    0.69805E+05    0.14974E+06 46379   0.140E+04    0.103E+04
RMM:  94    -0.466227161140E+06   -0.48972E+05   -0.12138E+06 48453   0.153E+04    0.126E+04
RMM:  95    -0.437280684361E+06    0.28946E+05    0.12219E+05 47437   0.127E+04    0.116E+04
RMM:  96    -0.423341708562E+06    0.13939E+05   -0.24973E+05 47726   0.133E+04    0.122E+04
RMM:  97    -0.314238163936E+06    0.10910E+06   -0.38207E+05 45540   0.106E+04    0.112E+04
RMM:  98    -0.268680657891E+06    0.45558E+05   -0.40836E+05 45010   0.920E+03    0.957E+03
RMM:  99    -0.233189443940E+06    0.35491E+05   -0.45208E+05 46968   0.814E+03    0.941E+03
RMM: 100    -0.196067180142E+06    0.37122E+05   -0.59291E+05 48461   0.489E+03
   5 F= -.19606718E+06 E0= -.19606717E+06  d E =-.193634E+06
