unknown system                          
           1
     9.726678    0.000000    0.000000
     0.000000    8.423550    0.000000
     0.000000    0.000000   45.000000
   Fe   Mn
 274  14
Direct configuration=     1
   0.06189551  0.02920954  0.12407075
   0.31630376  0.87488230  0.65515676
   0.18425850  0.12230839  0.78843286
   0.44143767  0.28766458  0.38911997
   0.31797802  0.71357704  0.83310498
   0.81813194  0.21478299  0.83361043
   0.19153549  0.96336462  0.83359089
   0.56226511  0.20727023  0.56552005
   0.06533916  0.04036929  0.74406965
   0.81160603  0.87145722  0.52137434
   0.19043841  0.29102997  0.74433490
   0.93365976  0.45245952  0.34492878
   0.94119694  0.28674925  0.38893268
   0.81274190  0.04111007  0.87578638
   0.18375656  0.78820880  0.61081281
   0.56647124  0.03764553  0.38906089
   0.94231796  0.96506296  0.83390824
   0.31360767  0.54088309  0.87615140
   0.69035948  0.29136524  0.74445324
   0.18223567  0.61345291  0.16657630
   0.81227750  0.20584720  0.47868000
   0.80886573  0.53849424  0.61101668
   0.31178232  0.87079971  0.43441759
   0.80926844  0.03711916  0.25585781
   0.68308084  0.95193424  0.34478283
   0.93104263  0.11436690  0.16688159
   0.06176902  0.87170169  0.52137876
   0.55768001  0.53768140  0.25559223
   0.68401254  0.79795094  0.87602058
   0.55622134  0.36533338  0.16659563
   0.43964955  0.79196588  0.74438934
   0.81138089  0.70652900  0.56547182
   0.55967724  0.87451843  0.78869259
   0.68679960  0.12182441  0.52138686
   0.81652563  0.37479849  0.65490605
   0.94209871  0.46449326  0.83375589
   0.06000490  0.20800959  0.69961291
   0.43523897  0.95796193  0.69962406
   0.31687305  0.21433753  0.83353649
   0.44136368  0.62480615  0.65493348
   0.30893159  0.53845665  0.61096300
   0.93653408  0.45664869  0.56560792
   0.69015602  0.79155166  0.74420425
   0.93413435  0.78840000  0.12442156
   0.69146693  0.78791479  0.38900982
   0.94041644  0.79071546  0.74444591
   0.05873822  0.20270844  0.34480723
   0.68373977  0.45240061  0.34496645
   0.43414552  0.12203947  0.78875003
   0.06522719  0.20380930  0.21106780
   0.05532299  0.36547808  0.16665433
   0.93344169  0.78694323  0.25554304
   0.56080661  0.20723487  0.69968367
   0.68508209  0.95750748  0.69973858
   0.80908621  0.87459326  0.78845846
   0.43681053  0.95712182  0.56541403
   0.80896557  0.37579514  0.78856272
   0.68421402  0.28789911  0.25604418
   0.18737592  0.45697105  0.56549715
   0.05604339  0.86494777  0.16661608
   0.18406392  0.28840875  0.61103921
   0.06227963  0.20729055  0.56538572
   0.31011188  0.20717511  0.69987313
   0.56332141  0.54104031  0.87607434
   0.06235795  0.70681905  0.56556027
   0.68343577  0.62314848  0.78878214
   0.31614782  0.53801618  0.38894154
   0.18686649  0.62151430  0.52142075
   0.56245932  0.87067360  0.43445253
   0.43665471  0.45671036  0.56552674
   0.43945359  0.29199385  0.74447926
   0.82104345  0.87343910  0.30021626
   0.80865378  0.70249107  0.34490173
   0.44149923  0.46245204  0.83352807
   0.68747691  0.95595200  0.47866819
   0.68413474  0.45800186  0.69977868
   0.56203857  0.87195693  0.52147391
   0.56632526  0.37483860  0.65488795
   0.81634263  0.87482884  0.65492871
   0.81219717  0.37195924  0.43424695
   0.80862485  0.53717668  0.25591813
   0.69143516  0.46227465  0.83323862
   0.18594316  0.78813569  0.12401941
   0.69140238  0.28737784  0.38903282
   0.31610762  0.37431766  0.65492429
   0.30886096  0.20229337  0.34469462
   0.81548443  0.54018060  0.74402403
   0.69152577  0.96236045  0.83356112
   0.56597143  0.87432734  0.65501857
   0.31155572  0.70716085  0.56554344
   0.31271336  0.52979722  0.12394072
   0.68983538  0.95474188  0.21177600
   0.31152359  0.20662490  0.56552152
   0.18751728  0.95565221  0.47870059
   0.68741980  0.95704770  0.56552382
   0.43380645  0.78808020  0.61092915
   0.68260358  0.61220153  0.16622956
   0.31914723  0.87403525  0.30018971
   0.31227688  0.70580209  0.47863291
   0.93365222  0.28771057  0.61094549
   0.44493795  0.62400824  0.30038374
   0.80719247  0.86348157  0.16682378
   0.56675658  0.20295890  0.21141590
   0.93275845  0.61281907  0.16668598
   0.43737207  0.95585018  0.47863861
   0.55943169  0.37388974  0.78870667
   0.06156130  0.37229819  0.52142315
   0.30710858  0.36384995  0.16661369
   0.69559577  0.12307802  0.30023578
   0.44263064  0.96302782  0.83338879
   0.18510268  0.28666702  0.12411274
   0.18379428  0.28743476  0.25581014
   0.31269819  0.37066365  0.43440881
   0.56298128  0.03205158  0.12428870
   0.43388962  0.28826205  0.61093532
   0.18348069  0.45243601  0.34488431
   0.43450143  0.28671425  0.12415912
   0.68365887  0.78748202  0.25579132
   0.43697948  0.12158648  0.52152351
   0.18868246  0.29718957  0.87621449
   0.19146612  0.12508427  0.65518141
   0.94113802  0.12506613  0.65513145
   0.81618772  0.53751385  0.38905306
   0.06637128  0.03805117  0.38912389
   0.18337455  0.11208330  0.16646819
   0.05878373  0.53828639  0.61101146
   0.93409170  0.28788668  0.25589642
   0.55884507  0.53814684  0.61102365
   0.93663904  0.95713584  0.56554189
   0.69478092  0.62394894  0.30017360
   0.93749575  0.62034593  0.43443421
   0.93351836  0.62409710  0.78849441
   0.56027637  0.70694665  0.69977139
   0.06561113  0.71712662  0.83405685
   0.94508779  0.12254717  0.30006230
   0.93366408  0.78756693  0.61093032
   0.43343918  0.78747555  0.25565334
   0.19140165  0.78759797  0.38902051
   0.43966670  0.45376063  0.21135191
   0.18680233  0.12192190  0.52142525
   0.81044808  0.70728868  0.69974557
   0.05876083  0.03800093  0.61088788
   0.56625224  0.21391313  0.83331944
   0.31159539  0.87184456  0.52137935
   0.68640237  0.28589510  0.12392180
   0.19016814  0.95483385  0.21169443
   0.68391525  0.28835754  0.61105245
   0.30887822  0.03849106  0.61100535
   0.93495844  0.12386697  0.78852845
   0.43674995  0.79845135  0.87638799
   0.81529790  0.04054636  0.74423889
   0.93529694  0.45827775  0.69965571
   0.19125417  0.62497626  0.65496427
   0.31079981  0.70785507  0.69971092
   0.93410723  0.28682424  0.12388416
   0.43743989  0.45594140  0.47856755
   0.06240310  0.70605055  0.47845761
   0.93718825  0.11984519  0.43459976
   0.44477494  0.12262000  0.30036449
   0.18764875  0.12012664  0.43440007
   0.56321276  0.04025879  0.87614908
   0.18692818  0.95705263  0.56554704
   0.68460876  0.78810779  0.12435263
   0.55877191  0.70194569  0.34489761
   0.31652839  0.03757032  0.38906891
   0.68255098  0.11383002  0.16690644
   0.81597419  0.20304461  0.21116043
   0.05935943  0.53729326  0.25573000
   0.56249512  0.70572167  0.47865367
   0.43506558  0.78687102  0.12411673
   0.56994237  0.37200947  0.30014808
   0.43362933  0.95239409  0.34490118
   0.18519296  0.95802032  0.69964250
   0.43182733  0.61281116  0.16608711
   0.93972211  0.45349225  0.21161288
   0.06175478  0.52976168  0.12406261
   0.81199597  0.37207040  0.52139360
   0.94475177  0.62267321  0.29995728
   0.30891680  0.03719130  0.25552062
   0.68420311  0.78848686  0.61097470
   0.19179911  0.46287182  0.83360792
   0.43226700  0.11176381  0.16658392
   0.31169030  0.37198515  0.52140879
   0.43315442  0.62253853  0.78904933
   0.05901809  0.03730985  0.25580524
   0.56225792  0.70702435  0.56551595
   0.93911698  0.29087060  0.74456921
   0.68261103  0.12247692  0.78854294
   0.18960034  0.45320331  0.21115477
   0.94124753  0.78769107  0.38884237
   0.68611120  0.29922578  0.87597061
   0.55645412  0.86236977  0.16630242
   0.43547735  0.45808877  0.69971561
   0.93389024  0.95110090  0.34476293
   0.68651930  0.62164562  0.52134936
   0.06616808  0.87433476  0.65498889
   0.05908099  0.87544292  0.78858594
   0.06631417  0.37476634  0.65490704
   0.68722780  0.45587268  0.47865293
   0.18350161  0.78728002  0.25548698
   0.43690976  0.12084259  0.43432439
   0.81417429  0.03057993  0.12401806
   0.93676966  0.62199643  0.52142784
   0.44135511  0.12458734  0.65494512
   0.81327237  0.52903773  0.12396013
   0.43360890  0.45257187  0.34502870
   0.80881490  0.20245737  0.34497000
   0.30915576  0.70170794  0.34485135
   0.69101525  0.12520015  0.65513688
   0.57042324  0.87327563  0.30028259
   0.06540280  0.54048490  0.74417046
   0.94077223  0.95374514  0.21125872
   0.81588343  0.70336668  0.21132285
   0.06997414  0.87343173  0.30030842
   0.19524133  0.12318317  0.30029501
   0.05854267  0.70188272  0.34490924
   0.80877892  0.03788856  0.61083848
   0.06260595  0.37178334  0.43434017
   0.55879795  0.20274880  0.34481029
   0.81964869  0.37324383  0.30002248
   0.56005339  0.03738432  0.25543885
   0.56651609  0.53772791  0.38906338
   0.06255301  0.20593140  0.47865261
   0.31046060  0.87326297  0.78853199
   0.93536693  0.95801777  0.69966417
   0.06988245  0.37387558  0.30014359
   0.69102119  0.62504761  0.65513545
   0.68657205  0.45715005  0.56536976
   0.44081290  0.95548885  0.21205634
   0.31264796  0.20574514  0.47869407
   0.81230009  0.54056062  0.87590585
   0.68788823  0.62043817  0.43442352
   0.81041570  0.20713626  0.69978447
   0.81255396  0.70594011  0.47863024
   0.81164131  0.87121512  0.43429176
   0.93740836  0.95537191  0.47869092
   0.56220746  0.20582258  0.47864931
   0.18741000  0.62024360  0.43448160
   0.31496592  0.04183777  0.74424181
   0.94147039  0.62501561  0.65493019
   0.56631962  0.71377881  0.83333408
   0.32001329  0.37225304  0.30028051
   0.31523377  0.54108437  0.74436154
   0.18737893  0.45576171  0.47864184
   0.31478519  0.04073056  0.87591813
   0.18519766  0.45797946  0.69963470
   0.56179738  0.37186867  0.52141472
   0.19120014  0.28749471  0.38897946
   0.31581743  0.20402111  0.21120420
   0.06726874  0.70318533  0.21130731
   0.56204874  0.37116241  0.43442939
   0.43698420  0.62190568  0.52140175
   0.81657877  0.71490270  0.83324226
   0.06006511  0.37605445  0.78844261
   0.43658589  0.29844663  0.87644641
   0.31155018  0.03078258  0.12410968
   0.68779453  0.12010718  0.43428474
   0.18374899  0.95202517  0.34490912
   0.06655681  0.21541917  0.83409785
   0.55932214  0.03843768  0.61108894
   0.68904678  0.45430845  0.21175361
   0.18958573  0.79153522  0.74416016
   0.19496002  0.62248971  0.30026431
   0.44142323  0.78764384  0.38909156
   0.43332858  0.28806140  0.25581725
   0.06281645  0.54085187  0.87591158
   0.56549659  0.04148107  0.74416974
   0.18733841  0.79882990  0.87631973
   0.93752781  0.45565402  0.47865967
   0.56561487  0.54068028  0.74387031
   0.81123673  0.20715398  0.56542381
   0.18517231  0.62265685  0.78855505
   0.06655430  0.53750075  0.38908687
   0.06092234  0.70750732  0.69974036
   0.30856900  0.53729254  0.25557429
   0.31457292  0.70287992  0.21228557
   0.30617859  0.86457127  0.16577201
   0.43686812  0.62069389  0.43437690
   0.81785392  0.03850400  0.38901699
   0.93449102  0.29772633  0.87558534
   0.93761261  0.79586485  0.87564689
   0.06505997  0.03846644  0.87585950
   0.56235121  0.52881109  0.12448241
   0.80564512  0.36537813  0.16592719
   0.06272513  0.87138130  0.43423328
   0.93661277  0.12173706  0.52154860
   0.30894436  0.37531880  0.78811945
   0.56685295  0.70259711  0.21199860
Direct configuration=     2
   0.06155324  0.03257698  0.12409788
   0.31564962  0.87515316  0.65511268
   0.18450772  0.12388028  0.78853469
   0.44150204  0.28869199  0.38886608
   0.31700029  0.71410479  0.83225927
   0.81700492  0.21376998  0.83256079
   0.19150914  0.96319588  0.83243929
   0.56209344  0.20662229  0.56579156
   0.06501643  0.04115217  0.74465319
   0.81186962  0.87164056  0.52228690
   0.18965620  0.29068835  0.74501685
   0.93427714  0.45308877  0.34400737
   0.94168566  0.28806191  0.38874507
   0.81190030  0.04199759  0.87483718
   0.18373335  0.78848282  0.61027249
   0.56556265  0.03774090  0.38881434
   0.94168038  0.96523185  0.83280892
   0.31413093  0.54278293  0.87528366
   0.69079200  0.29076560  0.74461014
   0.18256871  0.61283968  0.16678418
   0.81310380  0.20511820  0.47929901
   0.80922435  0.53833453  0.61040443
   0.31218438  0.87076562  0.43536889
   0.81013168  0.03799877  0.25560655
   0.68400225  0.95142012  0.34392947
   0.93205895  0.11512255  0.16674247
   0.06122420  0.87225525  0.52219833
   0.55823317  0.53704993  0.25518591
   0.68420980  0.79790941  0.87501418
   0.55543828  0.36405810  0.16657811
   0.43840804  0.79199983  0.74470212
   0.81139069  0.70642031  0.56573396
   0.55940190  0.87486644  0.78914807
   0.68695632  0.12193628  0.52249723
   0.81594846  0.37410870  0.65494022
   0.94156364  0.46405690  0.83271386
   0.05989143  0.20808019  0.70018890
   0.43556844  0.95862442  0.70006896
   0.31652990  0.21308340  0.83219710
   0.44073960  0.62399203  0.65489975
   0.30914664  0.53833249  0.61048669
   0.93615211  0.45641854  0.56592467
   0.69035777  0.79186518  0.74444999
   0.93384167  0.78652543  0.12419726
   0.69114986  0.78588322  0.38891826
   0.94107574  0.79166297  0.74472075
   0.05891714  0.20281280  0.34400379
   0.68503971  0.45331853  0.34421909
   0.43329782  0.12358832  0.78903406
   0.06491714  0.20426906  0.21082289
   0.05623915  0.36361444  0.16682634
   0.93378141  0.78716144  0.25542537
   0.56149557  0.20740681  0.70001962
   0.68573831  0.95868595  0.70016091
   0.81008005  0.87580657  0.78879924
   0.43705677  0.95776833  0.56564267
   0.81004823  0.37456772  0.78881910
   0.68549106  0.28731017  0.25568085
   0.18716336  0.45667025  0.56573110
   0.05604051  0.86631891  0.16675497
   0.18420533  0.28836836  0.61053407
   0.06145399  0.20670572  0.56563366
   0.31037084  0.20726435  0.70027575
   0.56396952  0.54208412  0.87529574
   0.06188898  0.70646328  0.56581985
   0.68382713  0.62331398  0.78907207
   0.31583538  0.53795000  0.38847991
   0.18777983  0.62166337  0.52239974
   0.56442751  0.87071454  0.43533554
   0.43681237  0.45636445  0.56564633
   0.43796841  0.29175301  0.74495769
   0.82068059  0.87345086  0.30052275
   0.80988547  0.70249138  0.34419546
   0.44101720  0.46229577  0.83269110
   0.68862471  0.95519317  0.47924581
   0.68536064  0.45675304  0.70006769
   0.56174985  0.87167770  0.52251463
   0.56587276  0.37416516  0.65491353
   0.81606731  0.87514156  0.65484763
   0.81138980  0.37146062  0.43518828
   0.80959619  0.53636332  0.25564074
   0.69133170  0.46210146  0.83250303
   0.18514622  0.78612568  0.12371878
   0.68999673  0.28894236  0.38894952
   0.31566441  0.37375091  0.65490863
   0.30866437  0.20275964  0.34408331
   0.81607037  0.53943582  0.74425762
   0.69072427  0.96294323  0.83260934
   0.56555796  0.87492007  0.65497041
   0.31169262  0.70694476  0.56565424
   0.31300565  0.52994140  0.12375601
   0.68985511  0.95458661  0.21144664
   0.31190736  0.20625781  0.56571979
   0.18707393  0.95508748  0.47956093
   0.68739571  0.95723456  0.56587688
   0.43438565  0.78863875  0.61031069
   0.68283740  0.61299239  0.16648115
   0.31828266  0.87336012  0.30053519
   0.31192480  0.70538415  0.47964727
   0.93378547  0.28757141  0.61038807
   0.44431774  0.62324871  0.30070843
   0.80786066  0.86550965  0.16683331
   0.56615539  0.20386328  0.21117022
   0.93336614  0.61308055  0.16674692
   0.43719730  0.95499746  0.47950610
   0.55850623  0.37320498  0.78893749
   0.06141350  0.37222651  0.52244938
   0.30686755  0.36291427  0.16665423
   0.69604842  0.12288581  0.30040351
   0.44252581  0.96300560  0.83243482
   0.18541655  0.28376983  0.12411041
   0.18360320  0.28794413  0.25539581
   0.31236494  0.37056604  0.43520499
   0.56267922  0.03542025  0.12410295
   0.43449008  0.28819229  0.61045417
   0.18340509  0.45278577  0.34413545
   0.43489571  0.28436351  0.12389254
   0.68462955  0.78770407  0.25553696
   0.43686095  0.12202056  0.52276015
   0.18885563  0.29717781  0.87518306
   0.19072601  0.12543472  0.65517435
   0.94064380  0.12555840  0.65511490
   0.81529082  0.53801495  0.38877380
   0.06737840  0.03824476  0.38863001
   0.18308987  0.11379956  0.16644964
   0.05880680  0.53826298  0.61044134
   0.93448817  0.28752698  0.25561065
   0.55961990  0.53795712  0.61049427
   0.93625322  0.95774936  0.56578942
   0.69519601  0.62309700  0.30057245
   0.93548140  0.62023429  0.43543641
   0.93461907  0.62415178  0.78869642
   0.56066983  0.70721044  0.70011881
   0.06586293  0.71608469  0.83295923
   0.94425190  0.12304234  0.30032358
   0.93389130  0.78785109  0.61030667
   0.43422468  0.78770569  0.25543137
   0.19182753  0.78711854  0.38843269
   0.43912492  0.45378740  0.21108565
   0.18711944  0.12209672  0.52254824
   0.81107744  0.70698208  0.70018409
   0.05861735  0.03837041  0.61036717
   0.56644547  0.21203049  0.83248886
   0.31238983  0.87162531  0.52240916
   0.68522910  0.28374156  0.12361766
   0.18983672  0.95576434  0.21120668
   0.68449383  0.28826705  0.61048134
   0.30922342  0.03891981  0.61043318
   0.93607951  0.12458603  0.78862347
   0.43747880  0.79794788  0.87531333
   0.81634932  0.04159750  0.74454918
   0.93539025  0.45718350  0.70015466
   0.19073673  0.62420490  0.65493024
   0.31076315  0.70804940  0.70020916
   0.93444920  0.28381221  0.12380553
   0.43764277  0.45646747  0.47958299
   0.06239156  0.70561946  0.47939737
   0.93665491  0.12100330  0.43573753
   0.44470382  0.12273921  0.30048625
   0.18691202  0.12147054  0.43526572
   0.56391144  0.04118746  0.87521118
   0.18686574  0.95743788  0.56585439
   0.68527585  0.78619337  0.12394656
   0.55965026  0.70181994  0.34426803
   0.31589910  0.03715501  0.38867448
   0.68350429  0.11399458  0.16667131
   0.81627518  0.20353904  0.21100218
   0.05958192  0.53625053  0.25539634
   0.56309701  0.70484854  0.47950220
   0.43558740  0.78486806  0.12365146
   0.56999188  0.37223136  0.30044179
   0.43376736  0.95181006  0.34428568
   0.18534390  0.95850623  0.70022905
   0.43198671  0.61235181  0.16652561
   0.93960124  0.45243827  0.21143230
   0.06155899  0.53096567  0.12396418
   0.81181701  0.37216321  0.52240170
   0.94390684  0.62200934  0.30036667
   0.30927088  0.03820294  0.25523009
   0.68480858  0.78879650  0.61030383
   0.19134363  0.46314233  0.83235047
   0.43189707  0.11307781  0.16645452
   0.31246537  0.37242016  0.52248736
   0.43250451  0.62229005  0.78914309
   0.05861917  0.03829594  0.25553967
   0.56237677  0.70686436  0.56564950
   0.93976176  0.29005152  0.74481178
   0.68370291  0.12328163  0.78892542
   0.18938839  0.45220257  0.21098804
   0.94108033  0.78628703  0.38833429
   0.68623374  0.29847441  0.87502004
   0.55682827  0.86392273  0.16682056
   0.43574782  0.45723756  0.70004551
   0.93524438  0.95078548  0.34379259
   0.68646215  0.62174731  0.52234226
   0.06567304  0.87468904  0.65491852
   0.06030086  0.87656232  0.78869144
   0.06573494  0.37415770  0.65495198
   0.68721795  0.45686115  0.47919813
   0.18309770  0.78711753  0.25544722
   0.43815472  0.12141613  0.43511549
   0.81355236  0.03305897  0.12407659
   0.93618428  0.62221854  0.52237711
   0.44093855  0.12520482  0.65500231
   0.81241099  0.53080732  0.12355666
   0.43377611  0.45296120  0.34440973
   0.80994198  0.20380333  0.34383829
   0.30864826  0.70191878  0.34435277
   0.69071631  0.12585269  0.65513235
   0.57043505  0.87335536  0.30054830
   0.06532239  0.53994991  0.74452372
   0.94021472  0.95504211  0.21104538
   0.81507103  0.70252964  0.21112190
   0.06865115  0.87334310  0.30066478
   0.19339351  0.12359774  0.30054428
   0.05888378  0.70209562  0.34415491
   0.80918867  0.03853835  0.61023642
   0.06206161  0.37069003  0.43530799
   0.55952818  0.20311586  0.34418146
   0.81987254  0.37283880  0.30036790
   0.56055090  0.03804644  0.25527012
   0.56696335  0.53720713  0.38885408
   0.06122744  0.20451329  0.47926472
   0.30982951  0.87382939  0.78881343
   0.93571251  0.95894273  0.70024073
   0.06861809  0.37318849  0.30041100
   0.69074694  0.62413354  0.65506923
   0.68686124  0.45682248  0.56563311
   0.44063586  0.95502050  0.21152357
   0.31259777  0.20576848  0.47961179
   0.81165932  0.54112430  0.87492710
   0.68867132  0.62060542  0.43539579
   0.81103560  0.20761479  0.70027334
   0.81218597  0.70608070  0.47919848
   0.81073421  0.87027886  0.43552015
   0.93659143  0.95592324  0.47953811
   0.56260487  0.20615821  0.47933061
   0.18749816  0.61970942  0.43541067
   0.31335746  0.04198804  0.74468154
   0.94099141  0.62423316  0.65489942
   0.56603292  0.71396611  0.83257896
   0.31888604  0.37258104  0.30044084
   0.31384788  0.54014539  0.74494530
   0.18775626  0.45674538  0.47938209
   0.31538063  0.04077394  0.87492376
   0.18523391  0.45735371  0.70009088
   0.56151026  0.37247949  0.52245729
   0.19134603  0.28781557  0.38864617
   0.31516269  0.20469671  0.21090202
   0.06682436  0.70217620  0.21106566
   0.56380712  0.37130966  0.43529295
   0.43687301  0.62192096  0.52232888
   0.81568123  0.71449111  0.83247816
   0.06181364  0.37446461  0.78860521
   0.43797802  0.29790944  0.87545087
   0.31176862  0.03475818  0.12399994
   0.68810559  0.12079561  0.43533714
   0.18340339  0.95170201  0.34429930
   0.06585477  0.21431829  0.83269297
   0.56001806  0.03892934  0.61041703
   0.68891256  0.45380851  0.21154675
   0.18892210  0.79216095  0.74465664
   0.19394064  0.62186741  0.30059547
   0.44086043  0.78744404  0.38863346
   0.43339143  0.28784361  0.25536401
   0.06291199  0.54218687  0.87498602
   0.56499626  0.04188488  0.74442563
   0.18766674  0.79811612  0.87531394
   0.93687395  0.45610425  0.47937514
   0.56496605  0.54006124  0.74424700
   0.81165938  0.20673413  0.56570734
   0.18596637  0.62231820  0.78871297
   0.06644848  0.53796895  0.38865063
   0.06102320  0.70745346  0.70026540
   0.30801630  0.53560461  0.25521839
   0.31560906  0.70179692  0.21154539
   0.30603547  0.86635038  0.16649731
   0.43830774  0.62039989  0.43542208
   0.81752907  0.03771620  0.38903147
   0.93376562  0.29786638  0.87432906
   0.93761417  0.79576786  0.87437327
   0.06511093  0.03843100  0.87455271
   0.56216777  0.52903266  0.12361537
   0.80722267  0.36314881  0.16630723
   0.06113175  0.87188517  0.43540320
   0.93632773  0.12150553  0.52270248
   0.30824793  0.37440830  0.78828809
   0.56577771  0.70206633  0.21145383
Direct configuration=     3
   0.06155323  0.03257705  0.12409788
   0.31564960  0.87515317  0.65511268
   0.18450772  0.12388031  0.78853469
   0.44150204  0.28869201  0.38886608
   0.31700027  0.71410480  0.83225925
   0.81700490  0.21376996  0.83256077
   0.19150914  0.96319587  0.83243926
   0.56209344  0.20662228  0.56579156
   0.06501643  0.04115219  0.74465320
   0.81186963  0.87164056  0.52228692
   0.18965619  0.29068834  0.74501687
   0.93427716  0.45308878  0.34400736
   0.94168567  0.28806194  0.38874507
   0.81190029  0.04199761  0.87483716
   0.18373335  0.78848283  0.61027248
   0.56556263  0.03774091  0.38881433
   0.94168037  0.96523185  0.83280890
   0.31413094  0.54278297  0.87528364
   0.69079201  0.29076559  0.74461014
   0.18256872  0.61283966  0.16678419
   0.81310382  0.20511818  0.47929902
   0.80922436  0.53833452  0.61040442
   0.31218438  0.87076562  0.43536891
   0.81013169  0.03799878  0.25560655
   0.68400226  0.95142011  0.34392946
   0.93205897  0.11512257  0.16674247
   0.06122419  0.87225526  0.52219834
   0.55823318  0.53704992  0.25518591
   0.68420980  0.79790941  0.87501416
   0.55543827  0.36405808  0.16657811
   0.43840801  0.79199983  0.74470213
   0.81139069  0.70642031  0.56573397
   0.55940190  0.87486644  0.78914807
   0.68695632  0.12193628  0.52249725
   0.81594844  0.37410869  0.65494022
   0.94156363  0.46405689  0.83271384
   0.05989143  0.20808019  0.70018892
   0.43556845  0.95862443  0.70006897
   0.31652989  0.21308337  0.83219707
   0.44073959  0.62399201  0.65489975
   0.30914665  0.53833249  0.61048668
   0.93615210  0.45641854  0.56592468
   0.69035778  0.79186519  0.74444999
   0.93384166  0.78652539  0.12419726
   0.69114985  0.78588318  0.38891826
   0.94107575  0.79166298  0.74472075
   0.05891714  0.20281280  0.34400377
   0.68503974  0.45331855  0.34421907
   0.43329781  0.12358835  0.78903407
   0.06491714  0.20426907  0.21082289
   0.05623917  0.36361440  0.16682635
   0.93378142  0.78716145  0.25542537
   0.56149558  0.20740681  0.70001963
   0.68573832  0.95868598  0.70016092
   0.81008007  0.87580660  0.78879924
   0.43705678  0.95776835  0.56564267
   0.81004825  0.37456770  0.78881910
   0.68549108  0.28731016  0.25568085
   0.18716335  0.45667024  0.56573111
   0.05604051  0.86631894  0.16675498
   0.18420533  0.28836836  0.61053406
   0.06145398  0.20670571  0.56563366
   0.31037085  0.20726435  0.70027576
   0.56396953  0.54208414  0.87529573
   0.06188897  0.70646327  0.56581985
   0.68382713  0.62331398  0.78907207
   0.31583538  0.53795000  0.38847990
   0.18777985  0.62166337  0.52239976
   0.56442755  0.87071454  0.43533556
   0.43681237  0.45636445  0.56564634
   0.43796838  0.29175300  0.74495770
   0.82068059  0.87345086  0.30052276
   0.80988549  0.70249138  0.34419544
   0.44101719  0.46229576  0.83269108
   0.68862473  0.95519316  0.47924582
   0.68536066  0.45675302  0.70006769
   0.56174984  0.87167769  0.52251465
   0.56587275  0.37416514  0.65491353
   0.81606730  0.87514157  0.65484763
   0.81138979  0.37146061  0.43518830
   0.80959621  0.53636331  0.25564073
   0.69133170  0.46210146  0.83250301
   0.18514620  0.78612564  0.12371877
   0.68999670  0.28894240  0.38894952
   0.31566440  0.37375090  0.65490863
   0.30866437  0.20275965  0.34408330
   0.81607038  0.53943581  0.74425763
   0.69072426  0.96294324  0.83260933
   0.56555795  0.87492009  0.65497041
   0.31169263  0.70694475  0.56565424
   0.31300565  0.52994141  0.12375601
   0.68985511  0.95458661  0.21144663
   0.31190737  0.20625780  0.56571979
   0.18707392  0.95508747  0.47956095
   0.68739571  0.95723456  0.56587688
   0.43438566  0.78863876  0.61031068
   0.68283741  0.61299240  0.16648116
   0.31828265  0.87336011  0.30053520
   0.31192479  0.70538414  0.47964729
   0.93378547  0.28757141  0.61038806
   0.44431773  0.62324870  0.30070844
   0.80786067  0.86550969  0.16683331
   0.56615538  0.20386329  0.21117021
   0.93336615  0.61308055  0.16674692
   0.43719730  0.95499744  0.47950612
   0.55850621  0.37320497  0.78893749
   0.06141350  0.37222651  0.52244940
   0.30686754  0.36291425  0.16665423
   0.69604843  0.12288581  0.30040352
   0.44252581  0.96300559  0.83243480
   0.18541656  0.28376977  0.12411041
   0.18360320  0.28794414  0.25539580
   0.31236493  0.37056604  0.43520501
   0.56267921  0.03542032  0.12410295
   0.43449010  0.28819229  0.61045416
   0.18340509  0.45278578  0.34413543
   0.43489572  0.28436347  0.12389253
   0.68462957  0.78770407  0.25553695
   0.43686095  0.12202057  0.52276018
   0.18885563  0.29717781  0.87518304
   0.19072599  0.12543472  0.65517435
   0.94064379  0.12555841  0.65511490
   0.81529080  0.53801496  0.38877379
   0.06737842  0.03824476  0.38863000
   0.18308986  0.11379960  0.16644964
   0.05880680  0.53826298  0.61044132
   0.93448818  0.28752697  0.25561064
   0.55961992  0.53795712  0.61049426
   0.93625321  0.95774937  0.56578942
   0.69519602  0.62309699  0.30057246
   0.93548136  0.62023428  0.43543643
   0.93461909  0.62415178  0.78869642
   0.56066984  0.70721045  0.70011882
   0.06586294  0.71608466  0.83295921
   0.94425188  0.12304235  0.30032359
   0.93389130  0.78785110  0.61030665
   0.43422470  0.78770570  0.25543137
   0.19182754  0.78711853  0.38843268
   0.43912491  0.45378740  0.21108565
   0.18711945  0.12209672  0.52254826
   0.81107745  0.70698207  0.70018410
   0.05861735  0.03837041  0.61036716
   0.56644548  0.21203045  0.83248885
   0.31238985  0.87162530  0.52240918
   0.68522907  0.28374152  0.12361766
   0.18983671  0.95576436  0.21120667
   0.68449384  0.28826705  0.61048133
   0.30922342  0.03891982  0.61043317
   0.93607953  0.12458604  0.78862348
   0.43747882  0.79794787  0.87531331
   0.81634934  0.04159752  0.74454919
   0.93539025  0.45718347  0.70015467
   0.19073672  0.62420488  0.65493023
   0.31076315  0.70804940  0.70020917
   0.93444921  0.28381215  0.12380553
   0.43764278  0.45646748  0.47958301
   0.06239156  0.70561945  0.47939739
   0.93665490  0.12100332  0.43573756
   0.44470382  0.12273921  0.30048625
   0.18691201  0.12147056  0.43526574
   0.56391146  0.04118748  0.87521116
   0.18686574  0.95743789  0.56585439
   0.68527587  0.78619333  0.12394655
   0.55965028  0.70181994  0.34426801
   0.31589908  0.03715500  0.38867447
   0.68350431  0.11399458  0.16667131
   0.81627519  0.20353905  0.21100218
   0.05958193  0.53625051  0.25539634
   0.56309702  0.70484853  0.47950222
   0.43558741  0.78486802  0.12365145
   0.56999188  0.37223136  0.30044179
   0.43376737  0.95181005  0.34428567
   0.18534391  0.95850624  0.70022906
   0.43198671  0.61235180  0.16652562
   0.93960124  0.45243825  0.21143230
   0.06155899  0.53096570  0.12396418
   0.81181700  0.37216321  0.52240172
   0.94390682  0.62200933  0.30036668
   0.30927089  0.03820296  0.25523008
   0.68480859  0.78879651  0.61030382
   0.19134362  0.46314234  0.83235044
   0.43189707  0.11307784  0.16645452
   0.31246538  0.37242017  0.52248738
   0.43250450  0.62229004  0.78914309
   0.05861916  0.03829596  0.25553966
   0.56237678  0.70686436  0.56564951
   0.93976177  0.29005150  0.74481178
   0.68370293  0.12328165  0.78892543
   0.18938839  0.45220255  0.21098804
   0.94108032  0.78628700  0.38833428
   0.68623374  0.29847439  0.87502002
   0.55682828  0.86392276  0.16682057
   0.43574783  0.45723754  0.70004551
   0.93524441  0.95078548  0.34379257
   0.68646215  0.62174731  0.52234228
   0.06567303  0.87468904  0.65491852
   0.06030089  0.87656234  0.78869145
   0.06573493  0.37415769  0.65495199
   0.68721795  0.45686117  0.47919814
   0.18309769  0.78711752  0.25544722
   0.43815475  0.12141614  0.43511551
   0.81355234  0.03305902  0.12407660
   0.93618427  0.62221854  0.52237713
   0.44093855  0.12520483  0.65500231
   0.81241097  0.53080735  0.12355665
   0.43377611  0.45296121  0.34440972