 288 288   0   0
  0.1280206E+02  0.9726678E-09  0.8423550E-09  0.4500000E-08  0.2500000E-15
  1.000000000000000E-004
  CAR 
 unknown system                          
      6.77036247     -6.01791047  301      4.29418642      1.00000000
     -6.018  0.0000E+00  0.0000E+00
     -5.975  0.0000E+00  0.0000E+00
     -5.933  0.0000E+00  0.0000E+00
     -5.890  0.0000E+00  0.0000E+00
     -5.847  0.0000E+00  0.0000E+00
     -5.805  0.0000E+00  0.0000E+00
     -5.762  0.0000E+00  0.0000E+00
     -5.720  0.0000E+00  0.0000E+00
     -5.677  0.0000E+00  0.0000E+00
     -5.634  0.0000E+00  0.0000E+00
     -5.592  0.0000E+00  0.0000E+00
     -5.549  0.0000E+00  0.0000E+00
     -5.506  0.0000E+00  0.0000E+00
     -5.464  0.0000E+00  0.0000E+00
     -5.421  0.0000E+00  0.0000E+00
     -5.378  0.1302E-15  0.5551E-17
     -5.336  0.3516E-14  0.1554E-15
     -5.293  0.7520E-13  0.3361E-14
     -5.251  0.1373E-11  0.6188E-13
     -5.208  0.2138E-10  0.9732E-12
     -5.165  0.2840E-09  0.1308E-10
     -5.123  0.3218E-08  0.1502E-09
     -5.080  0.3113E-07  0.1477E-08
     -5.037  0.2572E-06  0.1244E-07
     -4.995  0.1817E-05  0.8988E-07
     -4.952  0.1098E-04  0.5580E-06
     -4.910  0.5693E-04  0.2985E-05
     -4.867  0.2536E-03  0.1379E-04
     -4.824  0.9736E-03  0.5530E-04
     -4.782  0.3237E-02  0.1933E-03
     -4.739  0.9372E-02  0.5928E-03
     -4.696  0.2381E-01  0.1608E-02
     -4.654  0.5360E-01  0.3893E-02
     -4.611  0.1080E+00  0.8497E-02
     -4.569  0.1971E+00  0.1690E-01
     -4.526  0.3290E+00  0.3092E-01
     -4.483  0.5068E+00  0.5253E-01
     -4.441  0.7251E+00  0.8344E-01
     -4.398  0.9682E+00  0.1247E+00
     -4.355  0.1212E+01  0.1764E+00
     -4.313  0.1430E+01  0.2373E+00
     -4.270  0.1600E+01  0.3055E+00
     -4.228  0.1713E+01  0.3785E+00
     -4.185  0.1780E+01  0.4544E+00
     -4.142  0.1829E+01  0.5324E+00
     -4.100  0.1899E+01  0.6133E+00
     -4.057  0.2027E+01  0.6997E+00
     -4.014  0.2226E+01  0.7946E+00
     -3.972  0.2483E+01  0.9004E+00
     -3.929  0.2761E+01  0.1018E+01
     -3.887  0.3003E+01  0.1146E+01
     -3.844  0.3162E+01  0.1281E+01
     -3.801  0.3213E+01  0.1418E+01
     -3.759  0.3172E+01  0.1553E+01
     -3.716  0.3087E+01  0.1685E+01
     -3.673  0.3024E+01  0.1814E+01
     -3.631  0.3037E+01  0.1943E+01
     -3.588  0.3153E+01  0.2077E+01
     -3.546  0.3359E+01  0.2221E+01
     -3.503  0.3607E+01  0.2374E+01
     -3.460  0.3839E+01  0.2538E+01
     -3.418  0.4010E+01  0.2709E+01
     -3.375  0.4106E+01  0.2884E+01
     -3.332  0.4140E+01  0.3060E+01
     -3.290  0.4142E+01  0.3237E+01
     -3.247  0.4147E+01  0.3414E+01
     -3.204  0.4185E+01  0.3592E+01
     -3.162  0.4272E+01  0.3774E+01
     -3.119  0.4411E+01  0.3962E+01
     -3.077  0.4593E+01  0.4158E+01
     -3.034  0.4798E+01  0.4363E+01
     -2.991  0.4996E+01  0.4576E+01
     -2.949  0.5159E+01  0.4796E+01
     -2.906  0.5269E+01  0.5020E+01
     -2.863  0.5332E+01  0.5247E+01
     -2.821  0.5373E+01  0.5477E+01
     -2.778  0.5426E+01  0.5708E+01
     -2.736  0.5516E+01  0.5943E+01
     -2.693  0.5630E+01  0.6183E+01
     -2.650  0.5716E+01  0.6427E+01
     -2.608  0.5710E+01  0.6670E+01
     -2.565  0.5595E+01  0.6909E+01
     -2.522  0.5435E+01  0.7140E+01
     -2.480  0.5364E+01  0.7369E+01
     -2.437  0.5515E+01  0.7604E+01
     -2.395  0.5938E+01  0.7857E+01
     -2.352  0.6551E+01  0.8136E+01
     -2.309  0.7165E+01  0.8442E+01
     -2.267  0.7571E+01  0.8765E+01
     -2.224  0.7645E+01  0.9090E+01
     -2.181  0.7415E+01  0.9407E+01
     -2.139  0.7051E+01  0.9707E+01
     -2.096  0.6787E+01  0.9996E+01
     -2.054  0.6801E+01  0.1029E+02
     -2.011  0.7139E+01  0.1059E+02
     -1.968  0.7696E+01  0.1092E+02
     -1.926  0.8281E+01  0.1127E+02
     -1.883  0.8711E+01  0.1164E+02
     -1.840  0.8888E+01  0.1202E+02
     -1.798  0.8848E+01  0.1240E+02
     -1.755  0.8720E+01  0.1277E+02
     -1.713  0.8652E+01  0.1314E+02
     -1.670  0.8722E+01  0.1351E+02
     -1.627  0.8920E+01  0.1389E+02
     -1.585  0.9184E+01  0.1428E+02
     -1.542  0.9459E+01  0.1469E+02
     -1.499  0.9728E+01  0.1510E+02
     -1.457  0.9992E+01  0.1553E+02
     -1.414  0.1023E+02  0.1596E+02
     -1.372  0.1041E+02  0.1641E+02
     -1.329  0.1050E+02  0.1685E+02
     -1.286  0.1062E+02  0.1731E+02
     -1.244  0.1095E+02  0.1777E+02
     -1.201  0.1166E+02  0.1827E+02
     -1.158  0.1275E+02  0.1881E+02
     -1.116  0.1400E+02  0.1941E+02
     -1.073  0.1503E+02  0.2005E+02
     -1.030  0.1557E+02  0.2072E+02
     -0.988  0.1563E+02  0.2138E+02
     -0.945  0.1553E+02  0.2204E+02
     -0.903  0.1570E+02  0.2271E+02
     -0.860  0.1644E+02  0.2341E+02
     -0.817  0.1781E+02  0.2417E+02
     -0.775  0.1971E+02  0.2501E+02
     -0.732  0.2206E+02  0.2595E+02
     -0.689  0.2501E+02  0.2702E+02
     -0.647  0.2875E+02  0.2825E+02
     -0.604  0.3328E+02  0.2966E+02
     -0.562  0.3823E+02  0.3129E+02
     -0.519  0.4292E+02  0.3312E+02
     -0.476  0.4681E+02  0.3512E+02
     -0.434  0.4972E+02  0.3724E+02
     -0.391  0.5185E+02  0.3945E+02
     -0.348  0.5353E+02  0.4173E+02
     -0.306  0.5494E+02  0.4407E+02
     -0.263  0.5604E+02  0.4646E+02
     -0.221  0.5673E+02  0.4888E+02
     -0.178  0.5699E+02  0.5131E+02
     -0.135  0.5693E+02  0.5374E+02
     -0.093  0.5680E+02  0.5616E+02
     -0.050  0.5686E+02  0.5858E+02
     -0.007  0.5737E+02  0.6103E+02
      0.035  0.5852E+02  0.6352E+02
      0.078  0.6040E+02  0.6610E+02
      0.120  0.6301E+02  0.6878E+02
      0.163  0.6623E+02  0.7160E+02
      0.206  0.6986E+02  0.7458E+02
      0.248  0.7363E+02  0.7772E+02
      0.291  0.7725E+02  0.8101E+02
      0.334  0.8043E+02  0.8444E+02
      0.376  0.8298E+02  0.8798E+02
      0.419  0.8487E+02  0.9160E+02
      0.461  0.8619E+02  0.9527E+02
      0.504  0.8703E+02  0.9898E+02
      0.547  0.8738E+02  0.1027E+03
      0.589  0.8725E+02  0.1064E+03
      0.632  0.8667E+02  0.1101E+03
      0.675  0.8574E+02  0.1138E+03
      0.717  0.8447E+02  0.1174E+03
      0.760  0.8284E+02  0.1209E+03
      0.803  0.8090E+02  0.1244E+03
      0.845  0.7888E+02  0.1277E+03
      0.888  0.7714E+02  0.1310E+03
      0.930  0.7604E+02  0.1342E+03
      0.973  0.7569E+02  0.1375E+03
      1.016  0.7589E+02  0.1407E+03
      1.058  0.7622E+02  0.1440E+03
      1.101  0.7630E+02  0.1472E+03
      1.144  0.7596E+02  0.1504E+03
      1.186  0.7527E+02  0.1537E+03
      1.229  0.7446E+02  0.1568E+03
      1.271  0.7369E+02  0.1600E+03
      1.314  0.7301E+02  0.1631E+03
      1.357  0.7230E+02  0.1662E+03
      1.399  0.7136E+02  0.1692E+03
      1.442  0.7003E+02  0.1722E+03
      1.485  0.6838E+02  0.1751E+03
      1.527  0.6680E+02  0.1780E+03
      1.570  0.6586E+02  0.1808E+03
      1.612  0.6607E+02  0.1836E+03
      1.655  0.6757E+02  0.1865E+03
      1.698  0.7011E+02  0.1894E+03
      1.740  0.7320E+02  0.1926E+03
      1.783  0.7638E+02  0.1958E+03
      1.826  0.7942E+02  0.1992E+03
      1.868  0.8220E+02  0.2027E+03
      1.911  0.8469E+02  0.2063E+03
      1.953  0.8690E+02  0.2100E+03
      1.996  0.8886E+02  0.2138E+03
      2.039  0.9065E+02  0.2177E+03
      2.081  0.9224E+02  0.2216E+03
      2.124  0.9358E+02  0.2256E+03
      2.167  0.9465E+02  0.2296E+03
      2.209  0.9565E+02  0.2337E+03
      2.252  0.9700E+02  0.2378E+03
      2.294  0.9914E+02  0.2421E+03
      2.337  0.1023E+03  0.2464E+03
      2.380  0.1063E+03  0.2510E+03
      2.422  0.1108E+03  0.2557E+03
      2.465  0.1151E+03  0.2606E+03
      2.508  0.1188E+03  0.2657E+03
      2.550  0.1217E+03  0.2709E+03
      2.593  0.1240E+03  0.2761E+03
      2.635  0.1260E+03  0.2815E+03
      2.678  0.1278E+03  0.2870E+03
      2.721  0.1299E+03  0.2925E+03
      2.763  0.1321E+03  0.2981E+03
      2.806  0.1348E+03  0.3039E+03
      2.849  0.1377E+03  0.3097E+03
      2.891  0.1403E+03  0.3157E+03
      2.934  0.1420E+03  0.3218E+03
      2.977  0.1416E+03  0.3278E+03
      3.019  0.1385E+03  0.3337E+03
      3.062  0.1327E+03  0.3394E+03
      3.104  0.1248E+03  0.3447E+03
      3.147  0.1158E+03  0.3496E+03
      3.190  0.1070E+03  0.3542E+03
      3.232  0.9942E+02  0.3584E+03
      3.275  0.9354E+02  0.3624E+03
      3.318  0.8947E+02  0.3662E+03
      3.360  0.8690E+02  0.3699E+03
      3.403  0.8540E+02  0.3736E+03
      3.445  0.8456E+02  0.3772E+03
      3.488  0.8402E+02  0.3808E+03
      3.531  0.8348E+02  0.3843E+03
      3.573  0.8288E+02  0.3879E+03
      3.616  0.8245E+02  0.3914E+03
      3.659  0.8271E+02  0.3949E+03
      3.701  0.8417E+02  0.3985E+03
      3.744  0.8702E+02  0.4022E+03
      3.786  0.9099E+02  0.4061E+03
      3.829  0.9546E+02  0.4101E+03
      3.872  0.9974E+02  0.4144E+03
      3.914  0.1034E+03  0.4188E+03
      3.957  0.1062E+03  0.4233E+03
      4.000  0.1080E+03  0.4279E+03
      4.042  0.1089E+03  0.4326E+03
      4.085  0.1089E+03  0.4372E+03
      4.127  0.1083E+03  0.4418E+03
      4.170  0.1072E+03  0.4464E+03
      4.213  0.1059E+03  0.4509E+03
      4.255  0.1046E+03  0.4554E+03
      4.298  0.1035E+03  0.4598E+03
      4.341  0.1025E+03  0.4642E+03
      4.383  0.1019E+03  0.4685E+03
      4.426  0.1015E+03  0.4728E+03
      4.468  0.1011E+03  0.4771E+03
      4.511  0.1003E+03  0.4814E+03
      4.554  0.9910E+02  0.4856E+03
      4.596  0.9781E+02  0.4898E+03
      4.639  0.9695E+02  0.4939E+03
      4.682  0.9700E+02  0.4981E+03
      4.724  0.9816E+02  0.5023E+03
      4.767  0.1003E+03  0.5065E+03
      4.809  0.1029E+03  0.5109E+03
      4.852  0.1056E+03  0.5154E+03
      4.895  0.1078E+03  0.5200E+03
      4.937  0.1091E+03  0.5247E+03
      4.980  0.1093E+03  0.5293E+03
      5.023  0.1076E+03  0.5339E+03
      5.065  0.1034E+03  0.5383E+03
      5.108  0.9570E+02  0.5424E+03
      5.151  0.8388E+02  0.5460E+03
      5.193  0.6853E+02  0.5489E+03
      5.236  0.5144E+02  0.5511E+03
      5.278  0.3503E+02  0.5526E+03
      5.321  0.2144E+02  0.5535E+03
      5.364  0.1170E+02  0.5540E+03
      5.406  0.5664E+01  0.5542E+03
      5.449  0.2420E+01  0.5543E+03
      5.492  0.9092E+00  0.5544E+03
      5.534  0.2995E+00  0.5544E+03
      5.577  0.8626E-01  0.5544E+03
      5.619  0.2168E-01  0.5544E+03
      5.662  0.4742E-02  0.5544E+03
      5.705  0.9012E-03  0.5544E+03
      5.747  0.1486E-03  0.5544E+03
      5.790  0.2121E-04  0.5544E+03
      5.833  0.2617E-05  0.5544E+03
      5.875  0.2788E-06  0.5544E+03
      5.918  0.2561E-07  0.5544E+03
      5.960  0.2025E-08  0.5544E+03
      6.003  0.1378E-09  0.5544E+03
      6.046  0.8050E-11  0.5544E+03
      6.088  0.4027E-12  0.5544E+03
      6.131  0.1647E-13  0.5544E+03
      6.174  0.3907E-15  0.5544E+03
      6.216  0.0000E+00  0.5544E+03
      6.259  0.0000E+00  0.5544E+03
      6.301  0.0000E+00  0.5544E+03
      6.344  0.0000E+00  0.5544E+03
      6.387  0.0000E+00  0.5544E+03
      6.429  0.0000E+00  0.5544E+03
      6.472  0.0000E+00  0.5544E+03
      6.515  0.0000E+00  0.5544E+03
      6.557  0.0000E+00  0.5544E+03
      6.600  0.0000E+00  0.5544E+03
      6.642  0.0000E+00  0.5544E+03
      6.685  0.0000E+00  0.5544E+03
      6.728  0.0000E+00  0.5544E+03
      6.770  0.0000E+00  0.5544E+03
