<?xml version="1.0" encoding="ISO-8859-1"?>
<modeling>
 <generator>
  <i name="program" type="string">vasp </i>
  <i name="version" type="string">5.4.4.18Apr17-6-g9f103f2a35  </i>
  <i name="subversion" type="string">(build Sep 27 2018 12:46:37) complex + VL-xray_ parallel </i>
  <i name="platform" type="string">LLNL_Quartz_ifc </i>
  <i name="date" type="string">2021 09 26 </i>
  <i name="time" type="string">18:41:11 </i>
 </generator>
 <incar>
  <i type="int" name="ISTART">     2</i>
  <i type="string" name="PREC">accurate</i>
  <i type="string" name="ALGO"> Fast</i>
  <i type="int" name="ICHARG">     2</i>
  <i type="int" name="INIWAV">     1</i>
  <i type="int" name="NELM">   200</i>
  <i type="int" name="NELMIN">     4</i>
  <i type="int" name="IBRION">     2</i>
  <i name="EDIFF">      0.00000100</i>
  <i type="int" name="NSW">     5</i>
  <i type="int" name="ISIF">     2</i>
  <i type="int" name="ISYM">     2</i>
  <i name="ENCUT">    450.00000000</i>
  <i name="POTIM">      0.25000000</i>
  <i type="string" name="LREAL"> Auto</i>
  <i type="int" name="ISMEAR">     0</i>
  <i name="SIGMA">      0.15000000</i>
  <i type="logical" name="LWAVE"> F  </i>
  <i type="logical" name="LCHARG"> F  </i>
  <i type="int" name="ICORELEVEL">     0</i>
  <i type="int" name="CLNT">     1</i>
  <i type="int" name="CLN">     1</i>
  <i type="int" name="INCAR     ">     0</i>
  <i name="CLZ">      0.00000000</i>
  <v type="int" name="KPOINT_BSE">    -1     0     0     0</v>
  <i type="int" name="NELM">   200</i>
 </incar>
 <structure name="primitive_cell" >
  <crystal>
   <varray name="basis" >
    <v>       9.72667804       0.00000000       0.00000000 </v>
    <v>       0.00000000       8.42355028       0.00000000 </v>
    <v>       0.00000000       0.00000000      45.00000000 </v>
   </varray>
   <i name="volume">   3686.99226691 </i>
   <varray name="rec_basis" >
    <v>       0.10281002       0.00000000       0.00000000 </v>
    <v>       0.00000000       0.11871479       0.00000000 </v>
    <v>       0.00000000       0.00000000       0.02222222 </v>
   </varray>
  </crystal>
  <varray name="positions" >
   <v>       0.05381774      -0.29907493       0.21124993 </v>
   <v>      -0.05953237      -0.21230028       0.25512861 </v>
   <v>      -0.05849468      -0.38764491       0.16660618 </v>
   <v>       0.06531440      -0.46231320       0.25513834 </v>
   <v>       0.17872682       0.45160627       0.21138684 </v>
   <v>      -0.07074638       0.45132562       0.21123275 </v>
   <v>       0.06692367      -0.13765055       0.16661517 </v>
   <v>      -0.19603893      -0.29912167       0.21127497 </v>
   <v>       0.17886306      -0.04891544       0.21122628 </v>
   <v>       0.30409760      -0.29903827       0.21120517 </v>
   <v>      -0.07127071      -0.04850837       0.21129966 </v>
   <v>       0.19064256      -0.21254343       0.25528550 </v>
   <v>       0.19148656      -0.38867503       0.16650838 </v>
   <v>      -0.18376754      -0.46208046       0.25530583 </v>
   <v>      -0.18297799      -0.13742721       0.16659512 </v>
   <v>       0.06551941       0.03766141       0.25514949 </v>
   <v>       0.06745642       0.36244849       0.16657745 </v>
   <v>       0.31545739      -0.46227026       0.25513476 </v>
   <v>       0.31675441      -0.13814932       0.16662191 </v>
   <v>      -0.30901369      -0.21263081       0.25540534 </v>
   <v>      -0.30828530      -0.38764221       0.16676711 </v>
   <v>      -0.06426407      -0.21769370       0.12421290 </v>
   <v>      -0.05846007       0.11215763       0.16644476 </v>
   <v>      -0.05950516       0.28727377       0.25521753 </v>
   <v>      -0.18485472       0.03786401       0.25517638 </v>
   <v>       0.18603740      -0.21695646       0.12424078 </v>
   <v>      -0.18246364       0.36176091       0.16661364 </v>
   <v>       0.05740256      -0.47292091       0.12409358 </v>
   <v>       0.17846297      -0.37629813       0.29941905 </v>
   <v>      -0.32107959       0.45147623       0.21124449 </v>
   <v>      -0.07209473      -0.37639267       0.29961570 </v>
   <v>       0.05467412       0.20094246       0.21119384 </v>
   <v>       0.42915290       0.45151834       0.21152949 </v>
   <v>       0.42868592      -0.04850985       0.21137171 </v>
   <v>      -0.32109827      -0.04846444       0.21133721 </v>
   <v>       0.19098588       0.28733563       0.25526345 </v>
   <v>       0.19247712       0.11193375       0.16658448 </v>
   <v>       0.05294889      -0.12626876       0.29950702 </v>
   <v>       0.31564104       0.03767082       0.25531787 </v>
   <v>       0.44099341      -0.21238686       0.25529702 </v>
   <v>       0.44159324      -0.38888625       0.16648382 </v>
   <v>       0.31855162       0.36267144       0.16586298 </v>
   <v>       0.05773641       0.02643970       0.12401636 </v>
   <v>      -0.19131998      -0.47220050       0.12399967 </v>
   <v>       0.05286518       0.37383036       0.29957845 </v>
   <v>      -0.44570186      -0.29913849       0.21118804 </v>
   <v>      -0.19579074       0.20110851       0.21122490 </v>
   <v>       0.30456272       0.20053889       0.21123362 </v>
   <v>       0.30835436      -0.47370092       0.12399152 </v>
   <v>       0.30292879      -0.12616268       0.29955492 </v>
   <v>      -0.19672876      -0.12657529       0.29945215 </v>
   <v>      -0.43252021      -0.13791724       0.16660515 </v>
   <v>      -0.43436678      -0.46247936       0.25516359 </v>
   <v>      -0.30839285       0.11221349       0.16640768 </v>
   <v>      -0.30876514       0.28738278       0.25525887 </v>
   <v>      -0.31394974      -0.21728057       0.12420214 </v>
   <v>      -0.19237316       0.02694958       0.12390994 </v>
   <v>       0.30753123       0.02653481       0.12388442 </v>
   <v>      -0.06452296       0.28249343       0.12424039 </v>
   <v>       0.30295165       0.37385589       0.29962766 </v>
   <v>      -0.19689181       0.37358773       0.29946918 </v>
   <v>       0.18617308       0.28279723       0.12426524 </v>
   <v>       0.42837031      -0.37633244       0.29941011 </v>
   <v>      -0.32229062      -0.37630471       0.29963011 </v>
   <v>       0.43681033      -0.21687174       0.12421947 </v>
   <v>       0.17800999       0.12367575       0.29955313 </v>
   <v>      -0.07192818       0.12338490       0.29964373 </v>
   <v>       0.44065961       0.28735543       0.25505069 </v>
   <v>       0.44142382       0.11213543       0.16652926 </v>
   <v>      -0.43482323       0.03771349       0.25510276 </v>
   <v>      -0.43355654       0.36251080       0.16645195 </v>
   <v>       0.06488914      -0.29142402       0.34386413 </v>
   <v>      -0.31270268       0.28209343       0.12424516 </v>
   <v>      -0.44122690      -0.47216903       0.12387958 </v>
   <v>      -0.18548184      -0.29154774       0.34383892 </v>
   <v>      -0.06016085       0.45930247       0.34397851 </v>
   <v>      -0.44581524       0.20095120       0.21115278 </v>
   <v>      -0.44709249      -0.12623138       0.29959473 </v>
   <v>       0.18987211       0.45887645       0.34397507 </v>
   <v>       0.43603236       0.28309976       0.12405622 </v>
   <v>       0.42804599       0.12357550       0.29948719 </v>
   <v>      -0.05951349      -0.04068296       0.34412659 </v>
   <v>      -0.32175800       0.12362950       0.29943115 </v>
   <v>       0.31477888      -0.29127654       0.34397527 </v>
   <v>       0.18972038      -0.04114452       0.34398813 </v>
   <v>      -0.44107232       0.02679177       0.12401916 </v>
   <v>      -0.44702929       0.37366266       0.29958186 </v>
   <v>      -0.31052749       0.45895464       0.34389633 </v>
   <v>       0.06457333       0.20853863       0.34384508 </v>
   <v>      -0.31032872      -0.04107235       0.34397542 </v>
   <v>       0.43961096       0.45867053       0.34406082 </v>
   <v>       0.44006839      -0.04096926       0.34406853 </v>
   <v>      -0.18567123       0.20857565       0.34392400 </v>
   <v>      -0.43530877      -0.29116123       0.34393812 </v>
   <v>       0.31463617       0.20894215       0.34391211 </v>
   <v>       0.06143961      -0.45840309       0.38842007 </v>
   <v>      -0.06344966      -0.20870194       0.38843542 </v>
   <v>       0.18631332      -0.20904654       0.38826613 </v>
   <v>      -0.18880382      -0.45789473       0.38832633 </v>
   <v>       0.31134546      -0.45862463       0.38846998 </v>
   <v>       0.06160794       0.04158675       0.38842518 </v>
   <v>      -0.43513266       0.20895246       0.34397018 </v>
   <v>      -0.06358497       0.29134740       0.38846050 </v>
   <v>      -0.31345097      -0.20845880       0.38843843 </v>
   <v>       0.18594922       0.29108110       0.38836487 </v>
   <v>      -0.18895386       0.04179096       0.38829513 </v>
   <v>       0.43610537      -0.20880540       0.38839010 </v>
   <v>       0.31139474       0.04138778       0.38840233 </v>
   <v>      -0.31366845       0.29112650       0.38843338 </v>
   <v>      -0.43853968      -0.45844204       0.38849595 </v>
   <v>       0.43609057       0.29104891       0.38838362 </v>
   <v>      -0.43825225       0.04154675       0.38842802 </v>
   <v>      -0.06706566      -0.37513179       0.43314193 </v>
   <v>       0.18351290      -0.37510250       0.43309040 </v>
   <v>       0.05842581      -0.12510549       0.43303698 </v>
   <v>       0.05846505       0.37486891       0.43286975 </v>
   <v>      -0.19128159      -0.12466467       0.43303529 </v>
   <v>       0.30863432      -0.12495046       0.43308671 </v>
   <v>      -0.19142411       0.37518823       0.43308319 </v>
   <v>      -0.31614762      -0.37516209       0.43293877 </v>
   <v>       0.30880190       0.37508834       0.43288329 </v>
   <v>       0.43358843      -0.37510313       0.43299495 </v>
   <v>      -0.06649627       0.12486448       0.43308046 </v>
   <v>       0.18342236       0.12500977       0.43310153 </v>
   <v>      -0.44133944      -0.12511348       0.43303102 </v>
   <v>      -0.31632341       0.12498548       0.43291202 </v>
   <v>       0.43373299       0.12484832       0.43299615 </v>
   <v>      -0.44143942       0.37489325       0.43306979 </v>
   <v>       0.06790985      -0.28933407       0.47747439 </v>
   <v>      -0.05743795       0.46067138       0.47718526 </v>
   <v>      -0.18222267      -0.28924562       0.47748700 </v>
   <v>      -0.05737001      -0.03931826       0.47724096 </v>
   <v>       0.19260125       0.46086650       0.47748455 </v>
   <v>       0.31764931      -0.28961829       0.47731851 </v>
   <v>       0.19268473      -0.03925827       0.47741735 </v>
   <v>      -0.30721598       0.46072183       0.47742068 </v>
   <v>      -0.30731096      -0.03932393       0.47741452 </v>
   <v>       0.06792569       0.21057500       0.47745898 </v>
   <v>       0.44278214       0.46083244       0.47748223 </v>
   <v>       0.44266584      -0.03938354       0.47743948 </v>
   <v>      -0.18223665       0.21068303       0.47744867 </v>
   <v>      -0.43245945      -0.28945186       0.47742572 </v>
   <v>       0.31767169       0.21049634       0.47728566 </v>
   <v>      -0.43224392       0.21054512       0.47743114 </v>
   <v>       0.05726831      -0.46086241      -0.47749582 </v>
   <v>      -0.06786906      -0.21141309      -0.47756056 </v>
   <v>       0.18224690      -0.21068437      -0.47746503 </v>
   <v>      -0.19271616      -0.46058319      -0.47747613 </v>
   <v>       0.30689618      -0.46121305      -0.47756432 </v>
   <v>       0.05709897       0.03927729      -0.47747578 </v>
   <v>      -0.06757657       0.28849158      -0.47759097 </v>
   <v>      -0.31802462      -0.21116993      -0.47759184 </v>
   <v>       0.18232944       0.28925329      -0.47749102 </v>
   <v>       0.43217526      -0.21105265      -0.47767268 </v>
   <v>      -0.19282546       0.03921500      -0.47746352 </v>
   <v>       0.30711030       0.03854813      -0.47766639 </v>
   <v>      -0.31803081       0.28879777      -0.47757303 </v>
   <v>      -0.44297550      -0.46083005      -0.47750771 </v>
   <v>       0.43235357       0.28886854      -0.47764872 </v>
   <v>       0.06765873      -0.27650637      -0.12384027 </v>
   <v>      -0.44269757       0.03928249      -0.47751533 </v>
   <v>      -0.18286394      -0.27601958      -0.12369396 </v>
   <v>      -0.06021157       0.46825052      -0.12390248 </v>
   <v>       0.18956989       0.46724586      -0.12384150 </v>
   <v>      -0.06016867      -0.03242189      -0.12370591 </v>
   <v>       0.31931302      -0.27594073      -0.12371489 </v>
   <v>       0.18887399      -0.03123033      -0.12403157 </v>
   <v>       0.06801623       0.22373282      -0.12365218 </v>
   <v>      -0.31008508       0.46706087      -0.12384929 </v>
   <v>      -0.30990567      -0.03087949      -0.12402520 </v>
   <v>       0.43995554       0.46805934      -0.12399126 </v>
   <v>       0.43990312      -0.03331460      -0.12417891 </v>
   <v>      -0.18270886       0.22485293      -0.12372227 </v>
   <v>      -0.43405791      -0.27718660      -0.12380103 </v>
   <v>       0.31624487       0.22278731      -0.12379291 </v>
   <v>      -0.05847217      -0.37483553      -0.43319248 </v>
   <v>       0.06657982      -0.12482314      -0.43311746 </v>
   <v>       0.19163367      -0.37499261      -0.43309746 </v>
   <v>      -0.18337464      -0.12493281      -0.43310558 </v>
   <v>       0.06662029       0.37494576      -0.43310989 </v>
   <v>       0.31656638      -0.12506433      -0.43312313 </v>
   <v>      -0.43098921       0.22369070      -0.12380905 </v>
   <v>      -0.30840048      -0.37503077      -0.43310065 </v>
   <v>      -0.18334668       0.37507910      -0.43310925 </v>
   <v>      -0.05838279       0.12518802      -0.43317992 </v>
   <v>       0.31645263       0.37482547      -0.43315671 </v>
   <v>       0.19168445       0.12506886      -0.43315737 </v>
   <v>       0.44137499      -0.37487507      -0.43316291 </v>
   <v>      -0.43334825      -0.12511313      -0.43312354 </v>
   <v>      -0.30826059       0.12490837      -0.43309826 </v>
   <v>       0.44166220       0.12492208      -0.43309273 </v>
   <v>      -0.43349603       0.37510233      -0.43317741 </v>
   <v>      -0.06623280      -0.36235275      -0.16601005 </v>
   <v>       0.18278442      -0.36228065      -0.16656044 </v>
   <v>       0.05824750      -0.11227594      -0.16654902 </v>
   <v>       0.05859690       0.38801541      -0.16646875 </v>
   <v>      -0.19136501      -0.11260581      -0.16643171 </v>
   <v>       0.30879834      -0.11168326      -0.16633135 </v>
   <v>      -0.19155045       0.38750585      -0.16647784 </v>
   <v>       0.30849509       0.38789433      -0.16645216 </v>
   <v>      -0.31587632      -0.36182963      -0.16662652 </v>
   <v>       0.43409238      -0.36126196      -0.16629540 </v>
   <v>      -0.06615326       0.13791454      -0.16641148 </v>
   <v>       0.18414766       0.13768174      -0.16632343 </v>
   <v>      -0.44157958      -0.11183561      -0.16641252 </v>
   <v>      -0.31669397       0.13754502      -0.16648520 </v>
   <v>       0.43357418       0.13748837      -0.16639066 </v>
   <v>      -0.44138006       0.38783250      -0.16648292 </v>
   <v>       0.06333806      -0.29175764      -0.38840156 </v>
   <v>      -0.06183035       0.45814860      -0.38841208 </v>
   <v>      -0.18645017      -0.29164256      -0.38839961 </v>
   <v>       0.18829340       0.45857901      -0.38850927 </v>
   <v>      -0.06186984      -0.04166151      -0.38847108 </v>
   <v>       0.18815259      -0.04152083      -0.38851901 </v>
   <v>       0.31344173      -0.29160139      -0.38841494 </v>
   <v>      -0.31178022       0.45853530      -0.38850661 </v>
   <v>       0.06338794       0.20841283      -0.38847486 </v>
   <v>      -0.31161806      -0.04137415      -0.38852506 </v>
   <v>       0.43841559       0.45826463      -0.38841515 </v>
   <v>       0.43859086      -0.04127970      -0.38845712 </v>
   <v>      -0.18650939       0.20847800      -0.38843483 </v>
   <v>      -0.43672498      -0.29157577      -0.38845681 </v>
   <v>       0.31310956       0.20831993      -0.38848914 </v>
   <v>       0.07129101      -0.45092445      -0.21117580 </v>
   <v>      -0.05529846      -0.20025758      -0.21118538 </v>
   <v>       0.19413911      -0.20064377      -0.21121328 </v>
   <v>      -0.43706553       0.20814157      -0.38862412 </v>
   <v>      -0.18006998      -0.45058281      -0.21106205 </v>
   <v>       0.31972581      -0.45057255      -0.21116597 </v>
   <v>       0.06946468       0.04935366      -0.21107531 </v>
   <v>      -0.05524684       0.29858844      -0.21119318 </v>
   <v>      -0.30409689      -0.20098504      -0.21125806 </v>
   <v>       0.19494090       0.29918630      -0.21117504 </v>
   <v>      -0.18021795       0.04928630      -0.21106000 </v>
   <v>       0.44463305      -0.20062416      -0.21119159 </v>
   <v>       0.32090533       0.04919360      -0.21121059 </v>
   <v>      -0.42955878      -0.45038650      -0.21115737 </v>
   <v>      -0.30497382       0.29935853      -0.21124597 </v>
   <v>       0.44503501       0.29960493      -0.21128135 </v>
   <v>      -0.43076606       0.04969800      -0.21106456 </v>
   <v>       0.05977001      -0.45940946      -0.34409816 </v>
   <v>      -0.06525490      -0.20943308      -0.34409944 </v>
   <v>       0.18476353      -0.20949097      -0.34414002 </v>
   <v>      -0.19029080      -0.45930477      -0.34411526 </v>
   <v>       0.30992138      -0.45920852      -0.34404021 </v>
   <v>       0.06004410       0.04054976      -0.34399671 </v>
   <v>      -0.06516123       0.29057503      -0.34416259 </v>
   <v>      -0.31538562      -0.20955277      -0.34411552 </v>
   <v>       0.18479084       0.29060714      -0.34407666 </v>
   <v>      -0.19018105       0.04056672      -0.34406857 </v>
   <v>       0.43462886      -0.20934876      -0.34410246 </v>
   <v>       0.30986307       0.04079633      -0.34405558 </v>
   <v>      -0.44012831      -0.45914787      -0.34405846 </v>
   <v>      -0.31514706       0.29083235      -0.34394807 </v>
   <v>       0.43505849       0.29085497      -0.34393652 </v>
   <v>      -0.44022013       0.04059138      -0.34413566 </v>
   <v>       0.05925641      -0.28761623      -0.25500047 </v>
   <v>      -0.06556634       0.46271570      -0.25505954 </v>
   <v>       0.18453488       0.46245226      -0.25505116 </v>
   <v>      -0.19005004      -0.28783242      -0.25512757 </v>
   <v>       0.30983219      -0.28798354      -0.25516515 </v>
   <v>      -0.06643270      -0.03761218      -0.25530999 </v>
   <v>       0.18376370      -0.03739570      -0.25534934 </v>
   <v>      -0.31565697       0.46265841      -0.25505675 </v>
   <v>       0.05990026       0.21280959      -0.25509620 </v>
   <v>       0.43450948       0.46245833      -0.25505092 </v>
   <v>      -0.31550366      -0.03755487      -0.25518658 </v>
   <v>       0.43383787      -0.03759448      -0.25535663 </v>
   <v>       0.30961440       0.21247430      -0.25505350 </v>
   <v>      -0.44034671      -0.28766027      -0.25510676 </v>
   <v>      -0.18984932       0.21198248      -0.25542514 </v>
   <v>      -0.43991177       0.21241699      -0.25519252 </v>
   <v>      -0.05297701      -0.37373383      -0.29958936 </v>
   <v>       0.07203916      -0.12356088      -0.29965824 </v>
   <v>       0.19684541      -0.37409072      -0.29960096 </v>
   <v>      -0.17788411      -0.12377968      -0.29959566 </v>
   <v>       0.07199468       0.37641902      -0.29950397 </v>
   <v>       0.32184736      -0.12352491      -0.29949620 </v>
   <v>      -0.17815066       0.37648047      -0.29976801 </v>
   <v>      -0.30287781      -0.37397345      -0.29953767 </v>
   <v>      -0.05292994       0.12632977      -0.29960797 </v>
   <v>       0.32223748       0.37643552      -0.29961812 </v>
   <v>       0.19724008       0.12638288      -0.29962860 </v>
   <v>       0.44695414      -0.37369671      -0.29960666 </v>
   <v>      -0.42834468      -0.12335023      -0.29947840 </v>
   <v>      -0.30250561       0.12626149      -0.29952622 </v>
   <v>       0.44719541       0.12611321      -0.29965114 </v>
   <v>      -0.42776110       0.37635164      -0.29963775 </v>
  </varray>
 </structure>
 <varray name="primitive_index" >
  <v type="int" >        1 </v>
  <v type="int" >      238 </v>
  <v type="int" >      193 </v>
  <v type="int" >      220 </v>
  <v type="int" >       10 </v>
  <v type="int" >      242 </v>
  <v type="int" >      208 </v>
  <v type="int" >       81 </v>
  <v type="int" >      109 </v>
  <v type="int" >      192 </v>
  <v type="int" >       71 </v>
  <v type="int" >       89 </v>
  <v type="int" >       35 </v>
  <v type="int" >      288 </v>
  <v type="int" >       32 </v>
  <v type="int" >      263 </v>
  <v type="int" >       55 </v>
  <v type="int" >      243 </v>
  <v type="int" >       97 </v>
  <v type="int" >      128 </v>
  <v type="int" >      117 </v>
  <v type="int" >      155 </v>
  <v type="int" >      158 </v>
  <v type="int" >      252 </v>
  <v type="int" >      222 </v>
  <v type="int" >      262 </v>
  <v type="int" >      183 </v>
  <v type="int" >      265 </v>
  <v type="int" >      162 </v>
  <v type="int" >      205 </v>
  <v type="int" >       38 </v>
  <v type="int" >      160 </v>
  <v type="int" >       28 </v>
  <v type="int" >       15 </v>
  <v type="int" >      161 </v>
  <v type="int" >       45 </v>
  <v type="int" >      126 </v>
  <v type="int" >      147 </v>
  <v type="int" >      278 </v>
  <v type="int" >      226 </v>
  <v type="int" >      227 </v>
  <v type="int" >      286 </v>
  <v type="int" >       48 </v>
  <v type="int" >       14 </v>
  <v type="int" >       26 </v>
  <v type="int" >      251 </v>
  <v type="int" >       70 </v>
  <v type="int" >       61 </v>
  <v type="int" >      197 </v>
  <v type="int" >      108 </v>
  <v type="int" >      277 </v>
  <v type="int" >      191 </v>
  <v type="int" >       33 </v>
  <v type="int" >       90 </v>
  <v type="int" >      203 </v>
  <v type="int" >       25 </v>
  <v type="int" >       99 </v>
  <v type="int" >       23 </v>
  <v type="int" >      133 </v>
  <v type="int" >       52 </v>
  <v type="int" >      104 </v>
  <v type="int" >      189 </v>
  <v type="int" >      100 </v>
  <v type="int" >      144 </v>
  <v type="int" >       83 </v>
  <v type="int" >      142 </v>
  <v type="int" >      145 </v>
  <v type="int" >        5 </v>
  <v type="int" >      143 </v>
  <v type="int" >      261 </v>
  <v type="int" >      122 </v>
  <v type="int" >      112 </v>
  <v type="int" >      267 </v>
  <v type="int" >       43 </v>
  <v type="int" >      118 </v>
  <v type="int" >      190 </v>
  <v type="int" >       63 </v>
  <v type="int" >      255 </v>
  <v type="int" >      120 </v>
  <v type="int" >      279 </v>
  <v type="int" >      169 </v>
  <v type="int" >       92 </v>
  <v type="int" >      170 </v>
  <v type="int" >      257 </v>
  <v type="int" >      254 </v>
  <v type="int" >      214 </v>
  <v type="int" >      124 </v>
  <v type="int" >       34 </v>
  <v type="int" >      153 </v>
  <v type="int" >       24 </v>
  <v type="int" >       95 </v>
  <v type="int" >      236 </v>
  <v type="int" >      172 </v>
  <v type="int" >      123 </v>
  <v type="int" >      258 </v>
  <v type="int" >      247 </v>
  <v type="int" >      198 </v>
  <v type="int" >      229 </v>
  <v type="int" >       86 </v>
  <v type="int" >       57 </v>
  <v type="int" >      246 </v>
  <v type="int" >       50 </v>
  <v type="int" >      273 </v>
  <v type="int" >      156 </v>
  <v type="int" >      105 </v>
  <v type="int" >       17 </v>
  <v type="int" >       79 </v>
  <v type="int" >      134 </v>
  <v type="int" >      232 </v>
  <v type="int" >      171 </v>
  <v type="int" >      248 </v>
  <v type="int" >      244 </v>
  <v type="int" >      282 </v>
  <v type="int" >      168 </v>
  <v type="int" >      211 </v>
  <v type="int" >      256 </v>
  <v type="int" >       46 </v>
  <v type="int" >      240 </v>
  <v type="int" >       29 </v>
  <v type="int" >       94 </v>
  <v type="int" >      215 </v>
  <v type="int" >      281 </v>
  <v type="int" >      285 </v>
  <v type="int" >      223 </v>
  <v type="int" >      239 </v>
  <v type="int" >      115 </v>
  <v type="int" >      184 </v>
  <v type="int" >      136 </v>
  <v type="int" >       62 </v>
  <v type="int" >      166 </v>
  <v type="int" >      268 </v>
  <v type="int" >      179 </v>
  <v type="int" >      132 </v>
  <v type="int" >      217 </v>
  <v type="int" >      176 </v>
  <v type="int" >      249 </v>
  <v type="int" >       91 </v>
  <v type="int" >      185 </v>
  <v type="int" >       19 </v>
  <v type="int" >      130 </v>
  <v type="int" >      206 </v>
  <v type="int" >      207 </v>
  <v type="int" >      175 </v>
  <v type="int" >       11 </v>
  <v type="int" >      178 </v>
  <v type="int" >      116 </v>
  <v type="int" >      107 </v>
  <v type="int" >      241 </v>
  <v type="int" >      230 </v>
  <v type="int" >      218 </v>
  <v type="int" >      209 </v>
  <v type="int" >       18 </v>
  <v type="int" >      225 </v>
  <v type="int" >      187 </v>
  <v type="int" >       93 </v>
  <v type="int" >      266 </v>
  <v type="int" >       87 </v>
  <v type="int" >      141 </v>
  <v type="int" >      111 </v>
  <v type="int" >       58 </v>
  <v type="int" >      181 </v>
  <v type="int" >      101 </v>
  <v type="int" >      151 </v>
  <v type="int" >      125 </v>
  <v type="int" >      274 </v>
  <v type="int" >        2 </v>
  <v type="int" >      154 </v>
  <v type="int" >      212 </v>
  <v type="int" >       27 </v>
  <v type="int" >      234 </v>
  <v type="int" >      173 </v>
  <v type="int" >      283 </v>
  <v type="int" >       41 </v>
  <v type="int" >      131 </v>
  <v type="int" >       39 </v>
  <v type="int" >       72 </v>
  <v type="int" >       12 </v>
  <v type="int" >      148 </v>
  <v type="int" >      276 </v>
  <v type="int" >      250 </v>
  <v type="int" >       40 </v>
  <v type="int" >       13 </v>
  <v type="int" >      264 </v>
  <v type="int" >      146 </v>
  <v type="int" >      259 </v>
  <v type="int" >      216 </v>
  <v type="int" >      233 </v>
  <v type="int" >       21 </v>
  <v type="int" >       98 </v>
  <v type="int" >      235 </v>
  <v type="int" >       68 </v>
  <v type="int" >       16 </v>
  <v type="int" >       59 </v>
  <v type="int" >       66 </v>
  <v type="int" >      177 </v>
  <v type="int" >        6 </v>
  <v type="int" >       75 </v>
  <v type="int" >        7 </v>
  <v type="int" >       73 </v>
  <v type="int" >      150 </v>
  <v type="int" >      271 </v>
  <v type="int" >      152 </v>
  <v type="int" >      129 </v>
  <v type="int" >      188 </v>
  <v type="int" >      174 </v>
  <v type="int" >      221 </v>
  <v type="int" >      269 </v>
  <v type="int" >      103 </v>
  <v type="int" >      180 </v>
  <v type="int" >      245 </v>
  <v type="int" >       82 </v>
  <v type="int" >      194 </v>
  <v type="int" >      201 </v>
  <v type="int" >       51 </v>
  <v type="int" >      280 </v>
  <v type="int" >      102 </v>
  <v type="int" >      228 </v>
  <v type="int" >        3 </v>
  <v type="int" >        4 </v>
  <v type="int" >      260 </v>
  <v type="int" >      167 </v>
  <v type="int" >       30 </v>
  <v type="int" >       77 </v>
  <v type="int" >      284 </v>
  <v type="int" >      149 </v>
  <v type="int" >       36 </v>
  <v type="int" >      275 </v>
  <v type="int" >      106 </v>
  <v type="int" >       60 </v>
  <v type="int" >       67 </v>
  <v type="int" >      199 </v>
  <v type="int" >       88 </v>
  <v type="int" >       54 </v>
  <v type="int" >      253 </v>
  <v type="int" >      114 </v>
  <v type="int" >       85 </v>
  <v type="int" >      121 </v>
  <v type="int" >      182 </v>
  <v type="int" >      127 </v>
  <v type="int" >       44 </v>
  <v type="int" >      196 </v>
  <v type="int" >      157 </v>
  <v type="int" >      113 </v>
  <v type="int" >       42 </v>
  <v type="int" >       49 </v>
  <v type="int" >      135 </v>
  <v type="int" >       69 </v>
  <v type="int" >      210 </v>
  <v type="int" >      200 </v>
  <v type="int" >      213 </v>
  <v type="int" >       53 </v>
  <v type="int" >      186 </v>
  <v type="int" >       31 </v>
  <v type="int" >       76 </v>
  <v type="int" >      159 </v>
  <v type="int" >      140 </v>
  <v type="int" >      204 </v>
  <v type="int" >      119 </v>
  <v type="int" >      110 </v>
  <v type="int" >      202 </v>
  <v type="int" >       84 </v>
  <v type="int" >      287 </v>
  <v type="int" >      237 </v>
  <v type="int" >      137 </v>
  <v type="int" >        9 </v>
  <v type="int" >       78 </v>
  <v type="int" >       80 </v>
  <v type="int" >       20 </v>
  <v type="int" >       64 </v>
  <v type="int" >      272 </v>
  <v type="int" >       96 </v>
  <v type="int" >      138 </v>
  <v type="int" >      164 </v>
  <v type="int" >      195 </v>
  <v type="int" >       74 </v>
  <v type="int" >      163 </v>
  <v type="int" >       65 </v>
  <v type="int" >      219 </v>
  <v type="int" >      231 </v>
  <v type="int" >       56 </v>
  <v type="int" >      139 </v>
  <v type="int" >      270 </v>
  <v type="int" >      165 </v>
  <v type="int" >        8 </v>
  <v type="int" >       22 </v>
  <v type="int" >      224 </v>
  <v type="int" >       37 </v>
  <v type="int" >       47 </v>
 </varray>
 <kpoints>
  <generation param="Gamma">
   <v type="int" name="divisions">       4        4        1 </v>
   <v name="usershift">      0.00000000       0.00000000       0.00000000 </v>
   <v name="genvec1">      0.25000000       0.00000000       0.00000000 </v>
   <v name="genvec2">      0.00000000       0.25000000       0.00000000 </v>
   <v name="genvec3">      0.00000000       0.00000000       1.00000000 </v>
   <v name="shift">      0.00000000       0.00000000       0.00000000 </v>
  </generation>
  <varray name="kpointlist" >
   <v>       0.00000000       0.00000000       0.00000000 </v>
   <v>       0.25000000       0.00000000       0.00000000 </v>
   <v>       0.50000000       0.00000000       0.00000000 </v>
   <v>       0.00000000       0.25000000       0.00000000 </v>
   <v>       0.25000000       0.25000000       0.00000000 </v>
   <v>       0.50000000       0.25000000       0.00000000 </v>
   <v>      -0.25000000       0.25000000       0.00000000 </v>
   <v>       0.00000000       0.50000000       0.00000000 </v>
   <v>       0.25000000       0.50000000       0.00000000 </v>
   <v>       0.50000000       0.50000000       0.00000000 </v>
  </varray>
  <varray name="weights" >
   <v>       0.06250000 </v>
   <v>       0.12500000 </v>
   <v>       0.06250000 </v>
   <v>       0.12500000 </v>
   <v>       0.12500000 </v>
   <v>       0.12500000 </v>
   <v>       0.12500000 </v>
   <v>       0.06250000 </v>
   <v>       0.12500000 </v>
   <v>       0.06250000 </v>
  </varray>
 </kpoints>
 <parameters>
  <separator name="general" >
   <i type="string" name="SYSTEM">unknown system</i>
   <i type="logical" name="LCOMPAT"> F  </i>
  </separator>
  <separator name="electronic" >
   <i type="string" name="PREC">accura</i>
   <i name="ENMAX">    450.00000000</i>
   <i name="ENAUG">    838.43500000</i>
   <i name="EDIFF">      0.00000100</i>
   <i type="int" name="IALGO">    68</i>
   <i type="int" name="IWAVPR">    11</i>
   <i type="int" name="NBANDS">  1386</i>
   <i name="NELECT">   2297.00000000</i>
   <i type="int" name="TURBO">     0</i>
   <i type="int" name="IRESTART">     0</i>
   <i type="int" name="NREBOOT">     0</i>
   <i type="int" name="NMIN">     0</i>
   <i name="EREF">      0.00000000</i>
   <separator name="electronic smearing" >
    <i type="int" name="ISMEAR">     0</i>
    <i name="SIGMA">      0.15000000</i>
    <i name="KSPACING">      0.50000000</i>
    <i type="logical" name="KGAMMA"> T  </i>
   </separator>
   <separator name="electronic projectors" >
    <i type="logical" name="LREAL"> T  </i>
    <v name="ROPT">     -0.00025000     -0.00025000</v>
    <i type="int" name="LMAXPAW">  -100</i>
    <i type="int" name="LMAXMIX">     2</i>
    <i type="logical" name="NLSPLINE"> F  </i>
   </separator>
   <separator name="electronic startup" >
    <i type="int" name="ISTART">     0</i>
    <i type="int" name="ICHARG">     2</i>
    <i type="int" name="INIWAV">     1</i>
   </separator>
   <separator name="electronic spin" >
    <i type="int" name="ISPIN">     1</i>
    <i type="logical" name="LNONCOLLINEAR"> F  </i>
    <v name="MAGMOM">      1.00000000      1.00000000      1.00000000      1.00000000      1.00000000      1.00000000      1.00000000      1.00000000      1.00000000      1.00000000      1.00000000      1.00000000      1.00000000      1.00000000      1.00000000      1.00000000      1.00000000      1.00000000      1.00000000      1.00000000
      1.00000000      1.00000000      1.00000000      1.00000000      1.00000000      1.00000000      1.00000000      1.00000000      1.00000000      1.00000000      1.00000000      1.00000000      1.00000000      1.00000000      1.00000000      1.00000000      1.00000000      1.00000000      1.00000000      1.00000000
      1.00000000      1.00000000      1.00000000      1.00000000      1.00000000      1.00000000      1.00000000      1.00000000      1.00000000      1.00000000      1.00000000      1.00000000      1.00000000      1.00000000      1.00000000      1.00000000      1.00000000      1.00000000      1.00000000      1.00000000
      1.00000000      1.00000000      1.00000000      1.00000000      1.00000000      1.00000000      1.00000000      1.00000000      1.00000000      1.00000000      1.00000000      1.00000000      1.00000000      1.00000000      1.00000000      1.00000000      1.00000000      1.00000000      1.00000000      1.00000000
      1.00000000      1.00000000      1.00000000      1.00000000      1.00000000      1.00000000      1.00000000      1.00000000      1.00000000      1.00000000      1.00000000      1.00000000      1.00000000      1.00000000      1.00000000      1.00000000      1.00000000      1.00000000      1.00000000      1.00000000
      1.00000000      1.00000000      1.00000000      1.00000000      1.00000000      1.00000000      1.00000000      1.00000000      1.00000000      1.00000000      1.00000000      1.00000000      1.00000000      1.00000000      1.00000000      1.00000000      1.00000000      1.00000000      1.00000000      1.00000000
      1.00000000      1.00000000      1.00000000      1.00000000      1.00000000      1.00000000      1.00000000      1.00000000      1.00000000      1.00000000      1.00000000      1.00000000      1.00000000      1.00000000      1.00000000      1.00000000      1.00000000      1.00000000      1.00000000      1.00000000
      1.00000000      1.00000000      1.00000000      1.00000000      1.00000000      1.00000000      1.00000000      1.00000000      1.00000000      1.00000000      1.00000000      1.00000000      1.00000000      1.00000000      1.00000000      1.00000000      1.00000000      1.00000000      1.00000000      1.00000000
      1.00000000      1.00000000      1.00000000      1.00000000      1.00000000      1.00000000      1.00000000      1.00000000      1.00000000      1.00000000      1.00000000      1.00000000      1.00000000      1.00000000      1.00000000      1.00000000      1.00000000      1.00000000      1.00000000      1.00000000
      1.00000000      1.00000000      1.00000000      1.00000000      1.00000000      1.00000000      1.00000000      1.00000000      1.00000000      1.00000000      1.00000000      1.00000000      1.00000000      1.00000000      1.00000000      1.00000000      1.00000000      1.00000000      1.00000000      1.00000000
      1.00000000      1.00000000      1.00000000      1.00000000      1.00000000      1.00000000      1.00000000      1.00000000      1.00000000      1.00000000      1.00000000      1.00000000      1.00000000      1.00000000      1.00000000      1.00000000      1.00000000      1.00000000      1.00000000      1.00000000
      1.00000000      1.00000000      1.00000000      1.00000000      1.00000000      1.00000000      1.00000000      1.00000000      1.00000000      1.00000000      1.00000000      1.00000000      1.00000000      1.00000000      1.00000000      1.00000000      1.00000000      1.00000000      1.00000000      1.00000000
      1.00000000      1.00000000      1.00000000      1.00000000      1.00000000      1.00000000      1.00000000      1.00000000      1.00000000      1.00000000      1.00000000      1.00000000      1.00000000      1.00000000      1.00000000      1.00000000      1.00000000      1.00000000      1.00000000      1.00000000
      1.00000000      1.00000000      1.00000000      1.00000000      1.00000000      1.00000000      1.00000000      1.00000000      1.00000000      1.00000000      1.00000000      1.00000000      1.00000000      1.00000000      1.00000000      1.00000000      1.00000000      1.00000000      1.00000000      1.00000000
      1.00000000      1.00000000      1.00000000      1.00000000      1.00000000      1.00000000      1.00000000      1.00000000</v>
    <i name="NUPDOWN">     -1.00000000</i>
    <i type="logical" name="LSORBIT"> F  </i>
    <v name="SAXIS">      0.00000000      0.00000000      1.00000000</v>
    <i type="logical" name="LSPIRAL"> F  </i>
    <v name="QSPIRAL">      0.00000000      0.00000000      0.00000000</v>
    <i type="logical" name="LZEROZ"> F  </i>
   </separator>
   <separator name="electronic exchange-correlation" >
    <i type="logical" name="LASPH"> F  </i>
    <i type="logical" name="LMETAGGA"> F  </i>
   </separator>
   <separator name="electronic convergence" >
    <i type="int" name="NELM">   200</i>
    <i type="int" name="NELMDL">     0</i>
    <i type="int" name="NELMIN">     4</i>
    <i name="ENINI">    450.00000000</i>
    <separator name="electronic convergence detail" >
     <i type="logical" name="LDIAG"> T  </i>
     <i type="logical" name="LSUBROT"> F  </i>
     <i name="WEIMIN">      0.00100000</i>
     <i name="EBREAK">      0.00000000</i>
     <i name="DEPER">      0.30000000</i>
     <i type="int" name="NRMM">     4</i>
     <i name="TIME">      0.40000000</i>
    </separator>
   </separator>
   <separator name="electronic mixer" >
    <i name="AMIX">      0.40000000</i>
    <i name="BMIX">      1.00000000</i>
    <i name="AMIN">      0.10000000</i>
    <i name="AMIX_MAG">      1.60000000</i>
    <i name="BMIX_MAG">      1.00000000</i>
    <separator name="electronic mixer details" >
     <i type="int" name="IMIX">     4</i>
     <i type="logical" name="MIXFIRST"> F  </i>
     <i type="int" name="MAXMIX">   -45</i>
     <i name="WC">    100.00000000</i>
     <i type="int" name="INIMIX">     1</i>
     <i type="int" name="MIXPRE">     1</i>
     <i type="int" name="MREMOVE">     5</i>
    </separator>
   </separator>
   <separator name="electronic dipolcorrection" >
    <i type="logical" name="LDIPOL"> F  </i>
    <i type="logical" name="LMONO"> F  </i>
    <i type="int" name="IDIPOL">     0</i>
    <i name="EPSILON">      1.00000000</i>
    <v name="DIPOL">   -100.00000000   -100.00000000   -100.00000000</v>
    <i name="EFIELD">      0.00000000</i>
   </separator>
  </separator>
  <separator name="grids" >
   <i type="int" name="NGX">    70</i>
   <i type="int" name="NGY">    60</i>
   <i type="int" name="NGZ">   320</i>
   <i type="int" name="NGXF">   140</i>
   <i type="int" name="NGYF">   120</i>
   <i type="int" name="NGZF">   640</i>
   <i type="logical" name="ADDGRID"> F  </i>
  </separator>
  <separator name="ionic" >
   <i type="int" name="NSW">     5</i>
   <i type="int" name="IBRION">     2</i>
   <i type="int" name="MDALGO">     0</i>
   <i type="int" name="ISIF">     2</i>
   <i name="PSTRESS">      0.00000000</i>
   <i name="EDIFFG">      0.00001000</i>
   <i type="int" name="NFREE">     1</i>
   <i name="POTIM">      0.25000000</i>
   <i name="SMASS">     -3.00000000</i>
   <i name="SCALEE">      1.00000000</i>
  </separator>
  <separator name="ionic md" >
   <i name="TEBEG">      0.00010000</i>
   <i name="TEEND">      0.00010000</i>
   <i type="int" name="NBLOCK">     1</i>
   <i type="int" name="KBLOCK">     5</i>
   <i type="int" name="NPACO">   256</i>
   <i name="APACO">     16.00000000</i>
  </separator>
  <separator name="symmetry" >
   <i type="int" name="ISYM">     2</i>
   <i name="SYMPREC">      0.00001000</i>
  </separator>
  <separator name="dos" >
   <i type="int" name="LORBIT">     0</i>
   <v name="RWIGS">     -1.00000000     -1.00000000</v>
   <i type="int" name="NEDOS">   301</i>
   <i name="EMIN">     10.00000000</i>
   <i name="EMAX">    -10.00000000</i>
   <i name="EFERMI">      0.00000000</i>
  </separator>
  <separator name="writing" >
   <i type="int" name="NWRITE">     2</i>
   <i type="logical" name="LWAVE"> F  </i>
   <i type="logical" name="LDOWNSAMPLE"> F  </i>
   <i type="logical" name="LCHARG"> F  </i>
   <i type="logical" name="LPARD"> F  </i>
   <i type="logical" name="LVTOT"> F  </i>
   <i type="logical" name="LVHAR"> F  </i>
   <i type="logical" name="LELF"> F  </i>
   <i type="logical" name="LOPTICS"> F  </i>
   <v name="STM">      0.00000000      0.00000000      0.00000000      0.00000000      0.00000000      0.00000000      0.00000000</v>
  </separator>
  <separator name="performance" >
   <i type="int" name="NPAR">    14</i>
   <i type="int" name="NSIM">     4</i>
   <i type="int" name="NBLK">    -1</i>
   <i type="logical" name="LPLANE"> T  </i>
   <i type="logical" name="LSCALAPACK"> T  </i>
   <i type="logical" name="LSCAAWARE"> T  </i>
   <i type="logical" name="LSCALU"> F  </i>
   <i type="logical" name="LASYNC"> F  </i>
   <i type="logical" name="LORBITALREAL"> F  </i>
  </separator>
  <separator name="miscellaneous" >
   <i type="int" name="IDIOT">     3</i>
   <i type="int" name="ISPECIAL">     0</i>
   <i type="logical" name="LMUSIC"> F  </i>
   <v name="POMASS">     55.84700000     54.93800000</v>
   <v name="DARWINR">      0.00000000      0.00000000</v>
   <v name="DARWINV">      1.00000000      1.00000000</v>
   <i type="logical" name="LCORR"> T  </i>
  </separator>
  <i type="logical" name="GGA_COMPAT"> T  </i>
  <i type="logical" name="LBERRY"> F  </i>
  <i type="int" name="ICORELEVEL">     0</i>
  <i type="logical" name="LDAU"> F  </i>
  <i type="int" name="I_CONSTRAINED_M">     0</i>
  <separator name="electronic exchange-correlation" >
   <i type="string" name="GGA">--</i>
   <i type="int" name="VOSKOWN">     0</i>
   <i type="logical" name="LHFCALC"> F  </i>
   <i type="string" name="PRECFOCK"></i>
   <i type="logical" name="LSYMGRAD"> F  </i>
   <i type="logical" name="LHFONE"> F  </i>
   <i type="logical" name="LRHFCALC"> F  </i>
   <i type="logical" name="LTHOMAS"> F  </i>
   <i type="logical" name="LMODELHF"> F  </i>
   <i name="ENCUT4O">     -1.00000000</i>
   <i type="int" name="EXXOEP">     0</i>
   <i type="int" name="FOURORBIT">     0</i>
   <i name="AEXX">      0.00000000</i>
   <i name="HFALPHA">      0.00000000</i>
   <i name="MCALPHA">      0.00000000</i>
   <i name="ALDAX">      1.00000000</i>
   <i name="AGGAX">      1.00000000</i>
   <i name="ALDAC">      1.00000000</i>
   <i name="AGGAC">      1.00000000</i>
   <i type="int" name="NKREDX">     1</i>
   <i type="int" name="NKREDY">     1</i>
   <i type="int" name="NKREDZ">     1</i>
   <i type="logical" name="SHIFTRED"> F  </i>
   <i type="logical" name="ODDONLY"> F  </i>
   <i type="logical" name="EVENONLY"> F  </i>
   <i type="int" name="LMAXFOCK">     0</i>
   <i type="int" name="NMAXFOCKAE">     0</i>
   <i type="logical" name="LFOCKAEDFT"> F  </i>
   <i name="HFSCREEN">      0.00000000</i>
   <i name="HFSCREENC">      0.00000000</i>
   <i type="int" name="NBANDSGWLOW">     0</i>
  </separator>
  <separator name="vdW DFT" >
   <i type="logical" name="LUSE_VDW"> F  </i>
   <i name="Zab_VDW">     -0.84910000</i>
   <i name="PARAM1">      0.12340000</i>
   <i name="PARAM2">      1.00000000</i>
   <i name="PARAM3">      0.00000000</i>
  </separator>
  <separator name="model GW" >
   <i type="int" name="MODEL_GW">     0</i>
   <i name="MODEL_EPS0">      7.68123389</i>
   <i name="MODEL_ALPHA">      1.00000000</i>
  </separator>
  <separator name="linear response parameters" >
   <i type="logical" name="LEPSILON"> F  </i>
   <i type="logical" name="LRPA"> F  </i>
   <i type="logical" name="LNABLA"> F  </i>
   <i type="logical" name="LVEL"> F  </i>
   <i type="int" name="KINTER">     0</i>
   <i name="CSHIFT">      0.10000000</i>
   <i name="OMEGAMAX">     -1.00000000</i>
   <i name="DEG_THRESHOLD">      0.00200000</i>
   <i name="RTIME">     -0.10000000</i>
   <i name="WPLASMAI">      0.00000000</i>
   <v name="DFIELD">      0.00000000      0.00000000      0.00000000</v>
   <v name="WPLASMA">      0.00000000      0.00000000      0.00000000      0.00000000      0.00000000      0.00000000      0.00000000      0.00000000      0.00000000</v>
  </separator>
  <separator name="orbital magnetization" >
   <i type="logical" name="NUCIND"> F  </i>
   <v name="MAGPOS">      0.00000000      0.00000000      0.00000000</v>
   <i type="logical" name="LNICSALL"> T  </i>
   <i type="logical" name="ORBITALMAG"> F  </i>
   <i type="logical" name="LMAGBLOCH"> F  </i>
   <i type="logical" name="LCHIMAG"> F  </i>
   <i type="logical" name="LGAUGE"> T  </i>
   <i type="int" name="MAGATOM">     0</i>
   <v name="MAGDIPOL">      0.00000000      0.00000000      0.00000000</v>
   <v name="AVECCONST">      0.00000000      0.00000000      0.00000000</v>
  </separator>
  <separator name="response functions" >
   <i type="logical" name="LADDER"> F  </i>
   <i type="logical" name="LRPAFORCE"> F  </i>
   <i type="logical" name="LFXC"> F  </i>
   <i type="logical" name="LHARTREE"> T  </i>
   <i type="int" name="IBSE">     0</i>
   <v type="int" name="KPOINT">    -1     0     0     0</v>
   <i type="logical" name="LTCTE"> F  </i>
   <i type="logical" name="LTETE"> F  </i>
   <i type="logical" name="LTRIPLET"> F  </i>
   <i type="logical" name="LFXCEPS"> F  </i>
   <i type="logical" name="LFXHEG"> F  </i>
   <i type="int" name="NATURALO">     2</i>
   <i type="logical" name="L2ORDER"> F  </i>
   <i type="logical" name="LMP2LT"> F  </i>
   <i type="logical" name="LUSEW"> F  </i>
   <i name="ENCUTGW">     -2.00000000</i>
   <i name="ENCUTGWSOFT">     -2.00000000</i>
   <i name="ENCUTLF">     -1.00000000</i>
   <i type="int" name="LMAXMP2">    -1</i>
   <i name="SCISSOR">      0.00000000</i>
   <i type="int" name="NOMEGA">     0</i>
   <i type="int" name="NOMEGAR">     0</i>
   <i type="int" name="NBANDSGW">    -1</i>
   <i type="int" name="NBANDSO">    -1</i>
   <i type="int" name="NBANDSV">    -1</i>
   <i type="int" name="NELM">   200</i>
   <i type="int" name="NELMHF">     1</i>
   <i type="int" name="DIM">     3</i>
   <i type="int" name="ANTIRES">     0</i>
   <i name="OMEGAMAX">    -30.00000000</i>
   <i name="OMEGAMIN">    -30.00000000</i>
   <i name="OMEGATL">   -200.00000000</i>
   <i type="int" name="OMEGAGRID">   140</i>
   <i name="CSHIFT">     -0.10000000</i>
   <i type="logical" name="SELFENERGY"> F  </i>
   <i type="logical" name="LSPECTRAL"> F  </i>
   <i type="logical" name="LSPECTRALGW"> F  </i>
   <i type="logical" name="LSINGLES"> F  </i>
   <i type="logical" name="LFERMIGW"> F  </i>
   <i type="logical" name="ODDONLYGW"> F  </i>
   <i type="logical" name="EVENONLYGW"> F  </i>
   <i type="int" name="NKREDLFX">     1</i>
   <i type="int" name="NKREDLFY">     1</i>
   <i type="int" name="NKREDLFZ">     1</i>
   <i type="int" name="MAXMEM">  2800</i>
   <i type="int" name="TELESCOPE">     0</i>
   <i type="int" name="TAUPAR">     1</i>
   <i type="int" name="OMEGAPAR">    -1</i>
   <i name="LAMBDA">      1.00000000</i>
  </separator>
  <separator name="External order field" >
   <i name="OFIELD_KAPPA">      0.00000000</i>
   <v name="OFIELD_K">      0.00000000      0.00000000      0.00000000</v>
   <i name="OFIELD_Q6_NEAR">      0.00000000</i>
   <i name="OFIELD_Q6_FAR">      0.00000000</i>
   <i name="OFIELD_A">      0.00000000</i>
  </separator>
 </parameters>
 <atominfo>
  <atoms>     288 </atoms>
  <types>       2 </types>
  <array name="atoms" >
   <dimension dim="1">ion</dimension>
   <field type="string">element</field>
   <field type="int">atomtype</field>
   <set>
    <rc><c>Fe</c><c>   1</c></rc>
    <rc><c>Fe</c><c>   1</c></rc>
    <rc><c>Fe</c><c>   1</c></rc>
    <rc><c>Fe</c><c>   1</c></rc>
    <rc><c>Fe</c><c>   1</c></rc>
    <rc><c>Fe</c><c>   1</c></rc>
    <rc><c>Fe</c><c>   1</c></rc>
    <rc><c>Fe</c><c>   1</c></rc>
    <rc><c>Fe</c><c>   1</c></rc>
    <rc><c>Fe</c><c>   1</c></rc>
    <rc><c>Fe</c><c>   1</c></rc>
    <rc><c>Fe</c><c>   1</c></rc>
    <rc><c>Fe</c><c>   1</c></rc>
    <rc><c>Fe</c><c>   1</c></rc>
    <rc><c>Fe</c><c>   1</c></rc>
    <rc><c>Fe</c><c>   1</c></rc>
    <rc><c>Fe</c><c>   1</c></rc>
    <rc><c>Fe</c><c>   1</c></rc>
    <rc><c>Fe</c><c>   1</c></rc>
    <rc><c>Fe</c><c>   1</c></rc>
    <rc><c>Fe</c><c>   1</c></rc>
    <rc><c>Fe</c><c>   1</c></rc>
    <rc><c>Fe</c><c>   1</c></rc>
    <rc><c>Fe</c><c>   1</c></rc>
    <rc><c>Fe</c><c>   1</c></rc>
    <rc><c>Fe</c><c>   1</c></rc>
    <rc><c>Fe</c><c>   1</c></rc>
    <rc><c>Fe</c><c>   1</c></rc>
    <rc><c>Fe</c><c>   1</c></rc>
    <rc><c>Fe</c><c>   1</c></rc>
    <rc><c>Fe</c><c>   1</c></rc>
    <rc><c>Fe</c><c>   1</c></rc>
    <rc><c>Fe</c><c>   1</c></rc>
    <rc><c>Fe</c><c>   1</c></rc>
    <rc><c>Fe</c><c>   1</c></rc>
    <rc><c>Fe</c><c>   1</c></rc>
    <rc><c>Fe</c><c>   1</c></rc>
    <rc><c>Fe</c><c>   1</c></rc>
    <rc><c>Fe</c><c>   1</c></rc>
    <rc><c>Fe</c><c>   1</c></rc>
    <rc><c>Fe</c><c>   1</c></rc>
    <rc><c>Fe</c><c>   1</c></rc>
    <rc><c>Fe</c><c>   1</c></rc>
    <rc><c>Fe</c><c>   1</c></rc>
    <rc><c>Fe</c><c>   1</c></rc>
    <rc><c>Fe</c><c>   1</c></rc>
    <rc><c>Fe</c><c>   1</c></rc>
    <rc><c>Fe</c><c>   1</c></rc>
    <rc><c>Fe</c><c>   1</c></rc>
    <rc><c>Fe</c><c>   1</c></rc>
    <rc><c>Fe</c><c>   1</c></rc>
    <rc><c>Fe</c><c>   1</c></rc>
    <rc><c>Fe</c><c>   1</c></rc>
    <rc><c>Fe</c><c>   1</c></rc>
    <rc><c>Fe</c><c>   1</c></rc>
    <rc><c>Fe</c><c>   1</c></rc>
    <rc><c>Fe</c><c>   1</c></rc>
    <rc><c>Fe</c><c>   1</c></rc>
    <rc><c>Fe</c><c>   1</c></rc>
    <rc><c>Fe</c><c>   1</c></rc>
    <rc><c>Fe</c><c>   1</c></rc>
    <rc><c>Fe</c><c>   1</c></rc>
    <rc><c>Fe</c><c>   1</c></rc>
    <rc><c>Fe</c><c>   1</c></rc>
    <rc><c>Fe</c><c>   1</c></rc>
    <rc><c>Fe</c><c>   1</c></rc>
    <rc><c>Fe</c><c>   1</c></rc>
    <rc><c>Fe</c><c>   1</c></rc>
    <rc><c>Fe</c><c>   1</c></rc>
    <rc><c>Fe</c><c>   1</c></rc>
    <rc><c>Fe</c><c>   1</c></rc>
    <rc><c>Fe</c><c>   1</c></rc>
    <rc><c>Fe</c><c>   1</c></rc>
    <rc><c>Fe</c><c>   1</c></rc>
    <rc><c>Fe</c><c>   1</c></rc>
    <rc><c>Fe</c><c>   1</c></rc>
    <rc><c>Fe</c><c>   1</c></rc>
    <rc><c>Fe</c><c>   1</c></rc>
    <rc><c>Fe</c><c>   1</c></rc>
    <rc><c>Fe</c><c>   1</c></rc>
    <rc><c>Fe</c><c>   1</c></rc>
    <rc><c>Fe</c><c>   1</c></rc>
    <rc><c>Fe</c><c>   1</c></rc>
    <rc><c>Fe</c><c>   1</c></rc>
    <rc><c>Fe</c><c>   1</c></rc>
    <rc><c>Fe</c><c>   1</c></rc>
    <rc><c>Fe</c><c>   1</c></rc>
    <rc><c>Fe</c><c>   1</c></rc>
    <rc><c>Fe</c><c>   1</c></rc>
    <rc><c>Fe</c><c>   1</c></rc>
    <rc><c>Fe</c><c>   1</c></rc>
    <rc><c>Fe</c><c>   1</c></rc>
    <rc><c>Fe</c><c>   1</c></rc>
    <rc><c>Fe</c><c>   1</c></rc>
    <rc><c>Fe</c><c>   1</c></rc>
    <rc><c>Fe</c><c>   1</c></rc>
    <rc><c>Fe</c><c>   1</c></rc>
    <rc><c>Fe</c><c>   1</c></rc>
    <rc><c>Fe</c><c>   1</c></rc>
    <rc><c>Fe</c><c>   1</c></rc>
    <rc><c>Fe</c><c>   1</c></rc>
    <rc><c>Fe</c><c>   1</c></rc>
    <rc><c>Fe</c><c>   1</c></rc>
    <rc><c>Fe</c><c>   1</c></rc>
    <rc><c>Fe</c><c>   1</c></rc>
    <rc><c>Fe</c><c>   1</c></rc>
    <rc><c>Fe</c><c>   1</c></rc>
    <rc><c>Fe</c><c>   1</c></rc>
    <rc><c>Fe</c><c>   1</c></rc>
    <rc><c>Fe</c><c>   1</c></rc>
    <rc><c>Fe</c><c>   1</c></rc>
    <rc><c>Fe</c><c>   1</c></rc>
    <rc><c>Fe</c><c>   1</c></rc>
    <rc><c>Fe</c><c>   1</c></rc>
    <rc><c>Fe</c><c>   1</c></rc>
    <rc><c>Fe</c><c>   1</c></rc>
    <rc><c>Fe</c><c>   1</c></rc>
    <rc><c>Fe</c><c>   1</c></rc>
    <rc><c>Fe</c><c>   1</c></rc>
    <rc><c>Fe</c><c>   1</c></rc>
    <rc><c>Fe</c><c>   1</c></rc>
    <rc><c>Fe</c><c>   1</c></rc>
    <rc><c>Fe</c><c>   1</c></rc>
    <rc><c>Fe</c><c>   1</c></rc>
    <rc><c>Fe</c><c>   1</c></rc>
    <rc><c>Fe</c><c>   1</c></rc>
    <rc><c>Fe</c><c>   1</c></rc>
    <rc><c>Fe</c><c>   1</c></rc>
    <rc><c>Fe</c><c>   1</c></rc>
    <rc><c>Fe</c><c>   1</c></rc>
    <rc><c>Fe</c><c>   1</c></rc>
    <rc><c>Fe</c><c>   1</c></rc>
    <rc><c>Fe</c><c>   1</c></rc>
    <rc><c>Fe</c><c>   1</c></rc>
    <rc><c>Fe</c><c>   1</c></rc>
    <rc><c>Fe</c><c>   1</c></rc>
    <rc><c>Fe</c><c>   1</c></rc>
    <rc><c>Fe</c><c>   1</c></rc>
    <rc><c>Fe</c><c>   1</c></rc>
    <rc><c>Fe</c><c>   1</c></rc>
    <rc><c>Fe</c><c>   1</c></rc>
    <rc><c>Fe</c><c>   1</c></rc>
    <rc><c>Fe</c><c>   1</c></rc>
    <rc><c>Fe</c><c>   1</c></rc>
    <rc><c>Fe</c><c>   1</c></rc>
    <rc><c>Fe</c><c>   1</c></rc>
    <rc><c>Fe</c><c>   1</c></rc>
    <rc><c>Fe</c><c>   1</c></rc>
    <rc><c>Fe</c><c>   1</c></rc>
    <rc><c>Fe</c><c>   1</c></rc>
    <rc><c>Fe</c><c>   1</c></rc>
    <rc><c>Fe</c><c>   1</c></rc>
    <rc><c>Fe</c><c>   1</c></rc>
    <rc><c>Fe</c><c>   1</c></rc>
    <rc><c>Fe</c><c>   1</c></rc>
    <rc><c>Fe</c><c>   1</c></rc>
    <rc><c>Fe</c><c>   1</c></rc>
    <rc><c>Fe</c><c>   1</c></rc>
    <rc><c>Fe</c><c>   1</c></rc>
    <rc><c>Fe</c><c>   1</c></rc>
    <rc><c>Fe</c><c>   1</c></rc>
    <rc><c>Fe</c><c>   1</c></rc>
    <rc><c>Fe</c><c>   1</c></rc>
    <rc><c>Fe</c><c>   1</c></rc>
    <rc><c>Fe</c><c>   1</c></rc>
    <rc><c>Fe</c><c>   1</c></rc>
    <rc><c>Fe</c><c>   1</c></rc>
    <rc><c>Fe</c><c>   1</c></rc>
    <rc><c>Fe</c><c>   1</c></rc>
    <rc><c>Fe</c><c>   1</c></rc>
    <rc><c>Fe</c><c>   1</c></rc>
    <rc><c>Fe</c><c>   1</c></rc>
    <rc><c>Fe</c><c>   1</c></rc>
    <rc><c>Fe</c><c>   1</c></rc>
    <rc><c>Fe</c><c>   1</c></rc>
    <rc><c>Fe</c><c>   1</c></rc>
    <rc><c>Fe</c><c>   1</c></rc>
    <rc><c>Fe</c><c>   1</c></rc>
    <rc><c>Fe</c><c>   1</c></rc>
    <rc><c>Fe</c><c>   1</c></rc>
    <rc><c>Fe</c><c>   1</c></rc>
    <rc><c>Fe</c><c>   1</c></rc>
    <rc><c>Fe</c><c>   1</c></rc>
    <rc><c>Fe</c><c>   1</c></rc>
    <rc><c>Fe</c><c>   1</c></rc>
    <rc><c>Fe</c><c>   1</c></rc>
    <rc><c>Fe</c><c>   1</c></rc>
    <rc><c>Fe</c><c>   1</c></rc>
    <rc><c>Fe</c><c>   1</c></rc>
    <rc><c>Fe</c><c>   1</c></rc>
    <rc><c>Fe</c><c>   1</c></rc>
    <rc><c>Fe</c><c>   1</c></rc>
    <rc><c>Fe</c><c>   1</c></rc>
    <rc><c>Fe</c><c>   1</c></rc>
    <rc><c>Fe</c><c>   1</c></rc>
    <rc><c>Fe</c><c>   1</c></rc>
    <rc><c>Fe</c><c>   1</c></rc>
    <rc><c>Fe</c><c>   1</c></rc>
    <rc><c>Fe</c><c>   1</c></rc>
    <rc><c>Fe</c><c>   1</c></rc>
    <rc><c>Fe</c><c>   1</c></rc>
    <rc><c>Fe</c><c>   1</c></rc>
    <rc><c>Fe</c><c>   1</c></rc>
    <rc><c>Fe</c><c>   1</c></rc>
    <rc><c>Fe</c><c>   1</c></rc>
    <rc><c>Fe</c><c>   1</c></rc>
    <rc><c>Fe</c><c>   1</c></rc>
    <rc><c>Fe</c><c>   1</c></rc>
    <rc><c>Fe</c><c>   1</c></rc>
    <rc><c>Fe</c><c>   1</c></rc>
    <rc><c>Fe</c><c>   1</c></rc>
    <rc><c>Fe</c><c>   1</c></rc>
    <rc><c>Fe</c><c>   1</c></rc>
    <rc><c>Fe</c><c>   1</c></rc>
    <rc><c>Fe</c><c>   1</c></rc>
    <rc><c>Fe</c><c>   1</c></rc>
    <rc><c>Fe</c><c>   1</c></rc>
    <rc><c>Fe</c><c>   1</c></rc>
    <rc><c>Fe</c><c>   1</c></rc>
    <rc><c>Fe</c><c>   1</c></rc>
    <rc><c>Fe</c><c>   1</c></rc>
    <rc><c>Fe</c><c>   1</c></rc>
    <rc><c>Fe</c><c>   1</c></rc>
    <rc><c>Fe</c><c>   1</c></rc>
    <rc><c>Fe</c><c>   1</c></rc>
    <rc><c>Fe</c><c>   1</c></rc>
    <rc><c>Fe</c><c>   1</c></rc>
    <rc><c>Fe</c><c>   1</c></rc>
    <rc><c>Fe</c><c>   1</c></rc>
    <rc><c>Fe</c><c>   1</c></rc>
    <rc><c>Fe</c><c>   1</c></rc>
    <rc><c>Fe</c><c>   1</c></rc>
    <rc><c>Fe</c><c>   1</c></rc>
    <rc><c>Fe</c><c>   1</c></rc>
    <rc><c>Fe</c><c>   1</c></rc>
    <rc><c>Fe</c><c>   1</c></rc>
    <rc><c>Fe</c><c>   1</c></rc>
    <rc><c>Fe</c><c>   1</c></rc>
    <rc><c>Fe</c><c>   1</c></rc>
    <rc><c>Fe</c><c>   1</c></rc>
    <rc><c>Fe</c><c>   1</c></rc>
    <rc><c>Fe</c><c>   1</c></rc>
    <rc><c>Fe</c><c>   1</c></rc>
    <rc><c>Fe</c><c>   1</c></rc>
    <rc><c>Fe</c><c>   1</c></rc>
    <rc><c>Fe</c><c>   1</c></rc>
    <rc><c>Fe</c><c>   1</c></rc>
    <rc><c>Fe</c><c>   1</c></rc>
    <rc><c>Fe</c><c>   1</c></rc>
    <rc><c>Fe</c><c>   1</c></rc>
    <rc><c>Fe</c><c>   1</c></rc>
    <rc><c>Fe</c><c>   1</c></rc>
    <rc><c>Fe</c><c>   1</c></rc>
    <rc><c>Fe</c><c>   1</c></rc>
    <rc><c>Fe</c><c>   1</c></rc>
    <rc><c>Fe</c><c>   1</c></rc>
    <rc><c>Fe</c><c>   1</c></rc>
    <rc><c>Fe</c><c>   1</c></rc>
    <rc><c>Fe</c><c>   1</c></rc>
    <rc><c>Fe</c><c>   1</c></rc>
    <rc><c>Fe</c><c>   1</c></rc>
    <rc><c>Fe</c><c>   1</c></rc>
    <rc><c>Fe</c><c>   1</c></rc>
    <rc><c>Fe</c><c>   1</c></rc>
    <rc><c>Fe</c><c>   1</c></rc>
    <rc><c>Fe</c><c>   1</c></rc>
    <rc><c>Fe</c><c>   1</c></rc>
    <rc><c>Fe</c><c>   1</c></rc>
    <rc><c>Fe</c><c>   1</c></rc>
    <rc><c>Fe</c><c>   1</c></rc>
    <rc><c>Fe</c><c>   1</c></rc>
    <rc><c>Fe</c><c>   1</c></rc>
    <rc><c>Fe</c><c>   1</c></rc>
    <rc><c>Fe</c><c>   1</c></rc>
    <rc><c>Fe</c><c>   1</c></rc>
    <rc><c>Fe</c><c>   1</c></rc>
    <rc><c>Fe</c><c>   1</c></rc>
    <rc><c>Fe</c><c>   1</c></rc>
    <rc><c>Fe</c><c>   1</c></rc>
    <rc><c>Fe</c><c>   1</c></rc>
    <rc><c>Fe</c><c>   1</c></rc>
    <rc><c>Mn</c><c>   2</c></rc>
    <rc><c>Mn</c><c>   2</c></rc>
    <rc><c>Mn</c><c>   2</c></rc>
    <rc><c>Mn</c><c>   2</c></rc>
    <rc><c>Mn</c><c>   2</c></rc>
    <rc><c>Mn</c><c>   2</c></rc>
    <rc><c>Mn</c><c>   2</c></rc>
   </set>
  </array>
  <array name="atomtypes" >
   <dimension dim="1">type</dimension>
   <field type="int">atomspertype</field>
   <field type="string">element</field>
   <field>mass</field>
   <field>valence</field>
   <field type="string">pseudopotential</field>
   <set>
    <rc><c> 281</c><c>Fe</c><c>     55.84700000</c><c>      8.00000000</c><c>  PAW_PBE Fe_GW 31Mar2010               </c></rc>
    <rc><c>   7</c><c>Mn</c><c>     54.93800000</c><c>      7.00000000</c><c>  PAW_PBE Mn_GW 31Mar2010               </c></rc>
   </set>
  </array>
 </atominfo>
 <structure name="initialpos" >
  <crystal>
   <varray name="basis" >
    <v>       9.72667804       0.00000000       0.00000000 </v>
    <v>       0.00000000       8.42355028       0.00000000 </v>
    <v>       0.00000000       0.00000000      45.00000000 </v>
   </varray>
   <i name="volume">   3686.99226691 </i>
   <varray name="rec_basis" >
    <v>       0.10281002       0.00000000       0.00000000 </v>
    <v>       0.00000000       0.11871479       0.00000000 </v>
    <v>       0.00000000       0.00000000       0.02222222 </v>
   </varray>
  </crystal>
  <varray name="positions" >
   <v>       0.05381774       0.70092507       0.21124993 </v>
   <v>       0.31931302       0.72405927       0.87628511 </v>
   <v>       0.68838194       0.95862585       0.61147494 </v>
   <v>       0.43841559       0.45826463       0.61158485 </v>
   <v>       0.44065961       0.28735543       0.25505069 </v>
   <v>       0.05859690       0.38801541       0.83353125 </v>
   <v>       0.30879834       0.88831674       0.83366865 </v>
   <v>       0.44695414       0.62630329       0.70039334 </v>
   <v>       0.05990026       0.21280959       0.74490380 </v>
   <v>       0.17872682       0.45160627       0.21138684 </v>
   <v>       0.56775608       0.21054512       0.47743114 </v>
   <v>       0.06657982       0.87517686       0.56688254 </v>
   <v>       0.56901079       0.22369070       0.87619095 </v>
   <v>       0.80868002       0.52779950       0.12399967 </v>
   <v>       0.42868592       0.95149015       0.21137171 </v>
   <v>       0.56650397       0.37510233       0.56682259 </v>
   <v>       0.81104614       0.04179096       0.38829513 </v>
   <v>       0.68197538       0.78883007       0.52240816 </v>
   <v>       0.44278214       0.46083244       0.47748223 </v>
   <v>       0.43383787       0.96240552       0.74464337 </v>
   <v>       0.44137499       0.62512493       0.56683709 </v>
   <v>       0.57165532       0.87664977       0.70052160 </v>
   <v>       0.30753123       0.02653481       0.12388442 </v>
   <v>       0.68967128       0.95892765       0.34397542 </v>
   <v>       0.68605026       0.78271943       0.12420214 </v>
   <v>       0.05286518       0.37383036       0.29957845 </v>
   <v>       0.68991492       0.46706087       0.87615071 </v>
   <v>       0.42915290       0.45151834       0.21152949 </v>
   <v>       0.80857589       0.37518823       0.43308319 </v>
   <v>       0.56327502       0.70842423       0.61154319 </v>
   <v>       0.55987169       0.54085213       0.65594154 </v>
   <v>       0.81702201       0.86257279       0.16659512 </v>
   <v>       0.56563322       0.53752064       0.25516359 </v>
   <v>       0.68947251       0.45895464       0.34389633 </v>
   <v>       0.19148656       0.61132497       0.16650838 </v>
   <v>       0.19413911       0.79935623       0.78878672 </v>
   <v>       0.44719541       0.12611321       0.70034886 </v>
   <v>       0.92790527       0.62360733       0.29961570 </v>
   <v>       0.31624487       0.22278731       0.87620709 </v>
   <v>       0.31656638       0.87493567       0.56687687 </v>
   <v>       0.81729114       0.22485293       0.87627773 </v>
   <v>       0.80970920       0.54069523       0.65588474 </v>
   <v>       0.55877310       0.52783097       0.12387958 </v>
   <v>       0.56923394       0.04969800       0.78893544 </v>
   <v>       0.19098588       0.28733563       0.25526345 </v>
   <v>       0.80871841       0.87533533       0.43303529 </v>
   <v>       0.57223890       0.37635164       0.70036225 </v>
   <v>       0.05773641       0.02643970       0.12401636 </v>
   <v>       0.30992138       0.54079148       0.65595979 </v>
   <v>       0.56486734       0.20895246       0.34397018 </v>
   <v>       0.18815259       0.95847917       0.61148099 </v>
   <v>       0.30295165       0.37385589       0.29962766 </v>
   <v>       0.43462886       0.79065124       0.65589754 </v>
   <v>       0.19494090       0.29918630       0.78882496 </v>
   <v>       0.06745642       0.36244849       0.16657745 </v>
   <v>       0.69712219       0.62602655       0.70046233 </v>
   <v>       0.31134546       0.54137537       0.38846998 </v>
   <v>       0.06765873       0.72349363       0.87615973 </v>
   <v>       0.93376720       0.63764725       0.83398995 </v>
   <v>       0.31972581       0.54942745       0.78883403 </v>
   <v>       0.30456272       0.20053889       0.21123362 </v>
   <v>       0.06790985       0.71066593       0.47747439 </v>
   <v>       0.55418476       0.20095120       0.21115278 </v>
   <v>       0.30961440       0.21247430       0.74494650 </v>
   <v>       0.07199468       0.37641902       0.70049603 </v>
   <v>       0.18278442       0.63771935       0.83343956 </v>
   <v>       0.06946468       0.04935366       0.78892469 </v>
   <v>       0.44166220       0.12492208       0.56690727 </v>
   <v>       0.93483877       0.29057503       0.65583741 </v>
   <v>       0.80420926       0.20110851       0.21122490 </v>
   <v>       0.92872929       0.95149163       0.21129966 </v>
   <v>       0.94152783       0.62516447       0.56680752 </v>
   <v>       0.80844955       0.38750585       0.83352216 </v>
   <v>       0.19684541       0.62590928       0.70039904 </v>
   <v>       0.80863499       0.88739419       0.83356829 </v>
   <v>       0.68485294       0.29083235       0.65605193 </v>
   <v>       0.31310956       0.20831993       0.61151086 </v>
   <v>       0.43450948       0.46245833       0.74494908 </v>
   <v>       0.43610537       0.79119460       0.38839010 </v>
   <v>       0.68449634       0.96244513       0.74481342 </v>
   <v>       0.80396107       0.70087833       0.21127497 </v>
   <v>       0.81354983       0.70835744       0.61160039 </v>
   <v>       0.43681033       0.78312826       0.12421947 </v>
   <v>       0.30983219       0.71201646       0.74483485 </v>
   <v>       0.32090533       0.04919360       0.78878941 </v>
   <v>       0.81119618       0.54210527       0.38832633 </v>
   <v>       0.68196919       0.28879777       0.52242697 </v>
   <v>       0.69590311       0.79901496       0.78874194 </v>
   <v>       0.19064256       0.78745657       0.25528550 </v>
   <v>       0.69160715       0.11221349       0.16640768 </v>
   <v>       0.69268904       0.96067607       0.47741452 </v>
   <v>       0.94048651       0.95931704       0.34412659 </v>
   <v>       0.80717454       0.03921500       0.52253648 </v>
   <v>       0.68385238       0.62483791       0.43293877 </v>
   <v>       0.43961096       0.45867053       0.34406082 </v>
   <v>       0.81015068       0.21198248       0.74457486 </v>
   <v>       0.31675441       0.86185068       0.16662191 </v>
   <v>       0.56665175       0.87488687       0.56687646 </v>
   <v>       0.80762684       0.02694958       0.12390994 </v>
   <v>       0.42837031       0.62366756       0.29941011 </v>
   <v>       0.81713606       0.72398042       0.87630604 </v>
   <v>       0.68821978       0.45853530       0.61149339 </v>
   <v>       0.55861994       0.38783250       0.83351708 </v>
   <v>       0.80310819       0.37358773       0.29946918 </v>
   <v>       0.18594922       0.29108110       0.38836487 </v>
   <v>       0.81993002       0.54941719       0.78893795 </v>
   <v>       0.18224690       0.78931563       0.52253497 </v>
   <v>       0.30292879       0.87383732       0.29955492 </v>
   <v>       0.17886306       0.95108456       0.21122628 </v>
   <v>       0.18453488       0.46245226       0.74494884 </v>
   <v>       0.43235357       0.28886854       0.52235128 </v>
   <v>       0.06488914       0.70857598       0.34386413 </v>
   <v>       0.18476353       0.79050903       0.65585998 </v>
   <v>       0.44463305       0.79937584       0.78880841 </v>
   <v>       0.68367659       0.12498548       0.43291202 </v>
   <v>       0.93213094       0.78858691       0.52243944 </v>
   <v>       0.69171470       0.61235779       0.16676711 </v>
   <v>       0.81451816       0.70845226       0.34383892 </v>
   <v>       0.93443366       0.46271570       0.74494046 </v>
   <v>       0.18987211       0.45887645       0.34397507 </v>
   <v>       0.57044122       0.54961350       0.78884263 </v>
   <v>       0.56644346       0.36251080       0.16645195 </v>
   <v>       0.56469123       0.70883877       0.34393812 </v>
   <v>       0.55297071       0.37366266       0.29958186 </v>
   <v>       0.18956989       0.46724586       0.87615850 </v>
   <v>       0.19247712       0.11193375       0.16658448 </v>
   <v>       0.44503501       0.29960493       0.78871865 </v>
   <v>       0.69098631       0.78736919       0.25540534 </v>
   <v>       0.93384674       0.13791454       0.83358852 </v>
   <v>       0.44266584       0.96061646       0.47743948 </v>
   <v>       0.56594209       0.72281340       0.87619897 </v>
   <v>       0.19260125       0.46086650       0.47748455 </v>
   <v>       0.93547704       0.28249343       0.12424039 </v>
   <v>       0.31139474       0.04138778       0.38840233 </v>
   <v>       0.06004410       0.04054976       0.65600329 </v>
   <v>       0.55856058       0.37489325       0.43306979 </v>
   <v>       0.68434303       0.46265841       0.74494325 </v>
   <v>       0.56008823       0.21241699       0.74480748 </v>
   <v>       0.94707006       0.12632977       0.70039203 </v>
   <v>       0.55977987       0.04059138       0.65586434 </v>
   <v>       0.55702450       0.53916995       0.52249229 </v>
   <v>       0.17800999       0.12367575       0.29955313 </v>
   <v>       0.44142382       0.11213543       0.16652926 </v>
   <v>       0.67770938       0.62369529       0.29963011 </v>
   <v>       0.92807182       0.12338490       0.29964373 </v>
   <v>       0.81665332       0.37507910       0.56689075 </v>
   <v>       0.05294889       0.87373124       0.29950702 </v>
   <v>       0.19163367       0.62500739       0.56690254 </v>
   <v>       0.94470154       0.79974242       0.78881462 </v>
   <v>       0.30849509       0.38789433       0.83354784 </v>
   <v>       0.93978843       0.46825052       0.87609752 </v>
   <v>       0.43409238       0.63873804       0.83370460 </v>
   <v>       0.06457333       0.20853863       0.34384508 </v>
   <v>       0.18887399       0.96876967       0.87596843 </v>
   <v>       0.93573593       0.78230630       0.12421290 </v>
   <v>       0.68654903       0.79154120       0.38843843 </v>
   <v>       0.93474510       0.79056692       0.65590056 </v>
   <v>       0.94153993       0.11215763       0.16644476 </v>
   <v>       0.43505849       0.29085497       0.65606348 </v>
   <v>       0.05467412       0.20094246       0.21119384 </v>
   <v>       0.67890173       0.95153556       0.21133721 </v>
   <v>       0.17846297       0.62370187       0.29941905 </v>
   <v>       0.82211589       0.87622032       0.70040434 </v>
   <v>       0.94702299       0.62626617       0.70041064 </v>
   <v>       0.19724008       0.12638288       0.70037140 </v>
   <v>       0.94256205       0.46067138       0.47718526 </v>
   <v>       0.81349061       0.20847800       0.61156517 </v>
   <v>       0.18351290       0.62489750       0.43309040 </v>
   <v>       0.42804599       0.12357550       0.29948719 </v>
   <v>       0.67824200       0.12362950       0.29943115 </v>
   <v>       0.56146032       0.54155796       0.38849595 </v>
   <v>       0.81432877       0.20857565       0.34392400 </v>
   <v>       0.43995554       0.46805934       0.87600874 </v>
   <v>       0.55842042       0.88816439       0.83358748 </v>
   <v>       0.31767169       0.21049634       0.47728566 </v>
   <v>       0.19268473       0.96074173       0.47741735 </v>
   <v>       0.05824750       0.88772406       0.83345098 </v>
   <v>       0.05726831       0.53913759       0.52250418 </v>
   <v>       0.94262999       0.96068174       0.47724096 </v>
   <v>       0.06333806       0.70824236       0.61159844 </v>
   <v>       0.55730243       0.03928249       0.52248467 </v>
   <v>       0.69502618       0.29935853       0.78875403 </v>
   <v>       0.81753636       0.36176091       0.16661364 </v>
   <v>       0.43373299       0.12484832       0.43299615 </v>
   <v>       0.06792569       0.21057500       0.47745898 </v>
   <v>       0.30986307       0.04079633       0.65594442 </v>
   <v>       0.43217526       0.78894735       0.52232732 </v>
   <v>       0.18414766       0.13768174       0.83367657 </v>
   <v>       0.18617308       0.28279723       0.12426524 </v>
   <v>       0.93983915       0.45930247       0.34397851 </v>
   <v>       0.56747979       0.86208276       0.16660515 </v>
   <v>       0.30409760       0.70096173       0.21120517 </v>
   <v>       0.94150532       0.61235509       0.16660618 </v>
   <v>       0.18829340       0.45857901       0.61149073 </v>
   <v>       0.07203916       0.87643912       0.70034176 </v>
   <v>       0.05977001       0.54059054       0.65590184 </v>
   <v>       0.30835436       0.52629908       0.12399152 </v>
   <v>       0.93655034       0.79129806       0.38843542 </v>
   <v>       0.94475316       0.29858844       0.78880682 </v>
   <v>       0.18479084       0.29060714       0.65592334 </v>
   <v>       0.93813016       0.95833849       0.61152892 </v>
   <v>       0.80994996       0.71216758       0.74487243 </v>
   <v>       0.69123486       0.28738278       0.25525887 </v>
   <v>       0.05925641       0.71238377       0.74499953 </v>
   <v>       0.67892041       0.45147623       0.21124449 </v>
   <v>       0.81776335       0.21068303       0.47744867 </v>
   <v>       0.56754055       0.71054814       0.47742572 </v>
   <v>       0.06692367       0.86234945       0.16661517 </v>
   <v>       0.93242343       0.28849158       0.52240903 </v>
   <v>       0.68461438       0.79044723       0.65588448 </v>
   <v>       0.05842581       0.87489451       0.43303698 </v>
   <v>       0.06801623       0.22373282       0.87634782 </v>
   <v>       0.80981895       0.04056672       0.65593143 </v>
   <v>       0.55892768       0.02679177       0.12401916 </v>
   <v>       0.30880190       0.37508834       0.43288329 </v>
   <v>       0.31645263       0.37482547       0.56684329 </v>
   <v>       0.31764931       0.71038171       0.47731851 </v>
   <v>       0.05709897       0.03927729       0.52252422 </v>
   <v>       0.32184736       0.87647509       0.70050380 </v>
   <v>       0.06531440       0.53768680       0.25513834 </v>
   <v>       0.68330603       0.13754502       0.83351480 </v>
   <v>       0.81514528       0.03786401       0.25517638 </v>
   <v>       0.18342236       0.12500977       0.43310153 </v>
   <v>       0.69749439       0.12626149       0.70047378 </v>
   <v>       0.18232944       0.28925329       0.52250898 </v>
   <v>       0.44099341       0.78761314       0.25529702 </v>
   <v>       0.44159324       0.61111375       0.16648382 </v>
   <v>       0.06338794       0.20841283       0.61152514 </v>
   <v>       0.18631332       0.79095346       0.38826613 </v>
   <v>       0.30689618       0.53878695       0.52243568 </v>
   <v>       0.82184934       0.37648047       0.70023199 </v>
   <v>       0.68633155       0.29112650       0.38843338 </v>
   <v>       0.19168445       0.12506886       0.56684263 </v>
   <v>       0.69009433       0.96912051       0.87597480 </v>
   <v>       0.69173941       0.12490837       0.56690174 </v>
   <v>       0.44006839       0.95903074       0.34406853 </v>
   <v>       0.18376370       0.96260430       0.74465066 </v>
   <v>       0.94046763       0.78769972       0.25512861 </v>
   <v>       0.55866056       0.87488652       0.43303102 </v>
   <v>       0.30863432       0.87504954       0.43308671 </v>
   <v>       0.80728384       0.53941681       0.52252387 </v>
   <v>       0.92925362       0.45132562       0.21123275 </v>
   <v>       0.31545739       0.53772974       0.25513476 </v>
   <v>       0.56174775       0.04154675       0.38842802 </v>
   <v>       0.93816965       0.45814860       0.61158792 </v>
   <v>       0.06160794       0.04158675       0.38842518 </v>
   <v>       0.06143961       0.54159691       0.38842007 </v>
   <v>       0.43609057       0.29104891       0.38838362 </v>
   <v>       0.69278402       0.46072183       0.47742068 </v>
   <v>       0.06662029       0.37494576       0.56689011 </v>
   <v>       0.55429814       0.70086151       0.21118804 </v>
   <v>       0.94049484       0.28727377       0.25521753 </v>
   <v>       0.81978205       0.04928630       0.78894000 </v>
   <v>       0.18972038       0.95885548       0.34398813 </v>
   <v>       0.55290751       0.87376862       0.29959473 </v>
   <v>       0.05846505       0.37486891       0.43286975 </v>
   <v>       0.31477888       0.70872346       0.34397527 </v>
   <v>       0.31463617       0.20894215       0.34391211 </v>
   <v>       0.94161721       0.12518802       0.56682008 </v>
   <v>       0.43859086       0.95872030       0.61154288 </v>
   <v>       0.56517677       0.03771349       0.25510276 </v>
   <v>       0.18603740       0.78304354       0.12424078 </v>
   <v>       0.06551941       0.03766141       0.25514949 </v>
   <v>       0.69159952       0.62496923       0.56689935 </v>
   <v>       0.05740256       0.52707909       0.12409358 </v>
   <v>       0.30711030       0.03854813       0.52233361 </v>
   <v>       0.68729732       0.28209343       0.12424516 </v>
   <v>       0.81777733       0.71075438       0.47748700 </v>
   <v>       0.43357418       0.13748837       0.83360934 </v>
   <v>       0.32223748       0.37643552       0.70038188 </v>
   <v>       0.68412368       0.63817037       0.83337348 </v>
   <v>       0.55965329       0.71233973       0.74489324 </v>
   <v>       0.93641503       0.29134740       0.38846050 </v>
   <v>       0.93983133       0.96757811       0.87629409 </v>
   <v>       0.56293447       0.20814157       0.61137588 </v>
   <v>       0.81662536       0.87506719       0.56689442 </v>
   <v>       0.80327124       0.87342471       0.29945215 </v>
   <v>       0.31564104       0.03767082       0.25531787 </v>
   <v>       0.43603236       0.28309976       0.12405622 </v>
   <v>       0.31344173       0.70839861       0.61158506 </v>
   <v>       0.43358843       0.62489687       0.43299495 </v>
   <v>       0.93293434       0.62486821       0.43314193 </v>
   <v>       0.43990312       0.96668540       0.87582109 </v>
   <v>       0.07129101       0.54907555       0.78882420 </v>
   <v>       0.93350373       0.12486448       0.43308046 </v>
   <v>       0.31855162       0.36267144       0.16586298 </v>
   <v>       0.93356730       0.96238782       0.74469001 </v>
   <v>       0.81623246       0.53791954       0.25530583 </v>
  </varray>
 </structure>
 <calculation>
  <scstep>
   <time name="dav">   54.21   54.22</time>
   <time name="total">   54.36   54.41</time>
   <energy>
    <i name="alphaZ">  16403.00255340 </i>
    <i name="ewald"> 716591.89674524 </i>
    <i name="hartreedc">-908262.00456175 </i>
    <i name="XCdc">  -6389.70278889 </i>
    <i name="pawpsdc"> 163151.95320885 </i>
    <i name="pawaedc">-160818.84594568 </i>
    <i name="eentropy">     -1.05382470 </i>
    <i name="bandstr">  38626.47077418 </i>
    <i name="atom"> 169914.59583762 </i>
    <i name="e_fr_energy">  29216.31199827 </i>
    <i name="e_wo_entrp">  29217.36582298 </i>
    <i name="e_0_energy">  29216.83891063 </i>
   </energy>
  </scstep>
  <scstep>
   <time name="dav">   53.67   53.70</time>
   <time name="total">   53.68   53.71</time>
   <energy>
    <i name="e_fr_energy">   1193.86833024 </i>
    <i name="e_wo_entrp">   1195.33499741 </i>
    <i name="e_0_energy">   1194.60166383 </i>
   </energy>
  </scstep>
  <scstep>
   <time name="dav">   70.86   70.91</time>
   <time name="total">   70.87   70.92</time>
   <energy>
    <i name="e_fr_energy">  -1939.13280585 </i>
    <i name="e_wo_entrp">  -1935.56012627 </i>
    <i name="e_0_energy">  -1937.34646606 </i>
   </energy>
  </scstep>
  <scstep>
   <time name="dav">   88.30   88.34</time>
   <time name="total">   88.31   88.35</time>
   <energy>
    <i name="e_fr_energy">  -2606.31102100 </i>
    <i name="e_wo_entrp">  -2602.69315304 </i>
    <i name="e_0_energy">  -2604.50208702 </i>
   </energy>
  </scstep>
  <scstep>
   <time name="dav">   84.47   84.52</time>
   <time name="total">   86.55   86.60</time>
   <energy>
    <i name="e_fr_energy">  -2726.63550589 </i>
    <i name="e_wo_entrp">  -2722.84264585 </i>
    <i name="e_0_energy">  -2724.73907587 </i>
   </energy>
  </scstep>
  <scstep>
   <time name="diag">    8.21    8.21</time>
   <time name="diis">   37.52   37.52</time>
   <time name="orth">    2.29    2.29</time>
   <time name="total">   50.19   50.24</time>
   <energy>
    <i name="e_fr_energy">  -5485.02748075 </i>
    <i name="e_wo_entrp">  -5481.55780778 </i>
    <i name="e_0_energy">  -5483.29264427 </i>
   </energy>
  </scstep>
  <scstep>
   <time name="diag">    8.26    8.26</time>
   <time name="diis">   26.68   26.68</time>
   <time name="orth">    2.34    2.34</time>
   <time name="total">   39.37   39.42</time>
[...]
       <r>     5.8326     0.0000  2772.0000 </r>
       <r>     5.8752     0.0000  2772.0000 </r>
       <r>     5.9178     0.0000  2772.0000 </r>
       <r>     5.9604     0.0000  2772.0000 </r>
       <r>     6.0031     0.0000  2772.0000 </r>
       <r>     6.0457     0.0000  2772.0000 </r>
       <r>     6.0883     0.0000  2772.0000 </r>
       <r>     6.1309     0.0000  2772.0000 </r>
       <r>     6.1736     0.0000  2772.0000 </r>
       <r>     6.2162     0.0000  2772.0000 </r>
       <r>     6.2588     0.0000  2772.0000 </r>
       <r>     6.3015     0.0000  2772.0000 </r>
       <r>     6.3441     0.0000  2772.0000 </r>
       <r>     6.3867     0.0000  2772.0000 </r>
       <r>     6.4293     0.0000  2772.0000 </r>
       <r>     6.4720     0.0000  2772.0000 </r>
       <r>     6.5146     0.0000  2772.0000 </r>
       <r>     6.5572     0.0000  2772.0000 </r>
       <r>     6.5999     0.0000  2772.0000 </r>
       <r>     6.6425     0.0000  2772.0000 </r>
       <r>     6.6851     0.0000  2772.0000 </r>
       <r>     6.7277     0.0000  2772.0000 </r>
       <r>     6.7704     0.0000  2772.0000 </r>
      </set>
     </set>
    </array>
   </total>
  </dos>
 </calculation>
 <structure name="finalpos" >
  <crystal>
   <varray name="basis" >
    <v>       9.72667804       0.00000000       0.00000000 </v>
    <v>       0.00000000       8.42355028       0.00000000 </v>
    <v>       0.00000000       0.00000000      45.00000000 </v>
   </varray>
   <i name="volume">   3686.99226691 </i>
   <varray name="rec_basis" >
    <v>       0.10281002       0.00000000       0.00000000 </v>
    <v>       0.00000000       0.11871479       0.00000000 </v>
    <v>       0.00000000       0.00000000       0.02222222 </v>
   </varray>
  </crystal>
  <varray name="positions" >
   <v>       0.05777613       0.70092363       0.21110243 </v>
   <v>       0.31574793       0.72008488       0.87584010 </v>
   <v>       0.68837436       0.95788577       0.61142940 </v>
   <v>       0.43830187       0.45808940       0.61147553 </v>
   <v>       0.43666096       0.28683457       0.25555256 </v>
   <v>       0.06100410       0.38656126       0.83419823 </v>
   <v>       0.31191032       0.88680990       0.83422054 </v>
   <v>       0.44233573       0.62675590       0.70035145 </v>
   <v>       0.06366590       0.21332717       0.74452566 </v>
   <v>       0.18258104       0.45123803       0.21127524 </v>
   <v>       0.56383965       0.20908716       0.47785404 </v>
   <v>       0.06418238       0.87471587       0.56688094 </v>
   <v>       0.56638797       0.21978359       0.87563351 </v>
   <v>       0.81016637       0.53038914       0.12454059 </v>
   <v>       0.43283325       0.95109407       0.21117266 </v>
   <v>       0.56428685       0.37463884       0.56675953 </v>
   <v>       0.81183853       0.04206848       0.38837366 </v>
   <v>       0.68597937       0.79096075       0.52214112 </v>
   <v>       0.43872419       0.45894115       0.47779473 </v>
   <v>       0.43816370       0.96275321       0.74451649 </v>
   <v>       0.43910576       0.62459456       0.56682500 </v>
   <v>       0.56737482       0.87629258       0.70030305 </v>
   <v>       0.30998564       0.03085909       0.12450501 </v>
   <v>       0.68663178       0.95790854       0.34402386 </v>
   <v>       0.68679139       0.77926782       0.12455773 </v>
   <v>       0.05763468       0.37328068       0.29958109 </v>
   <v>       0.68890341       0.47151200       0.87554412 </v>
   <v>       0.43301003       0.45136266       0.21114458 </v>
   <v>       0.81078970       0.37534927       0.43302113 </v>
   <v>       0.56335882       0.70807748       0.61148917 </v>
   <v>       0.56283972       0.54131710       0.65576721 </v>
   <v>       0.81417542       0.86393286       0.16602098 </v>
   <v>       0.56111598       0.53702697       0.25556087 </v>
   <v>       0.68657117       0.45804144       0.34411828 </v>
   <v>       0.18827606       0.61276632       0.16625063 </v>
   <v>       0.19165820       0.79881597       0.78856891 </v>
   <v>       0.44253792       0.12647686       0.70038891 </v>
   <v>       0.93290352       0.62326721       0.29967528 </v>
   <v>       0.31445530       0.21940580       0.87566352 </v>
   <v>       0.31400582       0.87465615       0.56676621 </v>
   <v>       0.81496917       0.21965727       0.87574270 </v>
   <v>       0.81296262       0.54173863       0.65574503 </v>
   <v>       0.55987500       0.53012005       0.12440532 </v>
   <v>       0.56701173       0.04958660       0.78894651 </v>
   <v>       0.18649222       0.28703011       0.25553394 </v>
   <v>       0.81070985       0.87531271       0.43305266 </v>
   <v>       0.56720724       0.37663940       0.70046424 </v>
   <v>       0.06034663       0.02977980       0.12443910 </v>
   <v>       0.31294900       0.54129782       0.65578605 </v>
   <v>       0.56180117       0.20807114       0.34418357 </v>
   <v>       0.18840308       0.95786901       0.61142513 </v>
   <v>       0.30766537       0.37363099       0.29962266 </v>
   <v>       0.43793175       0.79149399       0.65584791 </v>
   <v>       0.19194857       0.29830602       0.78881248 </v>
   <v>       0.06436609       0.36361330       0.16604218 </v>
   <v>       0.69201096       0.62690565       0.70035426 </v>
   <v>       0.31159594       0.54168891       0.38839990 </v>
   <v>       0.06540319       0.71917825       0.87582494 </v>
   <v>       0.93642263       0.63676427       0.83430352 </v>
   <v>       0.31732472       0.54997180       0.78898186 </v>
   <v>       0.30741162       0.20068115       0.21116475 </v>
   <v>       0.06388820       0.70891778       0.47788370 </v>
   <v>       0.55762893       0.20106087       0.21106003 </v>
   <v>       0.31363614       0.21321888       0.74443990 </v>
   <v>       0.06720380       0.37690011       0.70037694 </v>
   <v>       0.18654340       0.63674390       0.83391713 </v>
   <v>       0.06693347       0.04934440       0.78886522 </v>
   <v>       0.43899385       0.12473089       0.56681890 </v>
   <v>       0.93815170       0.29168080       0.65568616 </v>
   <v>       0.80755901       0.20147228       0.21108472 </v>
   <v>       0.93277518       0.95161891       0.21121806 </v>
   <v>       0.93901944       0.62496056       0.56677625 </v>
   <v>       0.81087348       0.38657701       0.83418424 </v>
   <v>       0.19242207       0.62683433       0.70032784 </v>
   <v>       0.81163447       0.88628819       0.83421126 </v>
   <v>       0.68811645       0.29126148       0.65579147 </v>
   <v>       0.31352543       0.20801941       0.61149082 </v>
   <v>       0.43841837       0.46250964       0.74440180 </v>
   <v>       0.43666504       0.79164173       0.38843341 </v>
   <v>       0.68768126       0.96297148       0.74447489 </v>
   <v>       0.80755343       0.70109306       0.21114777 </v>
   <v>       0.81310729       0.70800560       0.61139889 </v>
   <v>       0.43707057       0.77935783       0.12470273 </v>
   <v>       0.31319133       0.71308999       0.74438875 </v>
   <v>       0.31709413       0.04953594       0.78898659 </v>
   <v>       0.81158325       0.54179355       0.38842297 </v>
   <v>       0.68621439       0.29106585       0.52213564 </v>
   <v>       0.69214718       0.79903027       0.78882405 </v>
   <v>       0.18660692       0.78771419       0.25552146 </v>
   <v>       0.68875774       0.11276709       0.16618122 </v>
   <v>       0.68881983       0.95917322       0.47789014 </v>
   <v>       0.93675955       0.95828012       0.34408562 </v>
   <v>       0.81101722       0.04043815       0.52211001 </v>
   <v>       0.68500463       0.62506627       0.43306250 </v>
   <v>       0.43686526       0.45835874       0.34416562 </v>
   <v>       0.81336507       0.21335940       0.74453184 </v>
   <v>       0.31420019       0.86338501       0.16595883 </v>
   <v>       0.56411841       0.87444478       0.56675517 </v>
   <v>       0.81019220       0.02984075       0.12438608 </v>
   <v>       0.43240599       0.62339873       0.29968907 </v>
   <v>       0.81505370       0.72013849       0.87585409 </v>
   <v>       0.68822852       0.45787141       0.61142008 </v>
   <v>       0.56094312       0.38748057       0.83406357 </v>
   <v>       0.80746518       0.37315707       0.29963112 </v>
   <v>       0.18643442       0.29174456       0.38839111 </v>
   <v>       0.81675212       0.54935076       0.78906914 </v>
   <v>       0.18620024       0.79070065       0.52220429 </v>
   <v>       0.30766007       0.87341748       0.29969704 </v>
   <v>       0.18262767       0.95139486       0.21123535 </v>
   <v>       0.18867556       0.46279539       0.74451390 </v>
   <v>       0.43594192       0.29068347       0.52206492 </v>
   <v>       0.06204515       0.70867234       0.34421014 </v>
   <v>       0.18813994       0.79118537       0.65571243 </v>
   <v>       0.44173326       0.79946849       0.78875229 </v>
   <v>       0.68503018       0.12504768       0.43307908 </v>
   <v>       0.93621665       0.79043558       0.52219779 </v>
   <v>       0.68877570       0.61376817       0.16613642 </v>
   <v>       0.81181315       0.70863450       0.34426325 </v>
   <v>       0.93837948       0.46277085       0.74439158 </v>
   <v>       0.18679709       0.45829857       0.34414385 </v>
   <v>       0.56759990       0.54929831       0.78899958 </v>
   <v>       0.56459976       0.36371925       0.16585106 </v>
   <v>       0.56141770       0.70847752       0.34430337 </v>
   <v>       0.55803613       0.37339833       0.29961510 </v>
   <v>       0.18890349       0.47145994       0.87562148 </v>
   <v>       0.18903781       0.11312057       0.16606421 </v>
   <v>       0.44177168       0.29942594       0.78873429 </v>
   <v>       0.68619279       0.78736545       0.25550888 </v>
   <v>       0.93684814       0.13643480       0.83411983 </v>
   <v>       0.43895213       0.95917208       0.47780238 </v>
   <v>       0.56567566       0.71889558       0.87564774 </v>
   <v>       0.18862499       0.45893066       0.47777828 </v>
   <v>       0.93617223       0.27955697       0.12454020 </v>
   <v>       0.31150829       0.04160266       0.38846248 </v>
   <v>       0.06298693       0.04109440       0.65577485 </v>
   <v>       0.56099836       0.37528280       0.43304631 </v>
   <v>       0.68762509       0.46250568       0.74447516 </v>
   <v>       0.56364824       0.21337579       0.74441351 </v>
   <v>       0.94254612       0.12695947       0.70036128 </v>
   <v>       0.56308991       0.04134057       0.65577020 </v>
   <v>       0.56112098       0.54083155       0.52208762 </v>
   <v>       0.18266630       0.12329640       0.29958362 </v>
   <v>       0.43821740       0.11258139       0.16616040 </v>
   <v>       0.68239394       0.62328161       0.29965816 </v>
   <v>       0.93256038       0.12302845       0.29965807 </v>
   <v>       0.81391488       0.37481644       0.56686300 </v>
   <v>       0.05781237       0.87327351       0.29962143 </v>
   <v>       0.18896762       0.62480446       0.56686690 </v>
   <v>       0.94127119       0.79898270       0.78888084 </v>
   <v>       0.31141757       0.38724229       0.83425329 </v>
   <v>       0.93931559       0.47227917       0.87555554 </v>
   <v>       0.43654865       0.63754773       0.83425548 </v>
   <v>       0.06163297       0.20851017       0.34418011 </v>
   <v>       0.18781555       0.97231567       0.87558702 </v>
   <v>       0.93653978       0.77939474       0.12454792 </v>
   <v>       0.68638113       0.79170576       0.38839513 </v>
   <v>       0.93795381       0.79148943       0.65577157 </v>
   <v>       0.93884241       0.11278159       0.16612153 </v>
   <v>       0.43779531       0.29152173       0.65579697 </v>
   <v>       0.05811478       0.20101904       0.21106297 </v>
   <v>       0.68281607       0.95157320       0.21128917 </v>
   <v>       0.18245532       0.62344601       0.29967071 </v>
   <v>       0.81705569       0.87637529       0.70033885 </v>
   <v>       0.94240328       0.62671275       0.70036694 </v>
   <v>       0.19231300       0.12682530       0.70037953 </v>
   <v>       0.93915343       0.45875809       0.47782215 </v>
   <v>       0.81310564       0.20791515       0.61143356 </v>
   <v>       0.18671543       0.62516426       0.43304022 </v>
   <v>       0.43270152       0.12349622       0.29970714 </v>
   <v>       0.68240006       0.12307109       0.29966135 </v>
   <v>       0.56135616       0.54160848       0.38842629 </v>
   <v>       0.81186131       0.20805616       0.34424408 </v>
   <v>       0.43911298       0.47117275       0.87547528 </v>
   <v>       0.56030056       0.88710444       0.83423163 </v>
   <v>       0.31399700       0.20930474       0.47781801 </v>
   <v>       0.18850189       0.95913671       0.47784102 </v>
   <v>       0.06062716       0.88667845       0.83424375 </v>
   <v>       0.06103789       0.54046038       0.52203555 </v>
   <v>       0.93900986       0.95880888       0.47782911 </v>
   <v>       0.06331025       0.70794963       0.61138915 </v>
   <v>       0.56097300       0.04068962       0.52207644 </v>
   <v>       0.69193090       0.29873501       0.78871268 </v>
   <v>       0.81441254       0.36346654       0.16599523 </v>
   <v>       0.43569925       0.12493335       0.43304308 </v>
   <v>       0.06395972       0.20912054       0.47786115 </v>
   <v>       0.31303023       0.04129567       0.65577787 </v>
   <v>       0.43603170       0.79072264       0.52209119 </v>
   <v>       0.18718934       0.13708569       0.83429499 </v>
   <v>       0.18671095       0.27891837       0.12443568 </v>
   <v>       0.93662479       0.45850550       0.34411338 </v>
   <v>       0.56498146       0.86368463       0.16600487 </v>
   <v>       0.30755426       0.70074617       0.21112062 </v>
   <v>       0.93828352       0.61365526       0.16620949 </v>
   <v>       0.18831969       0.45792834       0.61143687 </v>
   <v>       0.06738311       0.87662477       0.70021876 </v>
   <v>       0.06308515       0.54141605       0.65584187 </v>
   <v>       0.31059721       0.53037396       0.12411351 </v>
   <v>       0.93628674       0.79207562       0.38843673 </v>
   <v>       0.94181942       0.29841874       0.78888691 </v>
   <v>       0.18789371       0.29153914       0.65580364 </v>
   <v>       0.93847438       0.95800280       0.61149275 </v>
   <v>       0.81356646       0.71313501       0.74456701 </v>
   <v>       0.68635145       0.28741009       0.25547425 </v>
   <v>       0.06408281       0.71312474       0.74451953 </v>
   <v>       0.68256947       0.45111243       0.21123459 </v>
   <v>       0.81383243       0.20891915       0.47784435 </v>
   <v>       0.56392464       0.70919674       0.47785490 </v>
   <v>       0.06385615       0.86358595       0.16601048 </v>
   <v>       0.93602269       0.29055771       0.52217612 </v>
   <v>       0.68765166       0.79138562       0.65576942 </v>
   <v>       0.06140772       0.87477102       0.43297027 </v>
   <v>       0.06603697       0.21958519       0.87582459 </v>
   <v>       0.81302087       0.04125436       0.65575587 </v>
   <v>       0.55995162       0.02970029       0.12445048 </v>
   <v>       0.31060654       0.37494460       0.43311751 </v>
   <v>       0.31411645       0.37477619       0.56676833 </v>
   <v>       0.31393325       0.70921846       0.47783863 </v>
   <v>       0.06119046       0.04052153       0.52203190 </v>
   <v>       0.31720215       0.87634310       0.70033739 </v>
   <v>       0.06174982       0.53693473       0.25555823 </v>
   <v>       0.68621400       0.13737069       0.83419762 </v>
   <v>       0.81146747       0.03676473       0.25556245 </v>
   <v>       0.18687809       0.12508607       0.43303910 </v>
   <v>       0.69218622       0.12649037       0.70029368 </v>
   <v>       0.18624699       0.29070278       0.52218407 </v>
   <v>       0.43656649       0.78737487       0.25552127 </v>
   <v>       0.43889572       0.61265465       0.16608089 </v>
   <v>       0.06329950       0.20794405       0.61141558 </v>
   <v>       0.18628851       0.79165072       0.38840273 </v>
   <v>       0.31123337       0.54090161       0.52209607 </v>
   <v>       0.81738767       0.37666850       0.70034947 </v>
   <v>       0.68634988       0.29208368       0.38840160 </v>
   <v>       0.18921749       0.12467641       0.56682916 </v>
   <v>       0.68940541       0.97256929       0.87553267 </v>
   <v>       0.68895860       0.12489336       0.56684541 </v>
   <v>       0.43685903       0.95843937       0.34415360 </v>
   <v>       0.18860412       0.96301076       0.74451170 </v>
   <v>       0.93697451       0.78767029       0.25554405 </v>
   <v>       0.56105874       0.87522271       0.43301182 </v>
   <v>       0.31077455       0.87502244       0.43302841 </v>
   <v>       0.81096507       0.54031663       0.52212494 </v>
   <v>       0.93275110       0.45123167       0.21135463 </v>
   <v>       0.31163330       0.53672401       0.25565448 </v>
   <v>       0.56115682       0.04166037       0.38841031 </v>
   <v>       0.93843669       0.45781836       0.61147930 </v>
   <v>       0.06152880       0.04174898       0.38843443 </v>
   <v>       0.06130046       0.54178603       0.38842473 </v>
   <v>       0.43660577       0.29173206       0.38842617 </v>
   <v>       0.68873630       0.45909242       0.47788419 </v>
   <v>       0.06413633       0.37489080       0.56688805 </v>
   <v>       0.55768193       0.70094615       0.21114421 </v>
   <v>       0.93676079       0.28701141       0.25552342 </v>
   <v>       0.81677321       0.04955418       0.78890572 </v>
   <v>       0.18700916       0.95819643       0.34410225 </v>
   <v>       0.55779254       0.87344471       0.29969485 </v>
   <v>       0.06133745       0.37487369       0.43303198 </v>
   <v>       0.31184473       0.70807098       0.34416722 </v>
   <v>       0.31178125       0.20799236       0.34415866 </v>
   <v>       0.93898197       0.12489456       0.56678472 </v>
   <v>       0.43813131       0.95810525       0.61147221 </v>
   <v>       0.56089004       0.03710464       0.25556129 </v>
   <v>       0.18599348       0.77920582       0.12462503 </v>
   <v>       0.06201496       0.03706020       0.25553150 </v>
   <v>       0.68904803       0.62464266       0.56686162 </v>
   <v>       0.06054177       0.53002842       0.12442325 </v>
   <v>       0.31115032       0.04102674       0.52207909 </v>
   <v>       0.68727080       0.28002954       0.12457918 </v>
   <v>       0.81375461       0.70907130       0.47783882 </v>
   <v>       0.43667147       0.13624739       0.83406727 </v>
   <v>       0.31753041       0.37643375       0.70036631 </v>
   <v>       0.68720597       0.63670484       0.83391528 </v>
   <v>       0.56322121       0.71277362       0.74446222 </v>
   <v>       0.93617605       0.29221420       0.38842266 </v>
   <v>       0.93927700       0.97116523       0.87552369 </v>
   <v>       0.56353723       0.20808476       0.61145985 </v>
   <v>       0.81411138       0.87474551       0.56686796 </v>
   <v>       0.80755748       0.87336419       0.29961076 </v>
   <v>       0.31115370       0.03693170       0.25552455 </v>
   <v>       0.43667843       0.27966690       0.12420484 </v>
   <v>       0.31323015       0.70806359       0.61144924 </v>
   <v>       0.43557623       0.62505001       0.43304760 </v>
   <v>       0.93578927       0.62519127       0.43309228 </v>
   <v>       0.43929994       0.97080279       0.87538214 </v>
   <v>       0.06742741       0.54906988       0.78881851 </v>
   <v>       0.93570585       0.12520838       0.43309892 </v>
   <v>       0.31495498       0.36331531       0.16563526 </v>
   <v>       0.93764453       0.96317935       0.74466043 </v>
   <v>       0.81195720       0.53674123       0.25539806 </v>
  </varray>
 </structure>
</modeling>
