unknown system                          
           1
     9.726678    0.000000    0.000000
     0.000000    8.423550    0.000000
     0.000000    0.000000   45.000000
   Fe   Mn
 281   7
Direct configuration=     1
   0.05381774  0.70092507  0.21124993
   0.31931302  0.72405927  0.87628511
   0.68838194  0.95862585  0.61147494
   0.43841559  0.45826463  0.61158485
   0.44065961  0.28735543  0.25505069
   0.05859690  0.38801541  0.83353125
   0.30879834  0.88831674  0.83366865
   0.44695414  0.62630329  0.70039334
   0.05990026  0.21280959  0.74490380
   0.17872682  0.45160627  0.21138684
   0.56775608  0.21054512  0.47743114
   0.06657982  0.87517686  0.56688254
   0.56901079  0.22369070  0.87619095
   0.80868002  0.52779950  0.12399967
   0.42868592  0.95149015  0.21137171
   0.56650397  0.37510233  0.56682259
   0.81104614  0.04179096  0.38829513
   0.68197538  0.78883007  0.52240816
   0.44278214  0.46083244  0.47748223
   0.43383787  0.96240552  0.74464337
   0.44137499  0.62512493  0.56683709
   0.57165532  0.87664977  0.70052160
   0.30753123  0.02653481  0.12388442
   0.68967128  0.95892765  0.34397542
   0.68605026  0.78271943  0.12420214
   0.05286518  0.37383036  0.29957845
   0.68991492  0.46706087  0.87615071
   0.42915290  0.45151834  0.21152949
   0.80857589  0.37518823  0.43308319
   0.56327502  0.70842423  0.61154319
   0.55987169  0.54085213  0.65594154
   0.81702201  0.86257279  0.16659512
   0.56563322  0.53752064  0.25516359
   0.68947251  0.45895464  0.34389633
   0.19148656  0.61132497  0.16650838
   0.19413911  0.79935623  0.78878672
   0.44719541  0.12611321  0.70034886
   0.92790527  0.62360733  0.29961570
   0.31624487  0.22278731  0.87620709
   0.31656638  0.87493567  0.56687687
   0.81729114  0.22485293  0.87627773
   0.80970920  0.54069523  0.65588474
   0.55877310  0.52783097  0.12387958
   0.56923394  0.04969800  0.78893544
   0.19098588  0.28733563  0.25526345
   0.80871841  0.87533533  0.43303529
   0.57223890  0.37635164  0.70036225
   0.05773641  0.02643970  0.12401636
   0.30992138  0.54079148  0.65595979
   0.56486734  0.20895246  0.34397018
   0.18815259  0.95847917  0.61148099
   0.30295165  0.37385589  0.29962766
   0.43462886  0.79065124  0.65589754
   0.19494090  0.29918630  0.78882496
   0.06745642  0.36244849  0.16657745
   0.69712219  0.62602655  0.70046233
   0.31134546  0.54137537  0.38846998
   0.06765873  0.72349363  0.87615973
   0.93376720  0.63764725  0.83398995
   0.31972581  0.54942745  0.78883403
   0.30456272  0.20053889  0.21123362
   0.06790985  0.71066593  0.47747439
   0.55418476  0.20095120  0.21115278
   0.30961440  0.21247430  0.74494650
   0.07199468  0.37641902  0.70049603
   0.18278442  0.63771935  0.83343956
   0.06946468  0.04935366  0.78892469
   0.44166220  0.12492208  0.56690727
   0.93483877  0.29057503  0.65583741
   0.80420926  0.20110851  0.21122490
   0.92872929  0.95149163  0.21129966
   0.94152783  0.62516447  0.56680752
   0.80844955  0.38750585  0.83352216
   0.19684541  0.62590928  0.70039904
   0.80863499  0.88739419  0.83356829
   0.68485294  0.29083235  0.65605193
   0.31310956  0.20831993  0.61151086
   0.43450948  0.46245833  0.74494908
   0.43610537  0.79119460  0.38839010
   0.68449634  0.96244513  0.74481342
   0.80396107  0.70087833  0.21127497
   0.81354983  0.70835744  0.61160039
   0.43681033  0.78312826  0.12421947
   0.30983219  0.71201646  0.74483485
   0.32090533  0.04919360  0.78878941
   0.81119618  0.54210527  0.38832633
   0.68196919  0.28879777  0.52242697
   0.69590311  0.79901496  0.78874194
   0.19064256  0.78745657  0.25528550
   0.69160715  0.11221349  0.16640768
   0.69268904  0.96067607  0.47741452
   0.94048651  0.95931704  0.34412659
   0.80717454  0.03921500  0.52253648
   0.68385238  0.62483791  0.43293877
   0.43961096  0.45867053  0.34406082
   0.81015068  0.21198248  0.74457486
   0.31675441  0.86185068  0.16662191
   0.56665175  0.87488687  0.56687646
   0.80762684  0.02694958  0.12390994
   0.42837031  0.62366756  0.29941011
   0.81713606  0.72398042  0.87630604
   0.68821978  0.45853530  0.61149339
   0.55861994  0.38783250  0.83351708
   0.80310819  0.37358773  0.29946918
   0.18594922  0.29108110  0.38836487
   0.81993002  0.54941719  0.78893795
   0.18224690  0.78931563  0.52253497
   0.30292879  0.87383732  0.29955492
   0.17886306  0.95108456  0.21122628
   0.18453488  0.46245226  0.74494884
   0.43235357  0.28886854  0.52235128
   0.06488914  0.70857598  0.34386413
   0.18476353  0.79050903  0.65585998
   0.44463305  0.79937584  0.78880841
   0.68367659  0.12498548  0.43291202
   0.93213094  0.78858691  0.52243944
   0.69171470  0.61235779  0.16676711
   0.81451816  0.70845226  0.34383892
   0.93443366  0.46271570  0.74494046
   0.18987211  0.45887645  0.34397507
   0.57044122  0.54961350  0.78884263
   0.56644346  0.36251080  0.16645195
   0.56469123  0.70883877  0.34393812
   0.55297071  0.37366266  0.29958186
   0.18956989  0.46724586  0.87615850
   0.19247712  0.11193375  0.16658448
   0.44503501  0.29960493  0.78871865
   0.69098631  0.78736919  0.25540534
   0.93384674  0.13791454  0.83358852
   0.44266584  0.96061646  0.47743948
   0.56594209  0.72281340  0.87619897
   0.19260125  0.46086650  0.47748455
   0.93547704  0.28249343  0.12424039
   0.31139474  0.04138778  0.38840233
   0.06004410  0.04054976  0.65600329
   0.55856058  0.37489325  0.43306979
   0.68434303  0.46265841  0.74494325
   0.56008823  0.21241699  0.74480748
   0.94707006  0.12632977  0.70039203
   0.55977987  0.04059138  0.65586434
   0.55702450  0.53916995  0.52249229
   0.17800999  0.12367575  0.29955313
   0.44142382  0.11213543  0.16652926
   0.67770938  0.62369529  0.29963011
   0.92807182  0.12338490  0.29964373
   0.81665332  0.37507910  0.56689075
   0.05294889  0.87373124  0.29950702
   0.19163367  0.62500739  0.56690254
   0.94470154  0.79974242  0.78881462
   0.30849509  0.38789433  0.83354784
   0.93978843  0.46825052  0.87609752
   0.43409238  0.63873804  0.83370460
   0.06457333  0.20853863  0.34384508
   0.18887399  0.96876967  0.87596843
   0.93573593  0.78230630  0.12421290
   0.68654903  0.79154120  0.38843843
   0.93474510  0.79056692  0.65590056
   0.94153993  0.11215763  0.16644476
   0.43505849  0.29085497  0.65606348
   0.05467412  0.20094246  0.21119384
   0.67890173  0.95153556  0.21133721
   0.17846297  0.62370187  0.29941905
   0.82211589  0.87622032  0.70040434
   0.94702299  0.62626617  0.70041064
   0.19724008  0.12638288  0.70037140
   0.94256205  0.46067138  0.47718526
   0.81349061  0.20847800  0.61156517
   0.18351290  0.62489750  0.43309040
   0.42804599  0.12357550  0.29948719
   0.67824200  0.12362950  0.29943115
   0.56146032  0.54155796  0.38849595
   0.81432877  0.20857565  0.34392400
   0.43995554  0.46805934  0.87600874
   0.55842042  0.88816439  0.83358748
   0.31767169  0.21049634  0.47728566
   0.19268473  0.96074173  0.47741735
   0.05824750  0.88772406  0.83345098
   0.05726831  0.53913759  0.52250418
   0.94262999  0.96068174  0.47724096
   0.06333806  0.70824236  0.61159844
   0.55730243  0.03928249  0.52248467
   0.69502618  0.29935853  0.78875403
   0.81753636  0.36176091  0.16661364
   0.43373299  0.12484832  0.43299615
   0.06792569  0.21057500  0.47745898
   0.30986307  0.04079633  0.65594442
   0.43217526  0.78894735  0.52232732
   0.18414766  0.13768174  0.83367657
   0.18617308  0.28279723  0.12426524
   0.93983915  0.45930247  0.34397851
   0.56747979  0.86208276  0.16660515
   0.30409760  0.70096173  0.21120517
   0.94150532  0.61235509  0.16660618
   0.18829340  0.45857901  0.61149073
   0.07203916  0.87643912  0.70034176
   0.05977001  0.54059054  0.65590184
   0.30835436  0.52629908  0.12399152
   0.93655034  0.79129806  0.38843542
   0.94475316  0.29858844  0.78880682
   0.18479084  0.29060714  0.65592334
   0.93813016  0.95833849  0.61152892
   0.80994996  0.71216758  0.74487243
   0.69123486  0.28738278  0.25525887
   0.05925641  0.71238377  0.74499953
   0.67892041  0.45147623  0.21124449
   0.81776335  0.21068303  0.47744867
   0.56754055  0.71054814  0.47742572
   0.06692367  0.86234945  0.16661517
   0.93242343  0.28849158  0.52240903
   0.68461438  0.79044723  0.65588448
   0.05842581  0.87489451  0.43303698
   0.06801623  0.22373282  0.87634782
   0.80981895  0.04056672  0.65593143
   0.55892768  0.02679177  0.12401916
   0.30880190  0.37508834  0.43288329
   0.31645263  0.37482547  0.56684329
   0.31764931  0.71038171  0.47731851
   0.05709897  0.03927729  0.52252422
   0.32184736  0.87647509  0.70050380
   0.06531440  0.53768680  0.25513834
   0.68330603  0.13754502  0.83351480
   0.81514528  0.03786401  0.25517638
   0.18342236  0.12500977  0.43310153
   0.69749439  0.12626149  0.70047378
   0.18232944  0.28925329  0.52250898
   0.44099341  0.78761314  0.25529702
   0.44159324  0.61111375  0.16648382
   0.06338794  0.20841283  0.61152514
   0.18631332  0.79095346  0.38826613
   0.30689618  0.53878695  0.52243568
   0.82184934  0.37648047  0.70023199
   0.68633155  0.29112650  0.38843338
   0.19168445  0.12506886  0.56684263
   0.69009433  0.96912051  0.87597480
   0.69173941  0.12490837  0.56690174
   0.44006839  0.95903074  0.34406853
   0.18376370  0.96260430  0.74465066
   0.94046763  0.78769972  0.25512861
   0.55866056  0.87488652  0.43303102
   0.30863432  0.87504954  0.43308671
   0.80728384  0.53941681  0.52252387
   0.92925362  0.45132562  0.21123275
   0.31545739  0.53772974  0.25513476
   0.56174775  0.04154675  0.38842802
   0.93816965  0.45814860  0.61158792
   0.06160794  0.04158675  0.38842518
   0.06143961  0.54159691  0.38842007
   0.43609057  0.29104891  0.38838362
   0.69278402  0.46072183  0.47742068
   0.06662029  0.37494576  0.56689011
   0.55429814  0.70086151  0.21118804
   0.94049484  0.28727377  0.25521753
   0.81978205  0.04928630  0.78894000
   0.18972038  0.95885548  0.34398813
   0.55290751  0.87376862  0.29959473
   0.05846505  0.37486891  0.43286975
   0.31477888  0.70872346  0.34397527
   0.31463617  0.20894215  0.34391211
   0.94161721  0.12518802  0.56682008
   0.43859086  0.95872030  0.61154288
   0.56517677  0.03771349  0.25510276
   0.18603740  0.78304354  0.12424078
   0.06551941  0.03766141  0.25514949
   0.69159952  0.62496923  0.56689935
   0.05740256  0.52707909  0.12409358
   0.30711030  0.03854813  0.52233361
   0.68729732  0.28209343  0.12424516
   0.81777733  0.71075438  0.47748700
   0.43357418  0.13748837  0.83360934
   0.32223748  0.37643552  0.70038188
   0.68412368  0.63817037  0.83337348
   0.55965329  0.71233973  0.74489324
   0.93641503  0.29134740  0.38846050
   0.93983133  0.96757811  0.87629409
   0.56293447  0.20814157  0.61137588
   0.81662536  0.87506719  0.56689442
   0.80327124  0.87342471  0.29945215
   0.31564104  0.03767082  0.25531787
   0.43603236  0.28309976  0.12405622
   0.31344173  0.70839861  0.61158506
   0.43358843  0.62489687  0.43299495
   0.93293434  0.62486821  0.43314193
   0.43990312  0.96668540  0.87582109
   0.07129101  0.54907555  0.78882420
   0.93350373  0.12486448  0.43308046
   0.31855162  0.36267144  0.16586298
   0.93356730  0.96238782  0.74469001
   0.81623246  0.53791954  0.25530583
Direct configuration=     2
   0.05438267  0.70092487  0.21122888
   0.31880422  0.72349206  0.87622160
   0.68838086  0.95852023  0.61146844
   0.43839936  0.45823962  0.61156925
   0.44008893  0.28728110  0.25512231
   0.05894045  0.38780788  0.83362644
   0.30924248  0.88810169  0.83374742
   0.44629501  0.62636789  0.70038736
   0.06043768  0.21288346  0.74484983
   0.17927689  0.45155372  0.21137092
   0.56719713  0.21033705  0.47749150
   0.06623766  0.87511107  0.56688231
   0.56863646  0.22313309  0.87611139
   0.80889215  0.52816909  0.12407687
   0.42927782  0.95143363  0.21134331
   0.56618754  0.37503618  0.56681359
   0.81115922  0.04183057  0.38830634
   0.68254682  0.78913416  0.52237005
   0.44220300  0.46056252  0.47752683
   0.43445524  0.96245514  0.74462526
   0.44105113  0.62504924  0.56683537
   0.57104441  0.87659879  0.70049041
   0.30788152  0.02715196  0.12397299
   0.68923749  0.95878221  0.34398233
   0.68615603  0.78222683  0.12425289
   0.05354587  0.37375191  0.29957883
   0.68977056  0.46769613  0.87606414
   0.42970338  0.45149612  0.21147456
   0.80889184  0.37521122  0.43307433
   0.56328698  0.70837474  0.61153548
   0.56029528  0.54091849  0.65591666
   0.81661575  0.86276690  0.16651318
   0.56498853  0.53745019  0.25522029
   0.68905844  0.45882431  0.34392800
   0.19102837  0.61153068  0.16647160
   0.19378504  0.79927913  0.78875563
   0.44653070  0.12616511  0.70035458
   0.92861861  0.62355879  0.29962421
   0.31598947  0.22230471  0.87612951
   0.31620094  0.87489577  0.56686108
   0.81695975  0.22411142  0.87620137
   0.81017352  0.54084414  0.65586480
   0.55893036  0.52815767  0.12395461
   0.56891679  0.04968210  0.78893702
   0.19034455  0.28729202  0.25530205
   0.80900263  0.87533211  0.43303777
   0.57152080  0.37639271  0.70037681
   0.05810893  0.02691639  0.12407669
   0.31035348  0.54086375  0.65593500
   0.56442974  0.20882668  0.34400063
   0.18818834  0.95839209  0.61147302
   0.30362438  0.37382379  0.29962695
   0.43510024  0.79077152  0.65589045
   0.19451384  0.29906067  0.78882318
   0.06701537  0.36261473  0.16650106
   0.69639273  0.62615201  0.70044691
   0.31138121  0.54142012  0.38845998
   0.06733682  0.72287774  0.87611195
   0.93414618  0.63752124  0.83403470
   0.31938313  0.54950513  0.78885512
   0.30496931  0.20055919  0.21122379
   0.06733589  0.71041644  0.47753281
   0.55467630  0.20096685  0.21113955
   0.31018837  0.21258057  0.74487420
   0.07131094  0.37648768  0.70047904
   0.18332089  0.63758013  0.83350772
   0.06910343  0.04935234  0.78891620
   0.44128138  0.12489479  0.56689466
   0.93531159  0.29073285  0.65581582
   0.80468733  0.20116043  0.21120490
   0.92930671  0.95150979  0.21128801
   0.94116984  0.62513537  0.56680306
   0.80879549  0.38737329  0.83361665
   0.19621412  0.62604130  0.70038888
   0.80906307  0.88723634  0.83366005
   0.68531870  0.29089359  0.65601476
   0.31316891  0.20827704  0.61150800
   0.43506735  0.46246566  0.74487098
   0.43618524  0.79125842  0.38839628
   0.68495088  0.96252025  0.74476510
   0.80447376  0.70090897  0.21125682
   0.81348667  0.70830722  0.61157164
   0.43684747  0.78259015  0.12428844
   0.31031160  0.71216967  0.74477118
   0.32036141  0.04924246  0.78881756
   0.81125142  0.54206079  0.38834013
   0.68257505  0.28912147  0.52238539
   0.69536707  0.79901714  0.78875366
   0.19006660  0.78749334  0.25531918
   0.69120049  0.11229250  0.16637536
   0.69213683  0.96046159  0.47748240
   0.93995460  0.95916906  0.34412074
   0.80772296  0.03938956  0.52247562
   0.68401683  0.62487050  0.43295642
   0.43921910  0.45862603  0.34407578
   0.81060943  0.21217899  0.74456872
   0.31638988  0.86206966  0.16652727
   0.56629020  0.87482377  0.56685915
   0.80799296  0.02736220  0.12397789
   0.42894627  0.62362919  0.29944993
   0.81683887  0.72343211  0.87624154
   0.68822103  0.45844055  0.61148292
   0.55895150  0.38778228  0.83359507
   0.80373001  0.37352626  0.29949230
   0.18601846  0.29117579  0.38836861
   0.81947647  0.54940771  0.78895667
   0.18281111  0.78951330  0.52248778
   0.30360403  0.87377740  0.29957521
   0.17940034  0.95112884  0.21122757
   0.18512583  0.46250123  0.74488676
   0.43286569  0.28912756  0.52231041
   0.06448325  0.70858973  0.34391351
   0.18524540  0.79060555  0.65583892
   0.44421920  0.79938906  0.78880040
   0.68386977  0.12499436  0.43293586
   0.93271404  0.78885075  0.52240495
   0.69129525  0.61255908  0.16667710
   0.81413211  0.70847827  0.34389948
   0.93499680  0.46272357  0.74486213
   0.18943325  0.45879398  0.34399916
   0.57003572  0.54956852  0.78886503
   0.56618033  0.36268327  0.16636619
   0.56422404  0.70878721  0.34399024
   0.55369364  0.37362494  0.29958660
   0.18947478  0.46784729  0.87608185
   0.19198627  0.11210313  0.16651023
   0.44456928  0.29957938  0.78872088
   0.69030219  0.78736865  0.25542012
   0.93427509  0.13770336  0.83366435
   0.44213583  0.96041032  0.47749128
   0.56590407  0.72225425  0.87612030
   0.19203377  0.46059022  0.47752647
   0.93557626  0.28207434  0.12428318
   0.31141094  0.04141845  0.38841091
   0.06046409  0.04062749  0.65597069
   0.55890850  0.37494885  0.43306644
   0.68481144  0.46263661  0.74487645
   0.56059631  0.21255383  0.74475125
   0.94642442  0.12641964  0.70038764
   0.56025227  0.04069830  0.65585091
   0.55760914  0.53940709  0.52243454
   0.17867453  0.12362161  0.29955749
   0.44096621  0.11219907  0.16647662
   0.67837795  0.62363625  0.29963412
   0.92871242  0.12333403  0.29964577
   0.81626249  0.37504162  0.56688679
   0.05364300  0.87366592  0.29952335
   0.19125318  0.62497843  0.56689746
   0.94421197  0.79963399  0.78882407
   0.30891218  0.38780127  0.83364852
   0.93972095  0.46882548  0.87602017
   0.43444293  0.63856816  0.83378322
   0.06415369  0.20853457  0.34389290
   0.18872293  0.96927575  0.87591400
   0.93585065  0.78189077  0.12426072
   0.68652507  0.79156469  0.38843225
   0.93520304  0.79069858  0.65588215
   0.94115494  0.11224668  0.16639863
   0.43544909  0.29095013  0.65602545
   0.05516516  0.20095339  0.21117517
   0.67946038  0.95154093  0.21133036
   0.17903275  0.62366535  0.29945497
   0.82139371  0.87624244  0.70039499
   0.94636368  0.62632990  0.70040440
   0.19653690  0.12644602  0.70037256
   0.94207558  0.46039832  0.47727616
   0.81343567  0.20839767  0.61154639
   0.18396996  0.62493557  0.43308324
   0.42871042  0.12356418  0.29951858
   0.67883543  0.12354980  0.29946401
   0.56144546  0.54156517  0.38848601
   0.81397662  0.20850151  0.34396968
   0.43983529  0.46850368  0.87593261
   0.55868875  0.88801312  0.83367941
   0.31714725  0.21032628  0.47736164
   0.19208777  0.96051267  0.47747781
   0.05858712  0.88757483  0.83356412
   0.05780629  0.53932638  0.52243730
   0.94211334  0.96041445  0.47732490
   0.06333409  0.70820058  0.61156857
   0.55782629  0.03948331  0.52242641
   0.69458443  0.29926954  0.78874813
   0.81709053  0.36200433  0.16652538
   0.43401361  0.12486046  0.43300285
   0.06735967  0.21036742  0.47751638
   0.31031508  0.04086760  0.65592065
   0.43272564  0.78920072  0.52229362
   0.18458176  0.13759667  0.83376483
   0.18624984  0.28224365  0.12428956
   0.93938040  0.45918873  0.34399776
   0.56712323  0.86231138  0.16651948
   0.30459093  0.70093097  0.21119310
   0.94104551  0.61254065  0.16654956
   0.18829715  0.45848614  0.61148304
   0.07137466  0.87646561  0.70032420
   0.06024314  0.54070836  0.65589328
   0.30867445  0.52688064  0.12400893
   0.93651272  0.79140903  0.38843561
   0.94433446  0.29856422  0.78881825
   0.18523367  0.29074015  0.65590625
   0.93817929  0.95829058  0.61152376
   0.81046610  0.71230565  0.74482885
   0.69053791  0.28738668  0.25528960
   0.05994522  0.71248952  0.74493103
   0.67944120  0.45142431  0.21124307
   0.81720234  0.21043129  0.47750514
   0.56702450  0.71035527  0.47748697
   0.06648588  0.86252592  0.16652887
   0.93293711  0.28878645  0.52237579
   0.68504785  0.79058116  0.65586806
   0.05885139  0.87487689  0.43302746
   0.06773376  0.22314088  0.87627315
   0.81027592  0.04066486  0.65590638
   0.55907382  0.02720687  0.12408072
   0.30905946  0.37506783  0.43291671
   0.31611921  0.37481844  0.56683260
   0.31711896  0.71021570  0.47739274
   0.05768290  0.03945487  0.52245396
   0.32118441  0.87645625  0.70048005
   0.06480567  0.53757947  0.25519826
   0.68372105  0.13752014  0.83361225
   0.81462039  0.03770713  0.25523148
   0.18391556  0.12502066  0.43309262
   0.69673682  0.12629416  0.70044808
   0.18288855  0.28946016  0.52246261
   0.44036161  0.78757913  0.25532903
   0.44120825  0.61133366  0.16642632
   0.06337532  0.20834593  0.61150950
   0.18630978  0.79105297  0.38828562
   0.30751517  0.53908875  0.52238722
   0.82121258  0.37650731  0.70024875
   0.68633417  0.29126311  0.38842885
   0.19133237  0.12501285  0.56684070
   0.68999601  0.96961272  0.87591170
   0.69134253  0.12490623  0.56689370
   0.43961035  0.95894634  0.34408067
   0.18445451  0.96266231  0.74463082
   0.93996910  0.78769552  0.25518790
   0.55900282  0.87493450  0.43302828
   0.30893977  0.87504567  0.43307839
   0.80780921  0.53954523  0.52246693
   0.92975277  0.45131221  0.21125015
   0.31491162  0.53758621  0.25520894
   0.56166341  0.04156297  0.38842549
   0.93820776  0.45810146  0.61157241
   0.06159665  0.04160991  0.38842650
   0.06141975  0.54162390  0.38842073
   0.43616410  0.29114641  0.38838969
   0.69220634  0.46048928  0.47748683
   0.06626578  0.37493792  0.56688982
   0.55478106  0.70087359  0.21118178
   0.93996192  0.28723633  0.25526118
   0.81935263  0.04932453  0.78893511
   0.18933344  0.95876142  0.34400441
   0.55360469  0.87372239  0.29960902
   0.05887499  0.37486959  0.43289290
   0.31436012  0.70863034  0.34400266
   0.31422872  0.20880659  0.34394730
   0.94124111  0.12514614  0.56681503
   0.43852527  0.95863252  0.61153280
   0.56456498  0.03762660  0.25516820
   0.18603113  0.78249582  0.12429562
   0.06501926  0.03757560  0.25520401
   0.69123538  0.62492263  0.56689397
   0.05785058  0.52750001  0.12414063
   0.30768688  0.03890188  0.52229728
   0.68729353  0.28179887  0.12429283
   0.81720322  0.71051418  0.47753721
   0.43401622  0.13731126  0.83367470
   0.32156570  0.37643527  0.70037966
   0.68456358  0.63796122  0.83345080
   0.56016250  0.71240165  0.74483173
   0.93638092  0.29147110  0.38845510
   0.93975222  0.96809006  0.87618414
   0.56302049  0.20813347  0.61138786
   0.81626657  0.87502128  0.56689064
   0.80388296  0.87341607  0.29947479
   0.31500062  0.03756534  0.25534737
   0.43612457  0.28260983  0.12407743
   0.31341153  0.70835079  0.61156568
   0.43387212  0.62491873  0.43300246
   0.93334179  0.62491431  0.43313485
   0.43981704  0.96727302  0.87575845
   0.07073960  0.54907474  0.78882339
   0.93381801  0.12491356  0.43308310
   0.31803832  0.36276333  0.16583048
   0.93414919  0.96250078  0.74468579
   0.81562230  0.53775138  0.25531900
Direct configuration=     3
   0.05607747  0.70092425  0.21116573
   0.31727781  0.72179040  0.87603106
   0.68837761  0.95820336  0.61144894
   0.43835068  0.45816460  0.61152244
   0.43837689  0.28705809  0.25533719
   0.05997110  0.38718528  0.83391201
   0.31057488  0.88745653  0.83398371
   0.44431762  0.62656167  0.70036942
   0.06204996  0.21310506  0.74468793
   0.18092708  0.45139606  0.21132313
   0.56552030  0.20971281  0.47767256
   0.06521119  0.87491369  0.56688163
   0.56751350  0.22146024  0.87587272
   0.80952854  0.52927785  0.12430847
   0.43105351  0.95126404  0.21125808
   0.56523827  0.37483773  0.56678659
   0.81149849  0.04194939  0.38833996
   0.68426115  0.79004641  0.52225571
   0.44046557  0.45975275  0.47766063
   0.43630736  0.96260401  0.74457093
   0.44007955  0.62482216  0.56683019
   0.56921170  0.87644586  0.70039684
   0.30893238  0.02900342  0.12423870
   0.68793611  0.95834587  0.34400307
   0.68647335  0.78074901  0.12440513
   0.05558795  0.37351656  0.29957996
   0.68933748  0.46960190  0.87580442
   0.43135482  0.45142947  0.21130975
   0.80983969  0.37528016  0.43304776
   0.56332286  0.70822628  0.61151235
   0.56156606  0.54111757  0.65584202
   0.81539697  0.86334922  0.16626736
   0.56305446  0.53723882  0.25539039
   0.68781622  0.45843332  0.34402303
   0.18965378  0.61214780  0.16636124
   0.19272283  0.79904781  0.78866238
   0.44453658  0.12632081  0.70037172
   0.93075863  0.62341317  0.29964971
   0.31522326  0.22085690  0.87589678
   0.31510463  0.87477610  0.56681370
   0.81596560  0.22188688  0.87597230
   0.81156649  0.54129088  0.65580498
   0.55940215  0.52913774  0.12417971
   0.56796534  0.04963440  0.78894176
   0.18842058  0.28716121  0.25541786
   0.80985527  0.87532242  0.43304521
   0.56936647  0.37651591  0.70042047
   0.05922651  0.02834647  0.12425769
   0.31164977  0.54108054  0.65586060
   0.56311695  0.20844934  0.34409200
   0.18829559  0.95813085  0.61144910
   0.30564258  0.37372750  0.29962481
   0.43651438  0.79113234  0.65586920
   0.19323266  0.29868377  0.78881784
   0.06569224  0.36311345  0.16627188
   0.69420433  0.62652840  0.70040064
   0.31148845  0.54155437  0.38842998
   0.06637111  0.72103010  0.87596861
   0.93528311  0.63714318  0.83416896
   0.31835509  0.54973820  0.78891842
   0.30618907  0.20062010  0.21119431
   0.06561400  0.70966796  0.47770806
   0.55615094  0.20101381  0.21109983
   0.31191029  0.21289936  0.74465730
   0.06925970  0.37669366  0.70042805
   0.18493031  0.63716249  0.83371219
   0.06801968  0.04934837  0.78889074
   0.44013891  0.12481293  0.56685682
   0.93673003  0.29120628  0.65575106
   0.80612154  0.20131617  0.21114487
   0.93103897  0.95156429  0.21125308
   0.94009586  0.62504806  0.56678967
   0.80983330  0.38697560  0.83390012
   0.19432025  0.62643736  0.70035839
   0.81034731  0.88676281  0.83393535
   0.68671599  0.29107733  0.65590324
   0.31334697  0.20814837  0.61149942
   0.43674095  0.46248762  0.74463666
   0.43642487  0.79144985  0.38841483
   0.68631452  0.96274561  0.74462016
   0.80601184  0.70100091  0.21120235
   0.81329719  0.70815659  0.61148536
   0.43695889  0.78097583  0.12449535
   0.31174983  0.71262931  0.74458018
   0.31872962  0.04938903  0.78890198
   0.81141715  0.54192732  0.38838150
   0.68439265  0.29009255  0.52226066
   0.69375895  0.79902370  0.78878881
   0.18833873  0.78760364  0.25542020
   0.68998050  0.11252952  0.16627840
   0.69048022  0.95981814  0.47768604
   0.93835889  0.95872509  0.34410320
   0.80936822  0.03991326  0.52229302
   0.68451017  0.62496828  0.43300940
   0.43804352  0.45849254  0.34412064
   0.81198568  0.21276853  0.74455030
   0.31529628  0.86272658  0.16624337
   0.56520554  0.87463449  0.56680722
   0.80909133  0.02860007  0.12418175
   0.43067416  0.62351409  0.29956936
   0.81594730  0.72178717  0.87604803
   0.68822477  0.45815631  0.61145154
   0.55994618  0.38763160  0.83382906
   0.80559547  0.37334188  0.29956163
   0.18622620  0.29145985  0.38837985
   0.81811585  0.54937927  0.78901284
   0.18450375  0.79010630  0.52234620
   0.30562974  0.87359765  0.29963605
   0.18101217  0.95126170  0.21123146
   0.18689867  0.46264814  0.74470054
   0.43440206  0.28990463  0.52218781
   0.06326559  0.70863099  0.34406166
   0.18669103  0.79089513  0.65577575
   0.44297764  0.79942873  0.78877638
   0.68444932  0.12502099  0.43300739
   0.93446335  0.78964226  0.52230149
   0.69003691  0.61316294  0.16640707
   0.81297395  0.70855630  0.34408116
   0.93668622  0.46274718  0.74462712
   0.18811667  0.45854655  0.34407142
   0.56881919  0.54943357  0.78893223
   0.56539094  0.36320067  0.16610892
   0.56282247  0.70863254  0.34414663
   0.55586242  0.37351176  0.29960084
   0.18918946  0.46965156  0.87585193
   0.19051372  0.11261128  0.16628747
   0.44317207  0.29950275  0.78872758
   0.68824982  0.78736706  0.25546445
   0.93556016  0.13706980  0.83389183
   0.44054579  0.95979191  0.47764665
   0.56578999  0.72057683  0.87588429
   0.19033131  0.45976138  0.47765223
   0.93587391  0.28081709  0.12441155
   0.31145956  0.04151045  0.38843667
   0.06172407  0.04086068  0.65587288
   0.55995224  0.37511563  0.43305638
   0.68621667  0.46257122  0.74467603
   0.56212054  0.21296434  0.74458257
   0.94448747  0.12668925  0.70037448
   0.56166948  0.04101907  0.65581060
   0.55936306  0.54011851  0.52226128
   0.18066815  0.12345919  0.29957054
   0.43959337  0.11239001  0.16631869
   0.68038366  0.62345913  0.29964613
   0.93063421  0.12318141  0.29965191
   0.81509002  0.37492915  0.56687491
   0.05572531  0.87346994  0.29957233
   0.19011170  0.62489154  0.56688219
   0.94274325  0.79930872  0.78885242
   0.31016345  0.38752210  0.83395056
   0.93951850  0.47055036  0.87578812
   0.43549460  0.63805853  0.83401908
   0.06289476  0.20852238  0.34403634
   0.18826976  0.97079398  0.87575069
   0.93619482  0.78064418  0.12440416
   0.68645318  0.79163514  0.38841371
   0.93657686  0.79109356  0.65582692
   0.93999999  0.11251383  0.16626024
   0.43662087  0.29123561  0.65591134
   0.05663829  0.20098617  0.21111913
   0.68113632  0.95155705  0.21130979
   0.18074209  0.62355581  0.29956272
   0.81922716  0.87630879  0.70036695
   0.94438573  0.62652111  0.70038569
   0.19442735  0.12663545  0.70037604
   0.94061617  0.45957914  0.47754885
   0.81327084  0.20815668  0.61149004
   0.18534113  0.62504978  0.43306175
   0.43070370  0.12353024  0.29961275
   0.68061572  0.12331072  0.29956257
   0.56140086  0.54158680  0.38845618
   0.81292017  0.20827909  0.34410672
   0.43947455  0.46983670  0.87570420
   0.55949374  0.88755930  0.83395521
   0.31557391  0.20981609  0.47758956
   0.19029687  0.95982547  0.47765921
   0.05960598  0.88712715  0.83390355
   0.05942026  0.53989273  0.52223665
   0.94056336  0.95961258  0.47757672
   0.06332219  0.70807525  0.61147896
   0.55939785  0.04008578  0.52225162
   0.69325917  0.29900258  0.78873043
   0.81575306  0.36273460  0.16626061
   0.43485547  0.12489686  0.43302294
   0.06566163  0.20974469  0.47768857
   0.31167111  0.04108139  0.65584934
   0.43437679  0.78996081  0.52219252
   0.18588407  0.13734147  0.83402961
   0.18648013  0.28058290  0.12436254
   0.93800416  0.45884750  0.34405551
   0.56605356  0.86299722  0.16626246
   0.30607091  0.70083867  0.21115690
   0.93966608  0.61309732  0.16637972
   0.18830841  0.45820756  0.61145998
   0.06938115  0.87654510  0.70027154
   0.06166253  0.54106180  0.65586760
   0.30963474  0.52862532  0.12406116
   0.93639986  0.79174194  0.38843617
   0.94307837  0.29849156  0.78885254
   0.18656218  0.29113919  0.65585500
   0.93832667  0.95814686  0.61150827
   0.81201452  0.71271986  0.74469808
   0.68844706  0.28739837  0.25538182
   0.06201166  0.71280677  0.74472551
   0.68100356  0.45126855  0.21123884
   0.81551930  0.20967608  0.47767455