<?xml version="1.0" encoding="ISO-8859-1"?>
<modeling>
 <generator>
  <i name="program" type="string">vasp </i>
  <i name="version" type="string">5.4.4.18Apr17-6-g9f103f2a35  </i>
  <i name="subversion" type="string">(build May 29 2019 08:40:53) complex            parallel </i>
  <i name="platform" type="string">LinuxPGI </i>
  <i name="date" type="string">2021 11 22 </i>
  <i name="time" type="string">14:34:43 </i>
 </generator>
 <incar>
  <i type="int" name="ISTART">     2</i>
  <i type="string" name="PREC">accurate</i>
  <i type="string" name="ALGO"> Fast</i>
  <i type="int" name="ICHARG">     2</i>
  <i type="int" name="INIWAV">     1</i>
  <i type="int" name="NELM">   100</i>
  <i type="int" name="NELMIN">     4</i>
  <i type="int" name="IBRION">     2</i>
  <i name="EDIFF">      0.00001000</i>
  <i type="int" name="NSW">   500</i>
  <i type="int" name="ISIF">     2</i>
  <i type="int" name="ISYM">     2</i>
  <i name="ENCUT">    500.00000000</i>
  <i name="POTIM">      0.25000000</i>
  <i type="string" name="LREAL"> Auto</i>
  <i type="int" name="ISMEAR">     0</i>
  <i name="SIGMA">      0.15000000</i>
  <i type="logical" name="LWAVE"> F  </i>
  <i type="logical" name="LCHARG"> F  </i>
  <v type="int" name="KPOINT_BSE">    -1     0     0     0</v>
  <i type="int" name="NELM">   100</i>
 </incar>
 <structure name="primitive_cell" >
  <crystal>
   <varray name="basis" >
    <v>       9.72667800       0.00000000       0.00000000 </v>
    <v>       0.00000000       8.42355000       0.00000000 </v>
    <v>       0.00000000       0.00000000      45.00000000 </v>
   </varray>
   <i name="volume">   3686.99213101 </i>
   <varray name="rec_basis" >
    <v>       0.10281002       0.00000000       0.00000000 </v>
    <v>       0.00000000       0.11871479       0.00000000 </v>
    <v>       0.00000000       0.00000000       0.02222222 </v>
   </varray>
  </crystal>
  <varray name="positions" >
   <v>      -0.18768135      -0.29860558       0.34496612 </v>
   <v>      -0.31276716       0.45207962       0.34505977 </v>
   <v>      -0.06300481       0.45174187       0.34507860 </v>
   <v>      -0.18750506      -0.46307891       0.38935459 </v>
   <v>      -0.43761174      -0.29832289       0.34504760 </v>
   <v>       0.06229768      -0.29841540       0.34506777 </v>
   <v>      -0.06272698      -0.04846290       0.34498664 </v>
   <v>      -0.31268431      -0.04836980       0.34507124 </v>
   <v>      -0.31189589      -0.21323749       0.38932233 </v>
   <v>      -0.06215552      -0.21326949       0.38933617 </v>
   <v>      -0.18713470      -0.13307791       0.30018357 </v>
   <v>      -0.31237842      -0.38310740       0.30032873 </v>
   <v>      -0.06236288      -0.38324132       0.30025331 </v>
   <v>      -0.43725157      -0.46346249       0.38934622 </v>
   <v>       0.06288315      -0.46310895       0.38929478 </v>
   <v>      -0.43738762      -0.13300090       0.30024555 </v>
   <v>       0.06252445      -0.13309991       0.30030089 </v>
   <v>      -0.18751043       0.03642795       0.38931682 </v>
   <v>      -0.18745873       0.36704091       0.30024388 </v>
   <v>      -0.31183537       0.28647316       0.38928406 </v>
   <v>       0.43777790       0.45203081       0.34499540 </v>
   <v>      -0.06258537       0.28650240       0.38942030 </v>
   <v>      -0.18771359       0.20198617       0.34508576 </v>
   <v>       0.43754733      -0.04845501       0.34503711 </v>
   <v>       0.18719707      -0.04853149       0.34505742 </v>
   <v>       0.18746128       0.45181346       0.34513382 </v>
   <v>      -0.31205263       0.11708945       0.30031351 </v>
   <v>       0.43742803      -0.21313467       0.38923561 </v>
   <v>      -0.06209477       0.11685973       0.30025829 </v>
   <v>       0.43779141      -0.38323682       0.30028567 </v>
   <v>       0.18768036      -0.21345177       0.38929577 </v>
   <v>      -0.43713085       0.03638851       0.38930828 </v>
   <v>      -0.43710819       0.36688785       0.30035058 </v>
   <v>       0.06250897       0.03640887       0.38927737 </v>
   <v>       0.18772584      -0.38290803       0.30031081 </v>
   <v>       0.06253598       0.36689046       0.30031023 </v>
   <v>      -0.31244281      -0.21840374       0.25576852 </v>
   <v>      -0.06295346      -0.21831959       0.25575237 </v>
   <v>      -0.31235869      -0.37902208       0.43436745 </v>
   <v>      -0.18816795      -0.46812251       0.25583949 </v>
   <v>      -0.06238946      -0.37867502       0.43440835 </v>
   <v>      -0.18764390      -0.12878289       0.43426794 </v>
   <v>      -0.43762640       0.20203307       0.34506614 </v>
   <v>       0.31268116      -0.29854615       0.34504033 </v>
   <v>       0.06237423       0.20172660       0.34495269 </v>
   <v>      -0.18791010       0.03150014       0.25585585 </v>
   <v>      -0.18776362       0.37165829       0.43424151 </v>
   <v>       0.06226527      -0.46782658       0.25585802 </v>
   <v>      -0.43759914      -0.12879984       0.43412369 </v>
   <v>      -0.43745421      -0.46825311       0.25576355 </v>
   <v>       0.06200435      -0.12886691       0.43427997 </v>
   <v>       0.43805215       0.28599800       0.38936212 </v>
   <v>       0.31255036      -0.46326528       0.38925467 </v>
   <v>       0.18757326       0.28638815       0.38941709 </v>
   <v>       0.43746234       0.11705303       0.30029509 </v>
   <v>       0.18759155       0.11714176       0.30029563 </v>
   <v>       0.31251886      -0.13265626       0.30020478 </v>
   <v>      -0.43772379       0.03167082       0.25571699 </v>
   <v>      -0.43790584       0.37146677       0.43428002 </v>
   <v>       0.06247108       0.03133282       0.25559630 </v>
   <v>       0.06257394       0.37139346       0.43439681 </v>
   <v>       0.18718633      -0.21815432       0.25568861 </v>
   <v>       0.43732227      -0.21848401       0.25569926 </v>
   <v>       0.43712215      -0.37912113       0.43428686 </v>
   <v>       0.18747032      -0.37907512       0.43436828 </v>
   <v>      -0.31249644       0.28183212       0.25584669 </v>
   <v>      -0.06299372       0.28130726       0.25576982 </v>
   <v>      -0.06238817       0.12135783       0.43433313 </v>
   <v>      -0.31273199       0.12152028       0.43471947 </v>
   <v>       0.31281908       0.36692322       0.30028940 </v>
   <v>       0.31251552       0.03639777       0.38945927 </v>
   <v>      -0.18755449      -0.30369546       0.21135659 </v>
   <v>      -0.18721303      -0.29484089       0.47857911 </v>
   <v>       0.31256387       0.20179113       0.34510776 </v>
   <v>       0.31258749      -0.46837994       0.25577813 </v>
   <v>      -0.31232955      -0.05315098       0.21136029 </v>
   <v>      -0.06249587      -0.05298310       0.21138844 </v>
   <v>       0.18732952       0.28187160       0.25574695 </v>
   <v>       0.31279227      -0.12855755       0.43460151 </v>
   <v>      -0.31251132       0.45500819       0.47860997 </v>
   <v>      -0.06243712       0.45518357       0.47860657 </v>
   <v>       0.43740182       0.12148245       0.43422142 </v>
   <v>      -0.43743029      -0.30360415       0.21149539 </v>
   <v>       0.18767702       0.12150246       0.43420687 </v>
   <v>       0.43723214       0.28139721       0.25561583 </v>
   <v>      -0.43750334      -0.29483901       0.47856879 </v>
   <v>       0.06250856      -0.29478131       0.47857968 </v>
   <v>       0.06273206      -0.30331991       0.21133481 </v>
   <v>      -0.06265784      -0.04463796       0.47855503 </v>
   <v>      -0.06227935       0.44689715       0.21142480 </v>
   <v>      -0.31264730      -0.04578644       0.47864650 </v>
   <v>      -0.31226941       0.44677377       0.21137505 </v>
   <v>       0.31257147       0.03141388       0.25579192 </v>
   <v>       0.31277075       0.37198286       0.43447738 </v>
   <v>      -0.18708959       0.19698459       0.21150065 </v>
   <v>       0.43793892      -0.05204397       0.21153905 </v>
   <v>      -0.18671437       0.20526839       0.47863443 </v>
   <v>       0.43783541       0.45512861       0.47858315 </v>
   <v>       0.18724968      -0.05319611       0.21130606 </v>
   <v>       0.18726672       0.45509343       0.47860654 </v>
   <v>       0.18715278       0.44728895       0.21144294 </v>
   <v>       0.43783385       0.44719329       0.21138751 </v>
   <v>       0.43809377      -0.04475785       0.47868296 </v>
   <v>       0.18737469      -0.04499643       0.47863948 </v>
   <v>       0.06220843       0.20528070       0.47851355 </v>
   <v>       0.06281040       0.19673224       0.21135262 </v>
   <v>      -0.43762380       0.19680118       0.21129457 </v>
   <v>      -0.43761995       0.20552084       0.47861785 </v>
   <v>       0.31258290      -0.30319127       0.21128379 </v>
   <v>       0.31237391      -0.29523653       0.47862028 </v>
   <v>      -0.31250641      -0.37714598      -0.47840541 </v>
   <v>      -0.06227041      -0.37722716      -0.47833667 </v>
   <v>      -0.18701597      -0.12710814      -0.47828219 </v>
   <v>      -0.18889323      -0.13945286       0.16620140 </v>
   <v>      -0.06338252      -0.38908369       0.16642249 </v>
   <v>      -0.31308893      -0.38981747       0.16636993 </v>
   <v>      -0.18757232       0.37337524      -0.47832820 </v>
   <v>       0.06218580      -0.12736283      -0.47839762 </v>
   <v>      -0.43761663      -0.12750463      -0.47827893 </v>
   <v>       0.06144771      -0.13956999       0.16624913 </v>
   <v>      -0.43772282      -0.13864991       0.16606839 </v>
   <v>      -0.18798074       0.35982861       0.16649189 </v>
   <v>       0.06228361       0.37282008      -0.47838362 </v>
   <v>      -0.43728834       0.37313932      -0.47830620 </v>
   <v>       0.43748759      -0.37702878      -0.47835999 </v>
   <v>       0.18733168      -0.37690617      -0.47830222 </v>
   <v>       0.31208196       0.19657072       0.21145769 </v>
   <v>      -0.31262731       0.12292901      -0.47850684 </v>
   <v>      -0.06179255       0.12269744      -0.47823540 </v>
   <v>       0.31253897       0.20489884       0.47880957 </v>
   <v>      -0.06283215       0.11024496       0.16647668 </v>
   <v>      -0.31365650       0.10924202       0.16612314 </v>
   <v>       0.18707661      -0.39001072       0.16633251 </v>
   <v>       0.43710510      -0.39041555       0.16626138 </v>
   <v>       0.06179189       0.36089117       0.16627020 </v>
   <v>      -0.43820305       0.36008698       0.16618268 </v>
   <v>       0.31262572      -0.12709053      -0.47851447 </v>
   <v>       0.18715606       0.12319572      -0.47832286 </v>
   <v>       0.43726200       0.12263245      -0.47826181 </v>
   <v>       0.43707979       0.10961369       0.16622723 </v>
   <v>       0.18712165       0.11059612       0.16622209 </v>
   <v>       0.31264924      -0.13945385       0.16592773 </v>
   <v>       0.31266787       0.37340751      -0.47840952 </v>
   <v>       0.31162629       0.36012106       0.16569658 </v>
   <v>      -0.18742100      -0.29340003      -0.43418716 </v>
   <v>      -0.06312530      -0.22412285       0.12412476 </v>
   <v>      -0.31130938      -0.22376042       0.12408082 </v>
   <v>      -0.18750321      -0.47309204       0.12419094 </v>
   <v>      -0.31244053       0.45644044      -0.43419427 </v>
   <v>      -0.06238230       0.45672416      -0.43416167 </v>
   <v>      -0.43770667      -0.29344750      -0.43417259 </v>
   <v>       0.06281385      -0.29319492      -0.43414578 </v>
   <v>      -0.31252483      -0.04351884      -0.43417135 </v>
   <v>      -0.06257863      -0.04303555      -0.43414336 </v>
   <v>      -0.18713750       0.02665071       0.12413141 </v>
   <v>       0.06202115      -0.47354561       0.12419302 </v>
   <v>      -0.43792431      -0.47312123       0.12404225 </v>
   <v>      -0.43785863       0.02631106       0.12422369 </v>
   <v>       0.06219833       0.02655115       0.12420353 </v>
   <v>       0.18657904      -0.22370134       0.12408968 </v>
   <v>       0.43623671      -0.22327056       0.12405677 </v>
   <v>      -0.06366393       0.27699637       0.12430755 </v>
   <v>      -0.31216538       0.27769188       0.12423220 </v>
   <v>      -0.18716152       0.20689690      -0.43416576 </v>
   <v>       0.43753443       0.45679136      -0.43412321 </v>
   <v>       0.18738548       0.45676936      -0.43409151 </v>
   <v>       0.18732965      -0.04344482      -0.43412881 </v>
   <v>       0.43793144      -0.04333318      -0.43400631 </v>
   <v>      -0.43746650       0.20684885      -0.43410987 </v>
   <v>       0.06234822       0.20687584      -0.43410338 </v>
   <v>       0.31236235      -0.29369175      -0.43418796 </v>
   <v>       0.31217074      -0.47329753       0.12385816 </v>
   <v>       0.18755635       0.27704517       0.12401219 </v>
   <v>       0.43667966       0.27806724       0.12388304 </v>
   <v>       0.31157582       0.02707604       0.12397431 </v>
   <v>       0.31232942       0.20648945      -0.43441380 </v>
   <v>      -0.18751408      -0.45858640      -0.38925919 </v>
   <v>      -0.06272243      -0.20868648      -0.38927811 </v>
   <v>      -0.31244549      -0.20879608      -0.38913187 </v>
   <v>      -0.43777612      -0.45854520      -0.38924490 </v>
   <v>       0.06245239      -0.45843017      -0.38922908 </v>
   <v>      -0.18768535       0.04142409      -0.38935733 </v>
   <v>      -0.31252250       0.29137459      -0.38927813 </v>
   <v>      -0.06253035       0.29166502      -0.38924192 </v>
   <v>       0.18738625      -0.20827060      -0.38934845 </v>
   <v>       0.43725872      -0.20837301      -0.38923215 </v>
   <v>      -0.43731566       0.04160660      -0.38930780 </v>
   <v>       0.06215401       0.04157698      -0.38924313 </v>
   <v>       0.18744748       0.29152588      -0.38924332 </v>
   <v>       0.43705907       0.29151842      -0.38920597 </v>
   <v>       0.31230474      -0.45856012      -0.38925464 </v>
   <v>       0.31230982       0.04157287      -0.38930078 </v>
   <v>      -0.31252182      -0.37350412      -0.34511944 </v>
   <v>      -0.06239328      -0.37367384      -0.34503536 </v>
   <v>      -0.18748856      -0.12378567      -0.34511356 </v>
   <v>      -0.18743089       0.37625433      -0.34500275 </v>
   <v>       0.06249716      -0.12386422      -0.34504646 </v>
   <v>      -0.43742065      -0.12364836      -0.34501261 </v>
   <v>       0.06266422       0.37637084      -0.34513362 </v>
   <v>      -0.43762919       0.37620357      -0.34501882 </v>
   <v>       0.43760307      -0.37376637      -0.34499967 </v>
   <v>       0.18755886      -0.37370816      -0.34499399 </v>
   <v>      -0.06220455       0.12596122      -0.34512699 </v>
   <v>      -0.31246839       0.12613767      -0.34510890 </v>
   <v>       0.31268603      -0.12380932      -0.34510414 </v>
   <v>       0.43745805       0.12610518      -0.34508134 </v>
   <v>       0.18756233       0.12625965      -0.34502311 </v>
   <v>       0.31257077       0.37636625      -0.34511678 </v>
   <v>      -0.18786356      -0.28891873      -0.30031068 </v>
   <v>      -0.31293632       0.46097211      -0.30027942 </v>
   <v>      -0.06288306       0.46111537      -0.30024845 </v>
   <v>      -0.43754605      -0.28897131      -0.30030355 </v>
   <v>       0.06190873      -0.28895063      -0.30024855 </v>
   <v>      -0.06270954      -0.03921825      -0.30034087 </v>
   <v>      -0.31280338      -0.03903272      -0.30024921 </v>
   <v>      -0.18779102       0.21087840      -0.30022147 </v>
   <v>       0.43744791       0.46072334      -0.30030390 </v>
   <v>       0.18716689       0.46101740      -0.30023438 </v>
   <v>       0.18705311      -0.03929188      -0.30034297 </v>
   <v>       0.43725644      -0.03910340      -0.30030041 </v>
   <v>      -0.43748998       0.21086000      -0.30036575 </v>
   <v>       0.06198194       0.21085772      -0.30034029 </v>
   <v>       0.31220363      -0.28913597      -0.30030289 </v>
   <v>       0.31177726       0.21056704      -0.30014913 </v>
   <v>      -0.18761442      -0.45387771      -0.25582484 </v>
   <v>      -0.31234559      -0.20403952      -0.25585515 </v>
   <v>      -0.06224820      -0.20375183      -0.25582934 </v>
   <v>      -0.43739208      -0.45409601      -0.25582434 </v>
   <v>       0.06249489      -0.45378706      -0.25582900 </v>
   <v>      -0.18755349       0.04598362      -0.25587442 </v>
   <v>      -0.06236927       0.29611288      -0.25584335 </v>
   <v>      -0.31215839       0.29651376      -0.25577547 </v>
   <v>       0.43719088      -0.20427561      -0.25586537 </v>
   <v>       0.18771165      -0.20394545      -0.25585177 </v>
   <v>      -0.43748016       0.04633112      -0.25588002 </v>
   <v>       0.06296484       0.04596998      -0.25584383 </v>
   <v>       0.18776232       0.29602046      -0.25583896 </v>
   <v>       0.43731918       0.29625366      -0.25579354 </v>
   <v>       0.31302023      -0.45394187      -0.25588610 </v>
   <v>       0.31285953       0.04586128      -0.25586274 </v>
   <v>      -0.31270229      -0.36913652      -0.21149585 </v>
   <v>      -0.06267800      -0.36910008      -0.21146845 </v>
   <v>      -0.18760254      -0.11907018      -0.21150485 </v>
   <v>      -0.18776209       0.38100021      -0.21148791 </v>
   <v>      -0.43770888      -0.11921270      -0.21151795 </v>
   <v>       0.06229102      -0.11915182      -0.21144648 </v>
   <v>       0.06213065       0.38099312      -0.21139432 </v>
   <v>      -0.43761818       0.38119418      -0.21136696 </v>
   <v>       0.18723781      -0.36931018      -0.21145695 </v>
   <v>       0.43727208      -0.36912126      -0.21145565 </v>
   <v>      -0.06288322       0.13110861      -0.21148286 </v>
   <v>      -0.31274571       0.13108401      -0.21147161 </v>
   <v>       0.31213831      -0.11929697      -0.21136152 </v>
   <v>       0.18728935       0.13089445      -0.21148683 </v>
   <v>       0.43751430       0.13109482      -0.21147972 </v>
   <v>       0.31232091       0.38100486      -0.21142687 </v>
   <v>      -0.18699084      -0.44908228      -0.12419347 </v>
   <v>      -0.06207569      -0.19928832      -0.12419195 </v>
   <v>      -0.31211872      -0.19901149      -0.12426020 </v>
   <v>      -0.43709908      -0.44894368      -0.12423945 </v>
   <v>       0.06277684      -0.44898687      -0.12428121 </v>
   <v>      -0.18706828       0.05089236      -0.12418092 </v>
   <v>      -0.06213292       0.30103879      -0.12419231 </v>
   <v>      -0.31181651       0.30093374      -0.12423539 </v>
   <v>       0.43797370      -0.19926414      -0.12423992 </v>
   <v>       0.18798877      -0.19912740      -0.12422265 </v>
   <v>      -0.43703003       0.05083449      -0.12417359 </v>
   <v>       0.06297947       0.05089434      -0.12419140 </v>
   <v>       0.43775458       0.30081658      -0.12420800 </v>
   <v>       0.18804682       0.30092933      -0.12418278 </v>
   <v>       0.31310283      -0.44932569      -0.12422391 </v>
   <v>       0.31294709       0.05084901      -0.12418567 </v>
   <v>      -0.18657121      -0.28288434      -0.16650728 </v>
   <v>      -0.31177999       0.46747372      -0.16650539 </v>
   <v>      -0.06154158       0.46735093      -0.16646564 </v>
   <v>      -0.43677927      -0.28282985      -0.16650991 </v>
   <v>       0.06327782      -0.28278731      -0.16640529 </v>
   <v>      -0.06174961      -0.03280554      -0.16649219 </v>
   <v>      -0.31162565      -0.03291592      -0.16642466 </v>
   <v>      -0.18686904       0.21738580      -0.16641260 </v>
   <v>       0.18842369       0.46715638      -0.16647888 </v>
   <v>       0.43812061       0.46769397      -0.16637991 </v>
   <v>       0.43832132      -0.03266864      -0.16648814 </v>
   <v>       0.18824833      -0.03280694      -0.16645997 </v>
   <v>      -0.43663820       0.21715805      -0.16646636 </v>
   <v>       0.06324320       0.21737146      -0.16645433 </v>
   <v>       0.31327282      -0.28249069      -0.16653137 </v>
   <v>       0.31348106       0.21763536      -0.16641031 </v>
  </varray>
 </structure>
 <varray name="primitive_index" >
  <v type="int" >        1 </v>
  <v type="int" >      108 </v>
  <v type="int" >      193 </v>
  <v type="int" >       53 </v>
  <v type="int" >       16 </v>
  <v type="int" >      163 </v>
  <v type="int" >      139 </v>
  <v type="int" >       84 </v>
  <v type="int" >       77 </v>
  <v type="int" >       32 </v>
  <v type="int" >       67 </v>
  <v type="int" >       91 </v>
  <v type="int" >      173 </v>
  <v type="int" >      243 </v>
  <v type="int" >       12 </v>
  <v type="int" >      259 </v>
  <v type="int" >       80 </v>
  <v type="int" >       55 </v>
  <v type="int" >       44 </v>
  <v type="int" >       85 </v>
  <v type="int" >      171 </v>
  <v type="int" >      153 </v>
  <v type="int" >      125 </v>
  <v type="int" >      181 </v>
  <v type="int" >      281 </v>
  <v type="int" >      261 </v>
  <v type="int" >       28 </v>
  <v type="int" >      165 </v>
  <v type="int" >      182 </v>
  <v type="int" >       15 </v>
  <v type="int" >      133 </v>
  <v type="int" >      255 </v>
  <v type="int" >      159 </v>
  <v type="int" >      151 </v>
  <v type="int" >      191 </v>
  <v type="int" >      169 </v>
  <v type="int" >      233 </v>
  <v type="int" >       47 </v>
  <v type="int" >      149 </v>
  <v type="int" >      258 </v>
  <v type="int" >      144 </v>
  <v type="int" >       48 </v>
  <v type="int" >       94 </v>
  <v type="int" >      236 </v>
  <v type="int" >      215 </v>
  <v type="int" >      158 </v>
  <v type="int" >      247 </v>
  <v type="int" >       79 </v>
  <v type="int" >      116 </v>
  <v type="int" >      223 </v>
  <v type="int" >      282 </v>
  <v type="int" >      279 </v>
  <v type="int" >      148 </v>
  <v type="int" >      253 </v>
  <v type="int" >      202 </v>
  <v type="int" >      183 </v>
  <v type="int" >      177 </v>
  <v type="int" >       34 </v>
  <v type="int" >      231 </v>
  <v type="int" >      283 </v>
  <v type="int" >      212 </v>
  <v type="int" >       30 </v>
  <v type="int" >      152 </v>
  <v type="int" >        9 </v>
  <v type="int" >      101 </v>
  <v type="int" >       58 </v>
  <v type="int" >      126 </v>
  <v type="int" >       41 </v>
  <v type="int" >      274 </v>
  <v type="int" >       20 </v>
  <v type="int" >      269 </v>
  <v type="int" >      264 </v>
  <v type="int" >       60 </v>
  <v type="int" >      256 </v>
  <v type="int" >      131 </v>
  <v type="int" >      220 </v>
  <v type="int" >      112 </v>
  <v type="int" >      237 </v>
  <v type="int" >       23 </v>
  <v type="int" >      222 </v>
  <v type="int" >       70 </v>
  <v type="int" >       42 </v>
  <v type="int" >       10 </v>
  <v type="int" >       61 </v>
  <v type="int" >      280 </v>
  <v type="int" >       88 </v>
  <v type="int" >       52 </v>
  <v type="int" >      146 </v>
  <v type="int" >      111 </v>
  <v type="int" >      263 </v>
  <v type="int" >       37 </v>
  <v type="int" >      170 </v>
  <v type="int" >      179 </v>
  <v type="int" >       57 </v>
  <v type="int" >      118 </v>
  <v type="int" >      284 </v>
  <v type="int" >      178 </v>
  <v type="int" >       74 </v>
  <v type="int" >      238 </v>
  <v type="int" >      246 </v>
  <v type="int" >      272 </v>
  <v type="int" >      155 </v>
  <v type="int" >      201 </v>
  <v type="int" >      127 </v>
  <v type="int" >      273 </v>
  <v type="int" >       63 </v>
  <v type="int" >        4 </v>
  <v type="int" >      198 </v>
  <v type="int" >      162 </v>
  <v type="int" >       18 </v>
  <v type="int" >      226 </v>
  <v type="int" >      211 </v>
  <v type="int" >      103 </v>
  <v type="int" >      217 </v>
  <v type="int" >      187 </v>
  <v type="int" >       24 </v>
  <v type="int" >      248 </v>
  <v type="int" >      216 </v>
  <v type="int" >      219 </v>
  <v type="int" >      228 </v>
  <v type="int" >      168 </v>
  <v type="int" >       22 </v>
  <v type="int" >       59 </v>
  <v type="int" >      250 </v>
  <v type="int" >      260 </v>
  <v type="int" >      192 </v>
  <v type="int" >      136 </v>
  <v type="int" >      288 </v>
  <v type="int" >       19 </v>
  <v type="int" >      286 </v>
  <v type="int" >      119 </v>
  <v type="int" >      244 </v>
  <v type="int" >      207 </v>
  <v type="int" >       33 </v>
  <v type="int" >       56 </v>
  <v type="int" >       95 </v>
  <v type="int" >      278 </v>
  <v type="int" >       98 </v>
  <v type="int" >       35 </v>
  <v type="int" >      135 </v>
  <v type="int" >      134 </v>
  <v type="int" >      150 </v>
  <v type="int" >      203 </v>
  <v type="int" >      276 </v>
  <v type="int" >      124 </v>
  <v type="int" >       90 </v>
  <v type="int" >      195 </v>
  <v type="int" >      262 </v>
  <v type="int" >      157 </v>
  <v type="int" >       93 </v>
  <v type="int" >        6 </v>
  <v type="int" >       49 </v>
  <v type="int" >      104 </v>
  <v type="int" >      138 </v>
  <v type="int" >      172 </v>
  <v type="int" >      128 </v>
  <v type="int" >        8 </v>
  <v type="int" >      277 </v>
  <v type="int" >       87 </v>
  <v type="int" >      167 </v>
  <v type="int" >      249 </v>
  <v type="int" >      106 </v>
  <v type="int" >      115 </v>
  <v type="int" >      102 </v>
  <v type="int" >      180 </v>
  <v type="int" >       83 </v>
  <v type="int" >      251 </v>
  <v type="int" >      218 </v>
  <v type="int" >      197 </v>
  <v type="int" >      200 </v>
  <v type="int" >        2 </v>
  <v type="int" >      240 </v>
  <v type="int" >      142 </v>
  <v type="int" >      164 </v>
  <v type="int" >      268 </v>
  <v type="int" >      241 </v>
  <v type="int" >      242 </v>
  <v type="int" >      132 </v>
  <v type="int" >       46 </v>
  <v type="int" >       31 </v>
  <v type="int" >       50 </v>
  <v type="int" >      266 </v>
  <v type="int" >      121 </v>
  <v type="int" >      267 </v>
  <v type="int" >       45 </v>
  <v type="int" >      232 </v>
  <v type="int" >      185 </v>
  <v type="int" >       81 </v>
  <v type="int" >      175 </v>
  <v type="int" >      190 </v>
  <v type="int" >      123 </v>
  <v type="int" >      109 </v>
  <v type="int" >        5 </v>
  <v type="int" >      189 </v>
  <v type="int" >      208 </v>
  <v type="int" >      224 </v>
  <v type="int" >      143 </v>
  <v type="int" >       78 </v>
  <v type="int" >      166 </v>
  <v type="int" >       38 </v>
  <v type="int" >       65 </v>
  <v type="int" >       75 </v>
  <v type="int" >      154 </v>
  <v type="int" >      239 </v>
  <v type="int" >       68 </v>
  <v type="int" >      270 </v>
  <v type="int" >      227 </v>
  <v type="int" >      160 </v>
  <v type="int" >        3 </v>
  <v type="int" >      130 </v>
  <v type="int" >      252 </v>
  <v type="int" >      117 </v>
  <v type="int" >      205 </v>
  <v type="int" >      254 </v>
  <v type="int" >      209 </v>
  <v type="int" >      176 </v>
  <v type="int" >      145 </v>
  <v type="int" >       25 </v>
  <v type="int" >       62 </v>
  <v type="int" >       99 </v>
  <v type="int" >      122 </v>
  <v type="int" >      137 </v>
  <v type="int" >       11 </v>
  <v type="int" >      285 </v>
  <v type="int" >      271 </v>
  <v type="int" >       66 </v>
  <v type="int" >      161 </v>
  <v type="int" >      120 </v>
  <v type="int" >       96 </v>
  <v type="int" >       73 </v>
  <v type="int" >       39 </v>
  <v type="int" >      287 </v>
  <v type="int" >       97 </v>
  <v type="int" >       36 </v>
  <v type="int" >       27 </v>
  <v type="int" >      275 </v>
  <v type="int" >       82 </v>
  <v type="int" >      199 </v>
  <v type="int" >      196 </v>
  <v type="int" >      206 </v>
  <v type="int" >      114 </v>
  <v type="int" >      129 </v>
  <v type="int" >       14 </v>
  <v type="int" >      147 </v>
  <v type="int" >      230 </v>
  <v type="int" >      184 </v>
  <v type="int" >      140 </v>
  <v type="int" >      113 </v>
  <v type="int" >       13 </v>
  <v type="int" >      188 </v>
  <v type="int" >       40 </v>
  <v type="int" >      234 </v>
  <v type="int" >       54 </v>
  <v type="int" >      105 </v>
  <v type="int" >       29 </v>
  <v type="int" >       89 </v>
  <v type="int" >      257 </v>
  <v type="int" >      221 </v>
  <v type="int" >       17 </v>
  <v type="int" >      245 </v>
  <v type="int" >       26 </v>
  <v type="int" >      141 </v>
  <v type="int" >       43 </v>
  <v type="int" >      100 </v>
  <v type="int" >      225 </v>
  <v type="int" >       64 </v>
  <v type="int" >       92 </v>
  <v type="int" >      213 </v>
  <v type="int" >      110 </v>
  <v type="int" >      214 </v>
  <v type="int" >      156 </v>
  <v type="int" >       51 </v>
  <v type="int" >      229 </v>
  <v type="int" >       76 </v>
  <v type="int" >      204 </v>
  <v type="int" >      186 </v>
  <v type="int" >      235 </v>
  <v type="int" >      194 </v>
  <v type="int" >       71 </v>
  <v type="int" >       86 </v>
  <v type="int" >       69 </v>
  <v type="int" >        7 </v>
  <v type="int" >      174 </v>
  <v type="int" >      107 </v>
  <v type="int" >       72 </v>
  <v type="int" >      265 </v>
  <v type="int" >      210 </v>
  <v type="int" >       21 </v>
 </varray>
 <kpoints>
  <generation param="Gamma">
   <v type="int" name="divisions">       4        4        1 </v>
   <v name="usershift">      0.00000000       0.00000000       0.00000000 </v>
   <v name="genvec1">      0.25000000       0.00000000       0.00000000 </v>
   <v name="genvec2">      0.00000000       0.25000000       0.00000000 </v>
   <v name="genvec3">      0.00000000       0.00000000       1.00000000 </v>
   <v name="shift">      0.00000000       0.00000000       0.00000000 </v>
  </generation>
  <varray name="kpointlist" >
   <v>       0.00000000       0.00000000       0.00000000 </v>
   <v>       0.25000000       0.00000000       0.00000000 </v>
   <v>       0.50000000       0.00000000       0.00000000 </v>
   <v>       0.00000000       0.25000000       0.00000000 </v>
   <v>       0.25000000       0.25000000       0.00000000 </v>
   <v>       0.50000000       0.25000000       0.00000000 </v>
   <v>      -0.25000000       0.25000000       0.00000000 </v>
   <v>       0.00000000       0.50000000       0.00000000 </v>
   <v>       0.25000000       0.50000000       0.00000000 </v>
   <v>       0.50000000       0.50000000       0.00000000 </v>
  </varray>
  <varray name="weights" >
   <v>       0.06250000 </v>
   <v>       0.12500000 </v>
   <v>       0.06250000 </v>
   <v>       0.12500000 </v>
   <v>       0.12500000 </v>
   <v>       0.12500000 </v>
   <v>       0.12500000 </v>
   <v>       0.06250000 </v>
   <v>       0.12500000 </v>
   <v>       0.06250000 </v>
  </varray>
 </kpoints>
 <parameters>
  <separator name="general" >
   <i type="string" name="SYSTEM">unknown system</i>
   <i type="logical" name="LCOMPAT"> F  </i>
  </separator>
  <separator name="electronic" >
   <i type="string" name="PREC">accura</i>
   <i name="ENMAX">    500.00000000</i>
   <i name="ENAUG">    838.43500000</i>
   <i name="EDIFF">      0.00001000</i>
   <i type="int" name="IALGO">    68</i>
   <i type="int" name="IWAVPR">    11</i>
   <i type="int" name="NBANDS">  1380</i>
   <i name="NELECT">   2289.00000000</i>
   <i type="int" name="TURBO">     0</i>
   <i type="int" name="IRESTART">     0</i>
   <i type="int" name="NREBOOT">     0</i>
   <i type="int" name="NMIN">     0</i>
   <i name="EREF">      0.00000000</i>
   <separator name="electronic smearing" >
    <i type="int" name="ISMEAR">     0</i>
    <i name="SIGMA">      0.15000000</i>
    <i name="KSPACING">      0.50000000</i>
    <i type="logical" name="KGAMMA"> T  </i>
   </separator>
   <separator name="electronic projectors" >
    <i type="logical" name="LREAL"> T  </i>
    <v name="ROPT">     -0.00025000     -0.00025000</v>
    <i type="int" name="LMAXPAW">  -100</i>
    <i type="int" name="LMAXMIX">     2</i>
    <i type="logical" name="NLSPLINE"> F  </i>
   </separator>
   <separator name="electronic startup" >
    <i type="int" name="ISTART">     0</i>
    <i type="int" name="ICHARG">     2</i>
    <i type="int" name="INIWAV">     1</i>
   </separator>
   <separator name="electronic spin" >
    <i type="int" name="ISPIN">     1</i>
    <i type="logical" name="LNONCOLLINEAR"> F  </i>
    <v name="MAGMOM">      1.00000000      1.00000000      1.00000000      1.00000000      1.00000000      1.00000000      1.00000000      1.00000000      1.00000000      1.00000000      1.00000000      1.00000000      1.00000000      1.00000000      1.00000000      1.00000000      1.00000000      1.00000000      1.00000000      1.00000000
      1.00000000      1.00000000      1.00000000      1.00000000      1.00000000      1.00000000      1.00000000      1.00000000      1.00000000      1.00000000      1.00000000      1.00000000      1.00000000      1.00000000      1.00000000      1.00000000      1.00000000      1.00000000      1.00000000      1.00000000
      1.00000000      1.00000000      1.00000000      1.00000000      1.00000000      1.00000000      1.00000000      1.00000000      1.00000000      1.00000000      1.00000000      1.00000000      1.00000000      1.00000000      1.00000000      1.00000000      1.00000000      1.00000000      1.00000000      1.00000000
      1.00000000      1.00000000      1.00000000      1.00000000      1.00000000      1.00000000      1.00000000      1.00000000      1.00000000      1.00000000      1.00000000      1.00000000      1.00000000      1.00000000      1.00000000      1.00000000      1.00000000      1.00000000      1.00000000      1.00000000
      1.00000000      1.00000000      1.00000000      1.00000000      1.00000000      1.00000000      1.00000000      1.00000000      1.00000000      1.00000000      1.00000000      1.00000000      1.00000000      1.00000000      1.00000000      1.00000000      1.00000000      1.00000000      1.00000000      1.00000000
      1.00000000      1.00000000      1.00000000      1.00000000      1.00000000      1.00000000      1.00000000      1.00000000      1.00000000      1.00000000      1.00000000      1.00000000      1.00000000      1.00000000      1.00000000      1.00000000      1.00000000      1.00000000      1.00000000      1.00000000
      1.00000000      1.00000000      1.00000000      1.00000000      1.00000000      1.00000000      1.00000000      1.00000000      1.00000000      1.00000000      1.00000000      1.00000000      1.00000000      1.00000000      1.00000000      1.00000000      1.00000000      1.00000000      1.00000000      1.00000000
      1.00000000      1.00000000      1.00000000      1.00000000      1.00000000      1.00000000      1.00000000      1.00000000      1.00000000      1.00000000      1.00000000      1.00000000      1.00000000      1.00000000      1.00000000      1.00000000      1.00000000      1.00000000      1.00000000      1.00000000
      1.00000000      1.00000000      1.00000000      1.00000000      1.00000000      1.00000000      1.00000000      1.00000000      1.00000000      1.00000000      1.00000000      1.00000000      1.00000000      1.00000000      1.00000000      1.00000000      1.00000000      1.00000000      1.00000000      1.00000000
      1.00000000      1.00000000      1.00000000      1.00000000      1.00000000      1.00000000      1.00000000      1.00000000      1.00000000      1.00000000      1.00000000      1.00000000      1.00000000      1.00000000      1.00000000      1.00000000      1.00000000      1.00000000      1.00000000      1.00000000
      1.00000000      1.00000000      1.00000000      1.00000000      1.00000000      1.00000000      1.00000000      1.00000000      1.00000000      1.00000000      1.00000000      1.00000000      1.00000000      1.00000000      1.00000000      1.00000000      1.00000000      1.00000000      1.00000000      1.00000000
      1.00000000      1.00000000      1.00000000      1.00000000      1.00000000      1.00000000      1.00000000      1.00000000      1.00000000      1.00000000      1.00000000      1.00000000      1.00000000      1.00000000      1.00000000      1.00000000      1.00000000      1.00000000      1.00000000      1.00000000
      1.00000000      1.00000000      1.00000000      1.00000000      1.00000000      1.00000000      1.00000000      1.00000000      1.00000000      1.00000000      1.00000000      1.00000000      1.00000000      1.00000000      1.00000000      1.00000000      1.00000000      1.00000000      1.00000000      1.00000000
      1.00000000      1.00000000      1.00000000      1.00000000      1.00000000      1.00000000      1.00000000      1.00000000      1.00000000      1.00000000      1.00000000      1.00000000      1.00000000      1.00000000      1.00000000      1.00000000      1.00000000      1.00000000      1.00000000      1.00000000
      1.00000000      1.00000000      1.00000000      1.00000000      1.00000000      1.00000000      1.00000000      1.00000000</v>
    <i name="NUPDOWN">     -1.00000000</i>
    <i type="logical" name="LSORBIT"> F  </i>
    <v name="SAXIS">      0.00000000      0.00000000      1.00000000</v>
    <i type="logical" name="LSPIRAL"> F  </i>
    <v name="QSPIRAL">      0.00000000      0.00000000      0.00000000</v>
    <i type="logical" name="LZEROZ"> F  </i>
   </separator>
   <separator name="electronic exchange-correlation" >
    <i type="logical" name="LASPH"> F  </i>
    <i type="logical" name="LMETAGGA"> F  </i>
   </separator>
   <separator name="electronic convergence" >
    <i type="int" name="NELM">   100</i>
    <i type="int" name="NELMDL">     0</i>
    <i type="int" name="NELMIN">     4</i>
    <i name="ENINI">    500.00000000</i>
    <separator name="electronic convergence detail" >
     <i type="logical" name="LDIAG"> T  </i>
     <i type="logical" name="LSUBROT"> F  </i>
     <i name="WEIMIN">      0.00100000</i>
     <i name="EBREAK">      0.00000000</i>
     <i name="DEPER">      0.30000000</i>
     <i type="int" name="NRMM">     4</i>
     <i name="TIME">      0.40000000</i>
    </separator>
   </separator>
   <separator name="electronic mixer" >
    <i name="AMIX">      0.40000000</i>
    <i name="BMIX">      1.00000000</i>
    <i name="AMIN">      0.10000000</i>
    <i name="AMIX_MAG">      1.60000000</i>
    <i name="BMIX_MAG">      1.00000000</i>
    <separator name="electronic mixer details" >
     <i type="int" name="IMIX">     4</i>
     <i type="logical" name="MIXFIRST"> F  </i>
     <i type="int" name="MAXMIX">   -45</i>
     <i name="WC">    100.00000000</i>
     <i type="int" name="INIMIX">     1</i>
     <i type="int" name="MIXPRE">     1</i>
     <i type="int" name="MREMOVE">     5</i>
    </separator>
   </separator>
   <separator name="electronic dipolcorrection" >
    <i type="logical" name="LDIPOL"> F  </i>
    <i type="logical" name="LMONO"> F  </i>
    <i type="int" name="IDIPOL">     0</i>
    <i name="EPSILON">      1.00000000</i>
    <v name="DIPOL">   -100.00000000   -100.00000000   -100.00000000</v>
    <i name="EFIELD">      0.00000000</i>
   </separator>
  </separator>
  <separator name="grids" >
   <i type="int" name="NGX">    72</i>
   <i type="int" name="NGY">    64</i>
   <i type="int" name="NGZ">   336</i>
   <i type="int" name="NGXF">   144</i>
   <i type="int" name="NGYF">   128</i>
   <i type="int" name="NGZF">   672</i>
   <i type="logical" name="ADDGRID"> F  </i>
  </separator>
  <separator name="ionic" >
   <i type="int" name="NSW">   500</i>
   <i type="int" name="IBRION">     2</i>
   <i type="int" name="MDALGO">     0</i>
   <i type="int" name="ISIF">     2</i>
   <i name="PSTRESS">      0.00000000</i>
   <i name="EDIFFG">      0.00010000</i>
   <i type="int" name="NFREE">     1</i>
   <i name="POTIM">      0.25000000</i>
   <i name="SMASS">     -3.00000000</i>
   <i name="SCALEE">      1.00000000</i>
  </separator>
  <separator name="ionic md" >
   <i name="TEBEG">      0.00010000</i>
   <i name="TEEND">      0.00010000</i>
   <i type="int" name="NBLOCK">     1</i>
   <i type="int" name="KBLOCK">   500</i>
   <i type="int" name="NPACO">   256</i>
   <i name="APACO">     16.00000000</i>
  </separator>
  <separator name="symmetry" >
   <i type="int" name="ISYM">     2</i>
   <i name="SYMPREC">      0.00001000</i>
  </separator>
  <separator name="dos" >
   <i type="int" name="LORBIT">     0</i>
   <v name="RWIGS">     -1.00000000     -1.00000000</v>
   <i type="int" name="NEDOS">   301</i>
   <i name="EMIN">     10.00000000</i>
   <i name="EMAX">    -10.00000000</i>
   <i name="EFERMI">      0.00000000</i>
  </separator>
  <separator name="writing" >
   <i type="int" name="NWRITE">     2</i>
   <i type="logical" name="LWAVE"> F  </i>
   <i type="logical" name="LDOWNSAMPLE"> F  </i>
   <i type="logical" name="LCHARG"> F  </i>
   <i type="logical" name="LPARD"> F  </i>
   <i type="logical" name="LVTOT"> F  </i>
   <i type="logical" name="LVHAR"> F  </i>
   <i type="logical" name="LELF"> F  </i>
   <i type="logical" name="LOPTICS"> F  </i>
   <v name="STM">      0.00000000      0.00000000      0.00000000      0.00000000      0.00000000      0.00000000      0.00000000</v>
  </separator>
  <separator name="performance" >
   <i type="int" name="NPAR">    10</i>
   <i type="int" name="NSIM">     4</i>
   <i type="int" name="NBLK">    -1</i>
   <i type="logical" name="LPLANE"> T  </i>
   <i type="logical" name="LSCALAPACK"> F  </i>
   <i type="logical" name="LSCAAWARE"> F  </i>
   <i type="logical" name="LSCALU"> F  </i>
   <i type="logical" name="LASYNC"> F  </i>
   <i type="logical" name="LORBITALREAL"> F  </i>
  </separator>
  <separator name="miscellaneous" >
   <i type="int" name="IDIOT">     3</i>
   <i type="int" name="ISPECIAL">     0</i>
   <i type="logical" name="LMUSIC"> F  </i>
   <v name="POMASS">     55.84700000     54.93800000</v>
   <v name="DARWINR">      0.00000000      0.00000000</v>
   <v name="DARWINV">      1.00000000      1.00000000</v>
   <i type="logical" name="LCORR"> T  </i>
  </separator>
  <i type="logical" name="GGA_COMPAT"> T  </i>
  <i type="logical" name="LBERRY"> F  </i>
  <i type="int" name="ICORELEVEL">     0</i>
  <i type="logical" name="LDAU"> F  </i>
  <i type="int" name="I_CONSTRAINED_M">     0</i>
  <separator name="electronic exchange-correlation" >
   <i type="string" name="GGA">--</i>
   <i type="int" name="VOSKOWN">     0</i>
   <i type="logical" name="LHFCALC"> F  </i>
   <i type="string" name="PRECFOCK"></i>
   <i type="logical" name="LSYMGRAD"> F  </i>
   <i type="logical" name="LHFONE"> F  </i>
   <i type="logical" name="LRHFCALC"> F  </i>
   <i type="logical" name="LTHOMAS"> F  </i>
   <i type="logical" name="LMODELHF"> F  </i>
   <i name="ENCUT4O">     -1.00000000</i>
   <i type="int" name="EXXOEP">     0</i>
   <i type="int" name="FOURORBIT">     0</i>
   <i name="AEXX">      0.00000000</i>
   <i name="HFALPHA">      0.00000000</i>
   <i name="MCALPHA">      0.00000000</i>
   <i name="ALDAX">      1.00000000</i>
   <i name="AGGAX">      1.00000000</i>
   <i name="ALDAC">      1.00000000</i>
   <i name="AGGAC">      1.00000000</i>
   <i type="int" name="NKREDX">     1</i>
   <i type="int" name="NKREDY">     1</i>
   <i type="int" name="NKREDZ">     1</i>
   <i type="logical" name="SHIFTRED"> F  </i>
   <i type="logical" name="ODDONLY"> F  </i>
   <i type="logical" name="EVENONLY"> F  </i>
   <i type="int" name="LMAXFOCK">     0</i>
   <i type="int" name="NMAXFOCKAE">     0</i>
   <i type="logical" name="LFOCKAEDFT"> F  </i>
   <i name="HFSCREEN">      0.00000000</i>
   <i name="HFSCREENC">      0.00000000</i>
   <i type="int" name="NBANDSGWLOW">     0</i>
  </separator>
  <separator name="vdW DFT" >
   <i type="logical" name="LUSE_VDW"> F  </i>
   <i name="Zab_VDW">     -0.84910000</i>
   <i name="PARAM1">      0.12340000</i>
   <i name="PARAM2">      1.00000000</i>
   <i name="PARAM3">      0.00000000</i>
  </separator>
  <separator name="model GW" >
   <i type="int" name="MODEL_GW">     0</i>
   <i name="MODEL_EPS0">      7.68123361</i>
   <i name="MODEL_ALPHA">      1.00000000</i>
  </separator>
  <separator name="linear response parameters" >
   <i type="logical" name="LEPSILON"> F  </i>
   <i type="logical" name="LRPA"> F  </i>
   <i type="logical" name="LNABLA"> F  </i>
   <i type="logical" name="LVEL"> F  </i>
   <i type="int" name="KINTER">     0</i>
   <i name="CSHIFT">      0.10000000</i>
   <i name="OMEGAMAX">     -1.00000000</i>
   <i name="DEG_THRESHOLD">      0.00200000</i>
   <i name="RTIME">     -0.10000000</i>
   <i name="WPLASMAI">      0.00000000</i>
   <v name="DFIELD">      0.00000000      0.00000000      0.00000000</v>
   <v name="WPLASMA">      0.00000000      0.00000000      0.00000000      0.00000000      0.00000000      0.00000000      0.00000000      0.00000000      0.00000000</v>
  </separator>
  <separator name="orbital magnetization" >
   <i type="logical" name="NUCIND"> F  </i>
   <v name="MAGPOS">      0.00000000      0.00000000      0.00000000</v>
   <i type="logical" name="LNICSALL"> T  </i>
   <i type="logical" name="ORBITALMAG"> F  </i>
   <i type="logical" name="LMAGBLOCH"> F  </i>
   <i type="logical" name="LCHIMAG"> F  </i>
   <i type="logical" name="LGAUGE"> T  </i>
   <i type="int" name="MAGATOM">     0</i>
   <v name="MAGDIPOL">      0.00000000      0.00000000      0.00000000</v>
   <v name="AVECCONST">      0.00000000      0.00000000      0.00000000</v>
  </separator>
  <separator name="response functions" >
   <i type="logical" name="LADDER"> F  </i>
   <i type="logical" name="LRPAFORCE"> F  </i>
   <i type="logical" name="LFXC"> F  </i>
   <i type="logical" name="LHARTREE"> T  </i>
   <i type="int" name="IBSE">     0</i>
   <v type="int" name="KPOINT">    -1     0     0     0</v>
   <i type="logical" name="LTCTE"> F  </i>
   <i type="logical" name="LTETE"> F  </i>
   <i type="logical" name="LTRIPLET"> F  </i>
   <i type="logical" name="LFXCEPS"> F  </i>
   <i type="logical" name="LFXHEG"> F  </i>
   <i type="int" name="NATURALO">     2</i>
   <i type="logical" name="L2ORDER"> F  </i>
   <i type="logical" name="LMP2LT"> F  </i>
   <i type="logical" name="LUSEW"> F  </i>
   <i name="ENCUTGW">     -2.00000000</i>
   <i name="ENCUTGWSOFT">     -2.00000000</i>
   <i name="ENCUTLF">     -1.00000000</i>
   <i type="int" name="LMAXMP2">    -1</i>
   <i name="SCISSOR">      0.00000000</i>
   <i type="int" name="NOMEGA">     0</i>
   <i type="int" name="NOMEGAR">     0</i>
   <i type="int" name="NBANDSGW">    -1</i>
   <i type="int" name="NBANDSO">    -1</i>
   <i type="int" name="NBANDSV">    -1</i>
   <i type="int" name="NELM">   100</i>
   <i type="int" name="NELMHF">     1</i>
   <i type="int" name="DIM">     3</i>
   <i type="int" name="ANTIRES">     0</i>
   <i name="OMEGAMAX">    -30.00000000</i>
   <i name="OMEGAMIN">    -30.00000000</i>
   <i name="OMEGATL">   -200.00000000</i>
   <i type="int" name="OMEGAGRID">   140</i>
   <i name="CSHIFT">     -0.10000000</i>
   <i type="logical" name="SELFENERGY"> F  </i>
   <i type="logical" name="LSPECTRAL"> F  </i>
   <i type="logical" name="LSPECTRALGW"> F  </i>
   <i type="logical" name="LSINGLES"> F  </i>
   <i type="logical" name="LFERMIGW"> F  </i>
   <i type="logical" name="ODDONLYGW"> F  </i>
   <i type="logical" name="EVENONLYGW"> F  </i>
   <i type="int" name="NKREDLFX">     1</i>
   <i type="int" name="NKREDLFY">     1</i>
   <i type="int" name="NKREDLFZ">     1</i>
   <i type="int" name="MAXMEM">  2800</i>
   <i type="int" name="TELESCOPE">     0</i>
   <i type="int" name="TAUPAR">     1</i>
   <i type="int" name="OMEGAPAR">    -1</i>
   <i name="LAMBDA">      1.00000000</i>
  </separator>
  <separator name="External order field" >
   <i name="OFIELD_KAPPA">      0.00000000</i>
   <v name="OFIELD_K">      0.00000000      0.00000000      0.00000000</v>
   <i name="OFIELD_Q6_NEAR">      0.00000000</i>
   <i name="OFIELD_Q6_FAR">      0.00000000</i>
   <i name="OFIELD_A">      0.00000000</i>
  </separator>
 </parameters>
 <atominfo>
  <atoms>     288 </atoms>
  <types>       2 </types>
  <array name="atoms" >
   <dimension dim="1">ion</dimension>
   <field type="string">element</field>
   <field type="int">atomtype</field>
   <set>
    <rc><c>Fe</c><c>   1</c></rc>
    <rc><c>Fe</c><c>   1</c></rc>
    <rc><c>Fe</c><c>   1</c></rc>
    <rc><c>Fe</c><c>   1</c></rc>
    <rc><c>Fe</c><c>   1</c></rc>
    <rc><c>Fe</c><c>   1</c></rc>
    <rc><c>Fe</c><c>   1</c></rc>
    <rc><c>Fe</c><c>   1</c></rc>
    <rc><c>Fe</c><c>   1</c></rc>
    <rc><c>Fe</c><c>   1</c></rc>
    <rc><c>Fe</c><c>   1</c></rc>
    <rc><c>Fe</c><c>   1</c></rc>
    <rc><c>Fe</c><c>   1</c></rc>
    <rc><c>Fe</c><c>   1</c></rc>
    <rc><c>Fe</c><c>   1</c></rc>
    <rc><c>Fe</c><c>   1</c></rc>
    <rc><c>Fe</c><c>   1</c></rc>
    <rc><c>Fe</c><c>   1</c></rc>
    <rc><c>Fe</c><c>   1</c></rc>
    <rc><c>Fe</c><c>   1</c></rc>
    <rc><c>Fe</c><c>   1</c></rc>
    <rc><c>Fe</c><c>   1</c></rc>
    <rc><c>Fe</c><c>   1</c></rc>
    <rc><c>Fe</c><c>   1</c></rc>
    <rc><c>Fe</c><c>   1</c></rc>
    <rc><c>Fe</c><c>   1</c></rc>
    <rc><c>Fe</c><c>   1</c></rc>
    <rc><c>Fe</c><c>   1</c></rc>
    <rc><c>Fe</c><c>   1</c></rc>
    <rc><c>Fe</c><c>   1</c></rc>
    <rc><c>Fe</c><c>   1</c></rc>
    <rc><c>Fe</c><c>   1</c></rc>
    <rc><c>Fe</c><c>   1</c></rc>
    <rc><c>Fe</c><c>   1</c></rc>
    <rc><c>Fe</c><c>   1</c></rc>
    <rc><c>Fe</c><c>   1</c></rc>
    <rc><c>Fe</c><c>   1</c></rc>
    <rc><c>Fe</c><c>   1</c></rc>
    <rc><c>Fe</c><c>   1</c></rc>
    <rc><c>Fe</c><c>   1</c></rc>
    <rc><c>Fe</c><c>   1</c></rc>
    <rc><c>Fe</c><c>   1</c></rc>
    <rc><c>Fe</c><c>   1</c></rc>
    <rc><c>Fe</c><c>   1</c></rc>
    <rc><c>Fe</c><c>   1</c></rc>
    <rc><c>Fe</c><c>   1</c></rc>
    <rc><c>Fe</c><c>   1</c></rc>
    <rc><c>Fe</c><c>   1</c></rc>
    <rc><c>Fe</c><c>   1</c></rc>
    <rc><c>Fe</c><c>   1</c></rc>
    <rc><c>Fe</c><c>   1</c></rc>
    <rc><c>Fe</c><c>   1</c></rc>
    <rc><c>Fe</c><c>   1</c></rc>
    <rc><c>Fe</c><c>   1</c></rc>
    <rc><c>Fe</c><c>   1</c></rc>
    <rc><c>Fe</c><c>   1</c></rc>
    <rc><c>Fe</c><c>   1</c></rc>
    <rc><c>Fe</c><c>   1</c></rc>
    <rc><c>Fe</c><c>   1</c></rc>
    <rc><c>Fe</c><c>   1</c></rc>
    <rc><c>Fe</c><c>   1</c></rc>
    <rc><c>Fe</c><c>   1</c></rc>
    <rc><c>Fe</c><c>   1</c></rc>
    <rc><c>Fe</c><c>   1</c></rc>
    <rc><c>Fe</c><c>   1</c></rc>
    <rc><c>Fe</c><c>   1</c></rc>
    <rc><c>Fe</c><c>   1</c></rc>
    <rc><c>Fe</c><c>   1</c></rc>
    <rc><c>Fe</c><c>   1</c></rc>
    <rc><c>Fe</c><c>   1</c></rc>
    <rc><c>Fe</c><c>   1</c></rc>
    <rc><c>Fe</c><c>   1</c></rc>
    <rc><c>Fe</c><c>   1</c></rc>
    <rc><c>Fe</c><c>   1</c></rc>
    <rc><c>Fe</c><c>   1</c></rc>
    <rc><c>Fe</c><c>   1</c></rc>
    <rc><c>Fe</c><c>   1</c></rc>
    <rc><c>Fe</c><c>   1</c></rc>
    <rc><c>Fe</c><c>   1</c></rc>
    <rc><c>Fe</c><c>   1</c></rc>
    <rc><c>Fe</c><c>   1</c></rc>
    <rc><c>Fe</c><c>   1</c></rc>
    <rc><c>Fe</c><c>   1</c></rc>
    <rc><c>Fe</c><c>   1</c></rc>
    <rc><c>Fe</c><c>   1</c></rc>
    <rc><c>Fe</c><c>   1</c></rc>
    <rc><c>Fe</c><c>   1</c></rc>
    <rc><c>Fe</c><c>   1</c></rc>
    <rc><c>Fe</c><c>   1</c></rc>
    <rc><c>Fe</c><c>   1</c></rc>
    <rc><c>Fe</c><c>   1</c></rc>
    <rc><c>Fe</c><c>   1</c></rc>
    <rc><c>Fe</c><c>   1</c></rc>
    <rc><c>Fe</c><c>   1</c></rc>
    <rc><c>Fe</c><c>   1</c></rc>
    <rc><c>Fe</c><c>   1</c></rc>
    <rc><c>Fe</c><c>   1</c></rc>
    <rc><c>Fe</c><c>   1</c></rc>
    <rc><c>Fe</c><c>   1</c></rc>
    <rc><c>Fe</c><c>   1</c></rc>
    <rc><c>Fe</c><c>   1</c></rc>
    <rc><c>Fe</c><c>   1</c></rc>
    <rc><c>Fe</c><c>   1</c></rc>
    <rc><c>Fe</c><c>   1</c></rc>
    <rc><c>Fe</c><c>   1</c></rc>
    <rc><c>Fe</c><c>   1</c></rc>
    <rc><c>Fe</c><c>   1</c></rc>
    <rc><c>Fe</c><c>   1</c></rc>
    <rc><c>Fe</c><c>   1</c></rc>
    <rc><c>Fe</c><c>   1</c></rc>
    <rc><c>Fe</c><c>   1</c></rc>
    <rc><c>Fe</c><c>   1</c></rc>
    <rc><c>Fe</c><c>   1</c></rc>
    <rc><c>Fe</c><c>   1</c></rc>
    <rc><c>Fe</c><c>   1</c></rc>
    <rc><c>Fe</c><c>   1</c></rc>
    <rc><c>Fe</c><c>   1</c></rc>
    <rc><c>Fe</c><c>   1</c></rc>
    <rc><c>Fe</c><c>   1</c></rc>
    <rc><c>Fe</c><c>   1</c></rc>
    <rc><c>Fe</c><c>   1</c></rc>
    <rc><c>Fe</c><c>   1</c></rc>
    <rc><c>Fe</c><c>   1</c></rc>
    <rc><c>Fe</c><c>   1</c></rc>
    <rc><c>Fe</c><c>   1</c></rc>
    <rc><c>Fe</c><c>   1</c></rc>
    <rc><c>Fe</c><c>   1</c></rc>
    <rc><c>Fe</c><c>   1</c></rc>
    <rc><c>Fe</c><c>   1</c></rc>
    <rc><c>Fe</c><c>   1</c></rc>
    <rc><c>Fe</c><c>   1</c></rc>
    <rc><c>Fe</c><c>   1</c></rc>
    <rc><c>Fe</c><c>   1</c></rc>
    <rc><c>Fe</c><c>   1</c></rc>
    <rc><c>Fe</c><c>   1</c></rc>
    <rc><c>Fe</c><c>   1</c></rc>
    <rc><c>Fe</c><c>   1</c></rc>
    <rc><c>Fe</c><c>   1</c></rc>
    <rc><c>Fe</c><c>   1</c></rc>
    <rc><c>Fe</c><c>   1</c></rc>
    <rc><c>Fe</c><c>   1</c></rc>
    <rc><c>Fe</c><c>   1</c></rc>
    <rc><c>Fe</c><c>   1</c></rc>
    <rc><c>Fe</c><c>   1</c></rc>
    <rc><c>Fe</c><c>   1</c></rc>
    <rc><c>Fe</c><c>   1</c></rc>
    <rc><c>Fe</c><c>   1</c></rc>
    <rc><c>Fe</c><c>   1</c></rc>
    <rc><c>Fe</c><c>   1</c></rc>
    <rc><c>Fe</c><c>   1</c></rc>
    <rc><c>Fe</c><c>   1</c></rc>
    <rc><c>Fe</c><c>   1</c></rc>
    <rc><c>Fe</c><c>   1</c></rc>
    <rc><c>Fe</c><c>   1</c></rc>
    <rc><c>Fe</c><c>   1</c></rc>
    <rc><c>Fe</c><c>   1</c></rc>
    <rc><c>Fe</c><c>   1</c></rc>
    <rc><c>Fe</c><c>   1</c></rc>
    <rc><c>Fe</c><c>   1</c></rc>
    <rc><c>Fe</c><c>   1</c></rc>
    <rc><c>Fe</c><c>   1</c></rc>
    <rc><c>Fe</c><c>   1</c></rc>
    <rc><c>Fe</c><c>   1</c></rc>
    <rc><c>Fe</c><c>   1</c></rc>
    <rc><c>Fe</c><c>   1</c></rc>
    <rc><c>Fe</c><c>   1</c></rc>
    <rc><c>Fe</c><c>   1</c></rc>
    <rc><c>Fe</c><c>   1</c></rc>
    <rc><c>Fe</c><c>   1</c></rc>
    <rc><c>Fe</c><c>   1</c></rc>
    <rc><c>Fe</c><c>   1</c></rc>
    <rc><c>Fe</c><c>   1</c></rc>
    <rc><c>Fe</c><c>   1</c></rc>
    <rc><c>Fe</c><c>   1</c></rc>
    <rc><c>Fe</c><c>   1</c></rc>
    <rc><c>Fe</c><c>   1</c></rc>
    <rc><c>Fe</c><c>   1</c></rc>
    <rc><c>Fe</c><c>   1</c></rc>
    <rc><c>Fe</c><c>   1</c></rc>
    <rc><c>Fe</c><c>   1</c></rc>
    <rc><c>Fe</c><c>   1</c></rc>
    <rc><c>Fe</c><c>   1</c></rc>
    <rc><c>Fe</c><c>   1</c></rc>
    <rc><c>Fe</c><c>   1</c></rc>
    <rc><c>Fe</c><c>   1</c></rc>
    <rc><c>Fe</c><c>   1</c></rc>
    <rc><c>Fe</c><c>   1</c></rc>
    <rc><c>Fe</c><c>   1</c></rc>
    <rc><c>Fe</c><c>   1</c></rc>
    <rc><c>Fe</c><c>   1</c></rc>
    <rc><c>Fe</c><c>   1</c></rc>
    <rc><c>Fe</c><c>   1</c></rc>
    <rc><c>Fe</c><c>   1</c></rc>
    <rc><c>Fe</c><c>   1</c></rc>
    <rc><c>Fe</c><c>   1</c></rc>
    <rc><c>Fe</c><c>   1</c></rc>
    <rc><c>Fe</c><c>   1</c></rc>
    <rc><c>Fe</c><c>   1</c></rc>
    <rc><c>Fe</c><c>   1</c></rc>
    <rc><c>Fe</c><c>   1</c></rc>
    <rc><c>Fe</c><c>   1</c></rc>
    <rc><c>Fe</c><c>   1</c></rc>
    <rc><c>Fe</c><c>   1</c></rc>
    <rc><c>Fe</c><c>   1</c></rc>
    <rc><c>Fe</c><c>   1</c></rc>
    <rc><c>Fe</c><c>   1</c></rc>
    <rc><c>Fe</c><c>   1</c></rc>
    <rc><c>Fe</c><c>   1</c></rc>
    <rc><c>Fe</c><c>   1</c></rc>
    <rc><c>Fe</c><c>   1</c></rc>
    <rc><c>Fe</c><c>   1</c></rc>
    <rc><c>Fe</c><c>   1</c></rc>
    <rc><c>Fe</c><c>   1</c></rc>
    <rc><c>Fe</c><c>   1</c></rc>
    <rc><c>Fe</c><c>   1</c></rc>
    <rc><c>Fe</c><c>   1</c></rc>
    <rc><c>Fe</c><c>   1</c></rc>
    <rc><c>Fe</c><c>   1</c></rc>
    <rc><c>Fe</c><c>   1</c></rc>
    <rc><c>Fe</c><c>   1</c></rc>
    <rc><c>Fe</c><c>   1</c></rc>
    <rc><c>Fe</c><c>   1</c></rc>
    <rc><c>Fe</c><c>   1</c></rc>
    <rc><c>Fe</c><c>   1</c></rc>
    <rc><c>Fe</c><c>   1</c></rc>
    <rc><c>Fe</c><c>   1</c></rc>
    <rc><c>Fe</c><c>   1</c></rc>
    <rc><c>Fe</c><c>   1</c></rc>
    <rc><c>Fe</c><c>   1</c></rc>
    <rc><c>Fe</c><c>   1</c></rc>
    <rc><c>Fe</c><c>   1</c></rc>
    <rc><c>Fe</c><c>   1</c></rc>
    <rc><c>Fe</c><c>   1</c></rc>
    <rc><c>Fe</c><c>   1</c></rc>
    <rc><c>Fe</c><c>   1</c></rc>
    <rc><c>Fe</c><c>   1</c></rc>
    <rc><c>Fe</c><c>   1</c></rc>
    <rc><c>Fe</c><c>   1</c></rc>
    <rc><c>Fe</c><c>   1</c></rc>
    <rc><c>Fe</c><c>   1</c></rc>
    <rc><c>Fe</c><c>   1</c></rc>
    <rc><c>Fe</c><c>   1</c></rc>
    <rc><c>Fe</c><c>   1</c></rc>
    <rc><c>Fe</c><c>   1</c></rc>
    <rc><c>Fe</c><c>   1</c></rc>
    <rc><c>Fe</c><c>   1</c></rc>
    <rc><c>Fe</c><c>   1</c></rc>
    <rc><c>Fe</c><c>   1</c></rc>
    <rc><c>Fe</c><c>   1</c></rc>
    <rc><c>Fe</c><c>   1</c></rc>
    <rc><c>Fe</c><c>   1</c></rc>
    <rc><c>Fe</c><c>   1</c></rc>
    <rc><c>Fe</c><c>   1</c></rc>
    <rc><c>Fe</c><c>   1</c></rc>
    <rc><c>Fe</c><c>   1</c></rc>
    <rc><c>Fe</c><c>   1</c></rc>
    <rc><c>Fe</c><c>   1</c></rc>
    <rc><c>Fe</c><c>   1</c></rc>
    <rc><c>Fe</c><c>   1</c></rc>
    <rc><c>Fe</c><c>   1</c></rc>
    <rc><c>Fe</c><c>   1</c></rc>
    <rc><c>Fe</c><c>   1</c></rc>
    <rc><c>Fe</c><c>   1</c></rc>
    <rc><c>Fe</c><c>   1</c></rc>
    <rc><c>Fe</c><c>   1</c></rc>
    <rc><c>Fe</c><c>   1</c></rc>
    <rc><c>Fe</c><c>   1</c></rc>
    <rc><c>Fe</c><c>   1</c></rc>
    <rc><c>Fe</c><c>   1</c></rc>
    <rc><c>Fe</c><c>   1</c></rc>
    <rc><c>Fe</c><c>   1</c></rc>
    <rc><c>Fe</c><c>   1</c></rc>
    <rc><c>Fe</c><c>   1</c></rc>
    <rc><c>Mn</c><c>   2</c></rc>
    <rc><c>Mn</c><c>   2</c></rc>
    <rc><c>Mn</c><c>   2</c></rc>
    <rc><c>Mn</c><c>   2</c></rc>
    <rc><c>Mn</c><c>   2</c></rc>
    <rc><c>Mn</c><c>   2</c></rc>
    <rc><c>Mn</c><c>   2</c></rc>
    <rc><c>Mn</c><c>   2</c></rc>
    <rc><c>Mn</c><c>   2</c></rc>
    <rc><c>Mn</c><c>   2</c></rc>
    <rc><c>Mn</c><c>   2</c></rc>
    <rc><c>Mn</c><c>   2</c></rc>
    <rc><c>Mn</c><c>   2</c></rc>
    <rc><c>Mn</c><c>   2</c></rc>
    <rc><c>Mn</c><c>   2</c></rc>
   </set>
  </array>
  <array name="atomtypes" >
   <dimension dim="1">type</dimension>
   <field type="int">atomspertype</field>
   <field type="string">element</field>
   <field>mass</field>
   <field>valence</field>
   <field type="string">pseudopotential</field>
   <set>
    <rc><c> 273</c><c>Fe</c><c>     55.84700000</c><c>      8.00000000</c><c>  PAW_PBE Fe_GW 31Mar2010               </c></rc>
    <rc><c>  15</c><c>Mn</c><c>     54.93800000</c><c>      7.00000000</c><c>  PAW_PBE Mn_GW 31Mar2010               </c></rc>
   </set>
  </array>
 </atominfo>
 <structure name="initialpos" >
  <crystal>
   <varray name="basis" >
    <v>       9.72667800       0.00000000       0.00000000 </v>
    <v>       0.00000000       8.42355000       0.00000000 </v>
    <v>       0.00000000       0.00000000      45.00000000 </v>
   </varray>
   <i name="volume">   3686.99213101 </i>
   <varray name="rec_basis" >
    <v>       0.10281002       0.00000000       0.00000000 </v>
    <v>       0.00000000       0.11871479       0.00000000 </v>
    <v>       0.00000000       0.00000000       0.02222222 </v>
   </varray>
  </crystal>
  <varray name="positions" >
   <v>       0.81231865       0.70139442       0.34496612 </v>
   <v>       0.31236235       0.70630825       0.56581204 </v>
   <v>       0.81213644       0.71108127       0.69968932 </v>
   <v>       0.56237620       0.19680118       0.21129457 </v>
   <v>       0.68747818       0.62649588       0.65488056 </v>
   <v>       0.56229333       0.70655250       0.56582741 </v>
   <v>       0.43812061       0.46769397       0.83362009 </v>
   <v>       0.56207569       0.52687877       0.12404225 </v>
   <v>       0.43712215       0.62087887       0.43428686 </v>
   <v>       0.56256971       0.69639585       0.21149539 </v>
   <v>       0.31220363       0.71086403       0.69969711 </v>
   <v>       0.06288315       0.53689105       0.38929478 </v>
   <v>       0.18723781       0.63068982       0.78854305 </v>
   <v>       0.81239746       0.88092982       0.78849515 </v>
   <v>       0.43779141       0.61676318       0.30028567 </v>
   <v>       0.56238826       0.70167711       0.34504760 </v>
   <v>       0.68788128       0.80098851       0.87573980 </v>
   <v>       0.31237391       0.70476347       0.47862028 </v>
   <v>       0.93820745       0.12269744       0.52176460 </v>
   <v>       0.31281908       0.36692322       0.30028940 </v>
   <v>       0.31348106       0.21763536       0.83358969 </v>
   <v>       0.81201926       0.35982861       0.16649189 </v>
   <v>       0.31279227       0.87144245       0.43460151 </v>
   <v>       0.68691107       0.61018253       0.16636993 </v>
   <v>       0.18716689       0.46101740       0.69976562 </v>
   <v>       0.06277684       0.55101313       0.87571879 </v>
   <v>       0.56251984       0.04633112       0.74411998 </v>
   <v>       0.68794737       0.11708945       0.30031351 </v>
   <v>       0.43751430       0.13109482       0.78852028 </v>
   <v>       0.18718633       0.78184568       0.25568861 </v>
   <v>       0.56222388       0.54145480       0.61075510 </v>
   <v>       0.93784448       0.78673051       0.38933617 </v>
   <v>       0.43710510       0.60958445       0.16626138 </v>
   <v>       0.56227621       0.03167082       0.25571699 </v>
   <v>       0.43726200       0.12263245       0.52173819 </v>
   <v>       0.18771165       0.79605455       0.74414823 </v>
   <v>       0.68735270       0.95421356       0.47864650 </v>
   <v>       0.56237081       0.37620357       0.65498118 </v>
   <v>       0.93763073       0.29611288       0.74415665 </v>
   <v>       0.93711678       0.13110861       0.78851714 </v>
   <v>       0.93761183       0.12135783       0.43433313 </v>
   <v>       0.43740182       0.12148245       0.43422142 </v>
   <v>       0.93786708       0.30103879       0.87580769 </v>
   <v>       0.81254127       0.36704091       0.30024388 </v>
   <v>       0.18738625       0.79172940       0.61065155 </v>
   <v>       0.68755451       0.79120392       0.61086813 </v>
   <v>       0.93704654       0.78168041       0.25575237 </v>
   <v>       0.81235610       0.87121711       0.43426794 </v>
   <v>       0.06281385       0.70680508       0.56585422 </v>
   <v>       0.06245239       0.54156983       0.61077092 </v>
   <v>       0.31294709       0.05084901       0.87581433 </v>
   <v>       0.06250856       0.70521869       0.47857968 </v>
   <v>       0.81249494       0.53692109       0.38935459 </v>
   <v>       0.31213831       0.88070303       0.78863848 </v>
   <v>       0.81248957       0.03642795       0.38931682 </v>
   <v>       0.06179189       0.36089117       0.16627020 </v>
   <v>       0.31277075       0.37198286       0.43447738 </v>
   <v>       0.68750356       0.28183212       0.25584669 </v>
   <v>       0.06228361       0.37282008       0.52161638 </v>
   <v>       0.81278697       0.70515911       0.47857911 </v>
   <v>       0.18767702       0.12150246       0.43420687 </v>
   <v>       0.18705311       0.96070812       0.69965703 </v>
   <v>       0.06281040       0.19673224       0.21135262 </v>
   <v>       0.18798877       0.80087260       0.87577735 </v>
   <v>       0.43760307       0.62623363       0.65500033 </v>
   <v>       0.68765441       0.79596048       0.74414485 </v>
   <v>       0.81286530       0.86692209       0.30018357 </v>
   <v>       0.31268603       0.87619068       0.65489586 </v>
   <v>       0.18842369       0.46715638       0.83352112 </v>
   <v>       0.93756288       0.45518357       0.47860657 </v>
   <v>       0.68837435       0.96708408       0.83357534 </v>
   <v>       0.56336180       0.21715805       0.83353364 </v>
   <v>       0.81244651       0.04598362       0.74412558 </v>
   <v>       0.43783541       0.45512861       0.47858315 </v>
   <v>       0.18755886       0.62629184       0.65500601 </v>
   <v>       0.68822001       0.46747372       0.83349461 </v>
   <v>       0.68810411       0.78676251       0.38932233 </v>
   <v>       0.56257935       0.87635164       0.65498739 </v>
   <v>       0.06226527       0.53217342       0.25585802 </v>
   <v>       0.06252445       0.86690009       0.30030089 </v>
   <v>       0.06215401       0.04157698       0.61075687 </v>
   <v>       0.18776232       0.29602046       0.74416104 </v>
   <v>       0.18738548       0.45676936       0.56590849 </v>
   <v>       0.68731569       0.95163020       0.34507124 </v>
   <v>       0.68816463       0.28647316       0.38928406 </v>
   <v>       0.81313096       0.21738580       0.83358740 </v>
   <v>       0.06219833       0.02655115       0.12420353 </v>
   <v>       0.56249666       0.70516099       0.47856879 </v>
   <v>       0.31232091       0.38100486       0.78857313 </v>
   <v>       0.93687470       0.77587715       0.12412476 </v>
   <v>       0.68762158       0.61689260       0.30032873 </v>
   <v>       0.56296997       0.05083449       0.87582641 </v>
   <v>       0.93761770       0.45672416       0.56583833 </v>
   <v>       0.56237360       0.20203307       0.34506614 </v>
   <v>       0.56179695       0.36008698       0.16618268 </v>
   <v>       0.06249489       0.54621294       0.74417100 </v>
   <v>       0.43719088       0.79572439       0.74413463 </v>
   <v>       0.18715606       0.12319572       0.52167714 </v>
   <v>       0.43725644       0.96089660       0.69969959 </v>
   <v>       0.68818349       0.30093374       0.87576461 </v>
   <v>       0.18747032       0.62092488       0.43436828 </v>
   <v>       0.81283848       0.20689690       0.56583424 </v>
   <v>       0.81298403       0.87289186       0.52171781 </v>
   <v>       0.68747517       0.95648116       0.56582865 </v>
   <v>       0.18728935       0.13089445       0.78851317 </v>
   <v>       0.93633607       0.27699637       0.12430755 </v>
   <v>       0.18824833       0.96719306       0.83354003 </v>
   <v>       0.68723284       0.45207962       0.34505977 </v>
   <v>       0.31230982       0.04157287       0.61069922 </v>
   <v>       0.43775458       0.30081658       0.87579200 </v>
   <v>       0.93734216       0.95536204       0.47855503 </v>
   <v>       0.93750413       0.94701690       0.21138844 </v>
   <v>       0.56238182       0.38119418       0.78863304 </v>
   <v>       0.68729771       0.63086348       0.78850415 </v>
   <v>       0.68783462       0.27769188       0.12423220 </v>
   <v>       0.56240086       0.87120016       0.43412369 </v>
   <v>       0.56245395       0.71102869       0.69969645 </v>
   <v>       0.81291041       0.19698459       0.21150065 </v>
   <v>       0.93716785       0.11024496       0.16647668 </v>
   <v>       0.56260792       0.54590399       0.74417566 </v>
   <v>       0.68747750       0.29137459       0.61072187 </v>
   <v>       0.56251002       0.21086000       0.69963425 </v>
   <v>       0.31230474       0.54143988       0.61074536 </v>
   <v>       0.81257900       0.70659997       0.56581284 </v>
   <v>       0.81228641       0.20198617       0.34508576 </v>
   <v>       0.93700628       0.28130726       0.25576982 </v>
   <v>       0.18737469       0.95500357       0.47863948 </v>
   <v>       0.06202115       0.52645439       0.12419302 </v>
   <v>       0.93732200       0.63089992       0.78853155 </v>
   <v>       0.68706368       0.46097211       0.69972058 </v>
   <v>       0.31258749       0.53162006       0.25577813 </v>
   <v>       0.93727757       0.79131352       0.61072189 </v>
   <v>       0.18768036       0.78654823       0.38929577 </v>
   <v>       0.18712165       0.11059612       0.16622209 </v>
   <v>       0.43707979       0.10961369       0.16622723 </v>
   <v>       0.31208196       0.19657072       0.21145769 </v>
   <v>       0.06198194       0.21085772       0.69965971 </v>
   <v>       0.93742137       0.95696445       0.56585664 </v>
   <v>       0.93727302       0.95153710       0.34498664 </v>
   <v>       0.06213065       0.38099312       0.78860568 </v>
   <v>       0.81293172       0.05089236       0.87581908 </v>
   <v>       0.18755635       0.27704517       0.12401219 </v>
   <v>       0.06249716       0.87613578       0.65495354 </v>
   <v>       0.93761054       0.62132498       0.43440835 </v>
   <v>       0.43744791       0.46072334       0.69969610 </v>
   <v>       0.06273206       0.69668009       0.21133481 </v>
   <v>       0.81223791       0.38100021       0.78851209 </v>
   <v>       0.31255036       0.53673472       0.38925467 </v>
   <v>       0.68764131       0.62097792       0.43436745 </v>
   <v>       0.31264924       0.86054615       0.16592773 </v>
   <v>       0.06250897       0.03640887       0.38927737 </v>
   <v>       0.43732227       0.78151599       0.25569926 </v>
   <v>       0.93741463       0.28650240       0.38942030 </v>
   <v>       0.93779545       0.12596122       0.65487301 </v>
   <v>       0.43783385       0.44719329       0.21138751 </v>
   <v>       0.31310283       0.55067431       0.87577609 </v>
   <v>       0.68755947       0.45644044       0.56580573 </v>
   <v>       0.81208990       0.03150014       0.25585585 </v>
   <v>       0.56289181       0.36688785       0.30035058 </v>
   <v>       0.31257077       0.37636625       0.65488322 </v>
   <v>       0.93775180       0.79624817       0.74417066 </v>
   <v>       0.31258290       0.69680873       0.21128379 </v>
   <v>       0.06229768       0.70158460       0.34506777 </v>
   <v>       0.43667966       0.27806724       0.12388304 </v>
   <v>       0.43742803       0.78686533       0.38923561 </v>
   <v>       0.06266422       0.37637084       0.65486638 </v>
   <v>       0.18657904       0.77629866       0.12408968 </v>
   <v>       0.56227718       0.86135009       0.16606839 </v>
   <v>       0.06253598       0.36689046       0.30031023 </v>
   <v>       0.68773059       0.44677377       0.21137505 </v>
   <v>       0.43777790       0.45203081       0.34499540 </v>
   <v>       0.81286250       0.02665071       0.12413141 </v>
   <v>       0.93763712       0.61675868       0.30025331 </v>
   <v>       0.43832132       0.96733136       0.83351186 </v>
   <v>       0.18744748       0.29152588       0.61075668 </v>
   <v>       0.81220898       0.21087840       0.69977853 </v>
   <v>       0.31251886       0.86734374       0.30020478 </v>
   <v>       0.81328563       0.20526839       0.47863443 </v>
   <v>       0.31257147       0.03141388       0.25579192 </v>
   <v>       0.43753443       0.45679136       0.56587679 </v>
   <v>       0.43754733       0.95154499       0.34503711 </v>
   <v>       0.93790523       0.11685973       0.30025829 </v>
   <v>       0.18759155       0.11714176       0.30029563 </v>
   <v>       0.06229102       0.88084818       0.78855352 </v>
   <v>       0.56268434       0.04160660       0.61069220 </v>
   <v>       0.56322073       0.71717015       0.83349009 </v>
   <v>       0.93661748       0.61091631       0.16642249 </v>
   <v>       0.43727208       0.63087874       0.78854435 </v>
   <v>       0.93760672       0.62632616       0.65496464 </v>
   <v>       0.43705907       0.29151842       0.61079403 </v>
   <v>       0.18772584       0.61709197       0.30031081 </v>
   <v>       0.18733168       0.62309383       0.52169778 </v>
   <v>       0.93699519       0.45174187       0.34507860 </v>
   <v>       0.93825039       0.96719446       0.83350781 </v>
   <v>       0.68869062       0.77623958       0.12408082 </v>
   <v>       0.31302023       0.54605813       0.74411390 </v>
   <v>       0.56253350       0.20684885       0.56589013 </v>
   <v>       0.56238005       0.20552084       0.47861785 </v>
   <v>       0.43731918       0.29625366       0.74420646 </v>
   <v>       0.06234822       0.20687584       0.56589662 </v>
   <v>       0.43809377       0.95524215       0.47868296 </v>
   <v>       0.43746234       0.11705303       0.30029509 </v>
   <v>       0.31266787       0.37340751       0.52159048 </v>
   <v>       0.93845842       0.46735093       0.83353436 </v>
   <v>       0.06190873       0.71104937       0.69975145 </v>
   <v>       0.31285953       0.04586128       0.74413726 </v>
   <v>       0.18707661       0.60998928       0.16633251 </v>
   <v>       0.81251144       0.87621433       0.65488644 </v>
   <v>       0.68719662       0.96096728       0.69975079 </v>
   <v>       0.31327282       0.71750931       0.83346863 </v>
   <v>       0.93772959       0.62277284       0.52166333 </v>
   <v>       0.06257394       0.37139346       0.43439681 </v>
   <v>       0.06297947       0.05089434       0.87580860 </v>
   <v>       0.18804682       0.30092933       0.87581722 </v>
   <v>       0.06237423       0.20172660       0.34495269 </v>
   <v>       0.06218580       0.87263717       0.52160238 </v>
   <v>       0.81110677       0.86054714       0.16620140 </v>
   <v>       0.43793144       0.95666682       0.56599369 </v>
   <v>       0.56238337       0.87249537       0.52172107 </v>
   <v>       0.68767045       0.94684902       0.21136029 </v>
   <v>       0.93792431       0.80071168       0.87580805 </v>
   <v>       0.68748868       0.45500819       0.47860997 </v>
   <v>       0.56254579       0.53174689       0.25576355 </v>
   <v>       0.81256911       0.37625433       0.65499725 </v>
   <v>       0.43797370       0.80073586       0.87576008 </v>
   <v>       0.68749359       0.62285402       0.52159459 </v>
   <v>       0.18756233       0.12625965       0.65497689 </v>
   <v>       0.06144771       0.86043001       0.16624913 </v>
   <v>       0.81342879       0.71711566       0.83349272 </v>
   <v>       0.56229112       0.88078730       0.78848205 </v>
   <v>       0.56209416       0.37146677       0.43428002 </v>
   <v>       0.43725872       0.79162699       0.61076785 </v>
   <v>       0.68755719       0.78159626       0.25576852 </v>
   <v>       0.68725429       0.13108401       0.78852839 </v>
   <v>       0.06327782       0.71721269       0.83359471 </v>
   <v>       0.31268116       0.70145385       0.34504033 </v>
   <v>       0.18732952       0.28187160       0.25574695 </v>
   <v>       0.18724968       0.94680389       0.21130606 </v>
   <v>       0.68753161       0.12613767       0.65489110 </v>
   <v>       0.31217074       0.52670247       0.12385816 </v>
   <v>       0.31232942       0.20648945       0.56558620 </v>
   <v>       0.81248592       0.54141360       0.61074081 </v>
   <v>       0.56274843       0.53653751       0.38934622 </v>
   <v>       0.68634350       0.10924202       0.16612314 </v>
   <v>       0.56290092       0.55105632       0.87576055 </v>
   <v>       0.18726672       0.45509343       0.47860654 </v>
   <v>       0.81223638       0.37165829       0.43424151 </v>
   <v>       0.81242768       0.37337524       0.52167180 </v>
   <v>       0.43623671       0.77672944       0.12405677 </v>
   <v>       0.56271166       0.37313932       0.52169380 </v>
   <v>       0.18732965       0.95655518       0.56587119 </v>
   <v>       0.93711694       0.46111537       0.69975155 </v>
   <v>       0.18757326       0.28638815       0.38941709 </v>
   <v>       0.93729046       0.96078175       0.69965913 </v>
   <v>       0.56286915       0.03638851       0.38930828 </v>
   <v>       0.31256387       0.20179113       0.34510776 </v>
   <v>       0.81300916       0.55091772       0.87580653 </v>
   <v>       0.81183205       0.53187749       0.25583949 </v>
   <v>       0.56261238       0.86699910       0.30024555 </v>
   <v>       0.43748759       0.62297122       0.52164001 </v>
   <v>       0.18746128       0.45181346       0.34513382 </v>
   <v>       0.81249679       0.52690796       0.12419094 </v>
   <v>       0.93772065       0.44689715       0.21142480 </v>
   <v>       0.81244551       0.69630454       0.21135659 </v>
   <v>       0.06324320       0.21737146       0.83354567 </v>
   <v>       0.81231465       0.04142409       0.61064267 </v>
   <v>       0.93746965       0.29166502       0.61075808 </v>
   <v>       0.31157582       0.02707604       0.12397431 </v>
   <v>       0.31251552       0.03639777       0.38945927 </v>
   <v>       0.43745805       0.12610518       0.65491866 </v>
   <v>       0.81238558       0.54612229       0.74417516 </v>
   <v>       0.18715278       0.44728895       0.21144294 </v>
   <v>       0.06220843       0.20528070       0.47851355 </v>
   <v>       0.68726801       0.12152028       0.43471947 </v>
   <v>       0.06296484       0.04596998       0.74415617 </v>
   <v>       0.31162629       0.36012106       0.16569658 </v>
   <v>       0.56214137       0.02631106       0.12422369 </v>
   <v>       0.31262572       0.87290947       0.52148553 </v>
   <v>       0.43805215       0.28599800       0.38936212 </v>
   <v>       0.43723214       0.28139721       0.25561583 </v>
   <v>       0.18719707       0.95146851       0.34505742 </v>
   <v>       0.06200435       0.87113309       0.43427997 </v>
   <v>       0.06247108       0.03133282       0.25559630 </v>
   <v>       0.43793892       0.94795603       0.21153905 </v>
   <v>       0.31177726       0.21056704       0.69985087 </v>
   <v>       0.31253897       0.20489884       0.47880957 </v>
   <v>       0.68784161       0.29651376       0.74422453 </v>
   <v>       0.68737269       0.12292901       0.52149316 </v>
  </varray>
 </structure>
 <calculation>
  <scstep>
   <time name="dav">  146.05  146.05</time>
   <time name="total">  146.50  146.50</time>
   <energy>
    <i name="alphaZ">  16277.55763135 </i>
    <i name="ewald"> 715898.14456070 </i>
    <i name="hartreedc">-906250.70254216 </i>
    <i name="XCdc">  -6530.30009678 </i>
    <i name="pawpsdc"> 162148.49262465 </i>
    <i name="pawaedc">-159453.03229289 </i>
    <i name="eentropy">     -0.96489441 </i>
    <i name="bandstr">  39769.46620594 </i>
    <i name="atom"> 168497.18126305 </i>
    <i name="e_fr_energy">  30355.84245945 </i>
    <i name="e_wo_entrp">  30356.80735386 </i>
    <i name="e_0_energy">  30356.32490665 </i>
   </energy>
  </scstep>
  <scstep>
   <time name="dav">  145.25  145.25</time>
   <time name="total">  145.26  145.25</time>
   <energy>
    <i name="e_fr_energy">   1515.80824176 </i>
    <i name="e_wo_entrp">   1517.19843041 </i>
    <i name="e_0_energy">   1516.50333608 </i>
   </energy>
  </scstep>
  <scstep>
   <time name="dav">  178.32  178.31</time>
   <time name="total">  178.32  178.31</time>
   <energy>
    <i name="e_fr_energy">  -1899.24727022 </i>
    <i name="e_wo_entrp">  -1895.67432981 </i>
    <i name="e_0_energy">  -1897.46080001 </i>
   </energy>
  </scstep>
  <scstep>
   <time name="dav">  218.86  218.86</time>
   <time name="total">  218.87  218.86</time>
   <energy>
    <i name="e_fr_energy">  -2610.77347625 </i>
    <i name="e_wo_entrp">  -2607.28766015 </i>
    <i name="e_0_energy">  -2609.03056820 </i>
   </energy>
  </scstep>
  <scstep>
   <time name="dav">  211.13  211.13</time>
   <time name="total">  216.37  216.36</time>
   <energy>
    <i name="e_fr_energy">  -2740.31349561 </i>
    <i name="e_wo_entrp">  -2736.73496852 </i>
    <i name="e_0_energy">  -2738.52423206 </i>
   </energy>
  </scstep>
  <scstep>
   <time name="diag">   29.95   29.95</time>
   <time name="diis">   76.31   76.31</time>
   <time name="orth">    8.87    8.87</time>
   <time name="total">  120.21  120.20</time>
   <energy>
    <i name="e_fr_energy">  -6556.31430691 </i>
    <i name="e_wo_entrp">  -6553.12957906 </i>
    <i name="e_0_energy">  -6554.72194298 </i>
   </energy>
  </scstep>
  <scstep>
   <time name="diag">   30.66   30.66</time>
   <time name="diis">   78.53   78.53</time>
   <time name="orth">    8.98    8.98</time>
   <time name="total">  123.23  123.23</time>
   <energy>
    <i name="e_fr_energy">  -5307.40166783 </i>
    <i name="e_wo_entrp">  -5302.60947362 </i>
    <i name="e_0_energy">  -5305.00557073 </i>
   </energy>
  </scstep>
  <scstep>
[...]
    <v>       0.31271950       0.36523942       0.16726756 </v>
    <v>       0.56196618       0.02992013       0.12585280 </v>
    <v>       0.31275061       0.87313209       0.52137599 </v>
    <v>       0.43759610       0.28476245       0.38961412 </v>
    <v>       0.43775257       0.28086925       0.25673378 </v>
    <v>       0.18772798       0.95110827       0.34552698 </v>
    <v>       0.06208747       0.87000041       0.43438177 </v>
    <v>       0.06266796       0.03107245       0.25661979 </v>
    <v>       0.43696041       0.94705769       0.21279819 </v>
    <v>       0.31273741       0.21169192       0.69924535 </v>
    <v>       0.31254840       0.20450444       0.47872685 </v>
    <v>       0.68740515       0.29711099       0.74333512 </v>
    <v>       0.68735477       0.12313245       0.52140326 </v>
   </varray>
  </structure>
  <varray name="forces" >
   <v>      -0.00591291      -0.00690900       0.02246963 </v>
   <v>       0.01244611       0.00134249      -0.04111331 </v>
   <v>      -0.01276479      -0.00761744      -0.04087161 </v>
   <v>       0.01295881       0.05968301       0.01469008 </v>
   <v>       0.01842623       0.00913070      -0.03532843 </v>
   <v>       0.00677619      -0.00008101      -0.02136143 </v>
   <v>       0.02534568       0.00853065      -0.00311776 </v>
   <v>       0.00543363      -0.00049555       0.01026472 </v>
   <v>       0.00390447       0.00818280       0.03338062 </v>
   <v>       0.00670431       0.02895426       0.01592045 </v>
   <v>      -0.00807211      -0.00230258      -0.03150287 </v>
   <v>       0.01111373       0.00091538      -0.00102932 </v>
   <v>      -0.02744158      -0.03443664      -0.00762112 </v>
   <v>      -0.02712547      -0.02713153       0.00119642 </v>
   <v>      -0.00535100       0.00529338       0.01124627 </v>
   <v>      -0.01098854      -0.01245096       0.01367576 </v>
   <v>      -0.00967739      -0.00428297       0.01804224 </v>
   <v>       0.01174942      -0.04256323       0.05246678 </v>
   <v>      -0.02863501      -0.00735593      -0.03666761 </v>
   <v>      -0.00566362       0.00136521       0.00478925 </v>
   <v>       0.02667676       0.01174449       0.00736157 </v>
   <v>      -0.01054049      -0.00515580       0.03275572 </v>
   <v>      -0.01240970       0.01027071       0.01357779 </v>
   <v>      -0.01701904      -0.00592412       0.01911175 </v>
   <v>      -0.00861100      -0.00972969      -0.03213839 </v>
   <v>      -0.01413525      -0.00753784       0.01914560 </v>
   <v>       0.01979429      -0.00575947      -0.04176440 </v>
   <v>       0.00842765       0.00683788       0.01968492 </v>
   <v>      -0.02350226      -0.03275061       0.00278261 </v>
   <v>      -0.02177448       0.00064937       0.02895426 </v>
   <v>       0.00064897      -0.00280495       0.01425268 </v>
   <v>       0.01065669       0.00524999       0.00823208 </v>
   <v>      -0.02182341      -0.00045657      -0.01459188 </v>
   <v>      -0.01400326       0.02030417       0.02794641 </v>
   <v>       0.03839779      -0.02900941      -0.02818496 </v>
   <v>       0.00281591      -0.01055356      -0.03431418 </v>
   <v>      -0.00613735       0.00060423       0.02716213 </v>
   <v>       0.01646113       0.00880636      -0.03822307 </v>
   <v>       0.01755445      -0.02026322      -0.04730777 </v>
   <v>      -0.01650543      -0.03724866       0.01038541 </v>
   <v>       0.00597537      -0.00283823       0.02602584 </v>
   <v>      -0.00656454       0.00266288       0.02740019 </v>
   <v>      -0.00681224       0.00029311       0.02164880 </v>
   <v>       0.02589440       0.00135811       0.01283630 </v>
   <v>       0.00101707       0.00684280       0.02256903 </v>
   <v>      -0.00531470       0.00142620       0.01290010 </v>
   <v>      -0.00188167       0.00458856       0.03490304 </v>
   <v>       0.00762820       0.00009263       0.02999231 </v>
   <v>      -0.00146771       0.00307013      -0.02329803 </v>
   <v>      -0.01080347      -0.00546753       0.01390297 </v>
   <v>      -0.01044036       0.00040453       0.01871232 </v>
   <v>      -0.01955464       0.02983535       0.00475139 </v>
   <v>       0.00288598      -0.00269863       0.01529224 </v>
   <v>      -0.02459854      -0.02599447       0.00227694 </v>
   <v>       0.01235710       0.01135467       0.01228313 </v>
   <v>      -0.01228745      -0.00804100       0.01624694 </v>
   <v>      -0.01222916      -0.00008478       0.02814997 </v>
   <v>      -0.02602982       0.01116663       0.02257563 </v>
   <v>      -0.01762413      -0.04772938      -0.02677006 </v>
   <v>      -0.00889471      -0.01344439       0.02844896 </v>
   <v>      -0.00832822       0.00166088       0.02537996 </v>
   <v>       0.00160284      -0.00359249      -0.03210137 </v>
   <v>       0.01779927       0.04936099       0.01090062 </v>
   <v>      -0.01024194       0.00276601       0.02402800 </v>
   <v>       0.01880874       0.01466222      -0.03381939 </v>
   <v>       0.00969616      -0.01396716      -0.04560158 </v>
   <v>      -0.00126274      -0.00131624       0.00253317 </v>
   <v>       0.01652522       0.01805224      -0.03493066 </v>
   <v>       0.02297735       0.01332640      -0.00382931 </v>
   <v>      -0.01616015       0.00870957       0.01951616 </v>
   <v>       0.02304272       0.02419146       0.01264227 </v>
   <v>       0.02489949       0.01435334      -0.00014749 </v>
   <v>       0.01320777      -0.00744324      -0.04055353 </v>
   <v>      -0.03061967       0.01958306       0.02545537 </v>
   <v>       0.01063071       0.01087551      -0.02446098 </v>
   <v>       0.02339966       0.01231210       0.00173434 </v>
   <v>       0.01675627      -0.00183687       0.01447222 </v>
   <v>       0.01655067       0.00630133      -0.02193639 </v>
   <v>       0.00536943       0.01391382       0.03030399 </v>
   <v>       0.01356235      -0.01066064       0.00315210 </v>
   <v>      -0.00746561       0.00558032       0.01204842 </v>
   <v>       0.00586247      -0.01364738      -0.04684314 </v>
   <v>      -0.00045986      -0.01224909      -0.02352809 </v>
   <v>      -0.00144448      -0.00921260       0.00862853 </v>
   <v>       0.00057720       0.00131778      -0.00143091 </v>
   <v>       0.02344280       0.01357545       0.00095219 </v>
   <v>       0.01007544       0.02006147       0.00882910 </v>
   <v>       0.02139243       0.01014344       0.01485201 </v>
   <v>      -0.03049078      -0.03954580      -0.00622256 </v>
   <v>      -0.00656861       0.00803350      -0.01799241 </v>
   <v>       0.02492281       0.01103531       0.01434312 </v>
   <v>      -0.00946795      -0.00215776       0.02138294 </v>
   <v>      -0.01130072      -0.00862824      -0.02908894 </v>
   <v>      -0.01360627      -0.01243911       0.02286259 </v>
   <v>      -0.02052705      -0.00576256       0.00012426 </v>
   <v>       0.00950634      -0.01445864      -0.04103644 </v>
   <v>       0.00988571      -0.01226067      -0.04265911 </v>
   <v>      -0.00576567      -0.03304644      -0.02029529 </v>
   <v>      -0.01493439      -0.00244454      -0.03715835 </v>
   <v>      -0.00577597      -0.00459916       0.02189453 </v>
   <v>      -0.01982996       0.00812624       0.03125845 </v>
   <v>      -0.01404353      -0.00976848      -0.02644183 </v>
   <v>      -0.01842501       0.01364275      -0.02172845 </v>
   <v>      -0.00975878       0.00337234      -0.02679766 </v>
   <v>      -0.01988813      -0.03631501      -0.00031280 </v>
   <v>      -0.00060505      -0.00105594      -0.02166497 </v>
   <v>       0.02363152       0.02661933       0.00360196 </v>
   <v>      -0.00525848      -0.01529661       0.01672718 </v>
   <v>       0.00286683       0.00711070       0.00980521 </v>
   <v>      -0.01104796      -0.00312989       0.01788553 </v>
   <v>      -0.02526590       0.00930556       0.01968084 </v>
   <v>       0.00986850       0.02179655       0.01187675 </v>
   <v>      -0.03487189      -0.04410512      -0.00649248 </v>
   <v>      -0.02590019      -0.02569365       0.00315892 </v>
   <v>      -0.00474740       0.00196956      -0.02746632 </v>
   <v>      -0.00463417       0.00491714       0.03709903 </v>
   <v>      -0.00996506      -0.00299367      -0.03468171 </v>
   <v>       0.01696882       0.03296326       0.00255433 </v>
   <v>      -0.00926527      -0.02355580       0.00498150 </v>
   <v>       0.01994604      -0.01969259      -0.04935183 </v>
   <v>      -0.01288086      -0.00176686       0.00830795 </v>
   <v>      -0.02126837      -0.01202783      -0.03640058 </v>
   <v>       0.00233083       0.00003560       0.00734250 </v>
   <v>      -0.00626177      -0.01078228      -0.03426357 </v>
   <v>       0.00222269      -0.01490117       0.00644965 </v>
   <v>       0.00011697       0.02480564       0.01688373 </v>
   <v>      -0.02350124       0.00289770       0.03847240 </v>
   <v>       0.00812174       0.01727536       0.01552157 </v>
   <v>      -0.01886509      -0.03231171      -0.00599861 </v>
   <v>      -0.00722881       0.00258083      -0.03739893 </v>
   <v>      -0.00302038       0.00205459       0.00633656 </v>
   <v>      -0.01156653      -0.00003452       0.02586076 </v>
   <v>       0.00203623       0.00356053       0.00458921 </v>
   <v>      -0.01535688      -0.01365461      -0.01155138 </v>
   <v>      -0.02503994      -0.01826169      -0.04135683 </v>
   <v>       0.01459603       0.04884462       0.01435533 </v>
   <v>      -0.00679310      -0.00363318      -0.03133309 </v>
   <v>       0.00439563      -0.00052461      -0.02421182 </v>
   <v>      -0.00692963      -0.00170292       0.02115467 </v>
   <v>      -0.01344081      -0.03198233      -0.00440119 </v>
   <v>      -0.00975651       0.00299549       0.02241079 </v>
   <v>       0.01254084       0.01134364      -0.02410710 </v>
   <v>       0.00590963       0.01744191      -0.02615645 </v>
   <v>      -0.00607348       0.01539406       0.02785992 </v>
   <v>      -0.01757611      -0.01081438      -0.03889197 </v>
   <v>       0.01698299       0.02389980       0.00926036 </v>
   <v>      -0.02152441      -0.03376422      -0.00001078 </v>
   <v>       0.00874223      -0.00832283       0.00222783 </v>
   <v>       0.00804298       0.01541605       0.03654885 </v>
   <v>      -0.02317262      -0.03031336      -0.00354937 </v>
   <v>       0.00851231       0.00052315       0.00664169 </v>
   <v>      -0.02206650      -0.00548100       0.01384775 </v>
   <v>       0.01213715      -0.00106168       0.00175262 </v>
   <v>       0.00216850       0.01692093      -0.03127902 </v>
   <v>       0.01936916       0.03619927       0.04005438 </v>
   <v>      -0.00925568      -0.00629760       0.02238608 </v>
   <v>       0.00187388      -0.01348455      -0.03402599 </v>
   <v>      -0.01522472       0.00977743       0.03472558 </v>
   <v>       0.00983902      -0.00425402       0.00580151 </v>
   <v>       0.02033466       0.00932211      -0.02946695 </v>
   <v>       0.02275548      -0.00679136      -0.03949062 </v>
   <v>       0.02661809       0.02802704       0.00733489 </v>
   <v>      -0.00221083      -0.00579454       0.02264670 </v>
   <v>       0.00949580       0.01155873      -0.01621507 </v>
   <v>       0.00221053       0.00127569       0.01754792 </v>
   <v>       0.00044176       0.01223002      -0.03534064 </v>
   <v>       0.02061394      -0.00285699      -0.03113094 </v>
   <v>      -0.02154870      -0.04435071      -0.02255421 </v>
   <v>       0.01808191       0.00289272       0.01181525 </v>
   <v>       0.00672970       0.04813761       0.02779002 </v>
   <v>      -0.02329382      -0.03045465       0.02772774 </v>
   <v>      -0.00826746       0.00297919       0.01483849 </v>
   <v>       0.01839894      -0.00770083       0.01056779 </v>
   <v>       0.01916488       0.02419312       0.00816983 </v>
   <v>       0.00071648      -0.00068113       0.01847066 </v>
   <v>      -0.01455072      -0.00255219      -0.04014429 </v>
   <v>       0.01068368       0.00481050       0.00558586 </v>
   <v>       0.02783744       0.00583489       0.03972736 </v>
   <v>      -0.00840450       0.00989426       0.03282117 </v>
   <v>       0.02102555      -0.01416771      -0.01895375 </v>
   <v>      -0.02766430      -0.01611694       0.02816034 </v>
   <v>       0.00499756       0.01527570       0.02160625 </v>
   <v>       0.01258257       0.01976702       0.02983827 </v>
   <v>      -0.02147892      -0.03261176      -0.00472190 </v>
   <v>      -0.00463665       0.01158994       0.00348402 </v>
   <v>       0.02595379       0.02765033       0.00307646 </v>
   <v>      -0.00633851      -0.02176036       0.03814906 </v>
   <v>      -0.02831826      -0.03271634      -0.00784902 </v>
   <v>       0.00212122       0.01093994      -0.02496425 </v>
   <v>       0.00009501      -0.00010688       0.00607807 </v>
   <v>       0.00614739       0.00207573       0.01388559 </v>
   <v>       0.04777196       0.02056679      -0.02741173 </v>
   <v>      -0.00419684      -0.01942614       0.01051559 </v>
   <v>       0.03078799       0.02353690       0.01200565 </v>
   <v>      -0.00414777       0.01217381      -0.01916704 </v>
   <v>       0.01289925      -0.01264578      -0.03615131 </v>
   <v>       0.01105244      -0.01361343      -0.03208483 </v>
   <v>      -0.01998479       0.00947607       0.03843040 </v>
   <v>       0.01703403      -0.01470131      -0.04365209 </v>
   <v>      -0.00605919      -0.00192387      -0.02623670 </v>
   <v>       0.05144072       0.02914961       0.04120918 </v>
   <v>       0.01145751       0.00556659       0.01354023 </v>
   <v>       0.00423153       0.01833978      -0.03726029 </v>
   <v>       0.02751854       0.01286118      -0.00579475 </v>
   <v>      -0.01547745      -0.00859130      -0.03739200 </v>
   <v>       0.01094866      -0.01398264      -0.04443435 </v>
   <v>      -0.00980133      -0.01847700       0.01019701 </v>
   <v>       0.01447079       0.01297724      -0.02847694 </v>
   <v>      -0.02197314      -0.00900342      -0.04193945 </v>
   <v>       0.02365581       0.01956467       0.00472766 </v>
   <v>      -0.02685976      -0.02149288      -0.02468609 </v>
   <v>      -0.00649514       0.00029478       0.02622003 </v>
   <v>      -0.00927956      -0.00294563       0.01983075 </v>
   <v>      -0.01171171      -0.00606739       0.02222510 </v>
   <v>      -0.00542147      -0.00372175       0.00920937 </v>
   <v>       0.04431312      -0.00784527      -0.02489896 </v>
   <v>      -0.01409928      -0.01646305       0.01198830 </v>
   <v>       0.00609489      -0.01173990      -0.03181288 </v>
   <v>      -0.01026721       0.00728560      -0.01375705 </v>
   <v>       0.01878035       0.01643007       0.01533397 </v>
   <v>      -0.01224144       0.00230949       0.02068646 </v>
   <v>       0.01200852       0.03617361       0.03325840 </v>
   <v>      -0.03354655       0.00594931      -0.00040087 </v>
   <v>       0.00986118       0.01543385      -0.03128089 </v>
   <v>      -0.00856130       0.00067563       0.02052515 </v>
   <v>       0.01722191      -0.01989255      -0.03451778 </v>
   <v>       0.00746398       0.01350260      -0.02517238 </v>
   <v>      -0.01485277      -0.03216785       0.03597285 </v>
   <v>       0.02457537       0.02095702       0.00840413 </v>
   <v>      -0.02531644      -0.03013887       0.00089363 </v>
   <v>       0.00131323       0.00100928       0.01975783 </v>
   <v>      -0.00277995       0.00425470       0.01837847 </v>
   <v>      -0.00087554       0.00492765       0.02108806 </v>
   <v>      -0.03596056      -0.03817236       0.00271886 </v>
   <v>       0.02499396       0.02327814       0.00736317 </v>
   <v>      -0.03059165      -0.00546753       0.01236326 </v>
   <v>      -0.00650634       0.02302456       0.01345868 </v>
   <v>       0.02399546       0.02527076       0.01548577 </v>
   <v>       0.02365677       0.01592141      -0.02902864 </v>
   <v>       0.01022896      -0.00327815       0.02014068 </v>
   <v>       0.01846940      -0.01401598      -0.01368670 </v>
   <v>      -0.01387767      -0.00146777       0.01690117 </v>
   <v>       0.00575495      -0.01157383       0.00548815 </v>
   <v>      -0.00339936      -0.01969736      -0.03886176 </v>
   <v>      -0.00601472      -0.00299252       0.02203660 </v>
   <v>       0.03642363      -0.01455916       0.01730823 </v>
   <v>       0.00280348       0.00804960       0.03309623 </v>
   <v>      -0.01941441      -0.01876922      -0.02331260 </v>
   <v>       0.01015982       0.00444510      -0.03229273 </v>
   <v>       0.03231992      -0.04519482      -0.00475507 </v>
   <v>       0.00643472      -0.01918577      -0.03652867 </v>
   <v>      -0.01179319      -0.00213455      -0.03762385 </v>
   <v>       0.01201879       0.00192384       0.00452996 </v>
   <v>      -0.00736725      -0.00806212      -0.03943843 </v>
   <v>       0.00251939       0.01369943       0.01251075 </v>
   <v>      -0.03019710      -0.01117143       0.01707195 </v>
   <v>      -0.00779362       0.00044879       0.02258774 </v>
   <v>      -0.01172690       0.01757133       0.02438540 </v>
   <v>       0.01822728       0.01275652      -0.00181778 </v>
   <v>      -0.03846827       0.00106367      -0.03716811 </v>
   <v>      -0.02025307      -0.02461345       0.01444129 </v>
   <v>       0.01208453       0.01249683       0.00292469 </v>
   <v>       0.02162788       0.02269246       0.02410787 </v>
   <v>       0.00927433       0.02948606       0.01149403 </v>
   <v>       0.02578108       0.01559203       0.00280280 </v>
   <v>      -0.01185061       0.00900644       0.01430777 </v>
   <v>      -0.00928004      -0.00360816       0.01537720 </v>
   <v>       0.02695566      -0.00644212       0.00072826 </v>
   <v>       0.00556589       0.00775380       0.00159781 </v>
   <v>       0.01602607       0.01716755      -0.02926950 </v>
   <v>       0.00446435      -0.01292431      -0.05117432 </v>
   <v>       0.01826992       0.02501910       0.03385334 </v>
   <v>      -0.00647908       0.05048915       0.01895884 </v>
   <v>      -0.00193714      -0.00245207       0.02674325 </v>
   <v>       0.01453059      -0.01217677      -0.02785998 </v>
   <v>      -0.01888130      -0.01765030      -0.02173322 </v>
   <v>       0.01210736       0.00291894       0.00125993 </v>
   <v>      -0.01210104      -0.01244826       0.00359741 </v>
   <v>       0.00803390       0.01050432       0.01585707 </v>
   <v>      -0.02353075       0.02682439       0.00077751 </v>
   <v>      -0.02355142      -0.01615038       0.02759834 </v>
   <v>      -0.00442808       0.00308411       0.02664933 </v>
   <v>      -0.00601428       0.00186235       0.01642694 </v>
   <v>       0.02045857       0.02090259       0.01452198 </v>
   <v>      -0.01293698      -0.00894547      -0.03965574 </v>
   <v>      -0.00413680       0.03375315       0.01306755 </v>
   <v>       0.01645791      -0.01400003      -0.03790030 </v>
   <v>      -0.00083704      -0.00541595      -0.01394397 </v>
  </varray>
  <varray name="stress" >
   <v>      -4.83340666      -0.16934164      -0.15406288 </v>
   <v>      -0.16934130      -1.91475917      -4.57433063 </v>
   <v>      -0.15406326      -4.57433008     -16.21080347 </v>
  </varray>
  <energy>
   <i name="e_fr_energy">  -2325.92141242 </i>
   <i name="e_wo_entrp">  -2323.15733047 </i>
   <i name="e_0_energy">     -5.52816389 </i>
  </energy>
  <time name="totalsc"> 2505.80 2505.76</time>
 </calculation>
 <calculation>
  <scstep>
   <time name="dav">  136.73  136.72</time>
   <time name="total">  142.37  142.37</time>
   <energy>
    <i name="alphaZ">  16277.55763135 </i>
    <i name="ewald"> 745957.31759628 </i>
    <i name="hartreedc">-933092.95728306 </i>
    <i name="XCdc">  -6674.07775651 </i>
    <i name="pawpsdc"> 201166.28888930 </i>
    <i name="pawaedc">-198722.29729333 </i>
    <i name="eentropy">     -5.52207811 </i>
    <i name="bandstr">   4270.60922885 </i>
    <i