unknown system                          
            1
     9.726678    0.000000    0.000000
     0.000000    8.423550    0.000000
     0.000000    0.000000   45.000000
   Fe   Mn
 273  15
Direct configuration=     1
   0.81231865  0.70139442  0.34496612
   0.31236235  0.70630825  0.56581204
   0.81213644  0.71108127  0.69968932
   0.56237620  0.19680118  0.21129457
   0.68747818  0.62649588  0.65488056
   0.56229333  0.70655250  0.56582741
   0.43812061  0.46769397  0.83362009
   0.56207569  0.52687877  0.12404225
   0.43712215  0.62087887  0.43428686
   0.56256971  0.69639585  0.21149539
   0.31220363  0.71086403  0.69969711
   0.06288315  0.53689105  0.38929478
   0.18723781  0.63068982  0.78854305
   0.81239746  0.88092982  0.78849515
   0.43779141  0.61676318  0.30028567
   0.56238826  0.70167711  0.34504760
   0.68788128  0.80098851  0.87573980
   0.31237391  0.70476347  0.47862028
   0.93820745  0.12269744  0.52176460
   0.31281908  0.36692322  0.30028940
   0.31348106  0.21763536  0.83358969
   0.81201926  0.35982861  0.16649189
   0.31279227  0.87144245  0.43460151
   0.68691107  0.61018253  0.16636993
   0.18716689  0.46101740  0.69976562
   0.06277684  0.55101313  0.87571879
   0.56251984  0.04633112  0.74411998
   0.68794737  0.11708945  0.30031351
   0.43751430  0.13109482  0.78852028
   0.18718633  0.78184568  0.25568861
   0.56222388  0.54145480  0.61075510
   0.93784448  0.78673051  0.38933617
   0.43710510  0.60958445  0.16626138
   0.56227621  0.03167082  0.25571699
   0.43726200  0.12263245  0.52173819
   0.18771165  0.79605455  0.74414823
   0.68735270  0.95421356  0.47864650
   0.56237081  0.37620357  0.65498118
   0.93763073  0.29611288  0.74415665
   0.93711678  0.13110861  0.78851714
   0.93761183  0.12135783  0.43433313
   0.43740182  0.12148245  0.43422142
   0.93786708  0.30103879  0.87580769
   0.81254127  0.36704091  0.30024388
   0.18738625  0.79172940  0.61065155
   0.68755451  0.79120392  0.61086813
   0.93704654  0.78168041  0.25575237
   0.81235610  0.87121711  0.43426794
   0.06281385  0.70680508  0.56585422
   0.06245239  0.54156983  0.61077092
   0.31294709  0.05084901  0.87581433
   0.06250856  0.70521869  0.47857968
   0.81249494  0.53692109  0.38935459
   0.31213831  0.88070303  0.78863848
   0.81248957  0.03642795  0.38931682
   0.06179189  0.36089117  0.16627020
   0.31277075  0.37198286  0.43447738
   0.68750356  0.28183212  0.25584669
   0.06228361  0.37282008  0.52161638
   0.81278697  0.70515911  0.47857911
   0.18767702  0.12150246  0.43420687
   0.18705311  0.96070812  0.69965703
   0.06281040  0.19673224  0.21135262
   0.18798877  0.80087260  0.87577735
   0.43760307  0.62623363  0.65500033
   0.68765441  0.79596048  0.74414485
   0.81286530  0.86692209  0.30018357
   0.31268603  0.87619068  0.65489586
   0.18842369  0.46715638  0.83352112
   0.93756288  0.45518357  0.47860657
   0.68837435  0.96708408  0.83357534
   0.56336180  0.21715805  0.83353364
   0.81244651  0.04598362  0.74412558
   0.43783541  0.45512861  0.47858315
   0.18755886  0.62629184  0.65500601
   0.68822001  0.46747372  0.83349461
   0.68810411  0.78676251  0.38932233
   0.56257935  0.87635164  0.65498739
   0.06226527  0.53217342  0.25585802
   0.06252445  0.86690009  0.30030089
   0.06215401  0.04157698  0.61075687
   0.18776232  0.29602046  0.74416104
   0.18738548  0.45676936  0.56590849
   0.68731569  0.95163020  0.34507124
   0.68816463  0.28647316  0.38928406
   0.81313096  0.21738580  0.83358740
   0.06219833  0.02655115  0.12420353
   0.56249666  0.70516099  0.47856879
   0.31232091  0.38100486  0.78857313
   0.93687470  0.77587715  0.12412476
   0.68762158  0.61689260  0.30032873
   0.56296997  0.05083449  0.87582641
   0.93761770  0.45672416  0.56583833
   0.56237360  0.20203307  0.34506614
   0.56179695  0.36008698  0.16618268
   0.06249489  0.54621294  0.74417100
   0.43719088  0.79572439  0.74413463
   0.18715606  0.12319572  0.52167714
   0.43725644  0.96089660  0.69969959
   0.68818349  0.30093374  0.87576461
   0.18747032  0.62092488  0.43436828
   0.81283848  0.20689690  0.56583424
   0.81298403  0.87289186  0.52171781
   0.68747517  0.95648116  0.56582865
   0.18728935  0.13089445  0.78851317
   0.93633607  0.27699637  0.12430755
   0.18824833  0.96719306  0.83354003
   0.68723284  0.45207962  0.34505977
   0.31230982  0.04157287  0.61069922
   0.43775458  0.30081658  0.87579200
   0.93734216  0.95536204  0.47855503
   0.93750413  0.94701690  0.21138844
   0.56238182  0.38119418  0.78863304
   0.68729771  0.63086348  0.78850415
   0.68783462  0.27769188  0.12423220
   0.56240086  0.87120016  0.43412369
   0.56245395  0.71102869  0.69969645
   0.81291041  0.19698459  0.21150065
   0.93716785  0.11024496  0.16647668
   0.56260792  0.54590399  0.74417566
   0.68747750  0.29137459  0.61072187
   0.56251002  0.21086000  0.69963425
   0.31230474  0.54143988  0.61074536
   0.81257900  0.70659997  0.56581284
   0.81228641  0.20198617  0.34508576
   0.93700628  0.28130726  0.25576982
   0.18737469  0.95500357  0.47863948
   0.06202115  0.52645439  0.12419302
   0.93732200  0.63089992  0.78853155
   0.68706368  0.46097211  0.69972058
   0.31258749  0.53162006  0.25577813
   0.93727757  0.79131352  0.61072189
   0.18768036  0.78654823  0.38929577
   0.18712165  0.11059612  0.16622209
   0.43707979  0.10961369  0.16622723
   0.31208196  0.19657072  0.21145769
   0.06198194  0.21085772  0.69965971
   0.93742137  0.95696445  0.56585664
   0.93727302  0.95153710  0.34498664
   0.06213065  0.38099312  0.78860568
   0.81293172  0.05089236  0.87581908
   0.18755635  0.27704517  0.12401219
   0.06249716  0.87613578  0.65495354
   0.93761054  0.62132498  0.43440835
   0.43744791  0.46072334  0.69969610
   0.06273206  0.69668009  0.21133481
   0.81223791  0.38100021  0.78851209
   0.31255036  0.53673472  0.38925467
   0.68764131  0.62097792  0.43436745
   0.31264924  0.86054615  0.16592773
   0.06250897  0.03640887  0.38927737
   0.43732227  0.78151599  0.25569926
   0.93741463  0.28650240  0.38942030
   0.93779545  0.12596122  0.65487301
   0.43783385  0.44719329  0.21138751
   0.31310283  0.55067431  0.87577609
   0.68755947  0.45644044  0.56580573
   0.81208990  0.03150014  0.25585585
   0.56289181  0.36688785  0.30035058
   0.31257077  0.37636625  0.65488322
   0.93775180  0.79624817  0.74417066
   0.31258290  0.69680873  0.21128379
   0.06229768  0.70158460  0.34506777
   0.43667966  0.27806724  0.12388304
   0.43742803  0.78686533  0.38923561
   0.06266422  0.37637084  0.65486638
   0.18657904  0.77629866  0.12408968
   0.56227718  0.86135009  0.16606839
   0.06253598  0.36689046  0.30031023
   0.68773059  0.44677377  0.21137505
   0.43777790  0.45203081  0.34499540
   0.81286250  0.02665071  0.12413141
   0.93763712  0.61675868  0.30025331
   0.43832132  0.96733136  0.83351186
   0.18744748  0.29152588  0.61075668
   0.81220898  0.21087840  0.69977853
   0.31251886  0.86734374  0.30020478
   0.81328563  0.20526839  0.47863443
   0.31257147  0.03141388  0.25579192
   0.43753443  0.45679136  0.56587679
   0.43754733  0.95154499  0.34503711
   0.93790523  0.11685973  0.30025829
   0.18759155  0.11714176  0.30029563
   0.06229102  0.88084818  0.78855352
   0.56268434  0.04160660  0.61069220
   0.56322073  0.71717015  0.83349009
   0.93661748  0.61091631  0.16642249
   0.43727208  0.63087874  0.78854435
   0.93760672  0.62632616  0.65496464
   0.43705907  0.29151842  0.61079403
   0.18772584  0.61709197  0.30031081
   0.18733168  0.62309383  0.52169778
   0.93699519  0.45174187  0.34507860
   0.93825039  0.96719446  0.83350781
   0.68869062  0.77623958  0.12408082
   0.31302023  0.54605813  0.74411390
   0.56253350  0.20684885  0.56589013
   0.56238005  0.20552084  0.47861785
   0.43731918  0.29625366  0.74420646
   0.06234822  0.20687584  0.56589662
   0.43809377  0.95524215  0.47868296
   0.43746234  0.11705303  0.30029509
   0.31266787  0.37340751  0.52159048
   0.93845842  0.46735093  0.83353436
   0.06190873  0.71104937  0.69975145
   0.31285953  0.04586128  0.74413726
   0.18707661  0.60998928  0.16633251
   0.81251144  0.87621433  0.65488644
   0.68719662  0.96096728  0.69975079
   0.31327282  0.71750931  0.83346863
   0.93772959  0.62277284  0.52166333
   0.06257394  0.37139346  0.43439681
   0.06297947  0.05089434  0.87580860
   0.18804682  0.30092933  0.87581722
   0.06237423  0.20172660  0.34495269
   0.06218580  0.87263717  0.52160238
   0.81110677  0.86054714  0.16620140
   0.43793144  0.95666682  0.56599369
   0.56238337  0.87249537  0.52172107
   0.68767045  0.94684902  0.21136029
   0.93792431  0.80071168  0.87580805
   0.68748868  0.45500819  0.47860997
   0.56254579  0.53174689  0.25576355
   0.81256911  0.37625433  0.65499725
   0.43797370  0.80073586  0.87576008
   0.68749359  0.62285402  0.52159459
   0.18756233  0.12625965  0.65497689
   0.06144771  0.86043001  0.16624913
   0.81342879  0.71711566  0.83349272
   0.56229112  0.88078730  0.78848205
   0.56209416  0.37146677  0.43428002
   0.43725872  0.79162699  0.61076785
   0.68755719  0.78159626  0.25576852
   0.68725429  0.13108401  0.78852839
   0.06327782  0.71721269  0.83359471
   0.31268116  0.70145385  0.34504033
   0.18732952  0.28187160  0.25574695
   0.18724968  0.94680389  0.21130606
   0.68753161  0.12613767  0.65489110
   0.31217074  0.52670247  0.12385816
   0.31232942  0.20648945  0.56558620
   0.81248592  0.54141360  0.61074081
   0.56274843  0.53653751  0.38934622
   0.68634350  0.10924202  0.16612314
   0.56290092  0.55105632  0.87576055
   0.18726672  0.45509343  0.47860654
   0.81223638  0.37165829  0.43424151
   0.81242768  0.37337524  0.52167180
   0.43623671  0.77672944  0.12405677
   0.56271166  0.37313932  0.52169380
   0.18732965  0.95655518  0.56587119
   0.93711694  0.46111537  0.69975155
   0.18757326  0.28638815  0.38941709
   0.93729046  0.96078175  0.69965913
   0.56286915  0.03638851  0.38930828
   0.31256387  0.20179113  0.34510776
   0.81300916  0.55091772  0.87580653
   0.81183205  0.53187749  0.25583949
   0.56261238  0.86699910  0.30024555
   0.43748759  0.62297122  0.52164001
   0.18746128  0.45181346  0.34513382
   0.81249679  0.52690796  0.12419094
   0.93772065  0.44689715  0.21142480
   0.81244551  0.69630454  0.21135659
   0.06324320  0.21737146  0.83354567
   0.81231465  0.04142409  0.61064267
   0.93746965  0.29166502  0.61075808
   0.31157582  0.02707604  0.12397431
   0.31251552  0.03639777  0.38945927
   0.43745805  0.12610518  0.65491866
   0.81238558  0.54612229  0.74417516
   0.18715278  0.44728895  0.21144294
   0.06220843  0.20528070  0.47851355
   0.68726801  0.12152028  0.43471947
   0.06296484  0.04596998  0.74415617
   0.31162629  0.36012106  0.16569658
   0.56214137  0.02631106  0.12422369
   0.31262572  0.87290947  0.52148553
   0.43805215  0.28599800  0.38936212
   0.43723214  0.28139721  0.25561583
   0.18719707  0.95146851  0.34505742
   0.06200435  0.87113309  0.43427997
   0.06247108  0.03133282  0.25559630
   0.43793892  0.94795603  0.21153905
   0.31177726  0.21056704  0.69985087
   0.31253897  0.20489884  0.47880957
   0.68784161  0.29651376  0.74422453
   0.68737269  0.12292901  0.52149316
Direct configuration=     2
   0.81234004  0.70140307  0.34497032
   0.31238009  0.70638886  0.56579523
   0.81214309  0.71108879  0.69968572
   0.56235554  0.19684000  0.21132221
   0.68748975  0.62648404  0.65488057
   0.56228864  0.70659615  0.56580399
   0.43807860  0.46758657  0.83359983
   0.56205832  0.52686157  0.12406257
   0.43713888  0.62085398  0.43429847
   0.56255321  0.69633744  0.21151338
   0.31223552  0.71089302  0.69969582
   0.06288287  0.53685090  0.38929826
   0.18726591  0.63071682  0.78853234
   0.81242288  0.88095499  0.78848660
   0.43775282  0.61674680  0.30028526
   0.56239986  0.70169951  0.34505132
   0.68789511  0.80094848  0.87571109
   0.31236819  0.70485884  0.47860510
   0.93819750  0.12265874  0.52176696
   0.31276144  0.36691266  0.30030010
   0.31345559  0.21754217  0.83357086
   0.81205386  0.35993919  0.16652803
   0.31279310  0.87141761  0.43461800
   0.68692720  0.61025738  0.16639825
   0.18719120  0.46103798  0.69976574
   0.06277397  0.55095095  0.87569356
   0.56253340  0.04634096  0.74410172
   0.68793494  0.11706561  0.30031482
   0.43754178  0.13111262  0.78851287
   0.18716093  0.78182733  0.25570613
   0.56223301  0.54145015  0.61076089
   0.93783369  0.78672571  0.38933764
   0.43711513  0.60967319  0.16628450
   0.56229210  0.03166765  0.25573361
   0.43726957  0.12262285  0.52174391
   0.18767601  0.79607841  0.74412851
   0.68735350  0.95428342  0.47863248
   0.56238458  0.37618216  0.65497890
   0.93763388  0.29612654  0.74413156
   0.93714785  0.13110547  0.78851168
   0.93764744  0.12133437  0.43434931
   0.43742263  0.12146009  0.43423264
   0.93787021  0.30096369  0.87577907
   0.81255450  0.36700648  0.30025082
   0.18740793  0.79174736  0.61065794
   0.68753734  0.79121633  0.61087635
   0.93707843  0.78167558  0.25576626
   0.81237127  0.87113116  0.43427929
   0.06280145  0.70687280  0.56583076
   0.06245505  0.54157008  0.61077957
   0.31295316  0.05080086  0.87578377
   0.06250175  0.70526503  0.47857194
   0.81247088  0.53688394  0.38935810
   0.31217173  0.88073644  0.78862713
   0.81250521  0.03641807  0.38931242
   0.06181489  0.36101793  0.16630921
   0.31277128  0.37191775  0.43449332
   0.68748887  0.28183456  0.25585634
   0.06228349  0.37278730  0.52162310
   0.81277949  0.70521675  0.47857096
   0.18764269  0.12145918  0.43422337
   0.18711799  0.96073293  0.69965528
   0.06279694  0.19676516  0.21138178
   0.18798668  0.80083975  0.87575089
   0.43760245  0.62623942  0.65500140
   0.68763359  0.79596908  0.74412134
   0.81282006  0.86690792  0.30018822
   0.31268437  0.87619653  0.65489725
   0.18838602  0.46706144  0.83350240
   0.93756480  0.45523650  0.47859798
   0.68834110  0.96703307  0.83355746
   0.56332825  0.21707839  0.83351674
   0.81242534  0.04600483  0.74410709
   0.43788155  0.45514805  0.47857355
   0.18755311  0.62629720  0.65500744
   0.68819331  0.46736159  0.83347512
   0.68811083  0.78673400  0.38933101
   0.56257137  0.87632615  0.65498659
   0.06230663  0.53214224  0.25586329
   0.06250883  0.86685815  0.30030159
   0.06214952  0.04159966  0.61076656
   0.18771789  0.29602571  0.74414412
   0.18738591  0.45679848  0.56588848
   0.68735444  0.95166051  0.34507290
   0.68812054  0.28648118  0.38928833
   0.81308866  0.21729549  0.83356977
   0.06216840  0.02653659  0.12421170
   0.56251171  0.70522085  0.47856037
   0.31234114  0.38101221  0.78856202
   0.93683565  0.77597608  0.12411903
   0.68764362  0.61688573  0.30033373
   0.56297397  0.05078807  0.87579406
   0.93758433  0.45675294  0.56581674
   0.56239326  0.20204705  0.34507164
   0.56179742  0.36019869  0.16620237
   0.06248659  0.54623363  0.74415262
   0.43718331  0.79573068  0.74411332
   0.18716383  0.12317352  0.52167787
   0.43724841  0.96092045  0.69969749
   0.68819241  0.30086177  0.87573565
   0.18743243  0.62088582  0.43438045
   0.81281539  0.20693089  0.56581977
   0.81297371  0.87281485  0.52172477
   0.68744107  0.95655684  0.56580510
   0.18733385  0.13091415  0.78850744
   0.93632184  0.27708788  0.12430787
   0.18821314  0.96716355  0.83352011
   0.68727380  0.45207371  0.34506520
   0.31233816  0.04160246  0.61070616
   0.43775496  0.30074026  0.87576215
   0.93734490  0.95541207  0.47854957
   0.93748384  0.94694771  0.21139738
   0.56238965  0.38118987  0.78862420
   0.68732338  0.63089714  0.78849225
   0.68779959  0.27778464  0.12423964
   0.56241373  0.87114663  0.43414120
   0.56247834  0.71103831  0.69969540
   0.81291338  0.19699484  0.21152102
   0.93717721  0.11030825  0.16650207
   0.56261563  0.54592839  0.74415279
   0.68747440  0.29137065  0.61072413
   0.56250035  0.21085634  0.69963158
   0.31233346  0.54143948  0.61075344
   0.81255910  0.70663390  0.56578716
   0.81231988  0.20197486  0.34509219
   0.93706114  0.28134051  0.25577684
   0.18739124  0.95505391  0.47862431
   0.06202822  0.52646157  0.12420169
   0.93736382  0.63092615  0.78852178
   0.68708989  0.46100947  0.69972090
   0.31261067  0.53158621  0.25578111
   0.93728041  0.79133676  0.61073168
   0.18766439  0.78651503  0.38928931
   0.18712132  0.11065047  0.16625472
   0.43706552  0.10966306  0.16624681
   0.31203938  0.19660902  0.21148689
   0.06202133  0.21087976  0.69966380
   0.93740733  0.95702221  0.56583500
   0.93731167  0.95154404  0.34499707
   0.06217491  0.38100790  0.78859466
   0.81294287  0.05084484  0.87578708
   0.18756167  0.27719552  0.12401766
   0.06247122  0.87614506  0.65495526
   0.93763069  0.62130535  0.43442261
   0.43744959  0.46073692  0.69969506
   0.06271119  0.69667593  0.21134903
   0.81227277  0.38101774  0.78850876
   0.31255738  0.53669469  0.38925597
   0.68765783  0.62097192  0.43438221
   0.31266928  0.86059417  0.16596795
   0.06250164  0.03638467  0.38927917
   0.43732962  0.78149286  0.25571046
   0.93740890  0.28649821  0.38941856
   0.93776718  0.12595878  0.65487503
   0.43782757  0.44716704  0.21142077
   0.31310933  0.55060919  0.87575335
   0.68754857  0.45648828  0.56578560
   0.81211587  0.03146586  0.25586459
   0.56286870  0.36685578  0.30036129
   0.31257434  0.37635557  0.65488651
   0.93777174  0.79626087  0.74415002
   0.31258889  0.69676561  0.21130148
   0.06233854  0.70161533  0.34507837
   0.43672096  0.27822315  0.12389797
   0.43740663  0.78683712  0.38923686
   0.06261529  0.37636520  0.65486579
   0.18659148  0.77642349  0.12409205
   0.56228979  0.86137504  0.16608984
   0.06253449  0.36687194  0.30031892
   0.68770606  0.44677038  0.21138995
   0.43775892  0.45199200  0.34500098
   0.81284168  0.02660401  0.12414934
   0.93763452  0.61673556  0.30025563
   0.43828393  0.96729064  0.83349191
   0.18746868  0.29151727  0.61076670
   0.81223474  0.21089850  0.69977256
   0.31251656  0.86734326  0.30020553
   0.81323441  0.20533283  0.47862601
   0.31257356  0.03139492  0.25580707
   0.43756908  0.45681950  0.56585951
   0.43752527  0.95154742  0.34504444
   0.93786638  0.11687105  0.30026691
   0.18759518  0.11716426  0.30030358
   0.06232400  0.88088917  0.78853858
   0.56270417  0.04162657  0.61069577
   0.56319239  0.71712033  0.83346916
   0.93665191  0.61099353  0.16645862
   0.43728786  0.63091270  0.78853431
   0.93755951  0.62631329  0.65496736
   0.43708345  0.29151629  0.61079901
   0.18768256  0.61706256  0.30031313
   0.18728698  0.62300156  0.52170091
   0.93702670  0.45173057  0.34507908
   0.93821719  0.96715588  0.83349213
   0.68868404  0.77638064  0.12409213
   0.31300747  0.54607905  0.74409480
   0.56253103  0.20687718  0.56587536
   0.56240784  0.20557909  0.47860564
   0.43732958  0.29627263  0.74418879
   0.06232055  0.20691370  0.56587826
   0.43807700  0.95526848  0.47867177
   0.43745981  0.11703437  0.30029301
   0.31267945  0.37333093  0.52160067
   0.93842267  0.46725186  0.83351755
   0.06191788  0.71106108  0.69974935
   0.31282903  0.04587322  0.74411479
   0.18710164  0.61008408  0.16635936
   0.81249658  0.87619004  0.65488803
   0.68719483  0.96096826  0.69974660
   0.31322968  0.71745428  0.83344476
   0.93774220  0.62273131  0.52167038
   0.06256188  0.37134181  0.43440868
   0.06297840  0.05084569  0.87577717
   0.18804888  0.30085929  0.87578871
   0.06240823  0.20173740  0.34495685
   0.06213949  0.87257659  0.52160595
   0.81113897  0.86059004  0.16623650
   0.43796566  0.95671117  0.56597416
   0.56239708  0.87244699  0.52173328
   0.68766496  0.94676815  0.21137619
   0.93792215  0.80067499  0.87577777
   0.68747503  0.45502643  0.47859890
   0.56249864  0.53171634  0.25575808
   0.81255553  0.37624918  0.65499926
   0.43798284  0.80070161  0.87573518
   0.68747131  0.62279324  0.52160541
   0.18753380  0.12624670  0.65497537
   0.06146819  0.86047003  0.16629222
   0.81340183  0.71705582  0.83347446
   0.56231022  0.88081782  0.78847278
   0.56209521  0.37140730  0.43430041
   0.43727542  0.79165954  0.61077478
   0.68758643  0.78158384  0.25577640
   0.68725886  0.13109876  0.78851871
   0.06323583  0.71714516  0.83357192
   0.31265343  0.70148245  0.34504833
   0.18733906  0.28191152  0.25575032
   0.18723878  0.94675046  0.21132186
   0.68753766  0.12614287  0.65489332
   0.31217672  0.52667537  0.12388243
   0.31237798  0.20650573  0.56557188
   0.81247431  0.54141366  0.61075225
   0.56273000  0.53648084  0.38935239
   0.68642336  0.10930045  0.16614176
   0.56290954  0.55100656  0.87573747
   0.18723323  0.45516606  0.47859519
   0.81226238  0.37159882  0.43425880
   0.81242341  0.37334119  0.52167854
   0.43627743  0.77687889  0.12407419
   0.56270618  0.37312263  0.52170085
   0.18733163  0.95659102  0.56585339
   0.93713857  0.46115355  0.69974752
   0.18758401  0.28637422  0.38941416
   0.93730472  0.96078900  0.69965359
   0.56283509  0.03641534  0.38930853
   0.31252541  0.20182798  0.34510769
   0.81301608  0.55087413  0.87578286
   0.81187345  0.53187222  0.25584830
   0.56261458  0.86699904  0.30025038
   0.43754695  0.62290135  0.52164943
   0.18747177  0.45177911  0.34513162
   0.81247694  0.52689805  0.12419445
   0.93769877  0.44689265  0.21143376
   0.81240672  0.69629992  0.21137035
   0.06320633  0.21726992  0.83352773
   0.81230375  0.04145262  0.61064910
   0.93746092  0.29166549  0.61076526
   0.31158237  0.02700857  0.12399471
   0.31250470  0.03638567  0.38946263
   0.43745831  0.12611082  0.65491920
   0.81235840  0.54614280  0.74415090
   0.18712763  0.44727070  0.21146678
   0.06220479  0.20528627  0.47850170
   0.68726290  0.12151371  0.43473497
   0.06294347  0.04597566  0.74413618
   0.31166425  0.36025600  0.16572445
   0.56215397  0.02628715  0.12425158
   0.31266358  0.87286421  0.52149177
   0.43804095  0.28599081  0.38936337
   0.43723831  0.28140468  0.25562304
   0.18719965  0.95146469  0.34506326
   0.06198983  0.87109708  0.43428966
   0.06247440  0.03131173  0.25560849
   0.43790190  0.94785226  0.21155820
   0.31180552  0.21057499  0.69984912
   0.31254775  0.20492775  0.47879601
   0.68782121  0.29652510  0.74420347
   0.68737228  0.12286845  0.52149768
Direct configuration=     3
   0.81240423  0.70142904  0.34498294
   0.31243331  0.70663066  0.56574480
   0.81216305  0.71111133  0.69967491
   0.56229357  0.19695644  0.21140514
   0.68752444  0.62644853  0.65488057
   0.56227458  0.70672710  0.56573375
   0.43795255  0.46726434  0.83353906
   0.56200621  0.52680996  0.12412353
   0.43718906  0.62077931  0.43433332
   0.56250371  0.69616220  0.21156736
   0.31233122  0.71097996  0.69969196
   0.06288202  0.53673043  0.38930868
   0.18735021  0.63079779  0.78850022
   0.81249915  0.88103050  0.78846092
   0.43763705  0.61669764  0.30028405
   0.56243467  0.70176672  0.34506250
   0.68793658  0.80082838  0.87562496
   0.31235102  0.70514494  0.47855956
   0.93816768  0.12254263  0.52177405
   0.31258854  0.36688100  0.30033219
   0.31337917  0.21726260  0.83351439
   0.81215765  0.36027095  0.16663643
   0.31279560  0.87134311  0.43466746
   0.68697559  0.61048191  0.16648322
   0.18726414  0.46109975  0.69976608
   0.06276535  0.55076441  0.87561786
   0.56257406  0.04637047  0.74404696
   0.68789765  0.11699411  0.30031874
   0.43762421  0.13116603  0.78849067
   0.18708476  0.78177228  0.25575868
   0.56226041  0.54143618  0.61077827
   0.93780133  0.78671132  0.38934205
   0.43714525  0.60993942  0.16635385
   0.56233976  0.03165814  0.25578349
   0.43729227  0.12259407  0.52176108
   0.18756912  0.79614997  0.74406936
   0.68735590  0.95449300  0.47859043
   0.56242590  0.37611792  0.65497207
   0.93764331  0.29616751  0.74405631
   0.93724106  0.13109605  0.78849528
   0.93775427  0.12126398  0.43439783
   0.43748508  0.12139302  0.43426630
   0.93787962  0.30073838  0.87569320
   0.81259419  0.36690317  0.30027163
   0.18747297  0.79180126  0.61067708
   0.68748581  0.79125353  0.61090101
   0.93717409  0.78166108  0.25580794
   0.81241677  0.87087330  0.43431334
   0.06276426  0.70707596  0.56576036
   0.06246305  0.54157080  0.61080552
   0.31297134  0.05065639  0.87569209
   0.06248132  0.70540403  0.47854873
   0.81239872  0.53677248  0.38936863
   0.31227198  0.88083667  0.78859309
   0.81255215  0.03638843  0.38929920
   0.06188390  0.36139820  0.16642622
   0.31277288  0.37172240  0.43454114
   0.68744478  0.28184189  0.25588528
   0.06228313  0.37268896  0.52164324
   0.81275705  0.70538967  0.47854651
   0.18753971  0.12132935  0.43427287
   0.18731261  0.96080737  0.69965002
   0.06275655  0.19686394  0.21146925
   0.18798040  0.80074123  0.87567149
   0.43760058  0.62625678  0.65500460
   0.68757115  0.79599487  0.74405081
   0.81268432  0.86686543  0.30020218
   0.31267938  0.87621408  0.65490141
   0.18827299  0.46677662  0.83344623
   0.93757057  0.45539530  0.47857218
   0.68824136  0.96688003  0.83350382
   0.56322758  0.21683942  0.83346605
   0.81236185  0.04606848  0.74405162
   0.43802000  0.45520637  0.47854475
   0.18753585  0.62631330  0.65501172
   0.68811322  0.46702518  0.83341665
   0.68813099  0.78664846  0.38935706
   0.56254744  0.87624967  0.65498422
   0.06243071  0.53204868  0.25587911
   0.06246195  0.86673234  0.30030368
   0.06213604  0.04166768  0.61079563
   0.18758460  0.29604145  0.74409334
   0.18738720  0.45688587  0.56582843
   0.68747070  0.95175145  0.34507786
   0.68798827  0.28650523  0.38930116
   0.81296176  0.21702457  0.83351685
   0.06207862  0.02649290  0.12423621
   0.56255687  0.70540041  0.47853511
   0.31240181  0.38103428  0.78852870
   0.93671848  0.77627289  0.12410186
   0.68770976  0.61686510  0.30034872
   0.56298594  0.05064881  0.87569703
   0.93748421  0.45683930  0.56575195
   0.56245224  0.20208901  0.34508816
   0.56179882  0.36053380  0.16626145
   0.06246169  0.54629570  0.74409746
   0.43716061  0.79574957  0.74404940
   0.18718713  0.12310691  0.52168007
   0.43722432  0.96099201  0.69969119
   0.68821916  0.30064586  0.87564879
   0.18731876  0.62076863  0.43441696
   0.81274611  0.20703289  0.56577636
   0.81294274  0.87258379  0.52174565
   0.68733878  0.95678387  0.56573447
   0.18746736  0.13097326  0.78849027
   0.93627915  0.27736241  0.12430882
   0.18810755  0.96707499  0.83346038
   0.68739666  0.45205598  0.34508148
   0.31242318  0.04169126  0.61072697
   0.43775609  0.30051130  0.87567258
   0.93735314  0.95556218  0.47853319
   0.93742298  0.94674017  0.21142421
   0.56241314  0.38117693  0.78859767
   0.68740037  0.63099811  0.78845655
   0.68769453  0.27806293  0.12426194
   0.56245233  0.87098603  0.43419372
   0.56255152  0.71106716  0.69969223
   0.81292227  0.19702559  0.21158212
   0.93720529  0.11049811  0.16657823
   0.56263873  0.54600158  0.74408417
   0.68746512  0.29135882  0.61073089
   0.56247134  0.21084534  0.69962357
   0.31241962  0.54143828  0.61077769
   0.81249941  0.70673569  0.56571013
   0.81242030  0.20194092  0.34511148
   0.93722575  0.28144024  0.25579788
   0.18744089  0.95520492  0.47857881
   0.06204942  0.52648309  0.12422768
   0.93748930  0.63100485  0.78849246
   0.68716849  0.46112155  0.69972187
   0.31268022  0.53148467  0.25579004
   0.93728896  0.79140650  0.61076106
   0.18761647  0.78641544  0.38926993
   0.18712033  0.11081351  0.16635262
   0.43702270  0.10981116  0.16630556
   0.31191165  0.19672394  0.21157450
   0.06213951  0.21094586  0.69967608
   0.93736521  0.95719549  0.56577011
   0.93742761  0.95156488  0.34502835
   0.06230770  0.38105224  0.78856162
   0.81297630  0.05070227  0.87569107
   0.18757761  0.27764659  0.12403406
   0.06239341  0.87617289  0.65496040
   0.93769111  0.62124647  0.43446538
   0.43745466  0.46077765  0.69969193
   0.06264859  0.69666346  0.21139171
   0.81237733  0.38107032  0.78849877
   0.31257847  0.53657460  0.38925989
   0.68770738  0.62095391  0.43442650
   0.31272941  0.86073824  0.16608861
   0.06247963  0.03631210  0.38928459
   0.43735166  0.78142348  0.25574404
   0.93739173  0.28648563  0.38941335
   0.93768236  0.12595148  0.65488111
   0.43780874  0.44708828  0.21152055
   0.31312880  0.55041382  0.87568514
   0.68751588  0.45663183  0.56572521
   0.81219380  0.03136301  0.25589081
   0.56279938  0.36675956  0.30039340
   0.31258504  0.37632352  0.65489637
   0.93783156  0.79629897  0.74408810
   0.31260688  0.69663623  0.21135456
   0.06246113  0.70170750  0.34511019
   0.43684484  0.27869088  0.12394278
   0.43734246  0.78675251  0.38924062
   0.06246851  0.37634831  0.65486404
   0.18662879  0.77679796  0.12409914
   0.56232761  0.86144990  0.16615422
   0.06253000  0.36681639  0.30034500
   0.68763244  0.44676021  0.21143467
   0.43770197  0.45187555  0.34501771
   0.81277920  0.02646391  0.12420314
   0.93762671  0.61666618  0.30026259
   0.43817178  0.96716848  0.83343207
   0.18753226  0.29149141  0.61079677
   0.81231202  0.21095879  0.69975465
   0.31250966  0.86734183  0.30020777
   0.81308074  0.20552616  0.47860077
   0.31257982  0.03133805  0.25585253
   0.43767301  0.45690393  0.56580768
   0.43745908  0.95155470  0.34506644
   0.93774985  0.11690502  0.30029275
   0.18760605  0.11723176  0.30032745
   0.06242293  0.88101215  0.78849377
   0.56276367  0.04168648  0.61070648
   0.56310736  0.71697090  0.83340637
   0.93675519  0.61122519  0.16656702
   0.43733519  0.63101461  0.78850418
   0.93741790  0.62627469  0.65497552
   0.43715659  0.29150991  0.61081397
   0.18755272  0.61697433  0.30032009
   0.18715288  0.62272472  0.52171030
   0.93712121  0.45169666  0.34508051
   0.93811758  0.96704014  0.83344508
   0.68866429  0.77680384  0.12412604
   0.31296920  0.54614183  0.74403751
   0.56252364  0.20696214  0.56583102
   0.56249120  0.20575381  0.47856902
   0.43736078  0.29632956  0.74413580
   0.06223754  0.20702728  0.56582316
   0.43802667  0.95534746  0.47863818
   0.43745224  0.11697838  0.30028678
   0.31271418  0.37310119  0.52163127
   0.93831541  0.46695466  0.83346714
   0.06194532  0.71109622  0.69974305
   0.31273750  0.04590904  0.74404736