 288 288   0   0
  0.1280206E+02  0.9726678E-09  0.8423550E-09  0.4500000E-08  0.2500000E-15
  1.000000000000000E-004
  CAR 
 unknown system                          
      6.82218960     -6.01991271  301      4.29620701      1.00000000
     -6.020  0.0000E+00  0.0000E+00
     -5.977  0.0000E+00  0.0000E+00
     -5.934  0.0000E+00  0.0000E+00
     -5.891  0.0000E+00  0.0000E+00
     -5.849  0.0000E+00  0.0000E+00
     -5.806  0.0000E+00  0.0000E+00
     -5.763  0.0000E+00  0.0000E+00
     -5.720  0.0000E+00  0.0000E+00
     -5.677  0.0000E+00  0.0000E+00
     -5.635  0.0000E+00  0.0000E+00
     -5.592  0.0000E+00  0.0000E+00
     -5.549  0.0000E+00  0.0000E+00
     -5.506  0.0000E+00  0.0000E+00
     -5.463  0.0000E+00  0.0000E+00
     -5.421  0.0000E+00  0.0000E+00
     -5.378  0.1621E-15  0.6939E-17
     -5.335  0.4312E-14  0.1915E-15
     -5.292  0.9259E-13  0.4155E-14
     -5.249  0.1691E-11  0.7652E-13
     -5.207  0.2629E-10  0.1202E-11
     -5.164  0.3483E-09  0.1611E-10
     -5.121  0.3930E-08  0.1844E-09
     -5.078  0.3781E-07  0.1803E-08
     -5.035  0.3102E-06  0.1508E-07
     -4.993  0.2173E-05  0.1081E-06
     -4.950  0.1301E-04  0.6649E-06
     -4.907  0.6668E-04  0.3519E-05
     -4.864  0.2934E-03  0.1608E-04
     -4.821  0.1112E-02  0.6367E-04
     -4.779  0.3646E-02  0.2198E-03
     -4.736  0.1041E-01  0.6654E-03
     -4.693  0.2609E-01  0.1782E-02
     -4.650  0.5798E-01  0.4264E-02
     -4.607  0.1155E+00  0.9208E-02
     -4.564  0.2085E+00  0.1813E-01
     -4.522  0.3448E+00  0.3289E-01
     -4.479  0.5265E+00  0.5543E-01
     -4.436  0.7471E+00  0.8741E-01
     -4.393  0.9898E+00  0.1298E+00
     -4.350  0.1230E+01  0.1824E+00
     -4.308  0.1442E+01  0.2442E+00
     -4.265  0.1604E+01  0.3128E+00
     -4.222  0.1711E+01  0.3861E+00
     -4.179  0.1775E+01  0.4621E+00
     -4.136  0.1827E+01  0.5403E+00
     -4.094  0.1906E+01  0.6219E+00
     -4.051  0.2044E+01  0.7094E+00
     -4.008  0.2253E+01  0.8058E+00
     -3.965  0.2514E+01  0.9134E+00
     -3.922  0.2786E+01  0.1033E+01
     -3.880  0.3015E+01  0.1162E+01
     -3.837  0.3155E+01  0.1297E+01
     -3.794  0.3190E+01  0.1433E+01
     -3.751  0.3141E+01  0.1568E+01
     -3.708  0.3062E+01  0.1699E+01
     -3.666  0.3015E+01  0.1828E+01
     -3.623  0.3051E+01  0.1958E+01
     -3.580  0.3189E+01  0.2095E+01
     -3.537  0.3406E+01  0.2241E+01
     -3.494  0.3651E+01  0.2397E+01
     -3.451  0.3869E+01  0.2563E+01
     -3.409  0.4021E+01  0.2735E+01
     -3.366  0.4102E+01  0.2910E+01
     -3.323  0.4131E+01  0.3087E+01
     -3.280  0.4137E+01  0.3264E+01
     -3.237  0.4155E+01  0.3442E+01
     -3.195  0.4208E+01  0.3622E+01
     -3.152  0.4310E+01  0.3807E+01
     -3.109  0.4458E+01  0.3998E+01
     -3.066  0.4642E+01  0.4196E+01
     -3.023  0.4841E+01  0.4404E+01
     -2.981  0.5028E+01  0.4619E+01
     -2.938  0.5178E+01  0.4840E+01
     -2.895  0.5281E+01  0.5067E+01
     -2.852  0.5343E+01  0.5295E+01
     -2.809  0.5391E+01  0.5526E+01
     -2.767  0.5455E+01  0.5760E+01
     -2.724  0.5551E+01  0.5997E+01
     -2.681  0.5659E+01  0.6239E+01
     -2.638  0.5720E+01  0.6484E+01
     -2.595  0.5681E+01  0.6728E+01
     -2.553  0.5546E+01  0.6965E+01
     -2.510  0.5401E+01  0.7196E+01
     -2.467  0.5387E+01  0.7427E+01
     -2.424  0.5619E+01  0.7667E+01
     -2.381  0.6110E+01  0.7929E+01
     -2.339  0.6742E+01  0.8217E+01
     -2.296  0.7311E+01  0.8530E+01
     -2.253  0.7623E+01  0.8857E+01
     -2.210  0.7593E+01  0.9182E+01
     -2.167  0.7299E+01  0.9494E+01
     -2.124  0.6943E+01  0.9791E+01
     -2.082  0.6754E+01  0.1008E+02
     -2.039  0.6876E+01  0.1037E+02
     -1.996  0.7300E+01  0.1069E+02
     -1.953  0.7886E+01  0.1102E+02
     -1.910  0.8434E+01  0.1139E+02
     -1.868  0.8786E+01  0.1176E+02
     -1.825  0.8886E+01  0.1214E+02
     -1.782  0.8806E+01  0.1252E+02
     -1.739  0.8688E+01  0.1289E+02
     -1.696  0.8661E+01  0.1326E+02
     -1.654  0.8775E+01  0.1364E+02
     -1.611  0.8999E+01  0.1402E+02
     -1.568  0.9272E+01  0.1442E+02
     -1.525  0.9554E+01  0.1483E+02
     -1.482  0.9832E+01  0.1525E+02
     -1.440  0.1010E+02  0.1568E+02
     -1.397  0.1032E+02  0.1612E+02
     -1.354  0.1046E+02  0.1657E+02
     -1.311  0.1054E+02  0.1702E+02
     -1.268  0.1071E+02  0.1748E+02
     -1.226  0.1118E+02  0.1796E+02
     -1.183  0.1207E+02  0.1848E+02
     -1.140  0.1327E+02  0.1904E+02
     -1.097  0.1447E+02  0.1966E+02
     -1.054  0.1530E+02  0.2032E+02
     -1.011  0.1561E+02  0.2099E+02
     -0.969  0.1554E+02  0.2165E+02
     -0.926  0.1551E+02  0.2232E+02
     -0.883  0.1593E+02  0.2300E+02
     -0.840  0.1697E+02  0.2372E+02
     -0.797  0.1859E+02  0.2452E+02
     -0.755  0.2068E+02  0.2541E+02
     -0.712  0.2327E+02  0.2640E+02
     -0.669  0.2656E+02  0.2754E+02
     -0.626  0.3071E+02  0.2885E+02
     -0.583  0.3553E+02  0.3037E+02
     -0.541  0.4049E+02  0.3211E+02
     -0.498  0.4488E+02  0.3403E+02
     -0.455  0.4830E+02  0.3610E+02
     -0.412  0.5078E+02  0.3827E+02
     -0.369  0.5264E+02  0.4052E+02
     -0.327  0.5419E+02  0.4284E+02
     -0.284  0.5550E+02  0.4522E+02
     -0.241  0.5647E+02  0.4764E+02
     -0.198  0.5699E+02  0.5008E+02
     -0.155  0.5709E+02  0.5252E+02
     -0.113  0.5695E+02  0.5496E+02
     -0.070  0.5686E+02  0.5739E+02
     -0.027  0.5711E+02  0.5984E+02
      0.016  0.5792E+02  0.6232E+02
      0.059  0.5945E+02  0.6486E+02
      0.101  0.6172E+02  0.6750E+02
      0.144  0.6466E+02  0.7027E+02
      0.187  0.6811E+02  0.7319E+02
      0.230  0.7184E+02  0.7626E+02
      0.273  0.7558E+02  0.7950E+02
      0.316  0.7901E+02  0.8288E+02
      0.358  0.8187E+02  0.8638E+02
      0.401  0.8404E+02  0.8998E+02
      0.444  0.8560E+02  0.9365E+02
      0.487  0.8664E+02  0.9735E+02
      0.530  0.8722E+02  0.1011E+03
      0.572  0.8732E+02  0.1048E+03
      0.615  0.8694E+02  0.1085E+03
      0.658  0.8617E+02  0.1122E+03
      0.701  0.8505E+02  0.1159E+03
      0.744  0.8359E+02  0.1195E+03
      0.786  0.8176E+02  0.1230E+03
      0.829  0.7972E+02  0.1264E+03
      0.872  0.7779E+02  0.1297E+03
      0.915  0.7638E+02  0.1330E+03
      0.958  0.7574E+02  0.1362E+03
      1.000  0.7578E+02  0.1395E+03
      1.043  0.7613E+02  0.1427E+03
      1.086  0.7634E+02  0.1460E+03
      1.129  0.7614E+02  0.1492E+03
      1.172  0.7553E+02  0.1525E+03
      1.214  0.7469E+02  0.1557E+03
      1.257  0.7385E+02  0.1588E+03
      1.300  0.7313E+02  0.1620E+03
      1.343  0.7246E+02  0.1651E+03
      1.386  0.7164E+02  0.1681E+03
      1.429  0.7047E+02  0.1711E+03
      1.471  0.6890E+02  0.1741E+03
      1.514  0.6723E+02  0.1770E+03
      1.557  0.6601E+02  0.1798E+03
      1.600  0.6581E+02  0.1826E+03
      1.643  0.6692E+02  0.1855E+03
      1.685  0.6919E+02  0.1884E+03
      1.728  0.7217E+02  0.1915E+03
      1.771  0.7537E+02  0.1948E+03
      1.814  0.7847E+02  0.1981E+03
      1.857  0.8134E+02  0.2016E+03
      1.899  0.8393E+02  0.2052E+03
      1.942  0.8623E+02  0.2089E+03
      1.985  0.8826E+02  0.2127E+03
      2.028  0.9010E+02  0.2165E+03
      2.071  0.9177E+02  0.2204E+03
      2.113  0.9319E+02  0.2244E+03
      2.156  0.9434E+02  0.2285E+03
      2.199  0.9537E+02  0.2326E+03
      2.242  0.9662E+02  0.2367E+03
      2.285  0.9856E+02  0.2409E+03
      2.327  0.1015E+03  0.2453E+03
      2.370  0.1054E+03  0.2498E+03
      2.413  0.1098E+03  0.2545E+03
      2.456  0.1142E+03  0.2594E+03
      2.499  0.1181E+03  0.2644E+03
      2.541  0.1211E+03  0.2696E+03
      2.584  0.1235E+03  0.2749E+03
      2.627  0.1255E+03  0.2803E+03
      2.670  0.1273E+03  0.2857E+03
      2.713  0.1293E+03  0.2912E+03
      2.756  0.1315E+03  0.2969E+03
      2.798  0.1341E+03  0.3026E+03
      2.841  0.1370E+03  0.3085E+03
      2.884  0.1399E+03  0.3145E+03
      2.927  0.1419E+03  0.3205E+03
      2.970  0.1420E+03  0.3266E+03
      3.012  0.1395E+03  0.3326E+03
      3.055  0.1342E+03  0.3383E+03
      3.098  0.1265E+03  0.3437E+03
      3.141  0.1176E+03  0.3488E+03
      3.184  0.1087E+03  0.3534E+03
      3.226  0.1008E+03  0.3577E+03
      3.269  0.9456E+02  0.3618E+03
      3.312  0.9017E+02  0.3657E+03
      3.355  0.8734E+02  0.3694E+03
      3.398  0.8565E+02  0.3731E+03
      3.440  0.8470E+02  0.3767E+03
      3.483  0.8411E+02  0.3803E+03
      3.526  0.8355E+02  0.3839E+03
      3.569  0.8291E+02  0.3874E+03
      3.612  0.8239E+02  0.3909E+03
      3.654  0.8246E+02  0.3945E+03
      3.697  0.8369E+02  0.3981E+03
      3.740  0.8633E+02  0.4017E+03
      3.783  0.9019E+02  0.4056E+03
      3.826  0.9468E+02  0.4097E+03
      3.869  0.9909E+02  0.4139E+03
      3.911  0.1029E+03  0.4183E+03
      3.954  0.1059E+03  0.4228E+03
      3.997  0.1079E+03  0.4275E+03
      4.040  0.1089E+03  0.4321E+03
      4.083  0.1089E+03  0.4368E+03
      4.125  0.1083E+03  0.4414E+03
      4.168  0.1072E+03  0.4460E+03
      4.211  0.1059E+03  0.4505E+03
      4.254  0.1046E+03  0.4550E+03
      4.297  0.1034E+03  0.4594E+03
      4.339  0.1024E+03  0.4638E+03
      4.382  0.1018E+03  0.4682E+03
      4.425  0.1014E+03  0.4725E+03
      4.468  0.1010E+03  0.4768E+03
      4.511  0.1004E+03  0.4811E+03
      4.553  0.9926E+02  0.4854E+03
      4.596  0.9798E+02  0.4896E+03
      4.639  0.9706E+02  0.4937E+03
      4.682  0.9701E+02  0.4979E+03
      4.725  0.9806E+02  0.5021E+03
      4.767  0.1001E+03  0.5064E+03
      4.810  0.1028E+03  0.5108E+03
      4.853  0.1055E+03  0.5153E+03
      4.896  0.1076E+03  0.5199E+03
      4.939  0.1089E+03  0.5246E+03
      4.981  0.1088E+03  0.5292E+03
      5.024  0.1070E+03  0.5338E+03
      5.067  0.1027E+03  0.5382E+03
      5.110  0.9493E+02  0.5423E+03
      5.153  0.8334E+02  0.5458E+03
      5.196  0.6838E+02  0.5487E+03
      5.238  0.5169E+02  0.5510E+03
      5.281  0.3558E+02  0.5525E+03
      5.324  0.2210E+02  0.5534E+03
      5.367  0.1229E+02  0.5540E+03
      5.410  0.6100E+01  0.5542E+03
      5.452  0.2689E+01  0.5543E+03
      5.495  0.1051E+01  0.5544E+03
      5.538  0.3641E+00  0.5544E+03
      5.581  0.1116E+00  0.5544E+03
      5.624  0.3026E-01  0.5544E+03
      5.666  0.7255E-02  0.5544E+03
      5.709  0.1537E-02  0.5544E+03
      5.752  0.2871E-03  0.5544E+03
      5.795  0.4717E-04  0.5544E+03
      5.838  0.6795E-05  0.5544E+03
      5.880  0.8552E-06  0.5544E+03
      5.923  0.9368E-07  0.5544E+03
      5.966  0.8899E-08  0.5544E+03
      6.009  0.7307E-09  0.5544E+03
      6.052  0.5171E-10  0.5544E+03
      6.094  0.3145E-11  0.5544E+03
      6.137  0.1635E-12  0.5544E+03
      6.180  0.7003E-14  0.5544E+03
      6.223  0.1945E-15  0.5544E+03
      6.266  0.0000E+00  0.5544E+03
      6.309  0.0000E+00  0.5544E+03
      6.351  0.0000E+00  0.5544E+03
      6.394  0.0000E+00  0.5544E+03
      6.437  0.0000E+00  0.5544E+03
      6.480  0.0000E+00  0.5544E+03
      6.523  0.0000E+00  0.5544E+03
      6.565  0.0000E+00  0.5544E+03
      6.608  0.0000E+00  0.5544E+03
      6.651  0.0000E+00  0.5544E+03
      6.694  0.0000E+00  0.5544E+03
      6.737  0.0000E+00  0.5544E+03
      6.779  0.0000E+00  0.5544E+03
      6.822  0.0000E+00  0.5544E+03
