 running on  448 total cores
 distrk:  each k-point on  112 cores,    4 groups
 distr:  one band on    8 cores,   14 groups
 using from now: INCAR     
 vasp.5.4.4.18Apr17-6-g9f103f2a35 (build Sep 27 2018 12:46:37) complex + VL-xray
 _
 POSCAR found type information on POSCAR  Fe Mn
 POSCAR found :  2 types and     288 ions
 scaLAPACK will be used

 ----------------------------------------------------------------------------- 
|                                                                             |
|           W    W    AA    RRRRR   N    N  II  N    N   GGGG   !!!           |
|           W    W   A  A   R    R  NN   N  II  NN   N  G    G  !!!           |
|           W    W  A    A  R    R  N N  N  II  N N  N  G       !!!           |
|           W WW W  AAAAAA  RRRRR   N  N N  II  N  N N  G  GGG   !            |
|           WW  WW  A    A  R   R   N   NN  II  N   NN  G    G                |
|           W    W  A    A  R    R  N    N  II  N    N   GGGG   !!!           |
|                                                                             |
|      For optimal performance we recommend to set                            |
|        NCORE= 4 - approx SQRT( number of cores)                             |
|      NCORE specifies how many cores store one orbital (NPAR=cpu/NCORE).     |
|      This setting can  greatly improve the performance of VASP for DFT.     |
|      The default,   NCORE=1            might be grossly inefficient         |
|      on modern multi-core architectures or massively parallel machines.     |
|      Do your own testing !!!!                                               |
|      Unfortunately you need to use the default for GW and RPA calculations. |
|      (for HF NCORE is supported but not extensively tested yet)             |
|                                                                             |
 ----------------------------------------------------------------------------- 


 ----------------------------------------------------------------------------- 
|                                                                             |
|           W    W    AA    RRRRR   N    N  II  N    N   GGGG   !!!           |
|           W    W   A  A   R    R  NN   N  II  NN   N  G    G  !!!           |
|           W    W  A    A  R    R  N N  N  II  N N  N  G       !!!           |
|           W WW W  AAAAAA  RRRRR   N  N N  II  N  N N  G  GGG   !            |
|           WW  WW  A    A  R   R   N   NN  II  N   NN  G    G                |
|           W    W  A    A  R    R  N    N  II  N    N   GGGG   !!!           |
|                                                                             |
|      You have enabled k-point parallelism (KPAR>1).                         |
|      This developmental code was originally  written by Paul Kent at ORNL,  |
|      and carefully double checked in Vienna.                                |
|      GW as well as linear response parallelism added by Martijn Marsman     |
|      and Georg Kresse.                                                      |
|      Carefully verify results versus KPAR=1.                                |
|      Report problems to Paul Kent and Vienna.                               |
|                                                                             |
 ----------------------------------------------------------------------------- 

 LDA part: xc-table for Pade appr. of Perdew
 POSCAR found type information on POSCAR  Fe Mn
 POSCAR found :  2 types and     288 ions
 POSCAR, INCAR and KPOINTS ok, starting setup
 FFT: planning ...
 WAVECAR not read
 WARNING: random wavefunctions but no delay for mixing, default for NELMDL
 entering main loop
       N       E                     dE             d eps       ncg     rms          rms(c)
DAV:   1     0.292172663256E+05    0.29217E+05   -0.86582E+05 27930   0.197E+03
DAV:   2     0.119356051658E+04   -0.28024E+05   -0.27412E+05 27720   0.604E+02
DAV:   3    -0.194000988756E+04   -0.31336E+04   -0.27231E+04 39102   0.279E+02
DAV:   4    -0.260664278614E+04   -0.66663E+03   -0.60651E+03 50876   0.976E+01
DAV:   5    -0.272686012159E+04   -0.12022E+03   -0.11233E+03 48314   0.398E+01    0.203E+02
RMM:   6    -0.521467185528E+04   -0.24878E+04   -0.10448E+04 48041   0.234E+02    0.591E+02
RMM:   7    -0.350275999107E+04    0.17119E+04   -0.37599E+03 30175   0.120E+02    0.352E+02
RMM:   8    -0.722849484537E+04   -0.37257E+04   -0.77893E+03 43190   0.234E+02    0.610E+02
RMM:   9    -0.597442519077E+04    0.12541E+04   -0.50615E+03 50035   0.112E+02    0.510E+02
RMM:  10    -0.998937019470E+04   -0.40149E+04   -0.14729E+04 46898   0.249E+02    0.882E+02
RMM:  11    -0.140454225561E+05   -0.40561E+04   -0.17547E+04 49693   0.175E+02    0.850E+02
RMM:  12    -0.155494160826E+05   -0.15040E+04   -0.13040E+04 48315   0.183E+02    0.103E+03
RMM:  13    -0.196907331908E+05   -0.41413E+04   -0.17168E+04 48884   0.186E+02    0.112E+03
RMM:  14    -0.247601540885E+05   -0.50694E+04   -0.20232E+04 48813   0.216E+02    0.129E+03
RMM:  15    -0.277051452933E+05   -0.29450E+04   -0.21953E+04 47082   0.202E+02    0.156E+03
RMM:  16    -0.177009255571E+05    0.10004E+05   -0.10644E+04 41037   0.159E+02    0.148E+03
RMM:  17    -0.736630910216E+04    0.10335E+05   -0.55678E+03 38981   0.109E+02    0.723E+02
RMM:  18    -0.507921723473E+04    0.22871E+04   -0.19500E+03 28870   0.810E+01    0.544E+02
RMM:  19    -0.195185077670E+04    0.31274E+04   -0.56394E+03 49626   0.807E+01    0.345E+02
RMM:  20    -0.176027985798E+04    0.19157E+03   -0.39898E+03 50580   0.821E+01    0.305E+02
RMM:  21    -0.193803528385E+04   -0.17776E+03   -0.29304E+03 50550   0.685E+01    0.270E+02
RMM:  22    -0.170919343530E+04    0.22884E+03   -0.44920E+03 50102   0.774E+01    0.245E+02
RMM:  23    -0.206105667982E+04   -0.35186E+03   -0.21895E+03 48677   0.827E+01    0.234E+02
RMM:  24    -0.222771903622E+04   -0.16666E+03   -0.11813E+03 46090   0.593E+01    0.176E+02
RMM:  25    -0.238045619453E+04   -0.15274E+03   -0.15367E+03 50572   0.426E+01    0.211E+02
RMM:  26    -0.247128804911E+04   -0.90832E+02   -0.88941E+02 46159   0.463E+01    0.186E+02
RMM:  27    -0.253065884215E+04   -0.59371E+02   -0.11723E+03 49040   0.321E+01    0.180E+02
RMM:  28    -0.252996617638E+04    0.69267E+00   -0.12076E+03 45399   0.311E+01    0.178E+02
RMM:  29    -0.250731464036E+04    0.22652E+02   -0.97848E+02 46140   0.222E+01    0.162E+02
RMM:  30    -0.238669293710E+04    0.12062E+03   -0.59564E+02 36673   0.279E+01    0.173E+02
RMM:  31    -0.236922124022E+04    0.17472E+02   -0.97730E+02 43210   0.261E+01    0.162E+02
RMM:  32    -0.246231382734E+04   -0.93093E+02   -0.57409E+02 43384   0.188E+01    0.186E+02
RMM:  33    -0.251643287843E+04   -0.54119E+02   -0.32326E+02 41996   0.127E+01    0.194E+02
RMM:  34    -0.251437054582E+04    0.20623E+01   -0.23629E+02 45803   0.752E+00    0.187E+02
RMM:  35    -0.248482261058E+04    0.29548E+02   -0.11611E+02 35146   0.703E+00    0.174E+02
RMM:  36    -0.242335981739E+04    0.61463E+02   -0.87654E+01 34277   0.847E+00    0.140E+02
RMM:  37    -0.240576306232E+04    0.17597E+02   -0.81154E+01 41356   0.617E+00    0.128E+02
RMM:  38    -0.238433796913E+04    0.21425E+02   -0.33476E+01 38679   0.463E+00    0.115E+02
RMM:  39    -0.236613798369E+04    0.18200E+02   -0.16509E+01 32970   0.522E+00    0.103E+02
RMM:  40    -0.234912648165E+04    0.17012E+02   -0.33014E+01 33482   0.757E+00    0.866E+01
RMM:  41    -0.235496979083E+04   -0.58433E+01   -0.37214E+01 36649   0.653E+00    0.825E+01
RMM:  42    -0.235780434558E+04   -0.28346E+01   -0.28086E+01 42128   0.435E+00    0.820E+01
RMM:  43    -0.235490269419E+04    0.29017E+01   -0.10400E+01 40288   0.245E+00    0.779E+01
RMM:  44    -0.235339959625E+04    0.15031E+01   -0.57650E+00 44937   0.124E+00    0.758E+01
RMM:  45    -0.235131474829E+04    0.20848E+01   -0.19641E+00 30304   0.240E+00    0.738E+01
RMM:  46    -0.234498149249E+04    0.63333E+01   -0.31980E+00 35947   0.212E+00    0.677E+01
RMM:  47    -0.233529203533E+04    0.96895E+01   -0.31070E+00 32262   0.251E+00    0.574E+01
RMM:  48    -0.233114523318E+04    0.41468E+01   -0.34041E+00 30239   0.323E+00    0.520E+01
RMM:  49    -0.232901385010E+04    0.21314E+01   -0.23193E+00 32126   0.233E+00    0.485E+01
RMM:  50    -0.233117704643E+04   -0.21632E+01   -0.38970E+00 31456   0.305E+00    0.520E+01
RMM:  51    -0.238420738155E+04   -0.53030E+02   -0.39911E+01 31577   0.989E+00    0.106E+02
RMM:  52    -0.233953571916E+04    0.44672E+02   -0.16448E+01 36061   0.539E+00    0.657E+01
RMM:  53    -0.234192892869E+04   -0.23932E+01   -0.72859E+00 29975   0.475E+00    0.687E+01
RMM:  54    -0.233406597219E+04    0.78630E+01   -0.59643E+00 34478   0.329E+00    0.587E+01
RMM:  55    -0.233705300056E+04   -0.29870E+01   -0.39910E+00 39555   0.193E+00    0.634E+01
RMM:  56    -0.236467589846E+04   -0.27623E+02   -0.11632E+01 32847   0.450E+00    0.946E+01
RMM:  57    -0.235533291125E+04    0.93430E+01   -0.47039E+00 29961   0.402E+00    0.866E+01
RMM:  58    -0.234649289743E+04    0.88400E+01   -0.42586E+00 40534   0.190E+00    0.779E+01
RMM:  59    -0.234294730421E+04    0.35456E+01   -0.10679E+00 31307   0.154E+00    0.740E+01
RMM:  60    -0.234139130159E+04    0.15560E+01   -0.13644E+00 30131   0.205E+00    0.726E+01
RMM:  61    -0.233022939638E+04    0.11162E+02   -0.14529E+01 28931   0.759E+00    0.614E+01
RMM:  62    -0.233012731482E+04    0.10208E+00   -0.99216E+00 28050   0.668E+00    0.579E+01
RMM:  63    -0.234745112588E+04   -0.17324E+02   -0.84724E+00 27761   0.637E+00    0.766E+01
RMM:  64    -0.236179866838E+04   -0.14348E+02   -0.46904E+00 28670   0.444E+00    0.898E+01
RMM:  65    -0.237494604191E+04   -0.13147E+02   -0.55607E+00 39437   0.230E+00    0.101E+02
RMM:  66    -0.241147115244E+04   -0.36525E+02   -0.98212E+01 30074   0.170E+01    0.118E+02
RMM:  67    -0.238596247512E+04    0.25509E+02   -0.44069E+01 29087   0.124E+01    0.104E+02
RMM:  68    -0.239033225443E+04   -0.43698E+01   -0.44806E+01 31278   0.101E+01    0.106E+02
RMM:  69    -0.238747549171E+04    0.28568E+01   -0.24636E+01 31723   0.751E+00    0.107E+02
RMM:  70    -0.238633271903E+04    0.11428E+01   -0.15388E+01 31029   0.618E+00    0.106E+02
RMM:  71    -0.235541733223E+04    0.30915E+02   -0.35070E+01 31136   0.873E+00    0.807E+01
RMM:  72    -0.234297031352E+04    0.12447E+02   -0.13902E+01 28463   0.754E+00    0.667E+01
RMM:  73    -0.234442393570E+04   -0.14536E+01   -0.90630E+00 28835   0.601E+00    0.695E+01
RMM:  74    -0.233833625946E+04    0.60877E+01   -0.81617E+00 29385   0.526E+00    0.627E+01
RMM:  75    -0.233260654501E+04    0.57297E+01   -0.63837E+00 28967   0.503E+00    0.543E+01
RMM:  76    -0.234336794466E+04   -0.10761E+02   -0.43323E+01 30903   0.102E+01    0.688E+01
RMM:  77    -0.233199903998E+04    0.11369E+02   -0.15992E+01 29966   0.705E+00    0.548E+01
RMM:  78    -0.232222578350E+04    0.97733E+01   -0.77090E+00 29363   0.525E+00    0.375E+01
RMM:  79    -0.232258331734E+04   -0.35753E+00   -0.49480E+00 29623   0.421E+00    0.390E+01
RMM:  80    -0.232132138283E+04    0.12619E+01   -0.71742E+00 31263   0.420E+00    0.358E+01
RMM:  81    -0.232125777217E+04    0.63611E-01   -0.11587E+01 30648   0.557E+00    0.352E+01
RMM:  82    -0.231766936884E+04    0.35884E+01   -0.53492E+00 28839   0.469E+00    0.232E+01
RMM:  83    -0.231680078189E+04    0.86859E+00   -0.53544E+00 38422   0.230E+00    0.184E+01
RMM:  84    -0.231621685077E+04    0.58393E+00   -0.16112E+00 30473   0.212E+00    0.158E+01
RMM:  85    -0.231627752470E+04   -0.60674E-01   -0.11973E+00 31151   0.178E+00    0.158E+01
RMM:  86    -0.231934061875E+04   -0.30631E+01   -0.60127E+00 28001   0.495E+00    0.277E+01
RMM:  87    -0.231616572748E+04    0.31749E+01   -0.21614E+00 27723   0.404E+00    0.146E+01
RMM:  88    -0.231600482800E+04    0.16090E+00   -0.56870E-01 28386   0.158E+00    0.136E+01
RMM:  89    -0.231619738925E+04   -0.19256E+00   -0.44506E-01 28433   0.137E+00    0.145E+01
RMM:  90    -0.231589233299E+04    0.30506E+00   -0.43400E-01 28396   0.141E+00    0.123E+01
RMM:  91    -0.231559789280E+04    0.29444E+00   -0.84295E-01 29928   0.162E+00    0.973E+00
RMM:  92    -0.231563039213E+04   -0.32499E-01   -0.60545E-01 31155   0.122E+00    0.102E+01
RMM:  93    -0.231560998819E+04    0.20404E-01   -0.56530E-01 37068   0.710E-01    0.963E+00
RMM:  94    -0.231547979141E+04    0.13020E+00   -0.19244E-01 34690   0.540E-01    0.811E+00
RMM:  95    -0.231538649434E+04    0.93297E-01   -0.71323E-02 31130   0.420E-01    0.677E+00
RMM:  96    -0.231559274241E+04   -0.20625E+00   -0.36418E-01 28563   0.120E+00    0.906E+00
RMM:  97    -0.231542795572E+04    0.16479E+00   -0.16910E-01 27771   0.107E+00    0.685E+00
RMM:  98    -0.231536565563E+04    0.62300E-01   -0.12104E-01 28479   0.716E-01    0.605E+00
RMM:  99    -0.231532914597E+04    0.36510E-01   -0.93731E-02 30380   0.511E-01    0.550E+00
RMM: 100    -0.231533720689E+04   -0.80609E-02   -0.11710E-01 30609   0.558E-01    0.556E+00
RMM: 101    -0.231680315517E+04   -0.14659E+01   -0.92367E-01 29505   0.171E+00    0.179E+01
RMM: 102    -0.231546251288E+04    0.13406E+01   -0.45208E-01 27724   0.157E+00    0.695E+00
RMM: 103    -0.231535547633E+04    0.10704E+00   -0.26746E-01 28369   0.105E+00    0.565E+00
RMM: 104    -0.231530824427E+04    0.47232E-01   -0.12289E-01 28740   0.682E-01    0.492E+00
RMM: 105    -0.231529496883E+04    0.13275E-01   -0.94199E-02 29619   0.561E-01    0.464E+00
RMM: 106    -0.231549912317E+04   -0.20415E+00   -0.42041E-01 28410   0.128E+00    0.763E+00
RMM: 107    -0.231526704170E+04    0.23208E+00   -0.14092E-01 27750   0.102E+00    0.401E+00
RMM: 108    -0.231523525322E+04    0.31788E-01   -0.44079E-02 29809   0.383E-01    0.327E+00
RMM: 109    -0.231519548228E+04    0.39771E-01   -0.42505E-02 32831   0.298E-01    0.160E+00
RMM: 110    -0.231518645566E+04    0.90266E-02   -0.17232E-02 29048   0.251E-01    0.104E+00
RMM: 111    -0.231525011240E+04   -0.63657E-01   -0.69865E-02 29789   0.467E-01    0.355E+00
RMM: 112    -0.231519535858E+04    0.54754E-01   -0.29918E-02 27729   0.435E-01    0.150E+00
RMM: 113    -0.231518603029E+04    0.93283E-02   -0.12820E-02 29385   0.216E-01    0.773E-01
RMM: 114    -0.231518541909E+04    0.61121E-03   -0.92052E-03 31234   0.150E-01    0.687E-01
RMM: 115    -0.231518440366E+04    0.10154E-02   -0.49217E-03 30438   0.119E-01    0.499E-01
RMM: 116    -0.231518717178E+04   -0.27681E-02   -0.67755E-03 28530   0.164E-01    0.853E-01
RMM: 117    -0.231518444294E+04    0.27288E-02   -0.28478E-03 27941   0.133E-01    0.471E-01
RMM: 118    -0.231518398661E+04    0.45633E-03   -0.20162E-03 32540   0.616E-02    0.346E-01
RMM: 119    -0.231518388560E+04    0.10100E-03   -0.11981E-03 33565   0.466E-02    0.291E-01
RMM: 120    -0.231518374606E+04    0.13954E-03   -0.81553E-04 33012   0.394E-02    0.216E-01
RMM: 121    -0.231518392215E+04   -0.17608E-03   -0.77219E-04 29751   0.517E-02    0.283E-01
RMM: 122    -0.231518370505E+04    0.21710E-03   -0.33929E-04 28962   0.389E-02    0.176E-01
RMM: 123    -0.231518366573E+04    0.39317E-04   -0.30522E-04 31595   0.262E-02    0.131E-01
RMM: 124    -0.231518377754E+04   -0.11181E-03   -0.21595E-04 32537   0.210E-02    0.176E-01
RMM: 125    -0.231518371898E+04    0.58561E-04   -0.12815E-04 31825   0.169E-02    0.119E-01
RMM: 126    -0.231518372407E+04   -0.50835E-05   -0.14021E-04 30222   0.203E-02    0.129E-01
RMM: 127    -0.231518371144E+04    0.12623E-04   -0.80092E-05 28821   0.184E-02    0.102E-01
RMM: 128    -0.231518373333E+04   -0.21890E-04   -0.78227E-05 30830   0.138E-02    0.918E-02
RMM: 129    -0.231518373763E+04   -0.42998E-05   -0.47720E-05 30792   0.109E-02    0.751E-02
RMM: 130    -0.231518373646E+04    0.11767E-05   -0.54221E-05 35699   0.845E-03    0.473E-02
RMM: 131    -0.231518377350E+04   -0.37042E-04   -0.54876E-05 30537   0.119E-02    0.638E-02
RMM: 132    -0.231518375819E+04    0.15307E-04   -0.19812E-05 28214   0.923E-03    0.333E-02
RMM: 133    -0.231518376551E+04   -0.73176E-05   -0.16516E-05 26220   0.416E-03    0.333E-02
RMM: 134    -0.231518377799E+04   -0.12479E-04   -0.81605E-06 21317   0.397E-03    0.299E-02
RMM: 135    -0.231518378650E+04   -0.85105E-05   -0.59080E-06 19450   0.339E-03    0.144E-02
RMM: 136    -0.231518379256E+04   -0.60624E-05   -0.95106E-06 24397   0.482E-03    0.254E-02
RMM: 137    -0.231518379552E+04   -0.29536E-05   -0.49078E-06 17690   0.425E-03    0.115E-02
RMM: 138    -0.231518380568E+04   -0.10161E-04   -0.36964E-06 17311   0.221E-03    0.123E-02
RMM: 139    -0.231518381811E+04   -0.12429E-04   -0.35142E-06 16728   0.257E-03    0.739E-03
RMM: 140    -0.231518382388E+04   -0.57720E-05   -0.28182E-06 16094   0.182E-03    0.643E-03
RMM: 141    -0.231518382249E+04    0.13844E-05   -0.26662E-06 15788   0.231E-03    0.124E-02
RMM: 142    -0.231518383070E+04   -0.82052E-05   -0.24317E-06 15856   0.209E-03    0.898E-03
RMM: 143    -0.231518383929E+04   -0.85944E-05   -0.23493E-06 15959   0.138E-03    0.702E-03
RMM: 144    -0.231518384365E+04   -0.43598E-05   -0.20229E-06 15758   0.145E-03    0.446E-03
RMM: 145    -0.231518384899E+04   -0.53391E-05   -0.19492E-06 15680   0.124E-03    0.363E-03
RMM: 146    -0.231518384901E+04   -0.22061E-07   -0.17079E-06 15475   0.165E-03
   1 F= -.23151838E+04 E0= -.23123104E+04  d E =-.231518E+04
 curvature:   0.00 expect dE= 0.000E+00 dE for cont linesearch  0.000E+00
 trial: gam= 0.00000 g(F)=  0.314E+00 g(S)=  0.000E+00 ort = 0.000E+00 (trialstep = 0.100E+01)
 search vector abs. value=  0.314E+00
 bond charge predicted
       N       E                     dE             d eps       ncg     rms          rms(c)
DAV:   1    -0.231541573289E+04   -0.23188E+00   -0.54737E+01 28000   0.774E+00    0.112E+00
RMM:   2    -0.231578839827E+04   -0.37267E+00   -0.83257E-01 27976   0.190E+00    0.770E+00
RMM:   3    -0.231629898719E+04   -0.51059E+00   -0.29110E-01 39597   0.640E-01    0.125E+01
RMM:   4    -0.231566274887E+04    0.63624E+00   -0.81377E-02 27960   0.554E-01    0.569E+00
RMM:   5    -0.231683573458E+04   -0.11730E+01   -0.13280E-01 35699   0.466E-01    0.160E+01
RMM:   6    -0.231564669959E+04    0.11890E+01   -0.12337E-01 30651   0.577E-01    0.495E+00
RMM:   7    -0.231557661583E+04    0.70084E-01   -0.11520E-01 27791   0.717E-01    0.425E+00
RMM:   8    -0.231551270131E+04    0.63915E-01   -0.48391E-02 27724   0.559E-01    0.270E+00
RMM:   9    -0.231558003255E+04   -0.67331E-01   -0.53607E-02 31684   0.334E-01    0.446E+00
RMM:  10    -0.231552670084E+04    0.53332E-01   -0.40224E-02 29776   0.339E-01    0.300E+00
RMM:  11    -0.231549994185E+04    0.26759E-01   -0.27316E-02 27836   0.346E-01    0.206E+00
RMM:  12    -0.231548048699E+04    0.19455E-01   -0.12193E-02 27735   0.263E-01    0.940E-01
RMM:  13    -0.231547724261E+04    0.32444E-02   -0.60771E-03 28909   0.152E-01    0.626E-01
RMM:  14    -0.231547773812E+04   -0.49551E-03   -0.91485E-03 33834   0.127E-01    0.652E-01
RMM:  15    -0.231547619746E+04    0.15407E-02   -0.31702E-03 29217   0.105E-01    0.355E-01
RMM:  16    -0.231547583306E+04    0.36439E-03   -0.23931E-03 33951   0.647E-02    0.205E-01
RMM:  17    -0.231547592128E+04   -0.88215E-04   -0.17054E-03 35748   0.492E-02    0.212E-01
RMM:  18    -0.231547586546E+04    0.55815E-04   -0.67574E-04 30829   0.432E-02    0.179E-01
RMM:  19    -0.231547577253E+04    0.92934E-04   -0.41867E-04 32877   0.288E-02    0.106E-01
RMM:  20    -0.231547580265E+04   -0.30123E-04   -0.36527E-04 38135   0.196E-02    0.115E-01
RMM:  21    -0.231547577628E+04    0.26367E-04   -0.15165E-04 31093   0.198E-02    0.841E-02
RMM:  22    -0.231547575342E+04    0.22867E-04   -0.10254E-04 33323   0.140E-02    0.422E-02
RMM:  23    -0.231547576096E+04   -0.75432E-05   -0.92182E-05 39254   0.959E-03    0.484E-02
RMM:  24    -0.231547575529E+04    0.56645E-05   -0.31300E-05 30957   0.884E-03    0.328E-02
RMM:  25    -0.231547575389E+04    0.14048E-05   -0.22180E-05 31316   0.543E-03    0.234E-02
RMM:  26    -0.231547575449E+04   -0.59884E-06   -0.12389E-05 26936   0.393E-03    0.217E-02
RMM:  27    -0.231547575376E+04    0.72515E-06   -0.61074E-06 22894   0.417E-03
   2 F= -.23154758E+04 E0= -.23125978E+04  d E =-.291905E+00
 ZBRENT: can't locate minimum, use default step
 trial-energy change:   -0.291905  1 .order   -0.291848   -0.314242   -0.269455
 step:   4.0000(harm=  7.0165)  dis= 0.02797  next Energy= -2316.286282 (dE=-0.110E+01)
 bond charge predicted
       N       E                     dE             d eps       ncg     rms          rms(c)
DAV:   1    -0.231534842867E+04    0.12733E+00   -0.49138E+02 27720   0.234E+01    0.400E+00
RMM:   2    -0.231890465284E+04   -0.35562E+01   -0.10783E+01 27852   0.674E+00    0.232E+01
RMM:   3    -0.232883552207E+04   -0.99309E+01   -0.36907E+00 38962   0.249E+00    0.471E+01
RMM:   4    -0.232028888598E+04    0.85466E+01   -0.13024E+00 28230   0.208E+00    0.279E+01
RMM:   5    -0.234001064044E+04   -0.19722E+02   -0.24420E+00 36130   0.193E+00    0.676E+01
RMM:   6    -0.231846218064E+04    0.21548E+02   -0.16377E+00 29656   0.222E+00    0.181E+01
RMM:   7    -0.231736049099E+04    0.11017E+01   -0.13280E+00 27741   0.258E+00    0.154E+01
RMM:   8    -0.231841911420E+04   -0.10586E+01   -0.68947E-01 27999   0.174E+00    0.213E+01
RMM:   9    -0.231676882478E+04    0.16503E+01   -0.66509E-01 28043   0.162E+00    0.109E+01
RMM:  10    -0.231659713988E+04    0.17168E+00   -0.74640E-01 27929   0.177E+00    0.952E+00
RMM:  11    -0.231624449248E+04    0.35265E+00   -0.28824E-01 27733   0.131E+00    0.547E+00
RMM:  12    -0.231611610652E+04    0.12839E+00   -0.12992E-01 28737   0.701E-01    0.259E+00
RMM:  13    -0.231610605141E+04    0.10055E-01   -0.12587E-01 32263   0.490E-01    0.214E+00
RMM:  14    -0.231610446325E+04    0.15882E-02   -0.85704E-02 33027   0.419E-01    0.193E+00
RMM:  15    -0.231609103493E+04    0.13428E-01   -0.31032E-02 29296   0.343E-01    0.113E+00
RMM:  16    -0.231609147703E+04   -0.44211E-03   -0.35181E-02 37951   0.202E-01    0.101E+00
RMM:  17    -0.231609231862E+04   -0.84159E-03   -0.17343E-02 31792   0.201E-01    0.104E+00
RMM:  18    -0.231609102312E+04    0.12955E-02   -0.84648E-03 30169   0.167E-01    0.891E-01
RMM:  19    -0.231609031638E+04    0.70674E-03   -0.91191E-03 34653   0.116E-01    0.746E-01
RMM:  20    -0.231608884790E+04    0.14685E-02   -0.52078E-03 31941   0.108E-01    0.500E-01
RMM:  21    -0.231608844848E+04    0.39942E-03   -0.27077E-03 31256   0.832E-02    0.414E-01
RMM:  22    -0.231608857286E+04   -0.12437E-03   -0.30462E-03 37972   0.578E-02    0.398E-01
RMM:  23    -0.231608797783E+04    0.59503E-03   -0.91637E-04 31371   0.474E-02    0.188E-01
RMM:  24    -0.231608788948E+04    0.88353E-04   -0.60384E-04 33285   0.339E-02    0.125E-01
RMM:  25    -0.231608793641E+04   -0.46936E-04   -0.56193E-04 37603   0.263E-02    0.138E-01
RMM:  26    -0.231608789431E+04    0.42105E-04   -0.23030E-04 31384   0.241E-02    0.100E-01
RMM:  27    -0.231608788656E+04    0.77491E-05   -0.20466E-04 37967   0.148E-02    0.801E-02
RMM:  28    -0.231608788687E+04   -0.31013E-06   -0.10779E-04 37370   0.113E-02    0.730E-02
RMM:  29    -0.231608786599E+04    0.20882E-04   -0.41221E-05 30946   0.104E-02    0.323E-02
RMM:  30    -0.231608786457E+04    0.14202E-05   -0.34649E-05 34502   0.607E-03    0.209E-02
RMM:  31    -0.231608786675E+04   -0.21796E-05   -0.19022E-05 30161   0.484E-03    0.262E-02
RMM:  32    -0.231608786460E+04    0.21466E-05   -0.72488E-06 22414   0.437E-03    0.162E-02
RMM:  33    -0.231608786429E+04    0.31572E-06   -0.42376E-06 19831   0.310E-03
   3 F= -.23160879E+04 E0= -.23131986E+04  d E =-.904015E+00
 curvature:  -2.63 expect dE=-0.271E+00 dE for cont linesearch -0.162E+00
 ZBRENT: increasing intervall
 opt :  10.0000  next Energy= -2316.139330 (dE=-0.955E+00)
 bond charge predicted
       N       E                     dE             d eps       ncg     rms          rms(c)
DAV:   1    -0.231228964926E+04    0.37982E+01   -0.19668E+03 27720   0.478E+01    0.841E+00
RMM:   2    -0.232886552722E+04   -0.16576E+02   -0.56088E+01 27803   0.136E+01    0.491E+01
RMM:   3    -0.235629630540E+04   -0.27431E+02   -0.18056E+01 37553   0.607E+00    0.818E+01
RMM:   4    -0.233921938836E+04    0.17077E+02   -0.79275E+00 33363   0.385E+00    0.671E+01
RMM:   5    -0.240500906647E+04   -0.65790E+02   -0.12255E+01 31087   0.464E+00    0.122E+02
RMM:   6    -0.232461816486E+04    0.80391E+02   -0.67134E+00 34569   0.370E+00    0.355E+01
RMM:   7    -0.232125616067E+04    0.33620E+01   -0.52667E+00 27738   0.493E+00    0.304E+01
RMM:   8    -0.232874829025E+04   -0.74921E+01   -0.38203E+00 28025   0.402E+00    0.490E+01
RMM:   9    -0.231960346903E+04    0.91448E+01   -0.32881E+00 28675   0.344E+00    0.246E+01
RMM:  10    -0.231734163711E+04    0.22618E+01   -0.25256E+00 27744   0.356E+00    0.144E+01
RMM:  11    -0.231640411848E+04    0.93752E+00   -0.10115E+00 27793   0.252E+00    0.745E+00
RMM:  12    -0.231635647146E+04    0.47647E-01   -0.78803E-01 32570   0.113E+00    0.663E+00
RMM:  13    -0.231633569951E+04    0.20772E-01   -0.51106E-01 33805   0.969E-01    0.616E+00
RMM:  14    -0.231624410146E+04    0.91598E-01   -0.17966E-01 28122   0.877E-01    0.436E+00
RMM:  15    -0.231619848534E+04    0.45616E-01   -0.13786E-01 30129   0.642E-01    0.330E+00
RMM:  16    -0.231618141970E+04    0.17066E-01   -0.14288E-01 35471   0.456E-01    0.263E+00
RMM:  17    -0.231618041027E+04    0.10094E-02   -0.61049E-02 31193   0.386E-01    0.251E+00
RMM:  18    -0.231617094380E+04    0.94665E-02   -0.55047E-02 31402   0.372E-01    0.201E+00
RMM:  19    -0.231616408570E+04    0.68581E-02   -0.38857E-02 31081   0.316E-01    0.162E+00
RMM:  20    -0.231617165320E+04   -0.75675E-02   -0.23011E-02 30171   0.275E-01    0.197E+00
RMM:  21    -0.231616735366E+04    0.42995E-02   -0.25246E-02 33832   0.214E-01    0.167E+00
RMM:  22    -0.231615823912E+04    0.91145E-02   -0.89246E-03 30237   0.167E-01    0.106E+00
RMM:  23    -0.231615611804E+04    0.21211E-02   -0.71791E-03 31722   0.132E-01    0.837E-01
RMM:  24    -0.231615430192E+04    0.18161E-02   -0.67704E-03 33009   0.116E-01    0.537E-01
RMM:  25    -0.231615399686E+04    0.30506E-03   -0.32242E-03 30828   0.964E-02    0.483E-01
RMM:  26    -0.231615391941E+04    0.77455E-04   -0.37281E-03 37178   0.649E-02    0.419E-01
RMM:  27    -0.231615337621E+04    0.54319E-03   -0.12164E-03 31986   0.521E-02    0.241E-01
RMM:  28    -0.231615330331E+04    0.72903E-04   -0.86688E-04 34291   0.383E-02    0.195E-01
RMM:  29    -0.231615327763E+04    0.25684E-04   -0.70477E-04 35261   0.329E-02    0.169E-01
RMM:  30    -0.231615317844E+04    0.99188E-04   -0.29112E-04 30921   0.284E-02    0.102E-01
RMM:  31    -0.231615318629E+04   -0.78478E-05   -0.30863E-04 40600   0.149E-02    0.884E-02
RMM:  32    -0.231615318051E+04    0.57724E-05   -0.13212E-04 35592   0.134E-02    0.746E-02
RMM:  33    -0.231615315602E+04    0.24491E-04   -0.47232E-05 30869   0.113E-02    0.313E-02
RMM:  34    -0.231615315818E+04   -0.21508E-05   -0.49709E-05 36593   0.561E-03    0.270E-02
RMM:  35    -0.231615315917E+04   -0.99407E-06   -0.19978E-05 31247   0.562E-03    0.273E-02
RMM:  36    -0.231615315662E+04    0.25528E-05   -0.76078E-06 22829   0.462E-03    0.161E-02
RMM:  37    -0.231615315702E+04   -0.40344E-06   -0.54163E-06 20905   0.295E-03
   4 F= -.23161532E+04 E0= -.23132674E+04  d E =-.969308E+00
 curvature:  -0.84 expect dE=-0.295E+00 dE for cont linesearch -0.378E-01
 ZBRENT: bracketing found
 ZBRENT: interpolating
 opt :   7.2313  next Energy= -2316.318060 (dE=-0.113E+01)
 bond charge predicted
       N       E                     dE             d eps       ncg     rms          rms(c)
DAV:   1    -0.231569826115E+04    0.45490E+00   -0.41858E+02 27720   0.216E+01    0.377E+00
RMM:   2    -0.231911802055E+04   -0.34198E+01   -0.98708E+00 27786   0.662E+00    0.241E+01
RMM:   3    -0.232914616705E+04   -0.10028E+02   -0.27347E+00 35494   0.253E+00    0.473E+01
RMM:   4    -0.232067787082E+04    0.84683E+01   -0.13108E+00 33847   0.156E+00    0.273E+01
RMM:   5    -0.232982070022E+04   -0.91428E+01   -0.16988E+00 30819   0.197E+00    0.508E+01
RMM:   6    -0.231873783026E+04    0.11083E+02   -0.17157E+00 32607   0.198E+00    0.193E+01
RMM:   7    -0.231892816209E+04   -0.19033E+00   -0.13329E+00 27851   0.238E+00    0.220E+01
RMM:   8    -0.231739871877E+04    0.15294E+01   -0.58763E-01 28293   0.152E+00    0.141E+01
RMM:   9    -0.231664567212E+04    0.75305E+00   -0.49040E-01 27751   0.154E+00    0.787E+00
RMM:  10    -0.231687168139E+04   -0.22601E+00   -0.63577E-01 28097   0.153E+00    0.101E+01
RMM:  11    -0.231655010991E+04    0.32157E+00   -0.33245E-01 27758   0.131E+00    0.642E+00
RMM:  12    -0.231636389336E+04    0.18622E+00   -0.11754E-01 27769   0.854E-01    0.312E+00
RMM:  13    -0.231633800183E+04    0.25892E-01   -0.68660E-02 31068   0.400E-01    0.228E+00
RMM:  14    -0.231633925677E+04   -0.12549E-02   -0.79714E-02 32044   0.420E-01    0.222E+00
RMM:  15    -0.231631865454E+04    0.20602E-01   -0.27691E-02 28157   0.349E-01    0.108E+00
RMM:  16    -0.231631916905E+04   -0.51452E-03   -0.25770E-02 33982   0.215E-01    0.107E+00
RMM:  17    -0.231632018236E+04   -0.10133E-02   -0.19043E-02 33636   0.184E-01    0.109E+00
RMM:  18    -0.231631823226E+04    0.19501E-02   -0.70776E-03 30135   0.151E-01    0.908E-01
RMM:  19    -0.231631738517E+04    0.84709E-03   -0.71858E-03 35409   0.101E-01    0.766E-01
RMM:  20    -0.231631582279E+04    0.15624E-02   -0.45450E-03 32292   0.994E-02    0.507E-01
RMM:  21    -0.231631545557E+04    0.36723E-03   -0.19517E-03 30024   0.809E-02    0.440E-01
RMM:  22    -0.231631554031E+04   -0.84747E-04   -0.23683E-03 37946   0.489E-02    0.424E-01
RMM:  23    -0.231631503086E+04    0.50946E-03   -0.85014E-04 32367   0.419E-02    0.262E-01
RMM:  24    -0.231631482675E+04    0.20410E-03   -0.41385E-04 31492   0.319E-02    0.163E-01
RMM:  25    -0.231631481565E+04    0.11100E-04   -0.47779E-04 38067   0.233E-02    0.138E-01
RMM:  26    -0.231631475986E+04    0.55792E-04   -0.18511E-04 31462   0.212E-02    0.879E-02
RMM:  27    -0.231631474739E+04    0.12470E-04   -0.11921E-04 33958   0.144E-02    0.656E-02
RMM:  28    -0.231631475298E+04   -0.55907E-05   -0.10822E-04 40167   0.990E-03    0.650E-02
RMM:  29    -0.231631474136E+04    0.11621E-04   -0.34629E-05 31598   0.853E-03    0.424E-02
RMM:  30    -0.231631474022E+04    0.11391E-05   -0.24981E-05 32360   0.509E-03    0.356E-02
RMM:  31    -0.231631473862E+04    0.16041E-05   -0.12890E-05 27946   0.448E-03    0.279E-02
RMM:  32    -0.231631473616E+04    0.24561E-05   -0.52927E-06 21383   0.423E-03    0.172E-02
RMM:  33    -0.231631473554E+04    0.62326E-06   -0.30392E-06 18643   0.314E-03
   5 F= -.23163147E+04 E0= -.23134219E+04  d E =-.113089E+01
 curvature:  -3.65 expect dE=-0.541E+00 dE for cont linesearch -0.181E-04
 trial: gam= 0.46741 g(F)=  0.148E+00 g(S)=  0.000E+00 ort = 0.125E-02 (trialstep = 0.225E+01)
 search vector abs. value=  0.218E+00
