unknown system                          
           1
     9.726678    0.000000    0.000000
     0.000000    8.423550    0.000000
     0.000000    0.000000   45.000000
   Fe   Mn
 281   7
Direct configuration=     1
   0.05371447  0.70153804  0.21133081
   0.31840775  0.72403773  0.87612209
   0.68777454  0.95814974  0.61138802
   0.43784202  0.45810644  0.61142451
   0.44014733  0.28814442  0.25545899
   0.05845399  0.38835682  0.83341151
   0.30856799  0.88774610  0.83347672
   0.44713191  0.62602833  0.70020804
   0.06021925  0.21278517  0.74481025
   0.17927113  0.45118128  0.21131583
   0.56791315  0.21056893  0.47749424
   0.06660354  0.87501919  0.56687265
   0.56826515  0.22403318  0.87612327
   0.80968007  0.52826860  0.12401952
   0.42990250  0.95106899  0.21139043
   0.56656310  0.37501824  0.56686814
   0.81210619  0.04188418  0.38854638
   0.68171285  0.78905871  0.52248741
   0.44289751  0.46059883  0.47750931
   0.43390911  0.96234745  0.74453177
   0.44160667  0.62490722  0.56686139
   0.57202154  0.87627098  0.70042975
   0.30997256  0.02843168  0.12404004
   0.69031005  0.95931487  0.34417336
   0.68750261  0.78222149  0.12427890
   0.05253537  0.37371308  0.29968254
   0.68959961  0.46688279  0.87592058
   0.42836806  0.45145641  0.21136637
   0.80848267  0.37514592  0.43311047
   0.56301792  0.70820461  0.61152337
   0.55972794  0.54063491  0.65583807
   0.93338293  0.12493068  0.43309134
   0.56483775  0.53787404  0.25537559
   0.69031196  0.45926871  0.34417476
   0.19157682  0.61241955  0.16648531
   0.19499684  0.79972994  0.78869952
   0.44718366  0.12610591  0.70030465
   0.92762170  0.62350908  0.29966628
   0.31721354  0.22340552  0.87607537
   0.31656416  0.87477525  0.56684032
   0.81730753  0.22412645  0.87617556
   0.80969760  0.54072418  0.65579714
   0.55743548  0.52683968  0.12379761
   0.56986603  0.04923248  0.78885135
   0.19000598  0.28800711  0.25543760
   0.80849029  0.87503075  0.43309877
   0.57237721  0.37620857  0.70025743
   0.05863207  0.02813781  0.12406082
   0.30961312  0.54062194  0.65589765
   0.56520600  0.20933510  0.34411489
   0.18772033  0.95818522  0.61137137
   0.30273925  0.37385455  0.29971890
   0.43460366  0.79053629  0.65584788
   0.19604206  0.29884179  0.78865399
   0.06646402  0.36269687  0.16670255
   0.69706732  0.62605917  0.70021694
   0.31206480  0.54174660  0.38854338
   0.06762306  0.72368659  0.87614198
   0.93364565  0.63848342  0.83367578
   0.31971645  0.54918081  0.78879223
   0.30412632  0.20107468  0.21126459
   0.06800806  0.71070276  0.47746583
   0.55370980  0.20095099  0.21130451
   0.31015767  0.21192198  0.74453877
   0.07220252  0.37615768  0.70025721
   0.18341486  0.63763799  0.83352712
   0.06987239  0.04914246  0.78883570
   0.44158429  0.12500267  0.56692579
   0.93476829  0.29062134  0.65587479
   0.80408356  0.20122173  0.21127871
   0.92971769  0.95093195  0.21147137
   0.94153744  0.62496867  0.56686710
   0.80828923  0.38763925  0.83350023
   0.19733701  0.62589856  0.70009904
   0.80858723  0.88798647  0.83358599
   0.68477977  0.29064209  0.65591470
   0.31265071  0.20790640  0.61134666
   0.43500575  0.46256554  0.74472053
   0.43684975  0.79165649  0.38848712
   0.68490858  0.96233802  0.74448746
   0.80317484  0.70104046  0.21131015
   0.81312980  0.70836533  0.61151722
   0.43648021  0.78253026  0.12420468
   0.31013643  0.71205225  0.74457264
   0.32059145  0.04887616  0.78875101
   0.81159628  0.54145566  0.38841320
   0.68242944  0.28830543  0.52235392
   0.69592479  0.79920994  0.78875588
   0.19009331  0.78796571  0.25544661
   0.69157040  0.11199603  0.16655921
   0.69261046  0.96064621  0.47749005
   0.94033838  0.95941147  0.34412627
   0.80694161  0.03900468  0.52252590
   0.68345135  0.62499377  0.43311508
   0.44032789  0.45941159  0.34418013
   0.81072596  0.21144776  0.74457977
   0.43947233  0.96746117  0.87593551
   0.56661134  0.87487234  0.56682496
   0.81109616  0.02812473  0.12395805
   0.42761445  0.62380574  0.29973703
   0.81732586  0.72327126  0.87623055
   0.68765535  0.45793050  0.61138709
   0.55830310  0.38754294  0.83320785
   0.80291268  0.37353719  0.29962666
   0.18701154  0.29174917  0.38844804
   0.82062618  0.54881387  0.78874097
   0.18225336  0.78906286  0.52254090
   0.30263367  0.87403930  0.29976874
   0.17824325  0.95156922  0.21142982
   0.18500317  0.46211396  0.74478283
   0.43235396  0.28845901  0.52234698
   0.06517569  0.70920208  0.34406647
   0.18471498  0.79060917  0.65579772
   0.44565587  0.79904429  0.78869961
   0.68338320  0.12501157  0.43308090
   0.93211117  0.78841677  0.52234902
   0.69134837  0.61253560  0.16649915
   0.81543144  0.70932038  0.34410093
   0.93481435  0.46280889  0.74491864
   0.19029789  0.45935090  0.34418228
   0.57051267  0.54906097  0.78886636
   0.56627973  0.36284602  0.16654923
   0.56524932  0.70946068  0.34410073
   0.55266127  0.37381797  0.29973127
   0.18940726  0.46721052  0.87590212
   0.19102170  0.11135317  0.16661813
   0.44506277  0.29882226  0.78871628
   0.69016049  0.78793898  0.25544748
   0.93365759  0.13763340  0.83351882
   0.44275014  0.96069816  0.47747013
   0.56750024  0.72444157  0.87607665
   0.19272872  0.46078423  0.47745914
   0.93545144  0.28225014  0.12412271
   0.31217802  0.04184386  0.38856798
   0.05970368  0.04057009  0.65589635
   0.55844518  0.37491739  0.43310643
   0.68449673  0.46264561  0.74488847
   0.56042944  0.21240110  0.74459781
   0.94708739  0.12629767  0.70021589
   0.55972288  0.04068609  0.65579754
   0.55695677  0.53910490  0.52253226
   0.17769922  0.12386715  0.29968973
   0.44122907  0.11059250  0.16654521
   0.67765566  0.62372337  0.29961451
   0.92769204  0.12392429  0.29980967
   0.81663139  0.37503492  0.56687113
   0.05265187  0.87392167  0.29975914
   0.19158957  0.62485491  0.56688665
   0.31716474  0.36276083  0.16655314
   0.30840088  0.38744937  0.83346814
   0.93931464  0.46683691  0.87594818
   0.43361388  0.63777437  0.83347475
   0.06511892  0.20919027  0.34402026
   0.19013664  0.96786534  0.87609313
   0.93577346  0.78255046  0.12413717
   0.68690263  0.79156616  0.38850394
   0.93469921  0.79064035  0.65581061
   0.94091137  0.11128059  0.16664840
   0.43493127  0.29079442  0.65594035
   0.05368526  0.20108514  0.21132105
   0.67851574  0.95173806  0.21142014
   0.17774865  0.62358999  0.29963178
   0.82215970  0.87619246  0.70033798
   0.94702651  0.62638229  0.70041394
   0.19722016  0.12608994  0.70013183
   0.94295974  0.46072524  0.47744344
   0.81270914  0.20810870  0.61136028
   0.18336191  0.62503822  0.43312802
   0.42784687  0.12369889  0.29963022
   0.67776925  0.12379646  0.29970210
   0.56203042  0.54177768  0.38850844
   0.81502935  0.20915171  0.34401380
   0.43922059  0.46749729  0.87579409
   0.55857872  0.88740451  0.83326373
   0.31779531  0.21068088  0.47746749
   0.19274657  0.96060039  0.47750613
   0.05799673  0.88726571  0.83345165
   0.05690649  0.53909361  0.52248353
   0.94276913  0.96049988  0.47745002
   0.06293206  0.70820666  0.61150795
   0.55719653  0.03861738  0.52237600
   0.69566198  0.29881736  0.78869477
   0.81679304  0.36226339  0.16673498
   0.43339594  0.12499330  0.43307976
   0.06794046  0.21074256  0.47746104
   0.30972060  0.04064037  0.65580756
   0.43181598  0.78899896  0.52249985
   0.18366295  0.13775115  0.83355785
   0.18555919  0.28223085  0.12425902
   0.94028708  0.45943825  0.34418227
   0.56664267  0.86237740  0.16645306
   0.30303667  0.70088705  0.21144419
   0.94107628  0.61154103  0.16658841
   0.18775557  0.45811907  0.61139957
   0.07220025  0.87615081  0.70011909
   0.05964790  0.54064108  0.65581064
   0.30944869  0.52714987  0.12379473
   0.93681490  0.79159257  0.38848834
   0.94563052  0.29818682  0.78866540
   0.18459220  0.29047868  0.65587197
   0.93762475  0.95795360  0.61136522
   0.81083002  0.71131417  0.74464313
   0.68994200  0.28785840  0.25542903
   0.05972206  0.71196891  0.74492805
   0.67870458  0.45095704  0.21132373
   0.81801933  0.21084857  0.47761434
   0.56771393  0.71054406  0.47745374
   0.06756765  0.86349166  0.16658264
   0.93228475  0.28828067  0.52246303
   0.68466144  0.79061172  0.65579673
   0.05827846  0.87482454  0.43311899
   0.06764544  0.22337252  0.87613822
   0.80965011  0.04053844  0.65585474
   0.56059398  0.02909427  0.12405148
   0.30844620  0.37494746  0.43307018
   0.31655992  0.37495184  0.56686913
   0.31784280  0.71057783  0.47741556
   0.05709953  0.03858085  0.52248650
   0.32218090  0.87632079  0.70033859
   0.06521411  0.53777537  0.25524723
   0.68346899  0.13762236  0.83350328
   0.81461143  0.03753719  0.25538871
   0.18352988  0.12501313  0.43311161
   0.69740119  0.12637520  0.70033052
   0.18236683  0.28845218  0.52235276
   0.43995631  0.78788694  0.25539991
   0.81464403  0.53798611  0.25549486
   0.06275845  0.20808019  0.61135372
   0.18651540  0.79135394  0.38842150
   0.30704608  0.53861324  0.52248234
   0.82185561  0.37624883  0.70004805
   0.68696692  0.29168286  0.38849817
   0.19163573  0.12506705  0.56688457
   0.68947775  0.96802068  0.87609761
   0.69156899  0.12500970  0.56690412
   0.44026944  0.95927020  0.34416483
   0.18402317  0.96241370  0.74448701
   0.93995973  0.78787397  0.25544064
   0.55847150  0.87500455  0.43311071
   0.30841125  0.87505471  0.43310503
   0.80715225  0.53924898  0.52255050
   0.92831561  0.45155439  0.21143505
   0.31469924  0.53810260  0.25548914
   0.56235145  0.04198914  0.38864461
   0.93789394  0.45814159  0.61146994
   0.06214578  0.04179276  0.38856740
   0.06199598  0.54162354  0.38846111
   0.43686058  0.29148585  0.38849582
   0.69283406  0.46070881  0.47745694
   0.06664910  0.37495031  0.56687181
   0.55378377  0.70150912  0.21138457
   0.93990970  0.28809864  0.25548288
   0.81970921  0.04905458  0.78896148
   0.19030624  0.95945444  0.34412021
   0.55273329  0.87394228  0.29980694
   0.05835016  0.37504995  0.43311484
   0.31531182  0.70941692  0.34414107
   0.31512682  0.20929723  0.34411300
   0.94170546  0.12501100  0.56678199
   0.43793444  0.95831647  0.61147620
   0.56479052  0.03766106  0.25536406
   0.18662724  0.78302544  0.12425660
   0.06495445  0.03745191  0.25530942
   0.69159738  0.62489553  0.56689185
   0.05712147  0.52640072  0.12422852
   0.30701572  0.03853262  0.52232015
   0.68648293  0.28197355  0.12426269
   0.81774335  0.71078562  0.47746181
   0.43353225  0.13767109  0.83338460
   0.32239357  0.37606194  0.70022713
   0.68357526  0.63783751  0.83349194
   0.56011225  0.71212061  0.74468697
   0.93718960  0.29185970  0.38857727
   0.93962021  0.96784711  0.87613409
   0.56273863  0.20796277  0.61128484
   0.81660191  0.87497571  0.56687219
   0.80267499  0.87394171  0.29977500
   0.31494777  0.03758954  0.25518757
   0.43538954  0.28333331  0.12390963
   0.31310294  0.70828051  0.61153878
   0.43332858  0.62505393  0.43310382
   0.93235923  0.62501863  0.43331503
   0.31780973  0.86285561  0.16582203
   0.07161970  0.54726926  0.78855811
   0.81799402  0.86283332  0.16611409
   0.94545902  0.80035159  0.78865568
   0.93371357  0.96218161  0.74457906
   0.44134830  0.60945794  0.16568206
Direct configuration=     2
   0.05424824  0.70148593  0.21132004
   0.31807814  0.72345413  0.87605775
   0.68782752  0.95811292  0.61138825
   0.43789579  0.45803600  0.61141484
   0.43956669  0.28802628  0.25547776
   0.05879784  0.38810512  0.83349634
   0.30891345  0.88760287  0.83356402
   0.44646564  0.62608764  0.70022339
   0.06077434  0.21281442  0.74475070
   0.17973241  0.45121076  0.21131174
   0.56735221  0.21037105  0.47754793
   0.06622944  0.87495847  0.56686093
   0.56785432  0.22341581  0.87604421
   0.80988967  0.52870246  0.12410750
   0.43028227  0.95111156  0.21137528
   0.56620640  0.37496037  0.56685206
   0.81208436  0.04193764  0.38854639
   0.68231046  0.78926356  0.52244140
   0.44234028  0.46038469  0.47755959
   0.43455534  0.96236809  0.74452236
   0.44122103  0.62485844  0.56685160
   0.57135276  0.87625961  0.70039725
   0.31008877  0.02872624  0.12406269
   0.68983582  0.95922415  0.34420117
   0.68750256  0.78189438  0.12430610
   0.05325433  0.37369666  0.29968636
   0.68945887  0.46752479  0.87584210
   0.42897222  0.45141238  0.21136841
   0.80884966  0.37514480  0.43311688
   0.56301905  0.70815839  0.61151477
   0.56019340  0.54073748  0.65581190
   0.93375148  0.12497968  0.43309967
   0.56425410  0.53778684  0.25539616
   0.68980222  0.45914959  0.34417470
   0.19115827  0.61255283  0.16644183
   0.19468431  0.79959162  0.78868104
   0.44654366  0.12613051  0.70029953
   0.92831226  0.62350263  0.29968395
   0.31695872  0.22284466  0.87600679
   0.31617590  0.87475216  0.56682917
   0.81704603  0.22346343  0.87609880
   0.81013672  0.54082822  0.65576824
   0.55779641  0.52724664  0.12384667
   0.56949089  0.04929699  0.78884520
   0.18946703  0.28791144  0.25545311
   0.80884070  0.87510511  0.43309879
   0.57166304  0.37624415  0.70027132
   0.05902495  0.02840185  0.12412267
   0.31006431  0.54071797  0.65586201
   0.56473819  0.20922770  0.34414301
   0.18776706  0.95814090  0.61137446
   0.30340743  0.37380678  0.29972842
   0.43507087  0.79066634  0.65582160
   0.19551522  0.29873841  0.78866006
   0.06613476  0.36282053  0.16661167
   0.69635146  0.62608601  0.70021210
   0.31202260  0.54177121  0.38854517
   0.06728216  0.72312262  0.87608898
   0.93404927  0.63827224  0.83373305
   0.31944928  0.54923557  0.78879001
   0.30455013  0.20108013  0.21124830
   0.06743018  0.71047665  0.47753058
   0.55424880  0.20101712  0.21129080
   0.31069075  0.21209093  0.74451591
   0.07151140  0.37625496  0.70025656
   0.18381290  0.63753878  0.83358380
   0.06955654  0.04918616  0.78882657
   0.44121841  0.12493811  0.56690076
   0.93523024  0.29074826  0.65583031
   0.80453140  0.20116027  0.21127747
   0.93011627  0.95106897  0.21146019
   0.94117296  0.62492841  0.56685449
   0.80867731  0.38744896  0.83357556
   0.19663711  0.62597315  0.70011543
   0.80892176  0.88777839  0.83369962
   0.68525217  0.29073853  0.65588159
   0.31273492  0.20790923  0.61136422
   0.43552029  0.46257570  0.74465882
   0.43685053  0.79171582  0.38849786
   0.68537483  0.96235984  0.74449356
   0.80370776  0.70100075  0.21130454
   0.81310511  0.70826866  0.61149384
   0.43647870  0.78214269  0.12418141
   0.31063081  0.71212137  0.74453872
   0.32014457  0.04894469  0.78876023
   0.81167671  0.54156511  0.38843608
   0.68294600  0.28868253  0.52231932
   0.69535560  0.79919375  0.78875684
   0.18955090  0.78793811  0.25546828
   0.69122071  0.11212050  0.16650594
   0.69206190  0.96043331  0.47754802
   0.93987604  0.95935062  0.34415655
   0.80752188  0.03917295  0.52246335
   0.68374401  0.62501666  0.43311735
   0.43986326  0.45931607  0.34419608
   0.81113186  0.21173038  0.74455182
   0.43943113  0.96805891  0.87586591
   0.56623811  0.87480999  0.56681083
   0.81107185  0.02838980  0.12401088
   0.42831647  0.62376214  0.29974442
   0.81705023  0.72281742  0.87616504
   0.68772985  0.45791364  0.61139419
   0.55868989  0.38743809  0.83331978
   0.80352824  0.37356056  0.29964262
   0.18700343  0.29178321  0.38846017
   0.82006037  0.54886569  0.78876553
   0.18280950  0.78925119  0.52249272
   0.30332737  0.87398126  0.29976254
   0.17883122  0.95159439  0.21144254
   0.18562357  0.46220546  0.74470258
   0.43287645  0.28878522  0.52230973
   0.06472083  0.70911495  0.34409996
   0.18519527  0.79068058  0.65576294
   0.44514679  0.79905793  0.78868982
   0.68368491  0.12502697  0.43309217
   0.93266296  0.78871926  0.52232044
   0.69102442  0.61265052  0.16645502
   0.81494957  0.70919989  0.34412831
   0.93536337  0.46278728  0.74484004
   0.18985641  0.45924815  0.34419586
   0.57013115  0.54902952  0.78885938
   0.56582250  0.36298303  0.16647234
   0.56479725  0.70933781  0.34413560
   0.55335041  0.37378288  0.29974167
   0.18931705  0.46777894  0.87584192
   0.19061135  0.11159433  0.16656377
   0.44467502  0.29878817  0.78870181
   0.68956765  0.78790297  0.25546019
   0.93410701  0.13750259  0.83358854
   0.44218211  0.96045393  0.47752769
   0.56720838  0.72378934  0.87601035
   0.19214889  0.46055013  0.47751697
   0.93563865  0.28192009  0.12421011
   0.31211832  0.04187396  0.38856329
   0.06016356  0.04061505  0.65585510
   0.55880780  0.37490968  0.43310783
   0.68497226  0.46259881  0.74481099
   0.56092427  0.21251033  0.74457282
   0.94644590  0.12640596  0.70022567
   0.56016726  0.04075050  0.65577596
   0.55754266  0.53931178  0.52246731
   0.17836554  0.12380096  0.29968604
   0.44082509  0.11098635  0.16649488
   0.67833792  0.62368172  0.29964269
   0.92838634  0.12381618  0.29979915
   0.81625189  0.37498661  0.56685953
   0.05334892  0.87384745  0.29975509
   0.19121333  0.62482120  0.56688077
   0.31678693  0.36286105  0.16647317
   0.30882763  0.38732448  0.83354902
   0.93928746  0.46745138  0.87588031
   0.43403169  0.63768463  0.83352913
   0.06468882  0.20913882  0.34406596
   0.19002907  0.96837257  0.87600238
   0.93583170  0.78215557  0.12418517
   0.68690364  0.79163594  0.38851151
   0.93516771  0.79073190  0.65578933
   0.94055059  0.11160211  0.16660398
   0.43534177  0.29087919  0.65590487
   0.05421680  0.20110334  0.21132399
   0.67904612  0.95171644  0.21142789
   0.17840638  0.62358766  0.29965036
   0.82146242  0.87620418  0.70031739
   0.94638235  0.62642807  0.70039816
   0.19651179  0.12617422  0.70014813
   0.94239615  0.46046511  0.47750847
   0.81276980  0.20805995  0.61137295
   0.18377251  0.62506758  0.43312596
   0.42849041  0.12367687  0.29964073
   0.67840633  0.12373330  0.29970656
   0.56198717  0.54179215  0.38851568
   0.81459194  0.20909448  0.34407265
   0.43920492  0.46802950  0.87572691
   0.55895382  0.88729684  0.83338220
   0.31725322  0.21045181  0.47752547
   0.19219595  0.96037300  0.47755534
   0.05840003  0.88716403  0.83355638
   0.05752045  0.53929035  0.52243052
   0.94220600  0.96027383  0.47750230
   0.06294912  0.70813447  0.61149045
   0.55771586  0.03893006  0.52233688
   0.69512039  0.29879028  0.78869308
   0.81639145  0.36238798  0.16664899
   0.43375607  0.12500456  0.43308645
   0.06735283  0.21046453  0.47751818
   0.31017658  0.04073041  0.65577935
   0.43242668  0.78918425  0.52244006
   0.18412966  0.13760730  0.83362715
   0.18560049  0.28171952  0.12433050
   0.93983350  0.45934734  0.34419407
   0.56632433  0.86261910  0.16639493
   0.30360470  0.70095362  0.21142689
   0.94060593  0.61172779  0.16653456
   0.18780161  0.45806792  0.61140419
   0.07151316  0.87619696  0.70012327
   0.06011815  0.54072682  0.65579373
   0.30960808  0.52774085  0.12387072
   0.93680840  0.79166201  0.38849676
   0.94508695  0.29815583  0.78867167
   0.18505299  0.29061153  0.65583722
   0.93769583  0.95793124  0.61137884
   0.81122461  0.71154086  0.74462000
   0.68940107  0.28779819  0.25544465
   0.06034502  0.71209845  0.74485257
   0.67920238  0.45102900  0.21133053
   0.81742918  0.21055386  0.47765082
   0.56715512  0.71034062  0.47752167
   0.06705319  0.86365862  0.16651428
   0.93283155  0.28860888  0.52242288
   0.68506665  0.79070195  0.65577732
   0.05866245  0.87485203  0.43311818
   0.06735135  0.22275673  0.87607846
   0.81011911  0.04062734  0.65581989
   0.56070070  0.02930468  0.12412558
   0.30879864  0.37494006  0.43307458
   0.31620592  0.37490508  0.56684968
   0.31728104  0.71036367  0.47748083
   0.05766804  0.03884524  0.52242645
   0.32147652  0.87630122  0.70032558
   0.06458589  0.53767525  0.25529083
   0.68388770  0.13754646  0.83357570
   0.81410896  0.03748967  0.25542728
   0.18394147  0.12502556  0.43311504
   0.69669746  0.12639317  0.70031435
   0.18288412  0.28877946  0.52232077
   0.43934996  0.78776230  0.25543536
   0.81411843  0.53786762  0.25550097
   0.06281357  0.20805801  0.61135836
   0.18653648  0.79145243  0.38844398
   0.30761902  0.53889165  0.52242680
   0.82120244  0.37629750  0.70008418
   0.68693079  0.29173514  0.38850178
   0.19125989  0.12500188  0.56686271
   0.68934968  0.96851795  0.87600716
   0.69118951  0.12496385  0.56688536
   0.43981732  0.95919183  0.34419534
   0.18467348  0.96243965  0.74448033
   0.93937866  0.78776455  0.25547256
   0.55883543  0.87508941  0.43311549
   0.30875060  0.87510878  0.43311205
   0.80769052  0.53940232  0.52248856
   0.92890359  0.45156140  0.21142942
   0.31419811  0.53798958  0.25550217
   0.56224932  0.04197848  0.38863010
   0.93791968  0.45806865  0.61145759
   0.06208638  0.04184137  0.38856660
   0.06196775  0.54167921  0.38847605
   0.43686631  0.29155581  0.38850202
   0.69228117  0.46046464  0.47752572
   0.06629311  0.37490900  0.56685845
   0.55432257  0.70149060  0.21136542
   0.93939036  0.28798878  0.25550006
   0.81925857  0.04902928  0.78894088
   0.18984593  0.95934718  0.34415212
   0.55341380  0.87387562  0.29979985
   0.05874527  0.37507179  0.43311173
   0.31484366  0.70930962  0.34416597
   0.31469003  0.20918135  0.34414656
   0.94131231  0.12496938  0.56677388
   0.43794836  0.95825060  0.61147205
   0.56425503  0.03763664  0.25540259
   0.18680232  0.78256128  0.12427878
   0.06439825  0.03748180  0.25536260
   0.69122475  0.62485477  0.56688329
   0.05755633  0.52687457  0.12427261
   0.30759162  0.03886034  0.52229095
   0.68647875  0.28155942  0.12432703
   0.81717876  0.71054297  0.47752520
   0.43398449  0.13751601  0.83344915
   0.32172180  0.37607252  0.70022716
   0.68406356  0.63772380  0.83355164
   0.56060815  0.71213758  0.74464840
   0.93711737  0.29188347  0.38857551
   0.93954247  0.96827477  0.87604772
   0.56278465  0.20792932  0.61130413
   0.81623494  0.87491153  0.56686010
   0.80335090  0.87386141  0.29976480
   0.31437695  0.03751077  0.25525814
   0.43561825  0.28285917  0.12402167
   0.31309552  0.70821185  0.61152111
   0.43365164  0.62507163  0.43311116
   0.93286926  0.62503822  0.43329742
   0.31731367  0.86292124  0.16582536
   0.07111131  0.54738693  0.78857776
   0.81755970  0.86294599  0.16605313
   0.94495419  0.80007966  0.78866052
   0.93431244  0.96234573  0.74455959
   0.44103041  0.60975163  0.16568402
Direct configuration=     3
   0.05584952  0.70132960  0.21128774
   0.31708933  0.72170333  0.87586471
   0.68798643  0.95800246  0.61138894
   0.43805709  0.45782468  0.61138583
   0.43782479  0.28767186  0.25553409
   0.05982939  0.38735002  0.83375083
   0.30994982  0.88717318  0.83382594
   0.44446681  0.62626554  0.70026946
   0.06243961  0.21290217  0.74457206
   0.18111624  0.45129921  0.21129946
   0.56566936  0.20977743  0.47770900
   0.06510715  0.87477630  0.56682576
   0.56662182  0.22156373  0.87580703
   0.81051848  0.53000405  0.12437142
   0.43142158  0.95123926  0.21132986
   0.56513627  0.37478675  0.56680382
   0.81201890  0.04209802  0.38854640
   0.68410332  0.78987811  0.52230337
   0.44066858  0.45974229  0.47771040
   0.43649405  0.96243001  0.74449413
   0.44006411  0.62471213  0.56682224
   0.56934642  0.87622549  0.70029975
   0.31043739  0.02960990  0.12413064
   0.68841313  0.95895199  0.34428457
   0.68750242  0.78091305  0.12438769
   0.05541120  0.37364740  0.29969783
   0.68903665  0.46945076  0.87560668
   0.43078470  0.45128030  0.21137453
   0.80995063  0.37514144  0.43313609
   0.56302241  0.70801971  0.61148898
   0.56158976  0.54104519  0.65573339
   0.93485713  0.12512670  0.43312466
   0.56250317  0.53752523  0.25545787
   0.68827300  0.45879224  0.34417450
   0.18990262  0.61295270  0.16631139
   0.19374674  0.79917665  0.78862562
   0.44462367  0.12620431  0.70028417
   0.93038393  0.62348325  0.29973696
   0.31619428  0.22116210  0.87580106
   0.31501109  0.87468286  0.56679574
   0.81626153  0.22147438  0.87586851
   0.81145409  0.54114032  0.65568152
   0.55887919  0.52846751  0.12399385
   0.56836546  0.04949053  0.78882675
   0.18785019  0.28762442  0.25549963
   0.80989192  0.87532821  0.43309887
   0.56952056  0.37635089  0.70031301
   0.06020358  0.02919396  0.12430823
   0.31141786  0.54100607  0.65575508
   0.56333476  0.20890550  0.34422737
   0.18790727  0.95800794  0.61138373
   0.30541199  0.37366350  0.29975699
   0.43647249  0.79105651  0.65574275
   0.19393467  0.29842829  0.78867827
   0.06514698  0.36319149  0.16633904
   0.69420388  0.62616654  0.70019758
   0.31189598  0.54184504  0.38855056
   0.06625945  0.72143069  0.87592998
   0.93526011  0.63763871  0.83390486
   0.31864778  0.54939984  0.78878335
   0.30582157  0.20109645  0.21119943
   0.06569655  0.70979833  0.47772480
   0.55586579  0.20121550  0.21124964
   0.31228999  0.21259779  0.74444733
   0.06943803  0.37654678  0.70025458
   0.18500703  0.63724113  0.83375385
   0.06860900  0.04931727  0.78879918
   0.44012077  0.12474441  0.56682567
   0.93661608  0.29112903  0.65569688
   0.80587490  0.20097586  0.21127377
   0.93131202  0.95148004  0.21142663
   0.94007954  0.62480763  0.56681665
   0.80984156  0.38687809  0.83380157
   0.19453739  0.62619690  0.70016462
   0.80992535  0.88715415  0.83404049
   0.68666938  0.29102785  0.65578228
   0.31298756  0.20791775  0.61141691
   0.43706391  0.46260618  0.74447370
   0.43685288  0.79189383  0.38853006
   0.68677358  0.96242531  0.74451186
   0.80530651  0.70088165  0.21128769
   0.81303103  0.70797865  0.61142369
   0.43647416  0.78098000  0.12411159
   0.31211396  0.71232872  0.74443694
   0.31880395  0.04915030  0.78878789
   0.81191800  0.54189348  0.38850470
   0.68449567  0.28981386  0.52221551
   0.69364803  0.79914520  0.78875971
   0.18792368  0.78785529  0.25553330
   0.69017163  0.11249390  0.16634612
   0.69041622  0.95979462  0.47772193
   0.93848901  0.95916806  0.34424738
   0.80926268  0.03967778  0.52227567
   0.68462201  0.62508535  0.43312415
   0.43846937  0.45902951  0.34424392
   0.81234958  0.21257824  0.74446797
   0.43930755  0.96985215  0.87565710
   0.56511842  0.87462294  0.56676844
   0.81099891  0.02918498  0.12416939
   0.43042254  0.62363132  0.29976660
   0.81622336  0.72145591  0.87596850
   0.68795336  0.45786308  0.61141548
   0.55985024  0.38712357  0.83365557
   0.80537493  0.37363068  0.29969050
   0.18697909  0.29188532  0.38849655
   0.81836292  0.54902112  0.78883921
   0.18447791  0.78981616  0.52234816
   0.30540847  0.87380714  0.29974393
   0.18059513  0.95166987  0.21148071
   0.18748476  0.46247996  0.74446186
   0.43444394  0.28976384  0.52219796
   0.06335626  0.70885356  0.34420045
   0.18663613  0.79089483  0.65565862
   0.44361956  0.79909882  0.78866046
   0.68459001  0.12507315  0.43312600
   0.93431832  0.78962673  0.52223469
   0.69005259  0.61299530  0.16632262
   0.81350394  0.70883844  0.34421045
   0.93701042  0.46272243  0.74460422
   0.18853199  0.45893991  0.34423662
   0.56898659  0.54893516  0.78883844
   0.56445081  0.36339407  0.16624164
   0.56344104  0.70896918  0.34424020
   0.55541781  0.37367759  0.29977290
   0.18904641  0.46948420  0.87566131
   0.18938029  0.11231778  0.16640067
   0.44351175  0.29868591  0.78865839
   0.68778914  0.78779493  0.25549832
   0.93545529  0.13711015  0.83379769
   0.44047802  0.95972124  0.47770037
   0.56633280  0.72183267  0.87581147
   0.19040941  0.45984783  0.47769047
   0.93620028  0.28092996  0.12447231
   0.31193922  0.04196425  0.38854920
   0.06154320  0.04074994  0.65573132
   0.55989564  0.37488654  0.43311204
   0.68639884  0.46245842  0.74457855
   0.56240877  0.21283800  0.74449784
   0.94452144  0.12673083  0.70025500
   0.56150037  0.04094374  0.65571122
   0.55930035  0.53993242  0.52227244
   0.18036451  0.12360239  0.29967497
   0.43961315  0.11216791  0.16634392
   0.68038469  0.62355678  0.29972724
   0.93046922  0.12349185  0.29976756
   0.81511338  0.37484168  0.56682474
   0.05544006  0.87362481  0.29974296
   0.19008461  0.62472004  0.56686314
   0.31565350  0.36316172  0.16623329
   0.31010788  0.38694982  0.83379166
   0.93920592  0.46929477  0.87567669
   0.43528512  0.63741539  0.83369224
   0.06339854  0.20898448  0.34420308
   0.18970637  0.96989423  0.87573015
   0.93600642  0.78097088  0.12432918
   0.68690665  0.79184529  0.38853424
   0.93657320  0.79100657  0.65572550
   0.93946826  0.11256666  0.16647071
   0.43657329  0.29113348  0.65579842
   0.05581143  0.20115795  0.21133278
   0.68063727  0.95165156  0.21145117
   0.18037955  0.62358065  0.29970611
   0.81937057  0.87623934  0.70025561
   0.94444989  0.62656542  0.70035082
   0.19438667  0.12642705  0.70019704
   0.94070538  0.45968474  0.47770357
   0.81295179  0.20791369  0.61141094
   0.18500428  0.62515563  0.43311976
   0.43042102  0.12361079  0.29967225
   0.68031760  0.12354383  0.29971995
   0.56185741  0.54183556  0.38853740
   0.81327973  0.20892276  0.34424917
   0.43915791  0.46962611  0.87552539
   0.56007913  0.88697382  0.83373762
   0.31562694  0.20976461  0.47769942
   0.19054410  0.95969082  0.47770298
   0.05960991  0.88685898  0.83387058
   0.05936232  0.53988058  0.52227150
   0.94051662  0.95959567  0.47765916
   0.06300029  0.70791788  0.61143795
   0.55927384  0.03986811  0.52221950
   0.69349564  0.29870904  0.78868802
   0.81518668  0.36276175  0.16639103
   0.43483643  0.12503834  0.43310654
   0.06558994  0.20963045  0.47768958
   0.31154451  0.04100054  0.65569472
   0.43425879  0.78974010  0.52226068
   0.18552979  0.13717575  0.83383506
   0.18572438  0.28018552  0.12454495
   0.93847276  0.45907459  0.34422947
   0.56536932  0.86334419  0.16622053
   0.30530876  0.70115332  0.21137498
   0.93919487  0.61228806  0.16637299
   0.18793972  0.45791449  0.61141807
   0.06945188  0.87633541  0.70013579
   0.06152890  0.54098404  0.65574298
   0.31008625  0.52951378  0.12409870
   0.93678889  0.79187033  0.38852202
   0.94345626  0.29806285  0.78869048
   0.18643535  0.29101005  0.65573298
   0.93790907  0.95786414  0.61141968
   0.81240835  0.71222093  0.74455058
   0.68777830  0.28761756  0.25549153
   0.06221391  0.71248707  0.74462616
   0.68069576  0.45124486  0.21135093
   0.81565874  0.20966971  0.47776026