 288 288   0   0
  0.1280206E+02  0.9726678E-09  0.8423550E-09  0.4500000E-08  0.2500000E-15
  1.000000000000000E-004
  CAR 
 unknown system                          
      6.81793498     -6.02618876  301      4.31620625      1.00000000
     -6.026  0.0000E+00  0.0000E+00
     -5.983  0.0000E+00  0.0000E+00
     -5.941  0.0000E+00  0.0000E+00
     -5.898  0.0000E+00  0.0000E+00
     -5.855  0.0000E+00  0.0000E+00
     -5.812  0.0000E+00  0.0000E+00
     -5.769  0.0000E+00  0.0000E+00
     -5.726  0.0000E+00  0.0000E+00
     -5.684  0.0000E+00  0.0000E+00
     -5.641  0.0000E+00  0.0000E+00
     -5.598  0.0000E+00  0.0000E+00
     -5.555  0.0000E+00  0.0000E+00
     -5.512  0.0000E+00  0.0000E+00
     -5.470  0.0000E+00  0.0000E+00
     -5.427  0.0000E+00  0.0000E+00
     -5.384  0.1621E-15  0.6939E-17
     -5.341  0.4344E-14  0.1929E-15
     -5.298  0.9303E-13  0.4176E-14
     -5.256  0.1697E-11  0.7681E-13
     -5.213  0.2635E-10  0.1205E-11
     -5.170  0.3483E-09  0.1612E-10
     -5.127  0.3921E-08  0.1840E-09
     -5.084  0.3759E-07  0.1794E-08
     -5.041  0.3071E-06  0.1494E-07
     -4.999  0.2140E-05  0.1065E-06
     -4.956  0.1272E-04  0.6512E-06
     -4.913  0.6466E-04  0.3420E-05
     -4.870  0.2816E-03  0.1548E-04
     -4.827  0.1054E-02  0.6061E-04
     -4.785  0.3409E-02  0.2066E-03
     -4.742  0.9589E-02  0.6171E-03
     -4.699  0.2368E-01  0.1631E-02
     -4.656  0.5192E-01  0.3854E-02
     -4.613  0.1024E+00  0.8237E-02
     -4.571  0.1839E+00  0.1611E-01
     -4.528  0.3040E+00  0.2913E-01
     -4.485  0.4663E+00  0.4909E-01
     -4.442  0.6672E+00  0.7766E-01
     -4.399  0.8950E+00  0.1160E+00
     -4.356  0.1130E+01  0.1644E+00
     -4.314  0.1350E+01  0.2222E+00
     -4.271  0.1534E+01  0.2878E+00
     -4.228  0.1668E+01  0.3593E+00
     -4.185  0.1757E+01  0.4345E+00
     -4.142  0.1820E+01  0.5124E+00
     -4.100  0.1887E+01  0.5932E+00
     -4.057  0.1990E+01  0.6784E+00
     -4.014  0.2149E+01  0.7705E+00
     -3.971  0.2366E+01  0.8717E+00
     -3.928  0.2616E+01  0.9837E+00
     -3.886  0.2859E+01  0.1106E+01
     -3.843  0.3051E+01  0.1237E+01
     -3.800  0.3159E+01  0.1372E+01
     -3.757  0.3177E+01  0.1508E+01
     -3.714  0.3130E+01  0.1642E+01
     -3.671  0.3064E+01  0.1773E+01
     -3.629  0.3036E+01  0.1903E+01
     -3.586  0.3085E+01  0.2035E+01
     -3.543  0.3224E+01  0.2173E+01
     -3.500  0.3434E+01  0.2320E+01
     -3.457  0.3675E+01  0.2478E+01
     -3.415  0.3898E+01  0.2645E+01
     -3.372  0.4066E+01  0.2819E+01
     -3.329  0.4160E+01  0.2997E+01
     -3.286  0.4188E+01  0.3176E+01
     -3.243  0.4176E+01  0.3355E+01
     -3.200  0.4162E+01  0.3533E+01
     -3.158  0.4189E+01  0.3712E+01
     -3.115  0.4284E+01  0.3896E+01
     -3.072  0.4452E+01  0.4086E+01
     -3.029  0.4676E+01  0.4287E+01
     -2.986  0.4920E+01  0.4497E+01
     -2.944  0.5141E+01  0.4717E+01
     -2.901  0.5300E+01  0.4944E+01
     -2.858  0.5382E+01  0.5175E+01
     -2.815  0.5401E+01  0.5406E+01
     -2.772  0.5402E+01  0.5637E+01
     -2.730  0.5431E+01  0.5870E+01
     -2.687  0.5509E+01  0.6106E+01
     -2.644  0.5606E+01  0.6346E+01
     -2.601  0.5662E+01  0.6588E+01
     -2.558  0.5632E+01  0.6829E+01
     -2.515  0.5539E+01  0.7066E+01
     -2.473  0.5473E+01  0.7301E+01
     -2.430  0.5554E+01  0.7539E+01
     -2.387  0.5862E+01  0.7789E+01
     -2.344  0.6380E+01  0.8063E+01
     -2.301  0.6975E+01  0.8361E+01
     -2.259  0.7448E+01  0.8680E+01
     -2.216  0.7628E+01  0.9007E+01
     -2.173  0.7478E+01  0.9327E+01
     -2.130  0.7127E+01  0.9632E+01
     -2.087  0.6808E+01  0.9924E+01
     -2.045  0.6739E+01  0.1021E+02
     -2.002  0.7010E+01  0.1051E+02
     -1.959  0.7552E+01  0.1084E+02
     -1.916  0.8178E+01  0.1119E+02
     -1.873  0.8676E+01  0.1156E+02
     -1.830  0.8910E+01  0.1194E+02
     -1.788  0.8884E+01  0.1232E+02
     -1.745  0.8731E+01  0.1269E+02
     -1.702  0.8622E+01  0.1306E+02
     -1.659  0.8664E+01  0.1343E+02
     -1.616  0.8858E+01  0.1381E+02
     -1.574  0.9137E+01  0.1420E+02
     -1.531  0.9430E+01  0.1461E+02
     -1.488  0.9704E+01  0.1502E+02
     -1.445  0.9961E+01  0.1545E+02
     -1.402  0.1020E+02  0.1589E+02
     -1.359  0.1039E+02  0.1633E+02
     -1.317  0.1053E+02  0.1678E+02
     -1.274  0.1070E+02  0.1724E+02
     -1.231  0.1104E+02  0.1771E+02
     -1.188  0.1171E+02  0.1821E+02
     -1.145  0.1274E+02  0.1876E+02
     -1.103  0.1392E+02  0.1935E+02
     -1.060  0.1491E+02  0.1999E+02
     -1.017  0.1545E+02  0.2065E+02
     -0.974  0.1554E+02  0.2132E+02
     -0.931  0.1548E+02  0.2198E+02
     -0.889  0.1570E+02  0.2265E+02
     -0.846  0.1653E+02  0.2336E+02
     -0.803  0.1803E+02  0.2413E+02
     -0.760  0.2006E+02  0.2499E+02
     -0.717  0.2254E+02  0.2596E+02
     -0.674  0.2553E+02  0.2705E+02
     -0.632  0.2921E+02  0.2830E+02
     -0.589  0.3358E+02  0.2974E+02
     -0.546  0.3830E+02  0.3138E+02
     -0.503  0.4279E+02  0.3321E+02
     -0.460  0.4651E+02  0.3520E+02
     -0.418  0.4929E+02  0.3731E+02
     -0.375  0.5135E+02  0.3951E+02
     -0.332  0.5302E+02  0.4178E+02
     -0.289  0.5449E+02  0.4411E+02
     -0.246  0.5576E+02  0.4650E+02
     -0.204  0.5669E+02  0.4893E+02
     -0.161  0.5719E+02  0.5138E+02
     -0.118  0.5734E+02  0.5383E+02
     -0.075  0.5737E+02  0.5629E+02
     -0.032  0.5755E+02  0.5875E+02
      0.011  0.5807E+02  0.6124E+02
      0.053  0.5905E+02  0.6377E+02
      0.096  0.6063E+02  0.6636E+02
      0.139  0.6294E+02  0.6906E+02
      0.182  0.6600E+02  0.7188E+02
      0.225  0.6956E+02  0.7486E+02
      0.267  0.7325E+02  0.7800E+02
      0.310  0.7669E+02  0.8128E+02
      0.353  0.7964E+02  0.8469E+02
      0.396  0.8205E+02  0.8820E+02
      0.439  0.8395E+02  0.9180E+02
      0.482  0.8537E+02  0.9545E+02
      0.524  0.8628E+02  0.9915E+02
      0.567  0.8665E+02  0.1029E+03
      0.610  0.8653E+02  0.1066E+03
      0.653  0.8605E+02  0.1102E+03
      0.696  0.8528E+02  0.1139E+03
      0.738  0.8418E+02  0.1175E+03
      0.781  0.8268E+02  0.1210E+03
      0.824  0.8086E+02  0.1245E+03
      0.867  0.7902E+02  0.1279E+03
      0.910  0.7756E+02  0.1312E+03
      0.952  0.7670E+02  0.1345E+03
      0.995  0.7635E+02  0.1378E+03
      1.038  0.7617E+02  0.1410E+03
      1.081  0.7581E+02  0.1443E+03
      1.124  0.7509E+02  0.1475E+03
      1.167  0.7415E+02  0.1507E+03
      1.209  0.7335E+02  0.1538E+03
      1.252  0.7305E+02  0.1569E+03
      1.295  0.7329E+02  0.1601E+03
      1.338  0.7368E+02  0.1632E+03
      1.381  0.7364E+02  0.1664E+03
      1.423  0.7277E+02  0.1695E+03
      1.466  0.7118E+02  0.1725E+03
      1.509  0.6944E+02  0.1755E+03
      1.552  0.6821E+02  0.1784E+03
      1.595  0.6794E+02  0.1813E+03
      1.637  0.6871E+02  0.1843E+03
      1.680  0.7035E+02  0.1873E+03
      1.723  0.7256E+02  0.1904E+03
      1.766  0.7501E+02  0.1936E+03
      1.809  0.7748E+02  0.1969E+03
      1.852  0.7978E+02  0.2003E+03
      1.894  0.8184E+02  0.2038E+03
      1.937  0.8365E+02  0.2074E+03
      1.980  0.8527E+02  0.2111E+03
      2.023  0.8678E+02  0.2148E+03
      2.066  0.8826E+02  0.2186E+03
      2.108  0.8976E+02  0.2224E+03
      2.151  0.9131E+02  0.2263E+03
      2.194  0.9292E+02  0.2303E+03
      2.237  0.9462E+02  0.2343E+03
      2.280  0.9654E+02  0.2385E+03
      2.322  0.9893E+02  0.2427E+03
      2.365  0.1020E+03  0.2471E+03
      2.408  0.1058E+03  0.2516E+03
      2.451  0.1102E+03  0.2563E+03
      2.494  0.1147E+03  0.2612E+03
      2.537  0.1190E+03  0.2663E+03
      2.579  0.1226E+03  0.2716E+03
      2.622  0.1253E+03  0.2770E+03
      2.665  0.1271E+03  0.2824E+03
      2.708  0.1282E+03  0.2879E+03
      2.751  0.1290E+03  0.2934E+03
      2.793  0.1300E+03  0.2990E+03
      2.836  0.1316E+03  0.3046E+03
      2.879  0.1342E+03  0.3104E+03
      2.922  0.1374E+03  0.3162E+03
      2.965  0.1403E+03  0.3222E+03
      3.008  0.1412E+03  0.3283E+03
      3.050  0.1390E+03  0.3342E+03
      3.093  0.1333E+03  0.3399E+03
      3.136  0.1250E+03  0.3453E+03
      3.179  0.1156E+03  0.3502E+03
      3.222  0.1067E+03  0.3548E+03
      3.264  0.9968E+02  0.3591E+03
      3.307  0.9492E+02  0.3632E+03
      3.350  0.9229E+02  0.3671E+03
      3.393  0.9124E+02  0.3710E+03
      3.436  0.9099E+02  0.3749E+03
      3.478  0.9069E+02  0.3788E+03
      3.521  0.8973E+02  0.3826E+03
      3.564  0.8794E+02  0.3864E+03
      3.607  0.8578E+02  0.3901E+03
      3.650  0.8409E+02  0.3937E+03
      3.693  0.8369E+02  0.3972E+03
      3.735  0.8491E+02  0.4009E+03
      3.778  0.8744E+02  0.4046E+03
      3.821  0.9056E+02  0.4085E+03
      3.864  0.9353E+02  0.4125E+03
      3.907  0.9601E+02  0.4166E+03
      3.949  0.9800E+02  0.4208E+03
      3.992  0.9971E+02  0.4251E+03
      4.035  0.1012E+03  0.4294E+03
      4.078  0.1024E+03  0.4338E+03
      4.121  0.1030E+03  0.4382E+03
      4.163  0.1028E+03  0.4426E+03
      4.206  0.1021E+03  0.4470E+03
      4.249  0.1010E+03  0.4513E+03
      4.292  0.9995E+02  0.4556E+03
      4.335  0.9931E+02  0.4598E+03
      4.378  0.9918E+02  0.4641E+03
      4.420  0.9947E+02  0.4683E+03
      4.463  0.9992E+02  0.4726E+03
      4.506  0.1002E+03  0.4769E+03
      4.549  0.1001E+03  0.4812E+03
      4.592  0.9950E+02  0.4855E+03
      4.634  0.9867E+02  0.4897E+03
      4.677  0.9804E+02  0.4939E+03
      4.720  0.9813E+02  0.4981E+03
      4.763  0.9932E+02  0.5023E+03
      4.806  0.1016E+03  0.5067E+03
      4.849  0.1046E+03  0.5112E+03
      4.891  0.1079E+03  0.5158E+03
      4.934  0.1107E+03  0.5205E+03
      4.977  0.1126E+03  0.5253E+03
      5.020  0.1129E+03  0.5302E+03
      5.063  0.1108E+03  0.5349E+03
      5.105  0.1051E+03  0.5394E+03
      5.148  0.9512E+02  0.5435E+03
      5.191  0.8094E+02  0.5470E+03
      5.234  0.6383E+02  0.5497E+03
      5.277  0.4608E+02  0.5517E+03
      5.319  0.3012E+02  0.5529E+03
      5.362  0.1768E+02  0.5537E+03
      5.405  0.9249E+01  0.5541E+03
      5.448  0.4290E+01  0.5543E+03
      5.491  0.1757E+01  0.5544E+03
      5.534  0.6333E+00  0.5544E+03
      5.576  0.2004E+00  0.5544E+03
      5.619  0.5553E-01  0.5544E+03
      5.662  0.1346E-01  0.5544E+03
      5.705  0.2849E-02  0.5544E+03
      5.748  0.5260E-03  0.5544E+03
      5.790  0.8459E-04  0.5544E+03
      5.833  0.1183E-04  0.5544E+03
      5.876  0.1438E-05  0.5544E+03
      5.919  0.1515E-06  0.5544E+03
      5.962  0.1382E-07  0.5544E+03
      6.004  0.1090E-08  0.5544E+03
      6.047  0.7415E-10  0.5544E+03
      6.090  0.4347E-11  0.5544E+03
      6.133  0.2184E-12  0.5544E+03
      6.176  0.9076E-14  0.5544E+03
      6.219  0.1945E-15  0.5544E+03
      6.261  0.0000E+00  0.5544E+03
      6.304  0.0000E+00  0.5544E+03
      6.347  0.0000E+00  0.5544E+03
      6.390  0.0000E+00  0.5544E+03
      6.433  0.0000E+00  0.5544E+03
      6.475  0.0000E+00  0.5544E+03
      6.518  0.0000E+00  0.5544E+03
      6.561  0.0000E+00  0.5544E+03
      6.604  0.0000E+00  0.5544E+03
      6.647  0.0000E+00  0.5544E+03
      6.689  0.0000E+00  0.5544E+03
      6.732  0.0000E+00  0.5544E+03
      6.775  0.0000E+00  0.5544E+03
      6.818  0.0000E+00  0.5544E+03
