 288 288   0   0
  0.1280206E+02  0.9726678E-09  0.8423550E-09  0.4500000E-08  0.2500000E-15
  1.000000000000000E-004
  CAR 
 unknown system                          
      6.78333236     -6.01626576  301      4.29519547      1.00000000
     -6.016  0.0000E+00  0.0000E+00
     -5.974  0.0000E+00  0.0000E+00
     -5.931  0.0000E+00  0.0000E+00
     -5.888  0.0000E+00  0.0000E+00
     -5.846  0.0000E+00  0.0000E+00
     -5.803  0.0000E+00  0.0000E+00
     -5.760  0.0000E+00  0.0000E+00
     -5.718  0.0000E+00  0.0000E+00
     -5.675  0.0000E+00  0.0000E+00
     -5.632  0.0000E+00  0.0000E+00
     -5.590  0.0000E+00  0.0000E+00
     -5.547  0.0000E+00  0.0000E+00
     -5.504  0.0000E+00  0.0000E+00
     -5.462  0.0000E+00  0.0000E+00
     -5.419  0.0000E+00  0.0000E+00
     -5.376  0.1626E-15  0.6939E-17
     -5.334  0.3643E-14  0.1624E-15
     -5.291  0.7859E-13  0.3515E-14
     -5.248  0.1435E-11  0.6474E-13
     -5.206  0.2234E-10  0.1018E-11
     -5.163  0.2966E-09  0.1367E-10
     -5.120  0.3359E-08  0.1570E-09
     -5.078  0.3246E-07  0.1542E-08
     -5.035  0.2679E-06  0.1297E-07
     -4.992  0.1889E-05  0.9358E-07
     -4.950  0.1140E-04  0.5801E-06
     -4.907  0.5899E-04  0.3097E-05
     -4.864  0.2622E-03  0.1428E-04
     -4.822  0.1004E-02  0.5713E-04
     -4.779  0.3331E-02  0.1992E-03
     -4.736  0.9619E-02  0.6096E-03
     -4.694  0.2438E-01  0.1650E-02
     -4.651  0.5473E-01  0.3985E-02
     -4.608  0.1100E+00  0.8679E-02
     -4.566  0.2003E+00  0.1722E-01
     -4.523  0.3336E+00  0.3145E-01
     -4.480  0.5126E+00  0.5333E-01
     -4.438  0.7317E+00  0.8455E-01
     -4.395  0.9748E+00  0.1261E+00
     -4.352  0.1218E+01  0.1781E+00
     -4.310  0.1434E+01  0.2393E+00
     -4.267  0.1601E+01  0.3076E+00
     -4.224  0.1713E+01  0.3807E+00
     -4.182  0.1779E+01  0.4566E+00
     -4.139  0.1830E+01  0.5346E+00
     -4.096  0.1904E+01  0.6158E+00
     -4.054  0.2035E+01  0.7027E+00
     -4.011  0.2238E+01  0.7982E+00
     -3.968  0.2496E+01  0.9047E+00
     -3.926  0.2771E+01  0.1023E+01
     -3.883  0.3007E+01  0.1151E+01
     -3.840  0.3158E+01  0.1286E+01
     -3.798  0.3202E+01  0.1423E+01
     -3.755  0.3158E+01  0.1557E+01
     -3.712  0.3076E+01  0.1688E+01
     -3.670  0.3021E+01  0.1817E+01
     -3.627  0.3046E+01  0.1947E+01
     -3.584  0.3172E+01  0.2083E+01
     -3.542  0.3383E+01  0.2227E+01
     -3.499  0.3628E+01  0.2382E+01
     -3.456  0.3851E+01  0.2546E+01
     -3.414  0.4010E+01  0.2717E+01
     -3.371  0.4096E+01  0.2892E+01
     -3.328  0.4125E+01  0.3068E+01
     -3.286  0.4131E+01  0.3244E+01
     -3.243  0.4146E+01  0.3421E+01
     -3.200  0.4195E+01  0.3600E+01
     -3.158  0.4291E+01  0.3783E+01
     -3.115  0.4433E+01  0.3972E+01
     -3.072  0.4612E+01  0.4169E+01
     -3.030  0.4809E+01  0.4374E+01
     -2.987  0.4999E+01  0.4587E+01
     -2.944  0.5155E+01  0.4807E+01
     -2.902  0.5264E+01  0.5032E+01
     -2.859  0.5330E+01  0.5259E+01
     -2.816  0.5378E+01  0.5489E+01
     -2.774  0.5439E+01  0.5721E+01
     -2.731  0.5534E+01  0.5957E+01
     -2.688  0.5648E+01  0.6198E+01
     -2.646  0.5727E+01  0.6442E+01
     -2.603  0.5711E+01  0.6686E+01
     -2.560  0.5587E+01  0.6924E+01
     -2.518  0.5427E+01  0.7156E+01
     -2.475  0.5367E+01  0.7385E+01
     -2.432  0.5536E+01  0.7621E+01
     -2.390  0.5976E+01  0.7876E+01
     -2.347  0.6596E+01  0.8157E+01
     -2.304  0.7202E+01  0.8465E+01
     -2.262  0.7588E+01  0.8788E+01
     -2.219  0.7640E+01  0.9114E+01
     -2.176  0.7398E+01  0.9430E+01
     -2.134  0.7037E+01  0.9730E+01
     -2.091  0.6790E+01  0.1002E+02
     -2.048  0.6827E+01  0.1031E+02
     -2.006  0.7180E+01  0.1062E+02
     -1.963  0.7739E+01  0.1095E+02
     -1.920  0.8313E+01  0.1130E+02
     -1.878  0.8725E+01  0.1167E+02
     -1.835  0.8888E+01  0.1205E+02
     -1.792  0.8843E+01  0.1243E+02
     -1.750  0.8723E+01  0.1280E+02
     -1.707  0.8667E+01  0.1317E+02
     -1.664  0.8748E+01  0.1355E+02
     -1.622  0.8949E+01  0.1393E+02
     -1.579  0.9210E+01  0.1432E+02
     -1.536  0.9482E+01  0.1473E+02
     -1.494  0.9752E+01  0.1514E+02
     -1.451  0.1002E+02  0.1557E+02
     -1.408  0.1026E+02  0.1601E+02
     -1.366  0.1042E+02  0.1645E+02
     -1.323  0.1052E+02  0.1690E+02
     -1.280  0.1064E+02  0.1735E+02
     -1.238  0.1100E+02  0.1782E+02
     -1.195  0.1176E+02  0.1833E+02
     -1.152  0.1288E+02  0.1888E+02
     -1.110  0.1413E+02  0.1948E+02
     -1.067  0.1511E+02  0.2012E+02
     -1.024  0.1559E+02  0.2079E+02
     -0.982  0.1562E+02  0.2145E+02
     -0.939  0.1553E+02  0.2212E+02
     -0.896  0.1575E+02  0.2279E+02
     -0.854  0.1658E+02  0.2350E+02
     -0.811  0.1802E+02  0.2426E+02
     -0.768  0.1996E+02  0.2512E+02
     -0.726  0.2237E+02  0.2607E+02
     -0.683  0.2540E+02  0.2716E+02
     -0.640  0.2924E+02  0.2840E+02
     -0.598  0.3386E+02  0.2985E+02
     -0.555  0.3881E+02  0.3150E+02
     -0.512  0.4345E+02  0.3336E+02
     -0.470  0.4722E+02  0.3537E+02
     -0.427  0.5002E+02  0.3751E+02
     -0.384  0.5208E+02  0.3973E+02
     -0.342  0.5372E+02  0.4202E+02
     -0.299  0.5510E+02  0.4437E+02
     -0.256  0.5617E+02  0.4677E+02
     -0.214  0.5681E+02  0.4919E+02
     -0.171  0.5702E+02  0.5162E+02
     -0.128  0.5695E+02  0.5405E+02
     -0.086  0.5683E+02  0.5648E+02
     -0.043  0.5693E+02  0.5891E+02
     -0.000  0.5751E+02  0.6136E+02
      0.042  0.5874E+02  0.6387E+02
      0.085  0.6073E+02  0.6646E+02
      0.128  0.6343E+02  0.6916E+02
      0.170  0.6671E+02  0.7201E+02
      0.213  0.7037E+02  0.7501E+02
      0.256  0.7413E+02  0.7818E+02
      0.298  0.7771E+02  0.8149E+02
      0.341  0.8081E+02  0.8494E+02
      0.384  0.8326E+02  0.8849E+02
      0.426  0.8506E+02  0.9212E+02
      0.469  0.8630E+02  0.9580E+02
      0.512  0.8706E+02  0.9952E+02
      0.554  0.8733E+02  0.1032E+03
      0.597  0.8713E+02  0.1070E+03
      0.640  0.8651E+02  0.1107E+03
      0.682  0.8553E+02  0.1143E+03
      0.725  0.8421E+02  0.1179E+03
      0.768  0.8254E+02  0.1214E+03
      0.810  0.8057E+02  0.1249E+03
      0.853  0.7856E+02  0.1282E+03
      0.896  0.7691E+02  0.1315E+03
      0.938  0.7593E+02  0.1347E+03
      0.981  0.7571E+02  0.1380E+03
      1.024  0.7597E+02  0.1412E+03
      1.066  0.7629E+02  0.1445E+03
      1.109  0.7631E+02  0.1477E+03
      1.152  0.7589E+02  0.1509E+03
      1.194  0.7516E+02  0.1542E+03
      1.237  0.7433E+02  0.1573E+03
      1.280  0.7357E+02  0.1605E+03
      1.322  0.7289E+02  0.1636E+03
      1.365  0.7215E+02  0.1667E+03
      1.408  0.7114E+02  0.1697E+03
      1.450  0.6973E+02  0.1727E+03
      1.493  0.6806E+02  0.1756E+03
      1.535  0.6655E+02  0.1784E+03
      1.578  0.6578E+02  0.1812E+03
      1.621  0.6622E+02  0.1840E+03
      1.663  0.6793E+02  0.1869E+03
      1.706  0.7060E+02  0.1899E+03
      1.749  0.7374E+02  0.1931E+03
      1.791  0.7691E+02  0.1964E+03
      1.834  0.7990E+02  0.1998E+03
      1.877  0.8264E+02  0.2033E+03
      1.919  0.8508E+02  0.2069E+03
      1.962  0.8724E+02  0.2107E+03
      2.005  0.8918E+02  0.2145E+03
      2.047  0.9095E+02  0.2183E+03
      2.090  0.9252E+02  0.2223E+03
      2.133  0.9382E+02  0.2263E+03
      2.175  0.9488E+02  0.2303E+03
      2.218  0.9592E+02  0.2344E+03
      2.261  0.9740E+02  0.2386E+03
      2.303  0.9972E+02  0.2428E+03
      2.346  0.1031E+03  0.2472E+03
      2.389  0.1073E+03  0.2518E+03
      2.431  0.1118E+03  0.2566E+03
      2.474  0.1160E+03  0.2615E+03
      2.517  0.1196E+03  0.2666E+03
      2.559  0.1224E+03  0.2719E+03
      2.602  0.1246E+03  0.2772E+03
      2.645  0.1265E+03  0.2826E+03
      2.687  0.1283E+03  0.2880E+03
      2.730  0.1303E+03  0.2936E+03
      2.773  0.1326E+03  0.2993E+03
      2.815  0.1353E+03  0.3050E+03
      2.858  0.1382E+03  0.3109E+03
      2.901  0.1407E+03  0.3169E+03
      2.943  0.1421E+03  0.3230E+03
      2.986  0.1413E+03  0.3290E+03
      3.029  0.1376E+03  0.3349E+03
      3.071  0.1313E+03  0.3405E+03
      3.114  0.1231E+03  0.3457E+03
      3.157  0.1140E+03  0.3506E+03
      3.199  0.1054E+03  0.3551E+03
      3.242  0.9807E+02  0.3593E+03
      3.285  0.9257E+02  0.3632E+03
      3.327  0.8883E+02  0.3670E+03
      3.370  0.8651E+02  0.3707E+03
      3.413  0.8518E+02  0.3744E+03
      3.455  0.8442E+02  0.3780E+03
      3.498  0.8388E+02  0.3815E+03
      3.541  0.8331E+02  0.3851E+03
      3.583  0.8269E+02  0.3886E+03
      3.626  0.8237E+02  0.3921E+03
      3.669  0.8287E+02  0.3957E+03
      3.711  0.8464E+02  0.3993E+03
      3.754  0.8778E+02  0.4030E+03
      3.797  0.9192E+02  0.4069E+03
      3.839  0.9639E+02  0.4111E+03
      3.882  0.1006E+03  0.4154E+03
      3.925  0.1041E+03  0.4198E+03
      3.967  0.1066E+03  0.4243E+03
      4.010  0.1083E+03  0.4290E+03
      4.053  0.1090E+03  0.4336E+03
      4.095  0.1089E+03  0.4383E+03
      4.138  0.1081E+03  0.4429E+03
      4.181  0.1069E+03  0.4474E+03
      4.223  0.1056E+03  0.4519E+03
      4.266  0.1043E+03  0.4564E+03
      4.309  0.1032E+03  0.4608E+03
      4.351  0.1022E+03  0.4652E+03
      4.394  0.1017E+03  0.4695E+03
      4.437  0.1013E+03  0.4738E+03
      4.479  0.1010E+03  0.4781E+03
      4.522  0.1002E+03  0.4824E+03
      4.565  0.9902E+02  0.4866E+03
      4.607  0.9780E+02  0.4908E+03
      4.650  0.9709E+02  0.4949E+03
      4.693  0.9733E+02  0.4991E+03
      4.735  0.9866E+02  0.5033E+03
      4.778  0.1009E+03  0.5076E+03
      4.821  0.1035E+03  0.5120E+03
      4.863  0.1061E+03  0.5165E+03
      4.906  0.1081E+03  0.5212E+03
      4.949  0.1092E+03  0.5258E+03
      4.991  0.1089E+03  0.5305E+03
      5.034  0.1066E+03  0.5350E+03
      5.077  0.1016E+03  0.5393E+03
      5.119  0.9290E+02  0.5433E+03
      5.162  0.8019E+02  0.5467E+03
      5.205  0.6432E+02  0.5495E+03
      5.247  0.4728E+02  0.5515E+03
      5.290  0.3148E+02  0.5528E+03
      5.333  0.1883E+02  0.5536E+03
      5.375  0.1004E+02  0.5541E+03
      5.418  0.4753E+01  0.5543E+03
      5.461  0.1987E+01  0.5544E+03
      5.503  0.7314E+00  0.5544E+03
      5.546  0.2363E+00  0.5544E+03
      5.589  0.6680E-01  0.5544E+03
      5.631  0.1649E-01  0.5544E+03
      5.674  0.3548E-02  0.5544E+03
      5.717  0.6636E-03  0.5544E+03
      5.759  0.1077E-03  0.5544E+03
      5.802  0.1514E-04  0.5544E+03
      5.845  0.1841E-05  0.5544E+03
      5.887  0.1934E-06  0.5544E+03
      5.930  0.1752E-07  0.5544E+03
      5.973  0.1367E-08  0.5544E+03
      6.015  0.9182E-10  0.5544E+03
      6.058  0.5303E-11  0.5544E+03
      6.101  0.2608E-12  0.5544E+03
      6.143  0.1086E-13  0.5544E+03
      6.186  0.1301E-15  0.5544E+03
      6.229  0.0000E+00  0.5544E+03
      6.271  0.0000E+00  0.5544E+03
      6.314  0.0000E+00  0.5544E+03
      6.357  0.0000E+00  0.5544E+03
      6.399  0.0000E+00  0.5544E+03
      6.442  0.0000E+00  0.5544E+03
      6.485  0.0000E+00  0.5544E+03
      6.527  0.0000E+00  0.5544E+03
      6.570  0.0000E+00  0.5544E+03
      6.613  0.0000E+00  0.5544E+03
      6.655  0.0000E+00  0.5544E+03
      6.698  0.0000E+00  0.5544E+03
      6.741  0.0000E+00  0.5544E+03
      6.783  0.0000E+00  0.5544E+03
