<?xml version="1.0" encoding="ISO-8859-1"?>
<modeling>
 <generator>
  <i name="program" type="string">vasp </i>
  <i name="version" type="string">5.4.4.18Apr17-6-g9f103f2a35  </i>
  <i name="subversion" type="string">(build Sep 27 2018 12:46:37) complex + VL-xray_ parallel </i>
  <i name="platform" type="string">LLNL_Quartz_ifc </i>
  <i name="date" type="string">2021 09 26 </i>
  <i name="time" type="string">18:39:35 </i>
 </generator>
 <incar>
  <i type="int" name="ISTART">     2</i>
  <i type="string" name="PREC">accurate</i>
  <i type="string" name="ALGO"> Fast</i>
  <i type="int" name="ICHARG">     2</i>
  <i type="int" name="INIWAV">     1</i>
  <i type="int" name="NELM">   200</i>
  <i type="int" name="NELMIN">     4</i>
  <i type="int" name="IBRION">     2</i>
  <i name="EDIFF">      0.00000100</i>
  <i type="int" name="NSW">     5</i>
  <i type="int" name="ISIF">     2</i>
  <i type="int" name="ISYM">     2</i>
  <i name="ENCUT">    450.00000000</i>
  <i name="POTIM">      0.25000000</i>
  <i type="string" name="LREAL"> Auto</i>
  <i type="int" name="ISMEAR">     0</i>
  <i name="SIGMA">      0.15000000</i>
  <i type="logical" name="LWAVE"> F  </i>
  <i type="logical" name="LCHARG"> F  </i>
  <i type="int" name="ICORELEVEL">     0</i>
  <i type="int" name="CLNT">     1</i>
  <i type="int" name="CLN">     1</i>
  <i type="int" name="INCAR     ">     0</i>
  <i name="CLZ">      0.00000000</i>
  <v type="int" name="KPOINT_BSE">    -1     0     0     0</v>
  <i type="int" name="NELM">   200</i>
 </incar>
 <structure name="primitive_cell" >
  <crystal>
   <varray name="basis" >
    <v>       9.72667804       0.00000000       0.00000000 </v>
    <v>       0.00000000       8.42355028       0.00000000 </v>
    <v>       0.00000000       0.00000000      45.00000000 </v>
   </varray>
   <i name="volume">   3686.99226691 </i>
   <varray name="rec_basis" >
    <v>       0.10281002       0.00000000       0.00000000 </v>
    <v>       0.00000000       0.11871479       0.00000000 </v>
    <v>       0.00000000       0.00000000       0.02222222 </v>
   </varray>
  </crystal>
  <varray name="positions" >
   <v>       0.05370855      -0.29895696       0.21128325 </v>
   <v>      -0.05934476      -0.21237334       0.25521775 </v>
   <v>      -0.05869635      -0.38770132       0.16656331 </v>
   <v>       0.06565781      -0.46248121       0.25522351 </v>
   <v>      -0.07095625       0.45147351       0.21131795 </v>
   <v>       0.30356388      -0.29930008       0.21126604 </v>
   <v>       0.17837789      -0.04883968       0.21129899 </v>
   <v>       0.17861846       0.45105801       0.21136978 </v>
   <v>      -0.19638711      -0.29906840       0.21129860 </v>
   <v>      -0.07097842      -0.04849354       0.21129695 </v>
   <v>       0.06784796      -0.13669732       0.16664387 </v>
   <v>       0.19040776      -0.21217801       0.25522503 </v>
   <v>       0.19190056      -0.38841139       0.16640966 </v>
   <v>      -0.18227753      -0.13815339       0.16666582 </v>
   <v>      -0.18403565      -0.46258921       0.25548935 </v>
   <v>       0.06573345       0.03737604       0.25520582 </v>
   <v>       0.06761668       0.36314422       0.16664588 </v>
   <v>       0.31531507      -0.46215781       0.25512795 </v>
   <v>       0.31835699      -0.13729028       0.16575918 </v>
   <v>      -0.30911325      -0.21253952       0.25542711 </v>
   <v>      -0.30822897      -0.38736062       0.16670794 </v>
   <v>      -0.06515410      -0.21819020       0.12419301 </v>
   <v>      -0.05876661       0.11216548       0.16650701 </v>
   <v>      -0.05916313       0.28742464       0.25541921 </v>
   <v>      -0.18509032       0.03737785       0.25524032 </v>
   <v>      -0.18249584       0.36181958       0.16671846 </v>
   <v>       0.18612392      -0.21708984       0.12425218 </v>
   <v>       0.05682902      -0.47378687       0.12413503 </v>
   <v>       0.17825523      -0.37611241       0.29942797 </v>
   <v>      -0.32107664       0.45138448       0.21120718 </v>
   <v>      -0.07214700      -0.37633659       0.29961071 </v>
   <v>       0.05421540       0.20110405       0.21125710 </v>
   <v>      -0.32117104      -0.04870460       0.21129241 </v>
   <v>       0.42891601       0.45099106       0.21147129 </v>
   <v>       0.42887016      -0.04863841       0.21138784 </v>
   <v>       0.19170762       0.11138362       0.16640344 </v>
   <v>       0.19079437       0.28732672       0.25524222 </v>
   <v>       0.05283124      -0.12610997       0.29955399 </v>
   <v>       0.31522506       0.03771335       0.25512792 </v>
   <v>       0.44066018      -0.21221901       0.25528333 </v>
   <v>       0.44147220      -0.38959607       0.16641224 </v>
   <v>       0.31868446       0.36324965       0.16580529 </v>
   <v>       0.05731460       0.02676684       0.12411268 </v>
   <v>      -0.19095583      -0.47196375       0.12392942 </v>
   <v>       0.05262727       0.37380155       0.29955725 </v>
   <v>      -0.19582668       0.20113072       0.21121733 </v>
   <v>      -0.44641883      -0.29958915       0.21113455 </v>
   <v>       0.30459904       0.20044852       0.21119274 </v>
   <v>       0.30804164      -0.47418711       0.12395429 </v>
   <v>       0.30295216      -0.12614767       0.29957318 </v>
   <v>      -0.19683514      -0.12655577       0.29945998 </v>
   <v>      -0.43420509      -0.46260677       0.25518115 </v>
   <v>      -0.43306946      -0.13725108       0.16646043 </v>
   <v>      -0.30833546       0.11240669       0.16669138 </v>
   <v>      -0.31235689      -0.21781622       0.12425341 </v>
   <v>      -0.30909618       0.28767872       0.25530676 </v>
   <v>      -0.19087561       0.02804583       0.12394016 </v>
   <v>       0.30919334       0.02579006       0.12398969 </v>
   <v>      -0.06554323       0.28198193       0.12416306 </v>
   <v>       0.30297763       0.37388740       0.29958492 </v>
   <v>      -0.19693782       0.37341896       0.29950763 </v>
   <v>       0.18530086       0.28307599       0.12431645 </v>
   <v>       0.42805835      -0.37645362       0.29940198 </v>
   <v>      -0.32231716      -0.37640087       0.29961560 </v>
   <v>       0.43720673      -0.21600008       0.12401226 </v>
   <v>       0.17793732       0.12358113       0.29958829 </v>
   <v>      -0.07210471       0.12339597       0.29966330 </v>
   <v>       0.44062070       0.28729842       0.25510514 </v>
   <v>       0.44164507       0.11051031       0.16642041 </v>
   <v>      -0.43487817       0.03738679       0.25509131 </v>
   <v>      -0.43347065       0.36248041       0.16644086 </v>
   <v>       0.06496284      -0.29128893       0.34392238 </v>
   <v>      -0.31244996       0.28213256       0.12420140 </v>
   <v>      -0.44077739      -0.47300175       0.12387933 </v>
   <v>      -0.18532435      -0.29139410       0.34393888 </v>
   <v>      -0.05992224       0.45936779       0.34407151 </v>
   <v>      -0.44584604       0.20076799       0.21111113 </v>
   <v>      -0.44714606      -0.12627800       0.29959054 </v>
   <v>       0.18997921       0.45893099       0.34404889 </v>
   <v>      -0.05979950      -0.04081721       0.34407907 </v>
   <v>       0.43689798       0.28362957       0.12405955 </v>
   <v>       0.42800482       0.12360971       0.29945832 </v>
   <v>      -0.32197636       0.12360629       0.29953101 </v>
   <v>       0.18974522      -0.04113770       0.34393006 </v>
   <v>       0.31506814      -0.29100915       0.34399989 </v>
   <v>      -0.44040944       0.02686754       0.12392089 </v>
   <v>      -0.44716168       0.37374651       0.29958531 </v>
   <v>      -0.31028116       0.45882467       0.34400715 </v>
   <v>       0.06466316       0.20874189       0.34381381 </v>
   <v>      -0.30998639      -0.04091221       0.34404925 </v>
   <v>       0.43986615       0.45871048       0.34399935 </v>
   <v>       0.43990748      -0.04111603       0.34401376 </v>
   <v>      -0.43526415      -0.29110183       0.34394487 </v>
   <v>      -0.18542377       0.20852447       0.34396708 </v>
   <v>       0.31465369       0.20886838       0.34391731 </v>
   <v>       0.06138060      -0.45886696       0.38841578 </v>
   <v>      -0.06394144      -0.20884827       0.38843037 </v>
   <v>       0.18622442      -0.20871626       0.38830414 </v>
   <v>      -0.18881226      -0.45805962       0.38829754 </v>
   <v>       0.31117936      -0.45873045       0.38844494 </v>
   <v>       0.06131830       0.04126685       0.38843981 </v>
   <v>      -0.43516854       0.20887274       0.34400891 </v>
   <v>      -0.06317529       0.29157647       0.38841978 </v>
   <v>      -0.31366358      -0.20862969       0.38840836 </v>
   <v>       0.18615322       0.29129243       0.38837042 </v>
   <v>      -0.18895730       0.04153237       0.38832869 </v>
   <v>       0.43598812      -0.20879964       0.38836203 </v>
   <v>       0.31112884       0.04112119       0.38842442 </v>
   <v>      -0.31361304       0.29130564       0.38841117 </v>
   <v>      -0.43859512      -0.45851728       0.38844781 </v>
   <v>       0.43649259       0.29127801       0.38841756 </v>
   <v>      -0.43858169       0.04135766       0.38839381 </v>
   <v>      -0.06708644      -0.37501535       0.43313640 </v>
   <v>       0.05844311      -0.12500763       0.43290522 </v>
   <v>       0.18354530      -0.37515364       0.43309602 </v>
   <v>       0.05851557       0.37497183       0.43301549 </v>
   <v>      -0.19134651      -0.12525247       0.43302403 </v>
   <v>       0.30863213      -0.12487269       0.43304919 </v>
   <v>      -0.19124539       0.37518526       0.43302691 </v>
   <v>      -0.31627093      -0.37507182       0.43302349 </v>
   <v>       0.30886601       0.37483340       0.43287895 </v>
   <v>      -0.06637155       0.12485706       0.43285547 </v>
   <v>       0.43356672      -0.37488513       0.43300256 </v>
   <v>       0.18374940       0.12488633       0.43300246 </v>
   <v>      -0.44137594      -0.12469485       0.43304883 </v>
   <v>      -0.31637270       0.12508899       0.43291226 </v>
   <v>       0.43358661       0.12493849       0.43295554 </v>
   <v>      -0.44126959       0.37467091       0.43305200 </v>
   <v>       0.06804094      -0.28918018       0.47741111 </v>
   <v>      -0.05716726       0.46076977       0.47724237 </v>
   <v>      -0.18237297      -0.28924935       0.47735413 </v>
   <v>      -0.05736702      -0.03946507       0.47725452 </v>
   <v>       0.19262326       0.46066481       0.47730373 </v>
   <v>       0.31758261      -0.28969878       0.47728978 </v>
   <v>       0.19288481      -0.03924511       0.47746993 </v>
   <v>      -0.30721729       0.46072484       0.47744635 </v>
   <v>      -0.30736276      -0.03936857       0.47739581 </v>
   <v>       0.06784331       0.21067708       0.47744781 </v>
   <v>       0.44280805       0.46081459       0.47748588 </v>
   <v>       0.44274017      -0.03942563       0.47742306 </v>
   <v>      -0.43251442      -0.28950085       0.47731952 </v>
   <v>      -0.18214914       0.21073775       0.47747034 </v>
   <v>       0.31756671       0.21055568       0.47728630 </v>
   <v>      -0.43231731       0.21067276       0.47745547 </v>
   <v>       0.05598636      -0.46067609      -0.47768169 </v>
   <v>      -0.06734084      -0.21142841      -0.47771292 </v>
   <v>       0.18216291      -0.21093233      -0.47747765 </v>
   <v>      -0.19253342      -0.46073020      -0.47751510 </v>
   <v>       0.30732801      -0.46099177      -0.47754942 </v>
   <v>       0.05722110       0.03914790      -0.47746913 </v>
   <v>      -0.06739953       0.28899514      -0.47750707 </v>
   <v>       0.18202328       0.28953790      -0.47757094 </v>
   <v>      -0.31767898      -0.21064870      -0.47751894 </v>
   <v>      -0.19276106       0.03924023      -0.47748678 </v>
   <v>       0.30727192       0.03876912      -0.47770544 </v>
   <v>       0.43237933      -0.21077627      -0.47749337 </v>
   <v>      -0.31740827       0.28828043      -0.47772347 </v>
   <v>      -0.44333138      -0.46082574      -0.47753259 </v>
   <v>       0.43276115       0.28844707      -0.47779787 </v>
   <v>      -0.44245415       0.03880099      -0.47771914 </v>
   <v>       0.06752210      -0.27667780      -0.12379436 </v>
   <v>      -0.18295020      -0.27615335      -0.12367294 </v>
   <v>      -0.06024189       0.46849902      -0.12388862 </v>
   <v>       0.18950444       0.46788739      -0.12392048 </v>
   <v>      -0.06035014      -0.03166178      -0.12386830 </v>
   <v>       0.31819188      -0.27625038      -0.12372796 </v>
   <v>       0.18969200      -0.03208873      -0.12388101 </v>
   <v>       0.06814272       0.22318364      -0.12382329 </v>
   <v>      -0.31017876       0.46801459      -0.12388531 </v>
   <v>      -0.31024238      -0.03160553      -0.12391153 </v>
   <v>       0.43963663       0.46776974      -0.12400344 </v>
   <v>       0.43958472      -0.03209754      -0.12389785 </v>
   <v>      -0.18253182       0.22406061      -0.12380594 </v>
   <v>      -0.43240845      -0.27526264      -0.12376633 </v>
   <v>       0.31732222       0.22353205      -0.12387817 </v>
   <v>      -0.05844703      -0.37497844      -0.43311693 </v>
   <v>       0.06660773      -0.12491247      -0.43316875 </v>
   <v>       0.19175007      -0.37512503      -0.43313136 </v>
   <v>      -0.18320509      -0.12487872      -0.43311132 </v>
   <v>       0.06649121       0.37517576      -0.43315838 </v>
   <v>       0.31661379      -0.12516716      -0.43314306 </v>
   <v>      -0.43185444       0.22385375      -0.12387993 </v>
   <v>      -0.30854524      -0.37523277      -0.43315343 </v>
   <v>      -0.18338654       0.37514667      -0.43311819 </v>
   <v>      -0.05844746       0.12505790      -0.43313172 </v>
   <v>       0.31633942       0.37504856      -0.43310982 </v>
   <v>       0.44194646      -0.37496627      -0.43324266 </v>
   <v>       0.19171840       0.12504168      -0.43315617 </v>
   <v>      -0.43333869      -0.12512325      -0.43319648 </v>
   <v>      -0.30848647       0.12502769      -0.43306559 </v>
   <v>       0.44162834       0.12498747      -0.43309453 </v>
   <v>      -0.43356585       0.37515718      -0.43314456 </v>
   <v>      -0.06624612      -0.36235078      -0.16608702 </v>
   <v>       0.18327435      -0.36233740      -0.16642849 </v>
   <v>       0.05856846      -0.11241512      -0.16651910 </v>
   <v>       0.05856770       0.38861395      -0.16643850 </v>
   <v>      -0.19145085      -0.11226144      -0.16644256 </v>
   <v>       0.30860380      -0.11232040      -0.16647143 </v>
   <v>      -0.19161434       0.38763363      -0.16643827 </v>
   <v>       0.30839959       0.38750302      -0.16646108 </v>
   <v>      -0.31637980      -0.36223544      -0.16648213 </v>
   <v>       0.43373159      -0.36213726      -0.16647129 </v>
   <v>      -0.06637903       0.13777019      -0.16645943 </v>
   <v>       0.18355062       0.13792608      -0.16638146 </v>
   <v>      -0.44148935      -0.11248167      -0.16653512 </v>
   <v>      -0.31657022       0.13764212      -0.16648891 </v>
   <v>       0.43346782       0.13772748      -0.16648178 </v>
   <v>      -0.44133492       0.38754905      -0.16650776 </v>
   <v>       0.06333005      -0.29165006      -0.38840473 </v>
   <v>      -0.06154148       0.45860158      -0.38842222 </v>
   <v>      -0.18662180      -0.29156809      -0.38837153 </v>
   <v>       0.18861650       0.45876712      -0.38844494 </v>
   <v>      -0.06182544      -0.04181251      -0.38839452 </v>
   <v>       0.18836905      -0.04121467      -0.38844459 </v>
   <v>       0.31371640      -0.29133021      -0.38840536 </v>
   <v>      -0.31163069       0.45847505      -0.38846076 </v>
   <v>       0.06361300       0.20832594      -0.38845039 </v>
   <v>      -0.31147762      -0.04095476      -0.38851250 </v>
   <v>       0.43844797       0.45844279      -0.38843605 </v>
   <v>       0.43832581      -0.04148480      -0.38844026 </v>
   <v>      -0.18661947       0.20844721      -0.38847615 </v>
   <v>      -0.43664562      -0.29149944      -0.38843460 </v>
   <v>       0.31310558       0.20833749      -0.38849107 </v>
   <v>       0.07075046      -0.45061164      -0.21119788 </v>
   <v>      -0.05539935      -0.20031344      -0.21115755 </v>
   <v>       0.19453457      -0.20049140      -0.21114614 </v>
   <v>      -0.43702913       0.20806365      -0.38864745 </v>
   <v>      -0.18014704      -0.45033189      -0.21106755 </v>
   <v>       0.31960680      -0.45019362      -0.21106691 </v>
   <v>       0.06949323       0.04959443      -0.21096869 </v>
   <v>      -0.05522282       0.29870471      -0.21123379 </v>
   <v>      -0.30506341      -0.20073765      -0.21109724 </v>
   <v>       0.19485956       0.29917870      -0.21116088 </v>
   <v>      -0.18074086       0.04961862      -0.21092639 </v>
   <v>       0.44454353      -0.20074476      -0.21115216 </v>
   <v>       0.31993183       0.04944643      -0.21111105 </v>
   <v>      -0.43005021      -0.45037436      -0.21093769 </v>
   <v>      -0.30489741       0.29918031      -0.21119329 </v>
   <v>       0.44467207       0.29902886      -0.21116686 </v>
   <v>      -0.43063510       0.04985140      -0.21104560 </v>
   <v>       0.05973632      -0.45930526      -0.34411116 </v>
   <v>      -0.06506547      -0.20925242      -0.34404827 </v>
   <v>       0.18478803      -0.20945351      -0.34413638 </v>
   <v>      -0.19038277      -0.45925611      -0.34411466 </v>
   <v>       0.30970100      -0.45937687      -0.34400193 </v>
   <v>       0.05991073       0.04073839      -0.34408080 </v>
   <v>      -0.06513225       0.29069462      -0.34409648 </v>
   <v>      -0.31550329      -0.20955262      -0.34410877 </v>
   <v>       0.18481597       0.29067104      -0.34402789 </v>
   <v>      -0.19026732       0.04062496      -0.34407516 </v>
   <v>       0.43454331      -0.20973415      -0.34408169 </v>
   <v>       0.30990580       0.04084539      -0.34405157 </v>
   <v>      -0.44014966      -0.45928095      -0.34403581 </v>
   <v>      -0.31503795       0.29059492      -0.34393709 </v>
   <v>       0.43517819       0.29092732      -0.34391756 </v>
   <v>      -0.44030658       0.04068139      -0.34409348 </v>
   <v>       0.05912727      -0.28761001      -0.25502656 </v>
   <v>      -0.06572437       0.46270759      -0.25508224 </v>
   <v>       0.18434763       0.46263565      -0.25506914 </v>
   <v>      -0.18998665      -0.28792404      -0.25515275 </v>
   <v>       0.30977898      -0.28798788      -0.25518889 </v>
   <v>      -0.06644919      -0.03781450      -0.25532576 </v>
   <v>       0.18396408      -0.03735251      -0.25524375 </v>
   <v>      -0.31606605       0.46277940      -0.25503457 </v>
   <v>       0.05988077       0.21267471      -0.25506530 </v>
   <v>       0.43458003       0.46285416      -0.25509406 </v>
   <v>      -0.31543503      -0.03738857      -0.25515072 </v>
   <v>       0.43422361      -0.03749353      -0.25515209 </v>
   <v>       0.30961742       0.21236901      -0.25508566 </v>
   <v>      -0.18936869       0.21151046      -0.25538848 </v>
   <v>      -0.44013904      -0.28791687      -0.25513949 </v>
   <v>      -0.43997216       0.21257023      -0.25511971 </v>
   <v>      -0.05312897      -0.37363427      -0.29948970 </v>
   <v>       0.07224496      -0.12363618      -0.29964042 </v>
   <v>       0.19707271      -0.37401018      -0.29968644 </v>
   <v>      -0.17781770      -0.12361603      -0.29958847 </v>
   <v>       0.07187623       0.37638786      -0.29945551 </v>
   <v>       0.32199816      -0.12359172      -0.29946632 </v>
   <v>      -0.17811248       0.37657138      -0.29974278 </v>
   <v>      -0.30307174      -0.37378671      -0.29957918 </v>
   <v>      -0.05291295       0.12625577      -0.29962436 </v>
   <v>       0.32226229       0.37630432      -0.29961145 </v>
   <v>       0.19705387       0.12631583      -0.29962822 </v>
   <v>       0.44694846      -0.37382528      -0.29956196 </v>
   <v>      -0.42849201      -0.12359449      -0.29938940 </v>
   <v>      -0.30268163       0.12597309      -0.29953100 </v>
   <v>       0.44722944       0.12590418      -0.29955751 </v>
   <v>      -0.42776732       0.37637897      -0.29960318 </v>
  </varray>
 </structure>
 <varray name="primitive_index" >
  <v type="int" >        1 </v>
  <v type="int" >      238 </v>
  <v type="int" >      193 </v>
  <v type="int" >      220 </v>
  <v type="int" >      242 </v>
  <v type="int" >      192 </v>
  <v type="int" >      109 </v>
  <v type="int" >       10 </v>
  <v type="int" >       81 </v>
  <v type="int" >       71 </v>
  <v type="int" >      208 </v>
  <v type="int" >       89 </v>
  <v type="int" >       35 </v>
  <v type="int" >       32 </v>
  <v type="int" >      288 </v>
  <v type="int" >      263 </v>
  <v type="int" >       55 </v>
  <v type="int" >      243 </v>
  <v type="int" >      283 </v>
  <v type="int" >      128 </v>
  <v type="int" >      117 </v>
  <v type="int" >      155 </v>
  <v type="int" >      158 </v>
  <v type="int" >      252 </v>
  <v type="int" >      222 </v>
  <v type="int" >      183 </v>
  <v type="int" >      262 </v>
  <v type="int" >      265 </v>
  <v type="int" >      162 </v>
  <v type="int" >      205 </v>
  <v type="int" >       38 </v>
  <v type="int" >      160 </v>
  <v type="int" >      161 </v>
  <v type="int" >       28 </v>
  <v type="int" >       15 </v>
  <v type="int" >      126 </v>
  <v type="int" >       45 </v>
  <v type="int" >      147 </v>
  <v type="int" >      278 </v>
  <v type="int" >      226 </v>
  <v type="int" >      227 </v>
  <v type="int" >      286 </v>
  <v type="int" >       48 </v>
  <v type="int" >       14 </v>
  <v type="int" >       26 </v>
  <v type="int" >       70 </v>
  <v type="int" >      251 </v>
  <v type="int" >       61 </v>
  <v type="int" >      197 </v>
  <v type="int" >      108 </v>
  <v type="int" >      277 </v>
  <v type="int" >       33 </v>
  <v type="int" >      191 </v>
  <v type="int" >       90 </v>
  <v type="int" >       25 </v>
  <v type="int" >      203 </v>
  <v type="int" >       99 </v>
  <v type="int" >       23 </v>
  <v type="int" >      133 </v>
  <v type="int" >       52 </v>
  <v type="int" >      104 </v>
  <v type="int" >      189 </v>
  <v type="int" >      100 </v>
  <v type="int" >      144 </v>
  <v type="int" >       83 </v>
  <v type="int" >      142 </v>
  <v type="int" >      145 </v>
  <v type="int" >        5 </v>
  <v type="int" >      143 </v>
  <v type="int" >      261 </v>
  <v type="int" >      122 </v>
  <v type="int" >      112 </v>
  <v type="int" >      267 </v>
  <v type="int" >       43 </v>
  <v type="int" >      118 </v>
  <v type="int" >      190 </v>
  <v type="int" >       63 </v>
  <v type="int" >      255 </v>
  <v type="int" >      120 </v>
  <v type="int" >       92 </v>
  <v type="int" >      279 </v>
  <v type="int" >      169 </v>
  <v type="int" >      170 </v>
  <v type="int" >      254 </v>
  <v type="int" >      257 </v>
  <v type="int" >      214 </v>
  <v type="int" >      124 </v>
  <v type="int" >       34 </v>
  <v type="int" >      153 </v>
  <v type="int" >       24 </v>
  <v type="int" >       95 </v>
  <v type="int" >      236 </v>
  <v type="int" >      123 </v>
  <v type="int" >      172 </v>
  <v type="int" >      258 </v>
  <v type="int" >      247 </v>
  <v type="int" >      198 </v>
  <v type="int" >      229 </v>
  <v type="int" >       86 </v>
  <v type="int" >       57 </v>
  <v type="int" >      246 </v>
  <v type="int" >       50 </v>
  <v type="int" >      273 </v>
  <v type="int" >      156 </v>
  <v type="int" >      105 </v>
  <v type="int" >       17 </v>
  <v type="int" >       79 </v>
  <v type="int" >      134 </v>
  <v type="int" >      232 </v>
  <v type="int" >      171 </v>
  <v type="int" >      248 </v>
  <v type="int" >      244 </v>
  <v type="int" >      282 </v>
  <v type="int" >      211 </v>
  <v type="int" >      168 </v>
  <v type="int" >      256 </v>
  <v type="int" >       46 </v>
  <v type="int" >      240 </v>
  <v type="int" >       29 </v>
  <v type="int" >       94 </v>
  <v type="int" >      215 </v>
  <v type="int" >      178 </v>
  <v type="int" >      281 </v>
  <v type="int" >      223 </v>
  <v type="int" >      239 </v>
  <v type="int" >      115 </v>
  <v type="int" >      184 </v>
  <v type="int" >      136 </v>
  <v type="int" >       62 </v>
  <v type="int" >      166 </v>
  <v type="int" >      268 </v>
  <v type="int" >      179 </v>
  <v type="int" >      132 </v>
  <v type="int" >      217 </v>
  <v type="int" >      176 </v>
  <v type="int" >      249 </v>
  <v type="int" >       91 </v>
  <v type="int" >      185 </v>
  <v type="int" >       19 </v>
  <v type="int" >      130 </v>
  <v type="int" >      207 </v>
  <v type="int" >      206 </v>
  <v type="int" >      175 </v>
  <v type="int" >       11 </v>
  <v type="int" >      285 </v>
  <v type="int" >      116 </v>
  <v type="int" >      107 </v>
  <v type="int" >      241 </v>
  <v type="int" >      230 </v>
  <v type="int" >      218 </v>
  <v type="int" >      209 </v>
  <v type="int" >      225 </v>
  <v type="int" >       18 </v>
  <v type="int" >       93 </v>
  <v type="int" >      266 </v>
  <v type="int" >      187 </v>
  <v type="int" >       87 </v>
  <v type="int" >      141 </v>
  <v type="int" >      111 </v>
  <v type="int" >      181 </v>
  <v type="int" >       58 </v>
  <v type="int" >      101 </v>
  <v type="int" >      151 </v>
  <v type="int" >      125 </v>
  <v type="int" >      274 </v>
  <v type="int" >        2 </v>
  <v type="int" >      154 </v>
  <v type="int" >      212 </v>
  <v type="int" >       27 </v>
  <v type="int" >      234 </v>
  <v type="int" >      173 </v>
  <v type="int" >       97 </v>
  <v type="int" >       41 </v>
  <v type="int" >      131 </v>
  <v type="int" >       39 </v>
  <v type="int" >       72 </v>
  <v type="int" >       12 </v>
  <v type="int" >      148 </v>
  <v type="int" >      276 </v>
  <v type="int" >      250 </v>
  <v type="int" >       40 </v>
  <v type="int" >       13 </v>
  <v type="int" >      264 </v>
  <v type="int" >      146 </v>
  <v type="int" >      259 </v>
  <v type="int" >      216 </v>
  <v type="int" >       21 </v>
  <v type="int" >      233 </v>
  <v type="int" >       98 </v>
  <v type="int" >      235 </v>
  <v type="int" >       68 </v>
  <v type="int" >       16 </v>
  <v type="int" >       59 </v>
  <v type="int" >       66 </v>
  <v type="int" >      177 </v>
  <v type="int" >        6 </v>
  <v type="int" >       75 </v>
  <v type="int" >        7 </v>
  <v type="int" >       73 </v>
  <v type="int" >      150 </v>
  <v type="int" >      271 </v>
  <v type="int" >      152 </v>
  <v type="int" >      129 </v>
  <v type="int" >      188 </v>
  <v type="int" >      174 </v>
  <v type="int" >      221 </v>
  <v type="int" >      269 </v>
  <v type="int" >      103 </v>
  <v type="int" >      180 </v>
  <v type="int" >      245 </v>
  <v type="int" >       82 </v>
  <v type="int" >      194 </v>
  <v type="int" >      201 </v>
  <v type="int" >       51 </v>
  <v type="int" >      280 </v>
  <v type="int" >      102 </v>
  <v type="int" >      228 </v>
  <v type="int" >        3 </v>
  <v type="int" >        4 </v>
  <v type="int" >      260 </v>
  <v type="int" >      167 </v>
  <v type="int" >       30 </v>
  <v type="int" >       77 </v>
  <v type="int" >      284 </v>
  <v type="int" >      149 </v>
  <v type="int" >       36 </v>
  <v type="int" >      275 </v>
  <v type="int" >      106 </v>
  <v type="int" >       60 </v>
  <v type="int" >       67 </v>
  <v type="int" >      199 </v>
  <v type="int" >       88 </v>
  <v type="int" >       54 </v>
  <v type="int" >      253 </v>
  <v type="int" >      114 </v>
  <v type="int" >       85 </v>
  <v type="int" >      121 </v>
  <v type="int" >      182 </v>
  <v type="int" >      127 </v>
  <v type="int" >       44 </v>
  <v type="int" >      196 </v>
  <v type="int" >      157 </v>
  <v type="int" >      113 </v>
  <v type="int" >       42 </v>
  <v type="int" >       49 </v>
  <v type="int" >      135 </v>
  <v type="int" >       69 </v>
  <v type="int" >      210 </v>
  <v type="int" >      200 </v>
  <v type="int" >      213 </v>
  <v type="int" >       53 </v>
  <v type="int" >      186 </v>
  <v type="int" >       31 </v>
  <v type="int" >       76 </v>
  <v type="int" >      159 </v>
  <v type="int" >      140 </v>
  <v type="int" >      204 </v>
  <v type="int" >      119 </v>
  <v type="int" >      110 </v>
  <v type="int" >      202 </v>
  <v type="int" >       84 </v>
  <v type="int" >      287 </v>
  <v type="int" >      237 </v>
  <v type="int" >      137 </v>
  <v type="int" >        9 </v>
  <v type="int" >       78 </v>
  <v type="int" >       80 </v>
  <v type="int" >       20 </v>
  <v type="int" >       64 </v>
  <v type="int" >       96 </v>
  <v type="int" >      272 </v>
  <v type="int" >      138 </v>
  <v type="int" >      164 </v>
  <v type="int" >      195 </v>
  <v type="int" >       74 </v>
  <v type="int" >      163 </v>
  <v type="int" >       65 </v>
  <v type="int" >      219 </v>
  <v type="int" >      231 </v>
  <v type="int" >       56 </v>
  <v type="int" >      139 </v>
  <v type="int" >      270 </v>
  <v type="int" >      165 </v>
  <v type="int" >        8 </v>
  <v type="int" >       22 </v>
  <v type="int" >      224 </v>
  <v type="int" >       37 </v>
  <v type="int" >       47 </v>
 </varray>
 <kpoints>
  <generation param="Gamma">
   <v type="int" name="divisions">       4        4        1 </v>
   <v name="usershift">      0.00000000       0.00000000       0.00000000 </v>
   <v name="genvec1">      0.25000000       0.00000000       0.00000000 </v>
   <v name="genvec2">      0.00000000       0.25000000       0.00000000 </v>
   <v name="genvec3">      0.00000000       0.00000000       1.00000000 </v>
   <v name="shift">      0.00000000       0.00000000       0.00000000 </v>
  </generation>
  <varray name="kpointlist" >
   <v>       0.00000000       0.00000000       0.00000000 </v>
   <v>       0.25000000       0.00000000       0.00000000 </v>
   <v>       0.50000000       0.00000000       0.00000000 </v>
   <v>       0.00000000       0.25000000       0.00000000 </v>
   <v>       0.25000000       0.25000000       0.00000000 </v>
   <v>       0.50000000       0.25000000       0.00000000 </v>
   <v>      -0.25000000       0.25000000       0.00000000 </v>
   <v>       0.00000000       0.50000000       0.00000000 </v>
   <v>       0.25000000       0.50000000       0.00000000 </v>
   <v>       0.50000000       0.50000000       0.00000000 </v>
  </varray>
  <varray name="weights" >
   <v>       0.06250000 </v>
   <v>       0.12500000 </v>
   <v>       0.06250000 </v>
   <v>       0.12500000 </v>
   <v>       0.12500000 </v>
   <v>       0.12500000 </v>
   <v>       0.12500000 </v>
   <v>       0.06250000 </v>
   <v>       0.12500000 </v>
   <v>       0.06250000 </v>
  </varray>
 </kpoints>
 <parameters>
  <separator name="general" >
   <i type="string" name="SYSTEM">unknown system</i>
   <i type="logical" name="LCOMPAT"> F  </i>
  </separator>
  <separator name="electronic" >
   <i type="string" name="PREC">accura</i>
   <i name="ENMAX">    450.00000000</i>
   <i name="ENAUG">    838.43500000</i>
   <i name="EDIFF">      0.00000100</i>
   <i type="int" name="IALGO">    68</i>
   <i type="int" name="IWAVPR">    11</i>
   <i type="int" name="NBANDS">  1386</i>
   <i name="NELECT">   2297.00000000</i>
   <i type="int" name="TURBO">     0</i>
   <i type="int" name="IRESTART">     0</i>
   <i type="int" name="NREBOOT">     0</i>
   <i type="int" name="NMIN">     0</i>
   <i name="EREF">      0.00000000</i>
   <separator name="electronic smearing" >
    <i type="int" name="ISMEAR">     0</i>
    <i name="SIGMA">      0.15000000</i>
    <i name="KSPACING">      0.50000000</i>
    <i type="logical" name="KGAMMA"> T  </i>
   </separator>
   <separator name="electronic projectors" >
    <i type="logical" name="LREAL"> T  </i>
    <v name="ROPT">     -0.00025000     -0.00025000</v>
    <i type="int" name="LMAXPAW">  -100</i>
    <i type="int" name="LMAXMIX">     2</i>
    <i type="logical" name="NLSPLINE"> F  </i>
   </separator>
   <separator name="electronic startup" >
    <i type="int" name="ISTART">     0</i>
    <i type="int" name="ICHARG">     2</i>
    <i type="int" name="INIWAV">     1</i>
   </separator>
   <separator name="electronic spin" >
    <i type="int" name="ISPIN">     1</i>
    <i type="logical" name="LNONCOLLINEAR"> F  </i>
    <v name="MAGMOM">      1.00000000      1.00000000      1.00000000      1.00000000      1.00000000      1.00000000      1.00000000      1.00000000      1.00000000      1.00000000      1.00000000      1.00000000      1.00000000      1.00000000      1.00000000      1.00000000      1.00000000      1.00000000      1.00000000      1.00000000
      1.00000000      1.00000000      1.00000000      1.00000000      1.00000000      1.00000000      1.00000000      1.00000000      1.00000000      1.00000000      1.00000000      1.00000000      1.00000000      1.00000000      1.00000000      1.00000000      1.00000000      1.00000000      1.00000000      1.00000000
      1.00000000      1.00000000      1.00000000      1.00000000      1.00000000      1.00000000      1.00000000      1.00000000      1.00000000      1.00000000      1.00000000      1.00000000      1.00000000      1.00000000      1.00000000      1.00000000      1.00000000      1.00000000      1.00000000      1.00000000
      1.00000000      1.00000000      1.00000000      1.00000000      1.00000000      1.00000000      1.00000000      1.00000000      1.00000000      1.00000000      1.00000000      1.00000000      1.00000000      1.00000000      1.00000000      1.00000000      1.00000000      1.00000000      1.00000000      1.00000000
      1.00000000      1.00000000      1.00000000      1.00000000      1.00000000      1.00000000      1.00000000      1.00000000      1.00000000      1.00000000      1.00000000      1.00000000      1.00000000      1.00000000      1.00000000      1.00000000      1.00000000      1.00000000      1.00000000      1.00000000
      1.00000000      1.00000000      1.00000000      1.00000000      1.00000000      1.00000000      1.00000000      1.00000000      1.00000000      1.00000000      1.00000000      1.00000000      1.00000000      1.00000000      1.00000000      1.00000000      1.00000000      1.00000000      1.00000000      1.00000000
      1.00000000      1.00000000      1.00000000      1.00000000      1.00000000      1.00000000      1.00000000      1.00000000      1.00000000      1.00000000      1.00000000      1.00000000      1.00000000      1.00000000      1.00000000      1.00000000      1.00000000      1.00000000      1.00000000      1.00000000
      1.00000000      1.00000000      1.00000000      1.00000000      1.00000000      1.00000000      1.00000000      1.00000000      1.00000000      1.00000000      1.00000000      1.00000000      1.00000000      1.00000000      1.00000000      1.00000000      1.00000000      1.00000000      1.00000000      1.00000000
      1.00000000      1.00000000      1.00000000      1.00000000      1.00000000      1.00000000      1.00000000      1.00000000      1.00000000      1.00000000      1.00000000      1.00000000      1.00000000      1.00000000      1.00000000      1.00000000      1.00000000      1.00000000      1.00000000      1.00000000
      1.00000000      1.00000000      1.00000000      1.00000000      1.00000000      1.00000000      1.00000000      1.00000000      1.00000000      1.00000000      1.00000000      1.00000000      1.00000000      1.00000000      1.00000000      1.00000000      1.00000000      1.00000000      1.00000000      1.00000000
      1.00000000      1.00000000      1.00000000      1.00000000      1.00000000      1.00000000      1.00000000      1.00000000      1.00000000      1.00000000      1.00000000      1.00000000      1.00000000      1.00000000      1.00000000      1.00000000      1.00000000      1.00000000      1.00000000      1.00000000
      1.00000000      1.00000000      1.00000000      1.00000000      1.00000000      1.00000000      1.00000000      1.00000000      1.00000000      1.00000000      1.00000000      1.00000000      1.00000000      1.00000000      1.00000000      1.00000000      1.00000000      1.00000000      1.00000000      1.00000000
      1.00000000      1.00000000      1.00000000      1.00000000      1.00000000      1.00000000      1.00000000      1.00000000      1.00000000      1.00000000      1.00000000      1.00000000      1.00000000      1.00000000      1.00000000      1.00000000      1.00000000      1.00000000      1.00000000      1.00000000
      1.00000000      1.00000000      1.00000000      1.00000000      1.00000000      1.00000000      1.00000000      1.00000000      1.00000000      1.00000000      1.00000000      1.00000000      1.00000000      1.00000000      1.00000000      1.00000000      1.00000000      1.00000000      1.00000000      1.00000000
      1.00000000      1.00000000      1.00000000      1.00000000      1.00000000      1.00000000      1.00000000      1.00000000</v>
    <i name="NUPDOWN">     -1.00000000</i>
    <i type="logical" name="LSORBIT"> F  </i>
    <v name="SAXIS">      0.00000000      0.00000000      1.00000000</v>
    <i type="logical" name="LSPIRAL"> F  </i>
    <v name="QSPIRAL">      0.00000000      0.00000000      0.00000000</v>
    <i type="logical" name="LZEROZ"> F  </i>
   </separator>
   <separator name="electronic exchange-correlation" >
    <i type="logical" name="LASPH"> F  </i>
    <i type="logical" name="LMETAGGA"> F  </i>
   </separator>
   <separator name="electronic convergence" >
    <i type="int" name="NELM">   200</i>
    <i type="int" name="NELMDL">     0</i>
    <i type="int" name="NELMIN">     4</i>
    <i name="ENINI">    450.00000000</i>
    <separator name="electronic convergence detail" >
     <i type="logical" name="LDIAG"> T  </i>
     <i type="logical" name="LSUBROT"> F  </i>
     <i name="WEIMIN">      0.00100000</i>
     <i name="EBREAK">      0.00000000</i>
     <i name="DEPER">      0.30000000</i>
     <i type="int" name="NRMM">     4</i>
     <i name="TIME">      0.40000000</i>
    </separator>
   </separator>
   <separator name="electronic mixer" >
    <i name="AMIX">      0.40000000</i>
    <i name="BMIX">      1.00000000</i>
    <i name="AMIN">      0.10000000</i>
    <i name="AMIX_MAG">      1.60000000</i>
    <i name="BMIX_MAG">      1.00000000</i>
    <separator name="electronic mixer details" >
     <i type="int" name="IMIX">     4</i>
     <i type="logical" name="MIXFIRST"> F  </i>
     <i type="int" name="MAXMIX">   -45</i>
     <i name="WC">    100.00000000</i>
     <i type="int" name="INIMIX">     1</i>
     <i type="int" name="MIXPRE">     1</i>
     <i type="int" name="MREMOVE">     5</i>
    </separator>
   </separator>
   <separator name="electronic dipolcorrection" >
    <i type="logical" name="LDIPOL"> F  </i>
    <i type="logical" name="LMONO"> F  </i>
    <i type="int" name="IDIPOL">     0</i>
    <i name="EPSILON">      1.00000000</i>
    <v name="DIPOL">   -100.00000000   -100.00000000   -100.00000000</v>
    <i name="EFIELD">      0.00000000</i>
   </separator>
  </separator>
  <separator name="grids" >
   <i type="int" name="NGX">    70</i>
   <i type="int" name="NGY">    60</i>
   <i type="int" name="NGZ">   320</i>
   <i type="int" name="NGXF">   140</i>
   <i type="int" name="NGYF">   120</i>
   <i type="int" name="NGZF">   640</i>
   <i type="logical" name="ADDGRID"> F  </i>
  </separator>
  <separator name="ionic" >
   <i type="int" name="NSW">     5</i>
   <i type="int" name="IBRION">     2</i>
   <i type="int" name="MDALGO">     0</i>
   <i type="int" name="ISIF">     2</i>
   <i name="PSTRESS">      0.00000000</i>
   <i name="EDIFFG">      0.00001000</i>
   <i type="int" name="NFREE">     1</i>
   <i name="POTIM">      0.25000000</i>
   <i name="SMASS">     -3.00000000</i>
   <i name="SCALEE">      1.00000000</i>
  </separator>
  <separator name="ionic md" >
   <i name="TEBEG">      0.00010000</i>
   <i name="TEEND">      0.00010000</i>
   <i type="int" name="NBLOCK">     1</i>
   <i type="int" name="KBLOCK">     5</i>
   <i type="int" name="NPACO">   256</i>
   <i name="APACO">     16.00000000</i>
  </separator>
  <separator name="symmetry" >
   <i type="int" name="ISYM">     2</i>
   <i name="SYMPREC">      0.00001000</i>
  </separator>
  <separator name="dos" >
   <i type="int" name="LORBIT">     0</i>
   <v name="RWIGS">     -1.00000000     -1.00000000</v>
   <i type="int" name="NEDOS">   301</i>
   <i name="EMIN">     10.00000000</i>
   <i name="EMAX">    -10.00000000</i>
   <i name="EFERMI">      0.00000000</i>
  </separator>
  <separator name="writing" >
   <i type="int" name="NWRITE">     2</i>
   <i type="logical" name="LWAVE"> F  </i>
   <i type="logical" name="LDOWNSAMPLE"> F  </i>
   <i type="logical" name="LCHARG"> F  </i>
   <i type="logical" name="LPARD"> F  </i>
   <i type="logical" name="LVTOT"> F  </i>
   <i type="logical" name="LVHAR"> F  </i>
   <i type="logical" name="LELF"> F  </i>
   <i type="logical" name="LOPTICS"> F  </i>
   <v name="STM">      0.00000000      0.00000000      0.00000000      0.00000000      0.00000000      0.00000000      0.00000000</v>
  </separator>
  <separator name="performance" >
   <i type="int" name="NPAR">    14</i>
   <i type="int" name="NSIM">     4</i>
   <i type="int" name="NBLK">    -1</i>
   <i type="logical" name="LPLANE"> T  </i>
   <i type="logical" name="LSCALAPACK"> T  </i>
   <i type="logical" name="LSCAAWARE"> T  </i>
   <i type="logical" name="LSCALU"> F  </i>
   <i type="logical" name="LASYNC"> F  </i>
   <i type="logical" name="LORBITALREAL"> F  </i>
  </separator>
  <separator name="miscellaneous" >
   <i type="int" name="IDIOT">     3</i>
   <i type="int" name="ISPECIAL">     0</i>
   <i type="logical" name="LMUSIC"> F  </i>
   <v name="POMASS">     55.84700000     54.93800000</v>
   <v name="DARWINR">      0.00000000      0.00000000</v>
   <v name="DARWINV">      1.00000000      1.00000000</v>
   <i type="logical" name="LCORR"> T  </i>
  </separator>
  <i type="logical" name="GGA_COMPAT"> T  </i>
  <i type="logical" name="LBERRY"> F  </i>
  <i type="int" name="ICORELEVEL">     0</i>
  <i type="logical" name="LDAU"> F  </i>
  <i type="int" name="I_CONSTRAINED_M">     0</i>
  <separator name="electronic exchange-correlation" >
   <i type="string" name="GGA">--</i>
   <i type="int" name="VOSKOWN">     0</i>
   <i type="logical" name="LHFCALC"> F  </i>
   <i type="string" name="PRECFOCK"></i>
   <i type="logical" name="LSYMGRAD"> F  </i>
   <i type="logical" name="LHFONE"> F  </i>
   <i type="logical" name="LRHFCALC"> F  </i>
   <i type="logical" name="LTHOMAS"> F  </i>
   <i type="logical" name="LMODELHF"> F  </i>
   <i name="ENCUT4O">     -1.00000000</i>
   <i type="int" name="EXXOEP">     0</i>
   <i type="int" name="FOURORBIT">     0</i>
   <i name="AEXX">      0.00000000</i>
   <i name="HFALPHA">      0.00000000</i>
   <i name="MCALPHA">      0.00000000</i>
   <i name="ALDAX">      1.00000000</i>
   <i name="AGGAX">      1.00000000</i>
   <i name="ALDAC">      1.00000000</i>
   <i name="AGGAC">      1.00000000</i>
   <i type="int" name="NKREDX">     1</i>
   <i type="int" name="NKREDY">     1</i>
   <i type="int" name="NKREDZ">     1</i>
   <i type="logical" name="SHIFTRED"> F  </i>
   <i type="logical" name="ODDONLY"> F  </i>
   <i type="logical" name="EVENONLY"> F  </i>
   <i type="int" name="LMAXFOCK">     0</i>
   <i type="int" name="NMAXFOCKAE">     0</i>
   <i type="logical" name="LFOCKAEDFT"> F  </i>
   <i name="HFSCREEN">      0.00000000</i>
   <i name="HFSCREENC">      0.00000000</i>
   <i type="int" name="NBANDSGWLOW">     0</i>
  </separator>
  <separator name="vdW DFT" >
   <i type="logical" name="LUSE_VDW"> F  </i>
   <i name="Zab_VDW">     -0.84910000</i>
   <i name="PARAM1">      0.12340000</i>
   <i name="PARAM2">      1.00000000</i>
   <i name="PARAM3">      0.00000000</i>
  </separator>
  <separator name="model GW" >
   <i type="int" name="MODEL_GW">     0</i>
   <i name="MODEL_EPS0">      7.68123389</i>
   <i name="MODEL_ALPHA">      1.00000000</i>
  </separator>
  <separator name="linear response parameters" >
   <i type="logical" name="LEPSILON"> F  </i>
   <i type="logical" name="LRPA"> F  </i>
   <i type="logical" name="LNABLA"> F  </i>
   <i type="logical" name="LVEL"> F  </i>
   <i type="int" name="KINTER">     0</i>
   <i name="CSHIFT">      0.10000000</i>
   <i name="OMEGAMAX">     -1.00000000</i>
   <i name="DEG_THRESHOLD">      0.00200000</i>
   <i name="RTIME">     -0.10000000</i>
   <i name="WPLASMAI">      0.00000000</i>
   <v name="DFIELD">      0.00000000      0.00000000      0.00000000</v>
   <v name="WPLASMA">      0.00000000      0.00000000      0.00000000      0.00000000      0.00000000      0.00000000      0.00000000      0.00000000      0.00000000</v>
  </separator>
  <separator name="orbital magnetization" >
   <i type="logical" name="NUCIND"> F  </i>
   <v name="MAGPOS">      0.00000000      0.00000000      0.00000000</v>
   <i type="logical" name="LNICSALL"> T  </i>
   <i type="logical" name="ORBITALMAG"> F  </i>
   <i type="logical" name="LMAGBLOCH"> F  </i>
   <i type="logical" name="LCHIMAG"> F  </i>
   <i type="logical" name="LGAUGE"> T  </i>
   <i type="int" name="MAGATOM">     0</i>
   <v name="MAGDIPOL">      0.00000000      0.00000000      0.00000000</v>
   <v name="AVECCONST">      0.00000000      0.00000000      0.00000000</v>
  </separator>
  <separator name="response functions" >
   <i type="logical" name="LADDER"> F  </i>
   <i type="logical" name="LRPAFORCE"> F  </i>
   <i type="logical" name="LFXC"> F  </i>
   <i type="logical" name="LHARTREE"> T  </i>
   <i type="int" name="IBSE">     0</i>
   <v type="int" name="KPOINT">    -1     0     0     0</v>
   <i type="logical" name="LTCTE"> F  </i>
   <i type="logical" name="LTETE"> F  </i>
   <i type="logical" name="LTRIPLET"> F  </i>
   <i type="logical" name="LFXCEPS"> F  </i>
   <i type="logical" name="LFXHEG"> F  </i>
   <i type="int" name="NATURALO">     2</i>
   <i type="logical" name="L2ORDER"> F  </i>
   <i type="logical" name="LMP2LT"> F  </i>
   <i type="logical" name="LUSEW"> F  </i>
   <i name="ENCUTGW">     -2.00000000</i>
   <i name="ENCUTGWSOFT">     -2.00000000</i>
   <i name="ENCUTLF">     -1.00000000</i>
   <i type="int" name="LMAXMP2">    -1</i>
   <i name="SCISSOR">      0.00000000</i>
   <i type="int" name="NOMEGA">     0</i>
   <i type="int" name="NOMEGAR">     0</i>
   <i type="int" name="NBANDSGW">    -1</i>
   <i type="int" name="NBANDSO">    -1</i>
   <i type="int" name="NBANDSV">    -1</i>
   <i type="int" name="NELM">   200</i>
   <i type="int" name="NELMHF">     1</i>
   <i type="int" name="DIM">     3</i>
   <i type="int" name="ANTIRES">     0</i>
   <i name="OMEGAMAX">    -30.00000000</i>
   <i name="OMEGAMIN">    -30.00000000</i>
   <i name="OMEGATL">   -200.00000000</i>
   <i type="int" name="OMEGAGRID">   140</i>
   <i name="CSHIFT">     -0.10000000</i>
   <i type="logical" name="SELFENERGY"> F  </i>
   <i type="logical" name="LSPECTRAL"> F  </i>
   <i type="logical" name="LSPECTRALGW"> F  </i>
   <i type="logical" name="LSINGLES"> F  </i>
   <i type="logical" name="LFERMIGW"> F  </i>
   <i type="logical" name="ODDONLYGW"> F  </i>
   <i type="logical" name="EVENONLYGW"> F  </i>
   <i type="int" name="NKREDLFX">     1</i>
   <i type="int" name="NKREDLFY">     1</i>
   <i type="int" name="NKREDLFZ">     1</i>
   <i type="int" name="MAXMEM">  2800</i>
   <i type="int" name="TELESCOPE">     0</i>
   <i type="int" name="TAUPAR">     1</i>
   <i type="int" name="OMEGAPAR">    -1</i>
   <i name="LAMBDA">      1.00000000</i>
  </separator>
  <separator name="External order field" >
   <i name="OFIELD_KAPPA">      0.00000000</i>
   <v name="OFIELD_K">      0.00000000      0.00000000      0.00000000</v>
   <i name="OFIELD_Q6_NEAR">      0.00000000</i>
   <i name="OFIELD_Q6_FAR">      0.00000000</i>
   <i name="OFIELD_A">      0.00000000</i>
  </separator>
 </parameters>
 <atominfo>
  <atoms>     288 </atoms>
  <types>       2 </types>
  <array name="atoms" >
   <dimension dim="1">ion</dimension>
   <field type="string">element</field>
   <field type="int">atomtype</field>
   <set>
    <rc><c>Fe</c><c>   1</c></rc>
    <rc><c>Fe</c><c>   1</c></rc>
    <rc><c>Fe</c><c>   1</c></rc>
    <rc><c>Fe</c><c>   1</c></rc>
    <rc><c>Fe</c><c>   1</c></rc>
    <rc><c>Fe</c><c>   1</c></rc>
    <rc><c>Fe</c><c>   1</c></rc>
    <rc><c>Fe</c><c>   1</c></rc>
    <rc><c>Fe</c><c>   1</c></rc>
    <rc><c>Fe</c><c>   1</c></rc>
    <rc><c>Fe</c><c>   1</c></rc>
    <rc><c>Fe</c><c>   1</c></rc>
    <rc><c>Fe</c><c>   1</c></rc>
    <rc><c>Fe</c><c>   1</c></rc>
    <rc><c>Fe</c><c>   1</c></rc>
    <rc><c>Fe</c><c>   1</c></rc>
    <rc><c>Fe</c><c>   1</c></rc>
    <rc><c>Fe</c><c>   1</c></rc>
    <rc><c>Fe</c><c>   1</c></rc>
    <rc><c>Fe</c><c>   1</c></rc>
    <rc><c>Fe</c><c>   1</c></rc>
    <rc><c>Fe</c><c>   1</c></rc>
    <rc><c>Fe</c><c>   1</c></rc>
    <rc><c>Fe</c><c>   1</c></rc>
    <rc><c>Fe</c><c>   1</c></rc>
    <rc><c>Fe</c><c>   1</c></rc>
    <rc><c>Fe</c><c>   1</c></rc>
    <rc><c>Fe</c><c>   1</c></rc>
    <rc><c>Fe</c><c>   1</c></rc>
    <rc><c>Fe</c><c>   1</c></rc>
    <rc><c>Fe</c><c>   1</c></rc>
    <rc><c>Fe</c><c>   1</c></rc>
    <rc><c>Fe</c><c>   1</c></rc>
    <rc><c>Fe</c><c>   1</c></rc>
    <rc><c>Fe</c><c>   1</c></rc>
    <rc><c>Fe</c><c>   1</c></rc>
    <rc><c>Fe</c><c>   1</c></rc>
    <rc><c>Fe</c><c>   1</c></rc>
    <rc><c>Fe</c><c>   1</c></rc>
    <rc><c>Fe</c><c>   1</c></rc>
    <rc><c>Fe</c><c>   1</c></rc>
    <rc><c>Fe</c><c>   1</c></rc>
    <rc><c>Fe</c><c>   1</c></rc>
    <rc><c>Fe</c><c>   1</c></rc>
    <rc><c>Fe</c><c>   1</c></rc>
    <rc><c>Fe</c><c>   1</c></rc>
    <rc><c>Fe</c><c>   1</c></rc>
    <rc><c>Fe</c><c>   1</c></rc>
    <rc><c>Fe</c><c>   1</c></rc>
    <rc><c>Fe</c><c>   1</c></rc>
    <rc><c>Fe</c><c>   1</c></rc>
    <rc><c>Fe</c><c>   1</c></rc>
    <rc><c>Fe</c><c>   1</c></rc>
    <rc><c>Fe</c><c>   1</c></rc>
    <rc><c>Fe</c><c>   1</c></rc>
    <rc><c>Fe</c><c>   1</c></rc>
    <rc><c>Fe</c><c>   1</c></rc>
    <rc><c>Fe</c><c>   1</c></rc>
    <rc><c>Fe</c><c>   1</c></rc>
    <rc><c>Fe</c><c>   1</c></rc>
    <rc><c>Fe</c><c>   1</c></rc>
    <rc><c>Fe</c><c>   1</c></rc>
    <rc><c>Fe</c><c>   1</c></rc>
    <rc><c>Fe</c><c>   1</c></rc>
    <rc><c>Fe</c><c>   1</c></rc>
    <rc><c>Fe</c><c>   1</c></rc>
    <rc><c>Fe</c><c>   1</c></rc>
    <rc><c>Fe</c><c>   1</c></rc>
    <rc><c>Fe</c><c>   1</c></rc>
    <rc><c>Fe</c><c>   1</c></rc>
    <rc><c>Fe</c><c>   1</c></rc>
    <rc><c>Fe</c><c>   1</c></rc>
    <rc><c>Fe</c><c>   1</c></rc>
    <rc><c>Fe</c><c>   1</c></rc>
    <rc><c>Fe</c><c>   1</c></rc>
    <rc><c>Fe</c><c>   1</c></rc>
    <rc><c>Fe</c><c>   1</c></rc>
    <rc><c>Fe</c><c>   1</c></rc>
    <rc><c>Fe</c><c>   1</c></rc>
    <rc><c>Fe</c><c>   1</c></rc>
    <rc><c>Fe</c><c>   1</c></rc>
    <rc><c>Fe</c><c>   1</c></rc>
    <rc><c>Fe</c><c>   1</c></rc>
    <rc><c>Fe</c><c>   1</c></rc>
    <rc><c>Fe</c><c>   1</c></rc>
    <rc><c>Fe</c><c>   1</c></rc>
    <rc><c>Fe</c><c>   1</c></rc>
    <rc><c>Fe</c><c>   1</c></rc>
    <rc><c>Fe</c><c>   1</c></rc>
    <rc><c>Fe</c><c>   1</c></rc>
    <rc><c>Fe</c><c>   1</c></rc>
    <rc><c>Fe</c><c>   1</c></rc>
    <rc><c>Fe</c><c>   1</c></rc>
    <rc><c>Fe</c><c>   1</c></rc>
    <rc><c>Fe</c><c>   1</c></rc>
    <rc><c>Fe</c><c>   1</c></rc>
    <rc><c>Fe</c><c>   1</c></rc>
    <rc><c>Fe</c><c>   1</c></rc>
    <rc><c>Fe</c><c>   1</c></rc>
    <rc><c>Fe</c><c>   1</c></rc>
    <rc><c>Fe</c><c>   1</c></rc>
    <rc><c>Fe</c><c>   1</c></rc>
    <rc><c>Fe</c><c>   1</c></rc>
    <rc><c>Fe</c><c>   1</c></rc>
    <rc><c>Fe</c><c>   1</c></rc>
    <rc><c>Fe</c><c>   1</c></rc>
    <rc><c>Fe</c><c>   1</c></rc>
    <rc><c>Fe</c><c>   1</c></rc>
    <rc><c>Fe</c><c>   1</c></rc>
    <rc><c>Fe</c><c>   1</c></rc>
    <rc><c>Fe</c><c>   1</c></rc>
    <rc><c>Fe</c><c>   1</c></rc>
    <rc><c>Fe</c><c>   1</c></rc>
    <rc><c>Fe</c><c>   1</c></rc>
    <rc><c>Fe</c><c>   1</c></rc>
    <rc><c>Fe</c><c>   1</c></rc>
    <rc><c>Fe</c><c>   1</c></rc>
    <rc><c>Fe</c><c>   1</c></rc>
    <rc><c>Fe</c><c>   1</c></rc>
    <rc><c>Fe</c><c>   1</c></rc>
    <rc><c>Fe</c><c>   1</c></rc>
    <rc><c>Fe</c><c>   1</c></rc>
    <rc><c>Fe</c><c>   1</c></rc>
    <rc><c>Fe</c><c>   1</c></rc>
    <rc><c>Fe</c><c>   1</c></rc>
    <rc><c>Fe</c><c>   1</c></rc>
    <rc><c>Fe</c><c>   1</c></rc>
    <rc><c>Fe</c><c>   1</c></rc>
    <rc><c>Fe</c><c>   1</c></rc>
    <rc><c>Fe</c><c>   1</c></rc>
    <rc><c>Fe</c><c>   1</c></rc>
    <rc><c>Fe</c><c>   1</c></rc>
    <rc><c>Fe</c><c>   1</c></rc>
    <rc><c>Fe</c><c>   1</c></rc>
    <rc><c>Fe</c><c>   1</c></rc>
    <rc><c>Fe</c><c>   1</c></rc>
    <rc><c>Fe</c><c>   1</c></rc>
    <rc><c>Fe</c><c>   1</c></rc>
    <rc><c>Fe</c><c>   1</c></rc>
    <rc><c>Fe</c><c>   1</c></rc>
    <rc><c>Fe</c><c>   1</c></rc>
    <rc><c>Fe</c><c>   1</c></rc>
    <rc><c>Fe</c><c>   1</c></rc>
    <rc><c>Fe</c><c>   1</c></rc>
    <rc><c>Fe</c><c>   1</c></rc>
    <rc><c>Fe</c><c>   1</c></rc>
    <rc><c>Fe</c><c>   1</c></rc>
    <rc><c>Fe</c><c>   1</c></rc>
    <rc><c>Fe</c><c>   1</c></rc>
    <rc><c>Fe</c><c>   1</c></rc>
    <rc><c>Fe</c><c>   1</c></rc>
    <rc><c>Fe</c><c>   1</c></rc>
    <rc><c>Fe</c><c>   1</c></rc>
    <rc><c>Fe</c><c>   1</c></rc>
    <rc><c>Fe</c><c>   1</c></rc>
    <rc><c>Fe</c><c>   1</c></rc>
    <rc><c>Fe</c><c>   1</c></rc>
    <rc><c>Fe</c><c>   1</c></rc>
    <rc><c>Fe</c><c>   1</c></rc>
    <rc><c>Fe</c><c>   1</c></rc>
    <rc><c>Fe</c><c>   1</c></rc>
    <rc><c>Fe</c><c>   1</c></rc>
    <rc><c>Fe</c><c>   1</c></rc>
    <rc><c>Fe</c><c>   1</c></rc>
    <rc><c>Fe</c><c>   1</c></rc>
    <rc><c>Fe</c><c>   1</c></rc>
    <rc><c>Fe</c><c>   1</c></rc>
    <rc><c>Fe</c><c>   1</c></rc>
    <rc><c>Fe</c><c>   1</c></rc>
    <rc><c>Fe</c><c>   1</c></rc>
    <rc><c>Fe</c><c>   1</c></rc>
    <rc><c>Fe</c><c>   1</c></rc>
    <rc><c>Fe</c><c>   1</c></rc>
    <rc><c>Fe</c><c>   1</c></rc>
    <rc><c>Fe</c><c>   1</c></rc>
    <rc><c>Fe</c><c>   1</c></rc>
    <rc><c>Fe</c><c>   1</c></rc>
    <rc><c>Fe</c><c>   1</c></rc>
    <rc><c>Fe</c><c>   1</c></rc>
    <rc><c>Fe</c><c>   1</c></rc>
    <rc><c>Fe</c><c>   1</c></rc>
    <rc><c>Fe</c><c>   1</c></rc>
    <rc><c>Fe</c><c>   1</c></rc>
    <rc><c>Fe</c><c>   1</c></rc>
    <rc><c>Fe</c><c>   1</c></rc>
    <rc><c>Fe</c><c>   1</c></rc>
    <rc><c>Fe</c><c>   1</c></rc>
    <rc><c>Fe</c><c>   1</c></rc>
    <rc><c>Fe</c><c>   1</c></rc>
    <rc><c>Fe</c><c>   1</c></rc>
    <rc><c>Fe</c><c>   1</c></rc>
    <rc><c>Fe</c><c>   1</c></rc>
    <rc><c>Fe</c><c>   1</c></rc>
    <rc><c>Fe</c><c>   1</c></rc>
    <rc><c>Fe</c><c>   1</c></rc>
    <rc><c>Fe</c><c>   1</c></rc>
    <rc><c>Fe</c><c>   1</c></rc>
    <rc><c>Fe</c><c>   1</c></rc>
    <rc><c>Fe</c><c>   1</c></rc>
    <rc><c>Fe</c><c>   1</c></rc>
    <rc><c>Fe</c><c>   1</c></rc>
    <rc><c>Fe</c><c>   1</c></rc>
    <rc><c>Fe</c><c>   1</c></rc>
    <rc><c>Fe</c><c>   1</c></rc>
    <rc><c>Fe</c><c>   1</c></rc>
    <rc><c>Fe</c><c>   1</c></rc>
    <rc><c>Fe</c><c>   1</c></rc>
    <rc><c>Fe</c><c>   1</c></rc>
    <rc><c>Fe</c><c>   1</c></rc>
    <rc><c>Fe</c><c>   1</c></rc>
    <rc><c>Fe</c><c>   1</c></rc>
    <rc><c>Fe</c><c>   1</c></rc>
    <rc><c>Fe</c><c>   1</c></rc>
    <rc><c>Fe</c><c>   1</c></rc>
    <rc><c>Fe</c><c>   1</c></rc>
    <rc><c>Fe</c><c>   1</c></rc>
    <rc><c>Fe</c><c>   1</c></rc>
    <rc><c>Fe</c><c>   1</c></rc>
    <rc><c>Fe</c><c>   1</c></rc>
    <rc><c>Fe</c><c>   1</c></rc>
    <rc><c>Fe</c><c>   1</c></rc>
    <rc><c>Fe</c><c>   1</c></rc>
    <rc><c>Fe</c><c>   1</c></rc>
    <rc><c>Fe</c><c>   1</c></rc>
    <rc><c>Fe</c><c>   1</c></rc>
    <rc><c>Fe</c><c>   1</c></rc>
    <rc><c>Fe</c><c>   1</c></rc>
    <rc><c>Fe</c><c>   1</c></rc>
    <rc><c>Fe</c><c>   1</c></rc>
    <rc><c>Fe</c><c>   1</c></rc>
    <rc><c>Fe</c><c>   1</c></rc>
    <rc><c>Fe</c><c>   1</c></rc>
    <rc><c>Fe</c><c>   1</c></rc>
    <rc><c>Fe</c><c>   1</c></rc>
    <rc><c>Fe</c><c>   1</c></rc>
    <rc><c>Fe</c><c>   1</c></rc>
    <rc><c>Fe</c><c>   1</c></rc>
    <rc><c>Fe</c><c>   1</c></rc>
    <rc><c>Fe</c><c>   1</c></rc>
    <rc><c>Fe</c><c>   1</c></rc>
    <rc><c>Fe</c><c>   1</c></rc>
    <rc><c>Fe</c><c>   1</c></rc>
    <rc><c>Fe</c><c>   1</c></rc>
    <rc><c>Fe</c><c>   1</c></rc>
    <rc><c>Fe</c><c>   1</c></rc>
    <rc><c>Fe</c><c>   1</c></rc>
    <rc><c>Fe</c><c>   1</c></rc>
    <rc><c>Fe</c><c>   1</c></rc>
    <rc><c>Fe</c><c>   1</c></rc>
    <rc><c>Fe</c><c>   1</c></rc>
    <rc><c>Fe</c><c>   1</c></rc>
    <rc><c>Fe</c><c>   1</c></rc>
    <rc><c>Fe</c><c>   1</c></rc>
    <rc><c>Fe</c><c>   1</c></rc>
    <rc><c>Fe</c><c>   1</c></rc>
    <rc><c>Fe</c><c>   1</c></rc>
    <rc><c>Fe</c><c>   1</c></rc>
    <rc><c>Fe</c><c>   1</c></rc>
    <rc><c>Fe</c><c>   1</c></rc>
    <rc><c>Fe</c><c>   1</c></rc>
    <rc><c>Fe</c><c>   1</c></rc>
    <rc><c>Fe</c><c>   1</c></rc>
    <rc><c>Fe</c><c>   1</c></rc>
    <rc><c>Fe</c><c>   1</c></rc>
    <rc><c>Fe</c><c>   1</c></rc>
    <rc><c>Fe</c><c>   1</c></rc>
    <rc><c>Fe</c><c>   1</c></rc>
    <rc><c>Fe</c><c>   1</c></rc>
    <rc><c>Fe</c><c>   1</c></rc>
    <rc><c>Fe</c><c>   1</c></rc>
    <rc><c>Fe</c><c>   1</c></rc>
    <rc><c>Fe</c><c>   1</c></rc>
    <rc><c>Fe</c><c>   1</c></rc>
    <rc><c>Fe</c><c>   1</c></rc>
    <rc><c>Fe</c><c>   1</c></rc>
    <rc><c>Fe</c><c>   1</c></rc>
    <rc><c>Fe</c><c>   1</c></rc>
    <rc><c>Fe</c><c>   1</c></rc>
    <rc><c>Fe</c><c>   1</c></rc>
    <rc><c>Fe</c><c>   1</c></rc>
    <rc><c>Fe</c><c>   1</c></rc>
    <rc><c>Mn</c><c>   2</c></rc>
    <rc><c>Mn</c><c>   2</c></rc>
    <rc><c>Mn</c><c>   2</c></rc>
    <rc><c>Mn</c><c>   2</c></rc>
    <rc><c>Mn</c><c>   2</c></rc>
    <rc><c>Mn</c><c>   2</c></rc>
    <rc><c>Mn</c><c>   2</c></rc>
   </set>
  </array>
  <array name="atomtypes" >
   <dimension dim="1">type</dimension>
   <field type="int">atomspertype</field>
   <field type="string">element</field>
   <field>mass</field>
   <field>valence</field>
   <field type="string">pseudopotential</field>
   <set>
    <rc><c> 281</c><c>Fe</c><c>     55.84700000</c><c>      8.00000000</c><c>  PAW_PBE Fe_GW 31Mar2010               </c></rc>
    <rc><c>   7</c><c>Mn</c><c>     54.93800000</c><c>      7.00000000</c><c>  PAW_PBE Mn_GW 31Mar2010               </c></rc>
   </set>
  </array>
 </atominfo>
 <structure name="initialpos" >
  <crystal>
   <varray name="basis" >
    <v>       9.72667804       0.00000000       0.00000000 </v>
    <v>       0.00000000       8.42355028       0.00000000 </v>
    <v>       0.00000000       0.00000000      45.00000000 </v>
   </varray>
   <i name="volume">   3686.99226691 </i>
   <varray name="rec_basis" >
    <v>       0.10281002       0.00000000       0.00000000 </v>
    <v>       0.00000000       0.11871479       0.00000000 </v>
    <v>       0.00000000       0.00000000       0.02222222 </v>
   </varray>
  </crystal>
  <varray name="positions" >
   <v>       0.05370855       0.70104304       0.21128325 </v>
   <v>       0.31819188       0.72374962       0.87627204 </v>
   <v>       0.68852238       0.95904524       0.61148750 </v>
   <v>       0.43844797       0.45844279       0.61156395 </v>
   <v>       0.44062070       0.28729842       0.25510514 </v>
   <v>       0.05856770       0.38861395       0.83356150 </v>
   <v>       0.30860380       0.88767960       0.83352857 </v>
   <v>       0.44694846       0.62617472       0.70043804 </v>
   <v>       0.05988077       0.21267471       0.74493470 </v>
   <v>       0.17861846       0.45105801       0.21136978 </v>
   <v>       0.56768269       0.21067276       0.47745547 </v>
   <v>       0.06660773       0.87508753       0.56683125 </v>
   <v>       0.56814556       0.22385375       0.87612007 </v>
   <v>       0.80904417       0.52803625       0.12392942 </v>
   <v>       0.42887016       0.95136159       0.21138784 </v>
   <v>       0.56643415       0.37515718       0.56685544 </v>
   <v>       0.81104270       0.04153237       0.38832869 </v>
   <v>       0.68232102       0.78935130       0.52248106 </v>
   <v>       0.44280805       0.46081459       0.47748588 </v>
   <v>       0.43422361       0.96250647       0.74484791 </v>
   <v>       0.44194646       0.62503373       0.56675734 </v>
   <v>       0.57150799       0.87640551       0.70061060 </v>
   <v>       0.30919334       0.02579006       0.12398969 </v>
   <v>       0.69001361       0.95908779       0.34404925 </v>
   <v>       0.68764311       0.78218378       0.12425341 </v>
   <v>       0.05262727       0.37380155       0.29955725 </v>
   <v>       0.68982124       0.46801459       0.87611469 </v>
   <v>       0.42891601       0.45099106       0.21147129 </v>
   <v>       0.80875461       0.37518526       0.43302691 </v>
   <v>       0.56335438       0.70850056       0.61156540 </v>
   <v>       0.55985034       0.54071905       0.65596419 </v>
   <v>       0.81772247       0.86184661       0.16666582 </v>
   <v>       0.56579491       0.53739323       0.25518115 </v>
   <v>       0.68971884       0.45882467       0.34400715 </v>
   <v>       0.19190056       0.61158861       0.16640966 </v>
   <v>       0.19453457       0.79950860       0.78885386 </v>
   <v>       0.44722944       0.12590418       0.70044249 </v>
   <v>       0.92785300       0.62366341       0.29961071 </v>
   <v>       0.31732222       0.22353205       0.87612183 </v>
   <v>       0.31661379       0.87483284       0.56685694 </v>
   <v>       0.81746818       0.22406061       0.87619406 </v>
   <v>       0.80961723       0.54074389       0.65588534 </v>
   <v>       0.55922261       0.52699825       0.12387933 </v>
   <v>       0.56936490       0.04985140       0.78895440 </v>
   <v>       0.19079437       0.28732672       0.25524222 </v>
   <v>       0.80865349       0.87474753       0.43302403 </v>
   <v>       0.57223268       0.37637897       0.70039682 </v>
   <v>       0.05731460       0.02676684       0.12411268 </v>
   <v>       0.30970100       0.54062313       0.65599807 </v>
   <v>       0.56483146       0.20887274       0.34400891 </v>
   <v>       0.18836905       0.95878533       0.61155541 </v>
   <v>       0.30297763       0.37388740       0.29958492 </v>
   <v>       0.43454331       0.79026585       0.65591831 </v>
   <v>       0.19485956       0.29917870       0.78883912 </v>
   <v>       0.06761668       0.36314422       0.16664588 </v>
   <v>       0.69692826       0.62621329       0.70042082 </v>
   <v>       0.31117936       0.54126955       0.38844494 </v>
   <v>       0.06752210       0.72332220       0.87620564 </v>
   <v>       0.93375388       0.63764922       0.83391298 </v>
   <v>       0.31960680       0.54980638       0.78893309 </v>
   <v>       0.30459904       0.20044852       0.21119274 </v>
   <v>       0.06804094       0.71081982       0.47741111 </v>
   <v>       0.55415396       0.20076799       0.21111113 </v>
   <v>       0.30961742       0.21236901       0.74491434 </v>
   <v>       0.07187623       0.37638786       0.70054449 </v>
   <v>       0.18327435       0.63766260       0.83357151 </v>
   <v>       0.06949323       0.04959443       0.78903131 </v>
   <v>       0.44162834       0.12498747       0.56690547 </v>
   <v>       0.93486775       0.29069462       0.65590352 </v>
   <v>       0.80417332       0.20113072       0.21121733 </v>
   <v>       0.92902158       0.95150646       0.21129695 </v>
   <v>       0.94155297       0.62502156       0.56688307 </v>
   <v>       0.80838566       0.38763363       0.83356173 </v>
   <v>       0.19707271       0.62598982       0.70031356 </v>
   <v>       0.80854915       0.88773856       0.83355744 </v>
   <v>       0.68496205       0.29059492       0.65606291 </v>
   <v>       0.31310558       0.20833749       0.61150893 </v>
   <v>       0.43458003       0.46285416       0.74490594 </v>
   <v>       0.43598812       0.79120036       0.38836203 </v>
   <v>       0.68456497       0.96261143       0.74484928 </v>
   <v>       0.80361289       0.70093160       0.21129860 </v>
   <v>       0.81337820       0.70843191       0.61162847 </v>
   <v>       0.43720673       0.78399992       0.12401226 </v>
   <v>       0.30977898       0.71201212       0.74481111 </v>
   <v>       0.31993183       0.04944643       0.78888895 </v>
   <v>       0.81118774       0.54194038       0.38829754 </v>
   <v>       0.68259173       0.28828043       0.52227653 </v>
   <v>       0.69493659       0.79926235       0.78890276 </v>
   <v>       0.19040776       0.78782199       0.25522503 </v>
   <v>       0.69166454       0.11240669       0.16669138 </v>
   <v>       0.69263724       0.96063143       0.47739581 </v>
   <v>       0.94020050       0.95918279       0.34407907 </v>
   <v>       0.80723894       0.03924023       0.52251322 </v>
   <v>       0.68372907       0.62492818       0.43302349 </v>
   <v>       0.43986615       0.45871048       0.34399935 </v>
   <v>       0.81063131       0.21151046       0.74461152 </v>
   <v>       0.43958472       0.96790246       0.87610215 </v>
   <v>       0.56666131       0.87487675       0.56680352 </v>
   <v>       0.80912439       0.02804583       0.12394016 </v>
   <v>       0.42805835       0.62354638       0.29940198 </v>
   <v>       0.81704980       0.72384665       0.87632706 </v>
   <v>       0.68836931       0.45847505       0.61153924 </v>
   <v>       0.55866508       0.38754905       0.83349224 </v>
   <v>       0.80306218       0.37341896       0.29950763 </v>
   <v>       0.18615322       0.29129243       0.38837042 </v>
   <v>       0.81985296       0.54966811       0.78893245 </v>
   <v>       0.18216291       0.78906767       0.52252235 </v>
   <v>       0.30295216       0.87385233       0.29957318 </v>
   <v>       0.17837789       0.95116032       0.21129899 </v>
   <v>       0.18434763       0.46263565       0.74493086 </v>
   <v>       0.43276115       0.28844707       0.52220213 </v>
   <v>       0.06496284       0.70871107       0.34392238 </v>
   <v>       0.18478803       0.79054649       0.65586362 </v>
   <v>       0.44454353       0.79925524       0.78884784 </v>
   <v>       0.68362730       0.12508899       0.43291226 </v>
   <v>       0.93265916       0.78857159       0.52228708 </v>
   <v>       0.69177103       0.61263938       0.16670794 </v>
   <v>       0.81467565       0.70860590       0.34393888 </v>
   <v>       0.93427563       0.46270759       0.74491776 </v>
   <v>       0.18997921       0.45893099       0.34404889 </v>
   <v>       0.56994979       0.54962564       0.78906231 </v>
   <v>       0.56652935       0.36248041       0.16644086 </v>
   <v>       0.56473585       0.70889817       0.34394487 </v>
   <v>       0.55283832       0.37374651       0.29958531 </v>
   <v>       0.18950444       0.46788739       0.87607952 </v>
   <v>       0.19170762       0.11138362       0.16640344 </v>
   <v>       0.44467207       0.29902886       0.78883314 </v>
   <v>       0.69088675       0.78746048       0.25542711 </v>
   <v>       0.93362097       0.13777019       0.83354057 </v>
   <v>       0.44274017       0.96057437       0.47742306 </v>
   <v>       0.56759155       0.72473736       0.87623367 </v>
   <v>       0.19262326       0.46066481       0.47730373 </v>
   <v>       0.93445677       0.28198193       0.12416306 </v>
   <v>       0.31112884       0.04112119       0.38842442 </v>
   <v>       0.05991073       0.04073839       0.65591920 </v>
   <v>       0.55873041       0.37467091       0.43305200 </v>
   <v>       0.68393395       0.46277940       0.74496543 </v>
   <v>       0.56002784       0.21257023       0.74488029 </v>
   <v>       0.94708705       0.12625577       0.70037564 </v>
   <v>       0.55969342       0.04068139       0.65590652 </v>
   <v>       0.55666862       0.53917426       0.52246741 </v>
   <v>       0.17793732       0.12358113       0.29958829 </v>
   <v>       0.44164507       0.11051031       0.16642041 </v>
   <v>       0.67768284       0.62359913       0.29961560 </v>
   <v>       0.92789529       0.12339597       0.29966330 </v>
   <v>       0.81661346       0.37514667       0.56688181 </v>
   <v>       0.05283124       0.87389003       0.29955399 </v>
   <v>       0.19175007       0.62487497       0.56686864 </v>
   <v>       0.94460065       0.79968656       0.78884245 </v>
   <v>       0.30839959       0.38750302       0.83353892 </v>
   <v>       0.93975811       0.46849902       0.87611138 </v>
   <v>       0.43373159       0.63786274       0.83352871 </v>
   <v>       0.06466316       0.20874189       0.34381381 </v>
   <v>       0.18969200       0.96791127       0.87611899 </v>
   <v>       0.93484590       0.78180980       0.12419301 </v>
   <v>       0.68633642       0.79137031       0.38840836 </v>
   <v>       0.93493453       0.79074758       0.65595173 </v>
   <v>       0.94123339       0.11216548       0.16650701 </v>
   <v>       0.43517819       0.29092732       0.65608244 </v>
   <v>       0.05421540       0.20110405       0.21125710 </v>
   <v>       0.67882896       0.95129540       0.21129241 </v>
   <v>       0.17825523       0.62388759       0.29942797 </v>
   <v>       0.82218230       0.87638397       0.70041153 </v>
   <v>       0.94687103       0.62636573       0.70051030 </v>
   <v>       0.19705387       0.12631583       0.70037178 </v>
   <v>       0.94283274       0.46076977       0.47724237 </v>
   <v>       0.81338053       0.20844721       0.61152385 </v>
   <v>       0.18354530       0.62484636       0.43309602 </v>
   <v>       0.42800482       0.12360971       0.29945832 </v>
   <v>       0.67802364       0.12360629       0.29953101 </v>
   <v>       0.56140488       0.54148272       0.38844781 </v>
   <v>       0.81457623       0.20852447       0.34396708 </v>
   <v>       0.43963663       0.46776974       0.87599656 </v>
   <v>       0.55851065       0.88751833       0.83346488 </v>
   <v>       0.31756671       0.21055568       0.47728630 </v>
   <v>       0.19288481       0.96075489       0.47746993 </v>
   <v>       0.05856846       0.88758488       0.83348090 </v>
   <v>       0.93362845       0.12485706       0.43285547 </v>
   <v>       0.94263298       0.96053493       0.47725452 </v>
   <v>       0.06333005       0.70834994       0.61159527 </v>
   <v>       0.55754585       0.03880099       0.52228086 </v>
   <v>       0.69510259       0.29918031       0.78880671 </v>
   <v>       0.81750416       0.36181958       0.16671846 </v>
   <v>       0.43358661       0.12493849       0.43295554 </v>
   <v>       0.06784331       0.21067708       0.47744781 </v>
   <v>       0.30990580       0.04084539       0.65594843 </v>
   <v>       0.43237933       0.78922373       0.52250663 </v>
   <v>       0.18355062       0.13792608       0.83361854 </v>
   <v>       0.18530086       0.28307599       0.12431645 </v>
   <v>       0.94007776       0.45936779       0.34407151 </v>
   <v>       0.56693054       0.86274892       0.16646043 </v>
   <v>       0.30356388       0.70069992       0.21126604 </v>
   <v>       0.94130365       0.61229868       0.16656331 </v>
   <v>       0.18861650       0.45876712       0.61155506 </v>
   <v>       0.07224496       0.87636382       0.70035958 </v>
   <v>       0.05973632       0.54069474       0.65588884 </v>
   <v>       0.30804164       0.52581289       0.12395429 </v>
   <v>       0.93605856       0.79115173       0.38843037 </v>
   <v>       0.94477718       0.29870471       0.78876621 </v>
   <v>       0.18481597       0.29067104       0.65597211 </v>
   <v>       0.93817456       0.95818749       0.61160548 </v>
   <v>       0.81001335       0.71207596       0.74484725 </v>
   <v>       0.69090382       0.28767872       0.25530676 </v>
   <v>       0.05912727       0.71238999       0.74497344 </v>
   <v>       0.67892336       0.45138448       0.21120718 </v>
   <v>       0.81785086       0.21073775       0.47747034 </v>
   <v>       0.56748558       0.71049915       0.47731952 </v>
   <v>       0.06784796       0.86330268       0.16664387 </v>
   <v>       0.93260047       0.28899514       0.52249293 </v>
   <v>       0.68449671       0.79044738       0.65589123 </v>
   <v>       0.05844311       0.87499237       0.43290522 </v>
   <v>       0.06814272       0.22318364       0.87617671 </v>
   <v>       0.80973268       0.04062496       0.65592484 </v>
   <v>       0.55959056       0.02686754       0.12392089 </v>
   <v>       0.30886601       0.37483340       0.43287895 </v>
   <v>       0.31633942       0.37504856       0.56689018 </v>
   <v>       0.31758261       0.71030122       0.47728978 </v>
   <v>       0.05722110       0.03914790       0.52253087 </v>
   <v>       0.32199816       0.87640828       0.70053368 </v>
   <v>       0.06565781       0.53751879       0.25522351 </v>
   <v>       0.68342978       0.13764212       0.83351109 </v>
   <v>       0.81490968       0.03737785       0.25524032 </v>
   <v>       0.18374940       0.12488633       0.43300246 </v>
   <v>       0.69731837       0.12597309       0.70046900 </v>
   <v>       0.18202328       0.28953790       0.52242906 </v>
   <v>       0.44066018       0.78778099       0.25528333 </v>
   <v>       0.44147220       0.61040393       0.16641224 </v>
   <v>       0.06361300       0.20832594       0.61154961 </v>
   <v>       0.18622442       0.79128374       0.38830414 </v>
   <v>       0.30732801       0.53900823       0.52245058 </v>
   <v>       0.82188752       0.37657138       0.70025722 </v>
   <v>       0.68638696       0.29130564       0.38841117 </v>
   <v>       0.19171840       0.12504168       0.56684383 </v>
   <v>       0.68975762       0.96839447       0.87608847 </v>
   <v>       0.69151353       0.12502769       0.56693441 </v>
   <v>       0.43990748       0.95888397       0.34401376 </v>
   <v>       0.18396408       0.96264749       0.74475625 </v>
   <v>       0.94065524       0.78762666       0.25521775 </v>
   <v>       0.55862406       0.87530515       0.43304883 </v>
   <v>       0.30863213       0.87512731       0.43304919 </v>
   <v>       0.80746658       0.53926980       0.52248490 </v>
   <v>       0.92904375       0.45147351       0.21131795 </v>
   <v>       0.31531507       0.53784219       0.25512795 </v>
   <v>       0.56141831       0.04135766       0.38839381 </v>
   <v>       0.93845852       0.45860158       0.61157778 </v>
   <v>       0.06131830       0.04126685       0.38843981 </v>
   <v>       0.06138060       0.54113304       0.38841578 </v>
   <v>       0.43649259       0.29127801       0.38841756 </v>
   <v>       0.69278271       0.46072484       0.47744635 </v>
   <v>       0.06649121       0.37517576       0.56684162 </v>
   <v>       0.55358117       0.70041085       0.21113455 </v>
   <v>       0.94083687       0.28742464       0.25541921 </v>
   <v>       0.81925914       0.04961862       0.78907361 </v>
   <v>       0.18974522       0.95886230       0.34393006 </v>
   <v>       0.55285394       0.87372200       0.29959054 </v>
   <v>       0.05851557       0.37497183       0.43301549 </v>
   <v>       0.31506814       0.70899085       0.34399989 </v>
   <v>       0.31465369       0.20886838       0.34391731 </v>
   <v>       0.94155254       0.12505790       0.56686828 </v>
   <v>       0.43832581       0.95851520       0.61155974 </v>
   <v>       0.56512183       0.03738679       0.25509131 </v>
   <v>       0.18612392       0.78291016       0.12425218 </v>
   <v>       0.06573345       0.03737604       0.25520582 </v>
   <v>       0.69145476       0.62476723       0.56684657 </v>
   <v>       0.05682902       0.52621313       0.12413503 </v>
   <v>       0.30727192       0.03876912       0.52229456 </v>
   <v>       0.68755004       0.28213256       0.12420140 </v>
   <v>       0.81762703       0.71075065       0.47735413 </v>
   <v>       0.43346782       0.13772748       0.83351822 </v>
   <v>       0.32226229       0.37630432       0.70038855 </v>
   <v>       0.68362020       0.63776456       0.83351787 </v>
   <v>       0.55986096       0.71208313       0.74486051 </v>
   <v>       0.93682471       0.29157647       0.38841978 </v>
   <v>       0.93964986       0.96833822       0.87613170 </v>
   <v>       0.56297087       0.20806365       0.61135255 </v>
   <v>       0.81679491       0.87512128       0.56688868 </v>
   <v>       0.80316486       0.87344423       0.29945998 </v>
   <v>       0.31522506       0.03771335       0.25512792 </v>
   <v>       0.43689798       0.28362957       0.12405955 </v>
   <v>       0.31371640       0.70866979       0.61159464 </v>
   <v>       0.43356672       0.62511487       0.43300256 </v>
   <v>       0.93291356       0.62498465       0.43313640 </v>
   <v>       0.31835699       0.86270972       0.16575918 </v>
   <v>       0.07075046       0.54938836       0.78880212 </v>
   <v>       0.05598636       0.53932391       0.52231831 </v>
   <v>       0.31868446       0.36324965       0.16580529 </v>
   <v>       0.93355081       0.96218550       0.74467424 </v>
   <v>       0.81596435       0.53741079       0.25548935 </v>
  </varray>
 </structure>
 <calculation>
  <scstep>
   <time name="dav">   54.33   54.34</time>
   <time name="total">   54.48   54.53</time>
   <energy>
    <i name="alphaZ">  16403.00255340 </i>
    <i name="ewald"> 715372.83733510 </i>
    <i name="hartreedc">-907042.38156686 </i>
    <i name="XCdc">  -6389.71030177 </i>
    <i name="pawpsdc"> 163151.95320885 </i>
    <i name="pawaedc">-160818.84594568 </i>
    <i name="eentropy">     -1.05504013 </i>
    <i name="bandstr">  38622.46502992 </i>
    <i name="atom"> 169914.59583762 </i>
    <i name="e_fr_energy">  29212.86111046 </i>
    <i name="e_wo_entrp">  29213.91615059 </i>
    <i name="e_0_energy">  29213.38863052 </i>
   </energy>
  </scstep>
  <scstep>
   <time name="dav">   53.92   53.96</time>
   <time name="total">   53.92   53.97</time>
   <energy>
    <i name="e_fr_energy">   1192.19368098 </i>
    <i name="e_wo_entrp">   1193.65836594 </i>
    <i name="e_0_energy">   1192.92602346 </i>
   </energy>
  </scstep>
  <scstep>
   <time name="dav">   70.63   70.67</time>
   <time name="total">   70.64   70.68</time>
   <energy>
    <i name="e_fr_energy">  -1939.92708459 </i>
    <i name="e_wo_entrp">  -1936.35401352 </i>
    <i name="e_0_energy">  -1938.14054906 </i>
   </energy>
  </scstep>
  <scstep>
   <time name="dav">   88.56   88.60</time>
   <time name="total">   88.57   88.61</time>
   <energy>
    <i name="e_fr_energy">  -2606.73126043 </i>
    <i name="e_wo_entrp">  -2603.11126554 </i>
    <i name="e_0_energy">  -2604.92126299 </i>
   </energy>
  </scstep>
  <scstep>
   <time name="dav">   84.40   84.43</time>
   <time name="total">   86.47   86.51</time>
   <energy>
    <i name="e_fr_energy">  -2726.94802385 </i>
    <i name="e_wo_entrp">  -2723.15471138 </i>
    <i name="e_0_energy">  -2725.05136762 </i>
   </energy>
  </scstep>
  <scstep>
   <time name="diag">    8.25    8.25</time>
   <time name="diis">   37.77   37.77</time>
   <time name="orth">    2.28    2.29</time>
   <time name="total">   50.54   50.58</time>
   <energy>
    <i name="e_fr_energy">  -5525.60504439 </i>
    <i name="e_wo_entrp">  -5522.18019899 </i>
    <i name="e_0_energy">  -5523.89262169 </i>
   </energy>
  </scstep>
  <scstep>
   <time name="diag">    8.33    8.33</time>
   <time name="diis">   30.01   30.01</time>
   <time name="orth">    2.30    2.30</time>
   <time name="total">   42.78   42.83</time>
[...]
       <r>     5.8447     0.0000  2772.0000 </r>
       <r>     5.8874     0.0000  2772.0000 </r>
       <r>     5.9300     0.0000  2772.0000 </r>
       <r>     5.9727     0.0000  2772.0000 </r>
       <r>     6.0154     0.0000  2772.0000 </r>
       <r>     6.0580     0.0000  2772.0000 </r>
       <r>     6.1007     0.0000  2772.0000 </r>
       <r>     6.1434     0.0000  2772.0000 </r>
       <r>     6.1860     0.0000  2772.0000 </r>
       <r>     6.2287     0.0000  2772.0000 </r>
       <r>     6.2713     0.0000  2772.0000 </r>
       <r>     6.3140     0.0000  2772.0000 </r>
       <r>     6.3567     0.0000  2772.0000 </r>
       <r>     6.3993     0.0000  2772.0000 </r>
       <r>     6.4420     0.0000  2772.0000 </r>
       <r>     6.4847     0.0000  2772.0000 </r>
       <r>     6.5273     0.0000  2772.0000 </r>
       <r>     6.5700     0.0000  2772.0000 </r>
       <r>     6.6127     0.0000  2772.0000 </r>
       <r>     6.6553     0.0000  2772.0000 </r>
       <r>     6.6980     0.0000  2772.0000 </r>
       <r>     6.7407     0.0000  2772.0000 </r>
       <r>     6.7833     0.0000  2772.0000 </r>
      </set>
     </set>
    </array>
   </total>
  </dos>
 </calculation>
 <structure name="finalpos" >
  <crystal>
   <varray name="basis" >
    <v>       9.72667804       0.00000000       0.00000000 </v>
    <v>       0.00000000       8.42355028       0.00000000 </v>
    <v>       0.00000000       0.00000000      45.00000000 </v>
   </varray>
   <i name="volume">   3686.99226691 </i>
   <varray name="rec_basis" >
    <v>       0.10281002       0.00000000       0.00000000 </v>
    <v>       0.00000000       0.11871479       0.00000000 </v>
    <v>       0.00000000       0.00000000       0.02222222 </v>
   </varray>
  </crystal>
  <varray name="positions" >
   <v>       0.05787290       0.70092944       0.21110023 </v>
   <v>       0.31604141       0.72031424       0.87574851 </v>
   <v>       0.68831633       0.95791683       0.61141351 </v>
   <v>       0.43854931       0.45804981       0.61142691 </v>
   <v>       0.43661192       0.28687583       0.25553244 </v>
   <v>       0.06095666       0.38666985       0.83414579 </v>
   <v>       0.31120282       0.88673794       0.83426371 </v>
   <v>       0.44224955       0.62652766       0.70040081 </v>
   <v>       0.06369804       0.21325883       0.74451349 </v>
   <v>       0.18245888       0.45136278       0.21123818 </v>
   <v>       0.56403142       0.20891612       0.47777451 </v>
   <v>       0.06423006       0.87444337       0.56682546 </v>
   <v>       0.56566886       0.21979483       0.87571316 </v>
   <v>       0.81007648       0.53034651       0.12454163 </v>
   <v>       0.43316334       0.95113681       0.21115473 </v>
   <v>       0.56424888       0.37461713       0.56675906 </v>
   <v>       0.81158903       0.04209834       0.38842734 </v>
   <v>       0.68617681       0.79110340       0.52211712 </v>
   <v>       0.43896699       0.45882238       0.47778550 </v>
   <v>       0.43786532       0.96289809       0.74446687 </v>
   <v>       0.43892222       0.62470230       0.56684304 </v>
   <v>       0.56739385       0.87646208       0.70039101 </v>
   <v>       0.31060766       0.03102274       0.12411179 </v>
   <v>       0.68661907       0.95797843       0.34412421 </v>
   <v>       0.68791264       0.77975176       0.12462216 </v>
   <v>       0.05770985       0.37334950       0.29968206 </v>
   <v>       0.68883449       0.47137740       0.87549167 </v>
   <v>       0.43305593       0.45144163       0.21111398 </v>
   <v>       0.81070551       0.37493273       0.43295325 </v>
   <v>       0.56338699       0.70822966       0.61149926 </v>
   <v>       0.56294970       0.54127612       0.65576413 </v>
   <v>       0.81452845       0.86381667       0.16603231 </v>
   <v>       0.56097825       0.53713449       0.25549748 </v>
   <v>       0.68650482       0.45807343       0.34409127 </v>
   <v>       0.18827087       0.61265807       0.16617972 </v>
   <v>       0.19170323       0.79925749       0.78873262 </v>
   <v>       0.44244314       0.12657480       0.70044319 </v>
   <v>       0.93282322       0.62333733       0.29970683 </v>
   <v>       0.31536555       0.21991891       0.87571461 </v>
   <v>       0.31410186       0.87482064       0.56680462 </v>
   <v>       0.81527044       0.21995411       0.87570660 </v>
   <v>       0.81291779       0.54164698       0.65575991 </v>
   <v>       0.56004282       0.52953210       0.12443215 </v>
   <v>       0.56684580       0.04956089       0.78896320 </v>
   <v>       0.18656020       0.28697095       0.25546421 </v>
   <v>       0.81095344       0.87554180       0.43301830 </v>
   <v>       0.56713599       0.37640406       0.70048549 </v>
   <v>       0.06113864       0.02922557       0.12444575 </v>
   <v>       0.31303786       0.54127320       0.65578044 </v>
   <v>       0.56171982       0.20809923       0.34413406 </v>
   <v>       0.18836341       0.95781546       0.61137764 </v>
   <v>       0.30757545       0.37367869       0.29963147 </v>
   <v>       0.43801979       0.79163594       0.65579191 </v>
   <v>       0.19170298       0.29839491       0.78886630 </v>
   <v>       0.06387079       0.36347512       0.16605073 </v>
   <v>       0.69209976       0.62673362       0.70037441 </v>
   <v>       0.31167766       0.54164602       0.38838449 </v>
   <v>       0.06542198       0.71992679       0.87587075 </v>
   <v>       0.93634549       0.63678661       0.83427026 </v>
   <v>       0.31737670       0.54970890       0.78896689 </v>
   <v>       0.30720516       0.20019007       0.21109851 </v>
   <v>       0.06409046       0.70968309       0.47782531 </v>
   <v>       0.55744282       0.20086004       0.21111860 </v>
   <v>       0.31380236       0.21343356       0.74445089 </v>
   <v>       0.06719883       0.37692623       0.70038577 </v>
   <v>       0.18626870       0.63683150       0.83406646 </v>
   <v>       0.06681255       0.04933498       0.78893369 </v>
   <v>       0.43908239       0.12473753       0.56678667 </v>
   <v>       0.93818476       0.29182027       0.65569679 </v>
   <v>       0.80745700       0.20132857       0.21113165 </v>
   <v>       0.93261079       0.95157118       0.21131516 </v>
   <v>       0.93926271       0.62479521       0.56680905 </v>
   <v>       0.81092668       0.38666229       0.83420892 </v>
   <v>       0.19209856       0.62677478       0.70040224 </v>
   <v>       0.81115705       0.88661084       0.83428477 </v>
   <v>       0.68810776       0.29140972       0.65579161 </v>
   <v>       0.31354011       0.20808103       0.61149973 </v>
   <v>       0.43822079       0.46258090       0.74442397 </v>
   <v>       0.43663428       0.79164837       0.38845450 </v>
   <v>       0.68772042       0.96270452       0.74452356 </v>
   <v>       0.80729956       0.70105144       0.21115610 </v>
   <v>       0.81299938       0.70831174       0.61150249 </v>
   <v>       0.43713856       0.77922564       0.12428348 </v>
   <v>       0.31307589       0.71305426       0.74441616 </v>
   <v>       0.31721164       0.04958012       0.78897240 </v>
   <v>       0.81155178       0.54158168       0.38842218 </v>
   <v>       0.68634719       0.29067230       0.52208396 </v>
   <v>       0.69191743       0.79938469       0.78890599 </v>
   <v>       0.18668790       0.78763057       0.25551904 </v>
   <v>       0.68901624       0.11353508       0.16616729 </v>
   <v>       0.68879026       0.95930967       0.47784947 </v>
   <v>       0.93688160       0.95812927       0.34415102 </v>
   <v>       0.81064193       0.04034681       0.52205889 </v>
   <v>       0.68534895       0.62489756       0.43301999 </v>
   <v>       0.43677448       0.45848679       0.34416451 </v>
   <v>       0.81320450       0.21355685       0.74451582 </v>
   <v>       0.43904154       0.97151422       0.87549351 </v>
   <v>       0.56421945       0.87462147       0.56678356 </v>
   <v>       0.81043824       0.02984050       0.12455616 </v>
   <v>       0.43243606       0.62344444       0.29969074 </v>
   <v>       0.81513991       0.72045731       0.87584584 </v>
   <v>       0.68820145       0.45785330       0.61144361 </v>
   <v>       0.56097195       0.38697785       0.83410634 </v>
   <v>       0.80739811       0.37311762       0.29970144 </v>
   <v>       0.18674995       0.29158772       0.38835300 </v>
   <v>       0.81651364       0.54950820       0.78905520 </v>
   <v>       0.18655702       0.79067181       0.52217390 </v>
   <v>       0.30774453       0.87342596       0.29960985 </v>
   <v>       0.18243459       0.95179427       0.21127916 </v>
   <v>       0.18870061       0.46290614       0.74446391 </v>
   <v>       0.43578607       0.29055599       0.52206282 </v>
   <v>       0.06208013       0.70846974       0.34424118 </v>
   <v>       0.18826688       0.79136462       0.65573554 </v>
   <v>       0.44175016       0.79948339       0.78880890 </v>
   <v>       0.68546690       0.12485377       0.43305929 </v>
   <v>       0.93622172       0.79114645       0.52208746 </v>
   <v>       0.68889662       0.61326426       0.16611842 </v>
   <v>       0.81187326       0.70833158       0.34423006 </v>
   <v>       0.93827110       0.46269195       0.74446352 </v>
   <v>       0.18699269       0.45840607       0.34411075 </v>
   <v>       0.56719392       0.54933406       0.78897337 </v>
   <v>       0.56529584       0.36388715       0.16578321 </v>
   <v>       0.56148130       0.70847930       0.34430486 </v>
   <v>       0.55795308       0.37324159       0.29961780 </v>
   <v>       0.18889316       0.47135777       0.87559168 </v>
   <v>       0.18855179       0.11271949       0.16616933 </v>
   <v>       0.44166540       0.29892519       0.78885470 </v>
   <v>       0.68598046       0.78705881       0.25549764 </v>
   <v>       0.93679730       0.13667704       0.83412972 </v>
   <v>       0.43869148       0.95900380       0.47781077 </v>
   <v>       0.56538477       0.72018314       0.87572041 </v>
   <v>       0.18880876       0.45905828       0.47779278 </v>
   <v>       0.93623951       0.27959817       0.12462149 </v>
   <v>       0.31151959       0.04191088       0.38840307 </v>
   <v>       0.06305804       0.04125123       0.65575813 </v>
   <v>       0.56089393       0.37494162       0.43300146 </v>
   <v>       0.68777014       0.46245165       0.74450664 </v>
   <v>       0.56357918       0.21354228       0.74443275 </v>
   <v>       0.94252702       0.12699023       0.70038052 </v>
   <v>       0.56299160       0.04118731       0.65578034 </v>
   <v>       0.56114822       0.54069317       0.52203399 </v>
   <v>       0.18262167       0.12335871       0.29961326 </v>
   <v>       0.43847424       0.11230117       0.16605480 </v>
   <v>       0.68231138       0.62338103       0.29969713 </v>
   <v>       0.93248955       0.12294118       0.29967433 </v>
   <v>       0.81401695       0.37478595       0.56685401 </v>
   <v>       0.05782378       0.87326811       0.29967739 </v>
   <v>       0.18892943       0.62478633       0.56691216 </v>
   <v>       0.94105246       0.79910560       0.78890720 </v>
   <v>       0.31142708       0.38677920       0.83421173 </v>
   <v>       0.93916989       0.47156993       0.87557909 </v>
   <v>       0.43662781       0.63697427       0.83416958 </v>
   <v>       0.06186169       0.20857577       0.34419471 </v>
   <v>       0.18880573       0.97110699       0.87549983 </v>
   <v>       0.93639580       0.77976416       0.12459657 </v>
   <v>       0.68642321       0.79182555       0.38843864 </v>
   <v>       0.93789518       0.79142715       0.65577870 </v>
   <v>       0.93867403       0.11371449       0.16622250 </v>
   <v>       0.43783647       0.29135499       0.65583076 </v>
   <v>       0.05820419       0.20099940       0.21114663 </v>
   <v>       0.68272048       0.95128267       0.21133142 </v>
   <v>       0.18257959       0.62339853       0.29973548 </v>
   <v>       0.81699571       0.87651100       0.70036121 </v>
   <v>       0.94238573       0.62678663       0.70043617 </v>
   <v>       0.19229214       0.12675152       0.70040331 </v>
   <v>       0.93881445       0.45858113       0.47785623 </v>
   <v>       0.81328962       0.20806107       0.61143726 </v>
   <v>       0.18631098       0.62520322       0.43297840 </v>
   <v>       0.43264976       0.12335798       0.29968167 </v>
   <v>       0.68230954       0.12298915       0.29962226 </v>
   <v>       0.56127769       0.54156491       0.38845763 </v>
   <v>       0.81180171       0.20811950       0.34434066 </v>
   <v>       0.43917484       0.47150623       0.87545365 </v>
   <v>       0.56112802       0.88667197       0.83425348 </v>
   <v>       0.31397716       0.20919106       0.47779128 </v>
   <v>       0.18873675       0.95911628       0.47784462 </v>
   <v>       0.06097271       0.88693119       0.83423216 </v>
   <v>       0.93578676       0.12530473       0.43303510 </v>
   <v>       0.93891845       0.95908055       0.47778630 </v>
   <v>       0.06346276       0.70787349       0.61142110 </v>
   <v>       0.56096168       0.04087442       0.52210681 </v>
   <v>       0.69189938       0.29880431       0.78876618 </v>
   <v>       0.81452880       0.36372043       0.16607145 </v>
   <v>       0.43582012       0.12485424       0.43302741 </v>
   <v>       0.06376092       0.20882014       0.47784073 </v>
   <v>       0.31319377       0.04135386       0.65579972 </v>
   <v>       0.43600356       0.79101732       0.52207939 </v>
   <v>       0.18669052       0.13679416       0.83412610 </v>
   <v>       0.18610033       0.27887032       0.12444538 </v>
   <v>       0.93670726       0.45833636       0.34415261 </v>
   <v>       0.56545471       0.86388418       0.16590128 </v>
   <v>       0.30759417       0.70015737       0.21112890 </v>
   <v>       0.93808725       0.61334092       0.16623488 </v>
   <v>       0.18832196       0.45790825       0.61144429 </v>
   <v>       0.06735006       0.87675093       0.70027749 </v>
   <v>       0.06304967       0.54143891       0.65586285 </v>
   <v>       0.31067489       0.53082853       0.12407959 </v>
   <v>       0.93642461       0.79185675       0.38839158 </v>
   <v>       0.94158279       0.29878103       0.78882895 </v>
   <v>       0.18793890       0.29152324       0.65582956 </v>
   <v>       0.93835183       0.95792181       0.61147678 </v>
   <v>       0.81349157       0.71301489       0.74454337 </v>
   <v>       0.68622406       0.28719937       0.25545404 </v>
   <v>       0.06405041       0.71305738       0.74443918 </v>
   <v>       0.68262040       0.45109695       0.21132543 </v>
   <v>       0.81363024       0.20873623       0.47777686 </v>
   <v>       0.56401876       0.70911665       0.47793030 </v>
   <v>       0.06360817       0.86371579       0.16605087 </v>
   <v>       0.93616824       0.29040846       0.52216759 </v>
   <v>       0.68778884       0.79139861       0.65572931 </v>
   <v>       0.06093783       0.87527802       0.43293526 </v>
   <v>       0.06549015       0.21943146       0.87580903 </v>
   <v>       0.81300549       0.04128580       0.65576682 </v>
   <v>       0.56025643       0.02957256       0.12441086 </v>
   <v>       0.31106623       0.37464075       0.43293768 </v>
   <v>       0.31402177       0.37486563       0.56673864 </v>
   <v>       0.31358645       0.70911284       0.47788453 </v>
   <v>       0.06133987       0.04061105       0.52200360 </v>
   <v>       0.31711409       0.87659647       0.70039706 </v>
   <v>       0.06156890       0.53706975       0.25549015 </v>
   <v>       0.68662267       0.13728088       0.83410884 </v>
   <v>       0.81136675       0.03684594       0.25554772 </v>
   <v>       0.18639307       0.12513260       0.43307256 </v>
   <v>       0.69213476       0.12660771       0.70033757 </v>
   <v>       0.18672633       0.29075943       0.52205867 </v>
   <v>       0.43642665       0.78734649       0.25553340 </v>
   <v>       0.43853529       0.61244199       0.16606830 </v>
   <v>       0.06325404       0.20781786       0.61147475 </v>
   <v>       0.18613479       0.79148801       0.38835517 </v>
   <v>       0.31145307       0.54048559       0.52205750 </v>
   <v>       0.81707789       0.37649741       0.70037466 </v>
   <v>       0.68638326       0.29206568       0.38848113 </v>
   <v>       0.18913200       0.12469262       0.56677837 </v>
   <v>       0.68891502       0.97171705       0.87550855 </v>
   <v>       0.68913023       0.12489068       0.56682084 </v>
   <v>       0.43686781       0.95853688       0.34414942 </v>
   <v>       0.18847060       0.96284856       0.74451950 </v>
   <v>       0.93645247       0.78733896       0.25552425 </v>
   <v>       0.56109396       0.87544489       0.43302126 </v>
   <v>       0.31070206       0.87532169       0.43307332 </v>
   <v>       0.81063595       0.54057107       0.52211877 </v>
   <v>       0.93274293       0.45121171       0.21142824 </v>
   <v>       0.31154235       0.53675523       0.25559536 </v>
   <v>       0.56129440       0.04187325       0.38842950 </v>
   <v>       0.93839754       0.45791903       0.61146405 </v>
   <v>       0.06137291       0.04191956       0.38845248 </v>
   <v>       0.06139160       0.54176679       0.38844135 </v>
   <v>       0.43637346       0.29180116       0.38841765 </v>
   <v>       0.68889406       0.45884961       0.47783080 </v>
   <v>       0.06426014       0.37483298       0.56686572 </v>
   <v>       0.55761897       0.70088329       0.21116578 </v>
   <v>       0.93646252       0.28696436       0.25552759 </v>
   <v>       0.81651739       0.04942506       0.78891084 </v>
   <v>       0.18688510       0.95841626       0.34419874 </v>
   <v>       0.55761318       0.87327057       0.29964957 </v>
   <v>       0.06132363       0.37502453       0.43296307 </v>
   <v>       0.31171839       0.70800175       0.34414624 </v>
   <v>       0.31176815       0.20812343       0.34420994 </v>
   <v>       0.93908649       0.12476039       0.56679700 </v>
   <v>       0.43834988       0.95824931       0.61149206 </v>
   <v>       0.56086232       0.03718711       0.25554218 </v>
   <v>       0.18609015       0.77889482       0.12440131 </v>
   <v>       0.06170744       0.03718567       0.25551963 </v>
   <v>       0.68913774       0.62485557       0.56688814 </v>
   <v>       0.06090314       0.52937630       0.12447140 </v>
   <v>       0.31163729       0.04107821       0.52207439 </v>
   <v>       0.68751101       0.27987301       0.12466184 </v>
   <v>       0.81399928       0.70910420       0.47783765 </v>
   <v>       0.43670282       0.13671515       0.83398989 </v>
   <v>       0.31750009       0.37626826       0.70040139 </v>
   <v>       0.68689032       0.63708171       0.83411142 </v>
   <v>       0.56326886       0.71272183       0.74452957 </v>
   <v>       0.93617648       0.29198520       0.38844618 </v>
   <v>       0.93924591       0.97132315       0.87550187 </v>
   <v>       0.56364786       0.20813454       0.61146184 </v>
   <v>       0.81387515       0.87472050       0.56684548 </v>
   <v>       0.80743158       0.87323184       0.29964235 </v>
   <v>       0.31121628       0.03674432       0.25560531 </v>
   <v>       0.43696902       0.27971799       0.12428622 </v>
   <v>       0.31328240       0.70810208       0.61147156 </v>
   <v>       0.43567725       0.62505202       0.43302115 </v>
   <v>       0.93592608       0.62511958       0.43305441 </v>
   <v>       0.31510282       0.86330057       0.16560468 </v>
   <v>       0.06709410       0.54930508       0.78879366 </v>
   <v>       0.06090666       0.54066358       0.52213249 </v>
   <v>       0.31488078       0.36338669       0.16559618 </v>
   <v>       0.93775047       0.96313169       0.74463743 </v>
   <v>       0.81181674       0.53676698       0.25536024 </v>
  </varray>
 </structure>
</modeling>
