unknown system                          
           1
     9.726678    0.000000    0.000000
     0.000000    8.423550    0.000000
     0.000000    0.000000   45.000000
   Fe   Mn
 281   7
Direct configuration=     1
   0.05370855  0.70104304  0.21128325
   0.31819188  0.72374962  0.87627204
   0.68852238  0.95904524  0.61148750
   0.43844797  0.45844279  0.61156395
   0.44062070  0.28729842  0.25510514
   0.05856770  0.38861395  0.83356150
   0.30860380  0.88767960  0.83352857
   0.44694846  0.62617472  0.70043804
   0.05988077  0.21267471  0.74493470
   0.17861846  0.45105801  0.21136978
   0.56768269  0.21067276  0.47745547
   0.06660773  0.87508753  0.56683125
   0.56814556  0.22385375  0.87612007
   0.80904417  0.52803625  0.12392942
   0.42887016  0.95136159  0.21138784
   0.56643415  0.37515718  0.56685544
   0.81104270  0.04153237  0.38832869
   0.68232102  0.78935130  0.52248106
   0.44280805  0.46081459  0.47748588
   0.43422361  0.96250647  0.74484791
   0.44194646  0.62503373  0.56675734
   0.57150799  0.87640551  0.70061060
   0.30919334  0.02579006  0.12398969
   0.69001361  0.95908779  0.34404925
   0.68764311  0.78218378  0.12425341
   0.05262727  0.37380155  0.29955725
   0.68982124  0.46801459  0.87611469
   0.42891601  0.45099106  0.21147129
   0.80875461  0.37518526  0.43302691
   0.56335438  0.70850056  0.61156540
   0.55985034  0.54071905  0.65596419
   0.81772247  0.86184661  0.16666582
   0.56579491  0.53739323  0.25518115
   0.68971884  0.45882467  0.34400715
   0.19190056  0.61158861  0.16640966
   0.19453457  0.79950860  0.78885386
   0.44722944  0.12590418  0.70044249
   0.92785300  0.62366341  0.29961071
   0.31732222  0.22353205  0.87612183
   0.31661379  0.87483284  0.56685694
   0.81746818  0.22406061  0.87619406
   0.80961723  0.54074389  0.65588534
   0.55922261  0.52699825  0.12387933
   0.56936490  0.04985140  0.78895440
   0.19079437  0.28732672  0.25524222
   0.80865349  0.87474753  0.43302403
   0.57223268  0.37637897  0.70039682
   0.05731460  0.02676684  0.12411268
   0.30970100  0.54062313  0.65599807
   0.56483146  0.20887274  0.34400891
   0.18836905  0.95878533  0.61155541
   0.30297763  0.37388740  0.29958492
   0.43454331  0.79026585  0.65591831
   0.19485956  0.29917870  0.78883912
   0.06761668  0.36314422  0.16664588
   0.69692826  0.62621329  0.70042082
   0.31117936  0.54126955  0.38844494
   0.06752210  0.72332220  0.87620564
   0.93375388  0.63764922  0.83391298
   0.31960680  0.54980638  0.78893309
   0.30459904  0.20044852  0.21119274
   0.06804094  0.71081982  0.47741111
   0.55415396  0.20076799  0.21111113
   0.30961742  0.21236901  0.74491434
   0.07187623  0.37638786  0.70054449
   0.18327435  0.63766260  0.83357151
   0.06949323  0.04959443  0.78903131
   0.44162834  0.12498747  0.56690547
   0.93486775  0.29069462  0.65590352
   0.80417332  0.20113072  0.21121733
   0.92902158  0.95150646  0.21129695
   0.94155297  0.62502156  0.56688307
   0.80838566  0.38763363  0.83356173
   0.19707271  0.62598982  0.70031356
   0.80854915  0.88773856  0.83355744
   0.68496205  0.29059492  0.65606291
   0.31310558  0.20833749  0.61150893
   0.43458003  0.46285416  0.74490594
   0.43598812  0.79120036  0.38836203
   0.68456497  0.96261143  0.74484928
   0.80361289  0.70093160  0.21129860
   0.81337820  0.70843191  0.61162847
   0.43720673  0.78399992  0.12401226
   0.30977898  0.71201212  0.74481111
   0.31993183  0.04944643  0.78888895
   0.81118774  0.54194038  0.38829754
   0.68259173  0.28828043  0.52227653
   0.69493659  0.79926235  0.78890276
   0.19040776  0.78782199  0.25522503
   0.69166454  0.11240669  0.16669138
   0.69263724  0.96063143  0.47739581
   0.94020050  0.95918279  0.34407907
   0.80723894  0.03924023  0.52251322
   0.68372907  0.62492818  0.43302349
   0.43986615  0.45871048  0.34399935
   0.81063131  0.21151046  0.74461152
   0.43958472  0.96790246  0.87610215
   0.56666131  0.87487675  0.56680352
   0.80912439  0.02804583  0.12394016
   0.42805835  0.62354638  0.29940198
   0.81704980  0.72384665  0.87632706
   0.68836931  0.45847505  0.61153924
   0.55866508  0.38754905  0.83349224
   0.80306218  0.37341896  0.29950763
   0.18615322  0.29129243  0.38837042
   0.81985296  0.54966811  0.78893245
   0.18216291  0.78906767  0.52252235
   0.30295216  0.87385233  0.29957318
   0.17837789  0.95116032  0.21129899
   0.18434763  0.46263565  0.74493086
   0.43276115  0.28844707  0.52220213
   0.06496284  0.70871107  0.34392238
   0.18478803  0.79054649  0.65586362
   0.44454353  0.79925524  0.78884784
   0.68362730  0.12508899  0.43291226
   0.93265916  0.78857159  0.52228708
   0.69177103  0.61263938  0.16670794
   0.81467565  0.70860590  0.34393888
   0.93427563  0.46270759  0.74491776
   0.18997921  0.45893099  0.34404889
   0.56994979  0.54962564  0.78906231
   0.56652935  0.36248041  0.16644086
   0.56473585  0.70889817  0.34394487
   0.55283832  0.37374651  0.29958531
   0.18950444  0.46788739  0.87607952
   0.19170762  0.11138362  0.16640344
   0.44467207  0.29902886  0.78883314
   0.69088675  0.78746048  0.25542711
   0.93362097  0.13777019  0.83354057
   0.44274017  0.96057437  0.47742306
   0.56759155  0.72473736  0.87623367
   0.19262326  0.46066481  0.47730373
   0.93445677  0.28198193  0.12416306
   0.31112884  0.04112119  0.38842442
   0.05991073  0.04073839  0.65591920
   0.55873041  0.37467091  0.43305200
   0.68393395  0.46277940  0.74496543
   0.56002784  0.21257023  0.74488029
   0.94708705  0.12625577  0.70037564
   0.55969342  0.04068139  0.65590652
   0.55666862  0.53917426  0.52246741
   0.17793732  0.12358113  0.29958829
   0.44164507  0.11051031  0.16642041
   0.67768284  0.62359913  0.29961560
   0.92789529  0.12339597  0.29966330
   0.81661346  0.37514667  0.56688181
   0.05283124  0.87389003  0.29955399
   0.19175007  0.62487497  0.56686864
   0.94460065  0.79968656  0.78884245
   0.30839959  0.38750302  0.83353892
   0.93975811  0.46849902  0.87611138
   0.43373159  0.63786274  0.83352871
   0.06466316  0.20874189  0.34381381
   0.18969200  0.96791127  0.87611899
   0.93484590  0.78180980  0.12419301
   0.68633642  0.79137031  0.38840836
   0.93493453  0.79074758  0.65595173
   0.94123339  0.11216548  0.16650701
   0.43517819  0.29092732  0.65608244
   0.05421540  0.20110405  0.21125710
   0.67882896  0.95129540  0.21129241
   0.17825523  0.62388759  0.29942797
   0.82218230  0.87638397  0.70041153
   0.94687103  0.62636573  0.70051030
   0.19705387  0.12631583  0.70037178
   0.94283274  0.46076977  0.47724237
   0.81338053  0.20844721  0.61152385
   0.18354530  0.62484636  0.43309602
   0.42800482  0.12360971  0.29945832
   0.67802364  0.12360629  0.29953101
   0.56140488  0.54148272  0.38844781
   0.81457623  0.20852447  0.34396708
   0.43963663  0.46776974  0.87599656
   0.55851065  0.88751833  0.83346488
   0.31756671  0.21055568  0.47728630
   0.19288481  0.96075489  0.47746993
   0.05856846  0.88758488  0.83348090
   0.93362845  0.12485706  0.43285547
   0.94263298  0.96053493  0.47725452
   0.06333005  0.70834994  0.61159527
   0.55754585  0.03880099  0.52228086
   0.69510259  0.29918031  0.78880671
   0.81750416  0.36181958  0.16671846
   0.43358661  0.12493849  0.43295554
   0.06784331  0.21067708  0.47744781
   0.30990580  0.04084539  0.65594843
   0.43237933  0.78922373  0.52250663
   0.18355062  0.13792608  0.83361854
   0.18530086  0.28307599  0.12431645
   0.94007776  0.45936779  0.34407151
   0.56693054  0.86274892  0.16646043
   0.30356388  0.70069992  0.21126604
   0.94130365  0.61229868  0.16656331
   0.18861650  0.45876712  0.61155506
   0.07224496  0.87636382  0.70035958
   0.05973632  0.54069474  0.65588884
   0.30804164  0.52581289  0.12395429
   0.93605856  0.79115173  0.38843037
   0.94477718  0.29870471  0.78876621
   0.18481597  0.29067104  0.65597211
   0.93817456  0.95818749  0.61160548
   0.81001335  0.71207596  0.74484725
   0.69090382  0.28767872  0.25530676
   0.05912727  0.71238999  0.74497344
   0.67892336  0.45138448  0.21120718
   0.81785086  0.21073775  0.47747034
   0.56748558  0.71049915  0.47731952
   0.06784796  0.86330268  0.16664387
   0.93260047  0.28899514  0.52249293
   0.68449671  0.79044738  0.65589123
   0.05844311  0.87499237  0.43290522
   0.06814272  0.22318364  0.87617671
   0.80973268  0.04062496  0.65592484
   0.55959056  0.02686754  0.12392089
   0.30886601  0.37483340  0.43287895
   0.31633942  0.37504856  0.56689018
   0.31758261  0.71030122  0.47728978
   0.05722110  0.03914790  0.52253087
   0.32199816  0.87640828  0.70053368
   0.06565781  0.53751879  0.25522351
   0.68342978  0.13764212  0.83351109
   0.81490968  0.03737785  0.25524032
   0.18374940  0.12488633  0.43300246
   0.69731837  0.12597309  0.70046900
   0.18202328  0.28953790  0.52242906
   0.44066018  0.78778099  0.25528333
   0.44147220  0.61040393  0.16641224
   0.06361300  0.20832594  0.61154961
   0.18622442  0.79128374  0.38830414
   0.30732801  0.53900823  0.52245058
   0.82188752  0.37657138  0.70025722
   0.68638696  0.29130564  0.38841117
   0.19171840  0.12504168  0.56684383
   0.68975762  0.96839447  0.87608847
   0.69151353  0.12502769  0.56693441
   0.43990748  0.95888397  0.34401376
   0.18396408  0.96264749  0.74475625
   0.94065524  0.78762666  0.25521775
   0.55862406  0.87530515  0.43304883
   0.30863213  0.87512731  0.43304919
   0.80746658  0.53926980  0.52248490
   0.92904375  0.45147351  0.21131795
   0.31531507  0.53784219  0.25512795
   0.56141831  0.04135766  0.38839381
   0.93845852  0.45860158  0.61157778
   0.06131830  0.04126685  0.38843981
   0.06138060  0.54113304  0.38841578
   0.43649259  0.29127801  0.38841756
   0.69278271  0.46072484  0.47744635
   0.06649121  0.37517576  0.56684162
   0.55358117  0.70041085  0.21113455
   0.94083687  0.28742464  0.25541921
   0.81925914  0.04961862  0.78907361
   0.18974522  0.95886230  0.34393006
   0.55285394  0.87372200  0.29959054
   0.05851557  0.37497183  0.43301549
   0.31506814  0.70899085  0.34399989
   0.31465369  0.20886838  0.34391731
   0.94155254  0.12505790  0.56686828
   0.43832581  0.95851520  0.61155974
   0.56512183  0.03738679  0.25509131
   0.18612392  0.78291016  0.12425218
   0.06573345  0.03737604  0.25520582
   0.69145476  0.62476723  0.56684657
   0.05682902  0.52621313  0.12413503
   0.30727192  0.03876912  0.52229456
   0.68755004  0.28213256  0.12420140
   0.81762703  0.71075065  0.47735413
   0.43346782  0.13772748  0.83351822
   0.32226229  0.37630432  0.70038855
   0.68362020  0.63776456  0.83351787
   0.55986096  0.71208313  0.74486051
   0.93682471  0.29157647  0.38841978
   0.93964986  0.96833822  0.87613170
   0.56297087  0.20806365  0.61135255
   0.81679491  0.87512128  0.56688868
   0.80316486  0.87344423  0.29945998
   0.31522506  0.03771335  0.25512792
   0.43689798  0.28362957  0.12405955
   0.31371640  0.70866979  0.61159464
   0.43356672  0.62511487  0.43300256
   0.93291356  0.62498465  0.43313640
   0.31835699  0.86270972  0.16575918
   0.07075046  0.54938836  0.78880212
   0.05598636  0.53932391  0.52231831
   0.31868446  0.36324965  0.16580529
   0.93355081  0.96218550  0.74467424
   0.81596435  0.53741079  0.25548935
Direct configuration=     2
   0.05429778  0.70102697  0.21125735
   0.31788760  0.72326353  0.87619796
   0.68849323  0.95888557  0.61147703
   0.43846231  0.45838719  0.61154456
   0.44005348  0.28723863  0.25516560
   0.05890572  0.38833887  0.83364417
   0.30897155  0.88754636  0.83363259
   0.44628359  0.62622466  0.70043278
   0.06042090  0.21275736  0.74487510
   0.17916186  0.45110113  0.21135116
   0.56716605  0.21042420  0.47750061
   0.06627131  0.87499639  0.56683043
   0.56779512  0.22327943  0.87606250
   0.80919024  0.52836314  0.12401605
   0.42947762  0.95132978  0.21135486
   0.56612495  0.37508077  0.56684180
   0.81112001  0.04161246  0.38834264
   0.68286659  0.78959921  0.52242956
   0.44226456  0.46053270  0.47752828
   0.43473889  0.96256188  0.74479400
   0.44151855  0.62498684  0.56676947
   0.57092587  0.87641351  0.70057953
   0.30939345  0.02653045  0.12400697
   0.68953330  0.95893082  0.34405985
   0.68768125  0.78183966  0.12430559
   0.05334643  0.37373759  0.29957491
   0.68968162  0.46849041  0.87602654
   0.42950179  0.45105482  0.21142074
   0.80903065  0.37514953  0.43301649
   0.56335899  0.70846223  0.61155604
   0.56028888  0.54079787  0.65593588
   0.81727053  0.86212536  0.16657618
   0.56511338  0.53735662  0.25522591
   0.68926408  0.45871837  0.34401905
   0.19138698  0.61173993  0.16637712
   0.19413395  0.79947307  0.78883671
   0.44655221  0.12599907  0.70044259
   0.92855625  0.62361727  0.29962431
   0.31704536  0.22302081  0.87606421
   0.31625837  0.87483111  0.56684954
   0.81715721  0.22347956  0.87612509
   0.81008424  0.54087167  0.65586759
   0.55933867  0.52735678  0.12395755
   0.56900846  0.04981030  0.78895565
   0.19019526  0.28727638  0.25527363
   0.80897892  0.87485992  0.43302322
   0.57151153  0.37638252  0.70040937
   0.05785568  0.02711473  0.12415981
   0.31017315  0.54071511  0.65596727
   0.56439118  0.20876330  0.34402662
   0.18836825  0.95864810  0.61153026
   0.30362820  0.37385787  0.29959151
   0.43503522  0.79045971  0.65590042
   0.19441292  0.29906780  0.78884296
   0.06708665  0.36319104  0.16656167
   0.69624506  0.62628691  0.70041425
   0.31124987  0.54132282  0.38843639
   0.06722495  0.72284177  0.87615826
   0.93412058  0.63752717  0.83396353
   0.31929126  0.54979259  0.78893787
   0.30496779  0.20041195  0.21117941
   0.06748196  0.71065898  0.47746972
   0.55461931  0.20078101  0.21111219
   0.31020956  0.21251964  0.74484877
   0.07121440  0.37646403  0.70052203
   0.18369803  0.63754501  0.83364155
   0.06911393  0.04955772  0.78901749
   0.44126810  0.12495211  0.56688866
   0.93533708  0.29085389  0.65587427
   0.80463794  0.20115871  0.21120521
   0.92952943  0.95151562  0.21129953
   0.94122892  0.62498953  0.56687260
   0.80874520  0.38749619  0.83365331
   0.19636890  0.62610089  0.70032611
   0.80891815  0.88757900  0.83366035
   0.68540715  0.29071021  0.65602452
   0.31316707  0.20830120  0.61150763
   0.43509517  0.46281549  0.74483774
   0.43607955  0.79126375  0.38837512
   0.68501145  0.96262460  0.74480320
   0.80413453  0.70094855  0.21127843
   0.81332460  0.70841490  0.61161065
   0.43719709  0.78332439  0.12405063
   0.31024547  0.71215957  0.74475522
   0.31954694  0.04946535  0.78890076
   0.81123925  0.54188963  0.38831517
   0.68312311  0.28861887  0.52224929
   0.69450939  0.79927966  0.78890322
   0.18988142  0.78779490  0.25526663
   0.69128983  0.11256635  0.16661722
   0.69209292  0.96044441  0.47746000
   0.93973090  0.95903373  0.34408925
   0.80772044  0.03939680  0.52244893
   0.68395828  0.62492385  0.43302300
   0.43942870  0.45867883  0.34402272
   0.81099540  0.21180001  0.74459798
   0.43950786  0.96841350  0.87601603
   0.56631580  0.87484063  0.56680070
   0.80931029  0.02829977  0.12402732
   0.42867777  0.62353195  0.29944284
   0.81677956  0.72336708  0.87625897
   0.68834556  0.45838708  0.61152571
   0.55899149  0.38746823  0.83357913
   0.80367569  0.37337632  0.29953505
   0.18623765  0.29133421  0.38836796
   0.81938046  0.54964548  0.78894981
   0.18278465  0.78929465  0.52247305
   0.30363025  0.87379200  0.29957837
   0.17895189  0.95125002  0.21129619
   0.18496355  0.46267392  0.74486479
   0.43318916  0.28874547  0.52218242
   0.06455495  0.70867692  0.34396749
   0.18528027  0.79066225  0.65584550
   0.44414829  0.79928752  0.78884233
   0.68388759  0.12505571  0.43293307
   0.93316324  0.78893592  0.52225884
   0.69136432  0.61272779  0.16662452
   0.81427912  0.70856709  0.34398008
   0.93484097  0.46270538  0.74485349
   0.18955664  0.45885672  0.34405764
   0.56955985  0.54958438  0.78904972
   0.56635481  0.36267945  0.16634781
   0.56427535  0.70883890  0.34399581
   0.55356203  0.37367506  0.29958991
   0.18941794  0.46837843  0.87601049
   0.19126109  0.11157264  0.16637032
   0.44424664  0.29901419  0.78883619
   0.69019254  0.78740364  0.25543709
   0.93407040  0.13761551  0.83362394
   0.44216731  0.96035214  0.47747792
   0.56727931  0.72409296  0.87616105
   0.19208353  0.46043750  0.47737293
   0.93470901  0.28164464  0.12422792
   0.31118413  0.04123293  0.38842140
   0.06035605  0.04081096  0.65589641
   0.55903653  0.37470922  0.43304485
   0.68447675  0.46273302  0.74490051
   0.56053033  0.21270777  0.74481697
   0.94644183  0.12635970  0.70037633
   0.56016010  0.04075298  0.65588866
   0.55730246  0.53938918  0.52240609
   0.17860013  0.12354966  0.29959183
   0.44119641  0.11076371  0.16636868
   0.67833775  0.62356827  0.29962714
   0.92854535  0.12333162  0.29966486
   0.81624607  0.37509563  0.56687787
   0.05353766  0.87380203  0.29957145
   0.19135097  0.62486243  0.56687480
   0.94409860  0.79960436  0.78885161
   0.30882796  0.38740060  0.83363412
   0.93967488  0.46893354  0.87603607
   0.43414139  0.63773702  0.83361939
   0.06426677  0.20871838  0.34386770
   0.18956659  0.96836344  0.87603138
   0.93506520  0.78152035  0.12425011
   0.68634870  0.79143472  0.38841264
   0.93535344  0.79084374  0.65592725
   0.94087126  0.11238465  0.16646675
   0.43555432  0.29098783  0.65604683
   0.05477979  0.20108924  0.21124147
   0.67937959  0.95129360  0.21129793
   0.17886710  0.62381839  0.29947148
   0.82144843  0.87640194  0.70040441
   0.94623638  0.62642528  0.70049981
   0.19638012  0.12637748  0.70037624
   0.94226418  0.46046009  0.47732923
   0.81336767  0.20839258  0.61151159
   0.18393663  0.62489685  0.43307938
   0.42866205  0.12357409  0.29948993
   0.67863007  0.12351897  0.29954392
   0.56138688  0.54149435  0.38844920
   0.81418365  0.20846717  0.34401994
   0.43957129  0.46829843  0.87591974
   0.55888099  0.88739857  0.83357646
   0.31705881  0.21036259  0.47735775
   0.19229788  0.96052304  0.47752294
   0.05890865  0.88749239  0.83358720
   0.93393384  0.12492040  0.43288088
   0.94210740  0.96032915  0.47732976
   0.06334883  0.70828252  0.61157062
   0.55802917  0.03909437  0.52225623
   0.69464936  0.29912711  0.78880098
   0.81708317  0.36208854  0.16662692
   0.43390264  0.12492657  0.43296571
   0.06726567  0.21041433  0.47750341
   0.31037103  0.04091734  0.65592739
   0.43289214  0.78947751  0.52244618
   0.18399490  0.13776592  0.83369035
   0.18541398  0.28248091  0.12433470
   0.93960085  0.45922185  0.34408299
   0.56672172  0.86290955  0.16638131
   0.30413414  0.70062315  0.21124663
   0.94084855  0.61244615  0.16651684
   0.18857483  0.45864559  0.61153938
   0.07155236  0.87641859  0.70034797
   0.06020514  0.54080003  0.65588517
   0.30841423  0.52652257  0.12397202
   0.93611035  0.79125148  0.38842488
   0.94432519  0.29871551  0.78877509
   0.18525785  0.29079162  0.65595194
   0.93819964  0.95814990  0.61158727
   0.81050550  0.71220881  0.74480425
   0.69024166  0.28761090  0.25532760
   0.05982387  0.71248442  0.74489784
   0.67944647  0.45134380  0.21122391
   0.81725366  0.21045455  0.47751371
   0.56699504  0.71030353  0.47740594
   0.06724806  0.86336114  0.16655996
   0.93310529  0.28919512  0.52244690
   0.68496253  0.79058197  0.65586832
   0.05879610  0.87503278  0.43290947
   0.06776739  0.22265273  0.87612468
   0.81019577  0.04071847  0.65590248
   0.55968478  0.02725029  0.12399022
   0.30917733  0.37480614  0.43288726
   0.31601149  0.37502268  0.56686873
   0.31701718  0.71013307  0.47737394
   0.05780388  0.03935493  0.52245626
   0.32130709  0.87643490  0.70051435
   0.06507926  0.53745525  0.25526124
   0.68388155  0.13759101  0.83359567
   0.81440838  0.03730259  0.25528381
   0.18412346  0.12492117  0.43301237
   0.69658492  0.12606288  0.70045041
   0.18268874  0.28971074  0.52237665
   0.44006116  0.78771951  0.25531872
   0.44105664  0.61069231  0.16636357
   0.06356221  0.20825405  0.61153902
   0.18621174  0.79131265  0.38831136
   0.30791168  0.53921727  0.52239496
   0.82120698  0.37656091  0.70027384
   0.68638644  0.29141318  0.38842107
   0.19135244  0.12499229  0.56683457
   0.68963840  0.96886460  0.87600642
   0.69117630  0.12500830  0.56691834
   0.43947739  0.95883486  0.34403296
   0.18460172  0.96267594  0.74472275
   0.94006057  0.78758595  0.25526112
   0.55897353  0.87532492  0.43304493
   0.30892501  0.87515481  0.43305261
   0.80791503  0.53945393  0.52243310
   0.92956716  0.45143647  0.21133356
   0.31478125  0.53768839  0.25519409
   0.56140078  0.04143062  0.38839886
   0.93844989  0.45850500  0.61156169
   0.06132603  0.04135920  0.38844160
   0.06138215  0.54122271  0.38841940
   0.43647573  0.29135203  0.38841757
   0.69223249  0.46045951  0.47750075
   0.06617553  0.37512726  0.56684503
   0.55415250  0.70047769  0.21113897
   0.94021792  0.28735952  0.25543455
   0.81887120  0.04959123  0.78905058
   0.18934053  0.95879919  0.34396808
   0.55352735  0.87365813  0.29959890
   0.05891290  0.37497929  0.43300808
   0.31459417  0.70885090  0.34402060
   0.31424540  0.20876297  0.34395872
   0.94120361  0.12501581  0.56685819
   0.43832922  0.95847758  0.61155017
   0.56451914  0.03735853  0.25515511
   0.18611915  0.78234201  0.12427328
   0.06516379  0.03734910  0.25525023
   0.69112691  0.62477973  0.56685245
   0.05740548  0.52666070  0.12418263
   0.30788959  0.03909585  0.52226340
   0.68754452  0.28181285  0.12426655
   0.81711373  0.71051769  0.47742255
   0.43392556  0.13758424  0.83358496
   0.32158846  0.37629922  0.70039037
   0.68408290  0.63766794  0.83360185
   0.56034316  0.71217351  0.74481369
   0.93673299  0.29163430  0.38842351
   0.93959270  0.96876057  0.87604258
   0.56306666  0.20807368  0.61136802
   0.81638178  0.87506457  0.56688257
   0.80376857  0.87341417  0.29948578
   0.31465784  0.03757624  0.25519547
   0.43690803  0.28307611  0.12409162
   0.31365499  0.70858946  0.61157722
   0.43386535  0.62510598  0.43300519
   0.93333982  0.62500374  0.43312480
   0.31789654  0.86279332  0.16573732
   0.07023311  0.54937658  0.78880093
   0.05668256  0.53951347  0.52229202
   0.31814626  0.36326904  0.16577571
   0.93414504  0.96231938  0.74466903
   0.81537749  0.53731970  0.25547108
Direct configuration=     3
   0.05606548  0.70097875  0.21117966
   0.31697476  0.72180527  0.87597573
   0.68840576  0.95840658  0.61144562
   0.43850532  0.45822038  0.61148639
   0.43835182  0.28705924  0.25534698
   0.05991980  0.38751363  0.83389220
   0.31007479  0.88714664  0.83394464
   0.44428899  0.62637447  0.70041697
   0.06204126  0.21300531  0.74469630
   0.18079205  0.45123050  0.21129530
   0.56561615  0.20967854  0.47763604
   0.06526202  0.87472295  0.56682797
   0.56674380  0.22155649  0.87588977
   0.80962843  0.52934381  0.12427592
   0.43130000  0.95123437  0.21125591
   0.56519734  0.37485152  0.56680089
   0.81135191  0.04185270  0.38838452
   0.68450331  0.79034295  0.52227507
   0.44063410  0.45968704  0.47765546
   0.43628474  0.96272812  0.74463225
   0.44023481  0.62484615  0.56680585
   0.56917948  0.87643753  0.70048632
   0.30999381  0.02875164  0.12405880
   0.68809238  0.95845992  0.34409167
   0.68779566  0.78080731  0.12446211
   0.05550389  0.37354570  0.29962789
   0.68926276  0.46991786  0.87576207
   0.43125911  0.45124607  0.21126907
   0.80985877  0.37504233  0.43298522
   0.56337284  0.70834724  0.61152797
   0.56160451  0.54103434  0.65585096
   0.81591472  0.86296162  0.16630726
   0.56306879  0.53724679  0.25536019
   0.68789978  0.45839948  0.34405476
   0.18984624  0.61219390  0.16627952
   0.19293210  0.79936648  0.78878524
   0.44452050  0.12628373  0.70044289
   0.93066603  0.62347886  0.29966511
   0.31621479  0.22148710  0.87589135
   0.31519209  0.87482593  0.56682733
   0.81622431  0.22173642  0.87591817
   0.81148527  0.54125502  0.65581435
   0.55968683  0.52843235  0.12419222
   0.56793915  0.04968698  0.78895938
   0.18839793  0.28712537  0.25536786
   0.80995521  0.87519707  0.43302079
   0.56934807  0.37639317  0.70044700
   0.05947892  0.02815842  0.12430119
   0.31158959  0.54099105  0.65587489
   0.56307034  0.20843495  0.34407974
   0.18836586  0.95823641  0.61145480
   0.30557990  0.37376928  0.29961127
   0.43651092  0.79104129  0.65584677
   0.19307301  0.29873509  0.78885450
   0.06549659  0.36333150  0.16630904
   0.69419544  0.62650778  0.70039455
   0.31146139  0.54148262  0.38841072
   0.06633348  0.72140048  0.87601610
   0.93522067  0.63716100  0.83411519
   0.31834461  0.54975121  0.78895222
   0.30607404  0.20030225  0.21113941
   0.06580505  0.71017646  0.47764554
   0.55601538  0.20082009  0.21111536
   0.31198600  0.21297152  0.74465204
   0.06922893  0.37669256  0.70045465
   0.18496908  0.63719222  0.83385164
   0.06797603  0.04944759  0.78897606
   0.44018739  0.12484601  0.56683823
   0.93674510  0.29133171  0.65578652
   0.80603181  0.20124270  0.21116884
   0.93105299  0.95154309  0.21130726
   0.94025674  0.62489345  0.56684118
   0.80982382  0.38708387  0.83392803
   0.19425745  0.62643409  0.70036375
   0.81002516  0.88710030  0.83396909
   0.68674245  0.29105608  0.65590936
   0.31335151  0.20819234  0.61150373
   0.43664061  0.46269950  0.74463316
   0.43635383  0.79145392  0.38841437
   0.68635088  0.96266412  0.74466493
   0.80569946  0.70099942  0.21121795
   0.81316380  0.70836389  0.61155717
   0.43716815  0.78129779  0.12416576
   0.31164496  0.71260195  0.74458757
   0.31839227  0.04952210  0.78893618
   0.81139378  0.54173736  0.38836808
   0.68471724  0.28963418  0.52216754
   0.69322781  0.79933159  0.78890459
   0.18830240  0.78771365  0.25539143
   0.69016567  0.11304533  0.16639475
   0.69045994  0.95988335  0.47765258
   0.93832208  0.95858653  0.34411979
   0.80916496  0.03986653  0.52225608
   0.68464589  0.62491085  0.43302151
   0.43811633  0.45858388  0.34409282
   0.81208768  0.21266867  0.74455735
   0.43927729  0.96994664  0.87575768
   0.56527927  0.87473227  0.56679222
   0.80986800  0.02906157  0.12428880
   0.43053603  0.62348868  0.29956541
   0.81596885  0.72192836  0.87605470
   0.68827430  0.45812315  0.61148512
   0.55997072  0.38722576  0.83383981
   0.80551622  0.37324841  0.29961733
   0.18649095  0.29145956  0.38836056
   0.81796298  0.54957760  0.78900192
   0.18464988  0.78997558  0.52232514
   0.30566453  0.87361102  0.29959394
   0.18067389  0.95151912  0.21128777
   0.18681132  0.46278874  0.74466658
   0.43447319  0.28964067  0.52212328
   0.06333129  0.70857448  0.34410282
   0.18675698  0.79100953  0.65579113
   0.44296255  0.79938437  0.78882580
   0.68466847  0.12495586  0.43299548
   0.93467549  0.79002890  0.52217410
   0.69014418  0.61299305  0.16637428
   0.81308956  0.70845064  0.34410368
   0.93653698  0.46269874  0.74466067
   0.18828891  0.45863390  0.34408390
   0.56839003  0.54946061  0.78901197
   0.56583121  0.36327659  0.16606864
   0.56289385  0.70866109  0.34414862
   0.55573316  0.37346074  0.29960370
   0.18915847  0.46985155  0.87580341
   0.18992149  0.11213969  0.16627094
   0.44297036  0.29897018  0.78884534
   0.68810990  0.78723314  0.25546703
   0.93541870  0.13715149  0.83387402
   0.44044870  0.95968546  0.47764250
   0.56634257  0.72215977  0.87594318
   0.19046434  0.45975555  0.47758052
   0.93546576  0.28063277  0.12442252
   0.31134999  0.04156814  0.38841234
   0.06169204  0.04102865  0.65582804
   0.55995491  0.37482413  0.43302340
   0.68610515  0.46259390  0.74470577
   0.56203782  0.21312039  0.74462699
   0.94450617  0.12667146  0.70037840
   0.56156011  0.04096773  0.65583510
   0.55920397  0.54003393  0.52222210
   0.18058856  0.12345525  0.29960243
   0.43985045  0.11152390  0.16621348
   0.68030249  0.62347569  0.29966174
   0.93049554  0.12313857  0.29966954
   0.81514389  0.37494251  0.56686607
   0.05565691  0.87353804  0.29962383
   0.19015365  0.62482480  0.56689327
   0.94259245  0.79935775  0.78887909
   0.31011308  0.38709336  0.83391971
   0.93942519  0.47023709  0.87581012
   0.43537078  0.63735988  0.83389143
   0.06307759  0.20864787  0.34402939
   0.18919039  0.96971997  0.87576856
   0.93572311  0.78065201  0.12442141
   0.68638554  0.79162797  0.38842550
   0.93661019  0.79113220  0.65585380
   0.93978485  0.11304218  0.16634598
   0.43668272  0.29116937  0.65593999
   0.05647296  0.20104482  0.21119457
   0.68103147  0.95128819  0.21131449
   0.18070272  0.62361079  0.29960201
   0.81924681  0.87645586  0.70038305
   0.94433245  0.62660395  0.70046835
   0.19435884  0.12656242  0.70038963
   0.94055848  0.45953105  0.47758980
   0.81332908  0.20822866  0.61147484
   0.18511061  0.62504833  0.43302945
   0.43063375  0.12346724  0.29958473
   0.68044936  0.12325700  0.29958265
   0.56133289  0.54152923  0.38845337
   0.81300592  0.20829527  0.34417852
   0.43937527  0.46988451  0.87568928
   0.55999202  0.88703931  0.83391121
   0.31553511  0.20978333  0.47757211
   0.19053710  0.95982748  0.47768200
   0.05992921  0.88721491  0.83390610
   0.93485000  0.12511043  0.43295713
   0.94053064  0.95971178  0.47755549
   0.06340516  0.70808028  0.61149669
   0.55947913  0.03997450  0.52218235
   0.69328965  0.29896751  0.78878377
   0.81582018  0.36289542  0.16635227
   0.43485072  0.12489081  0.43299622
   0.06553277  0.20962610  0.47767020
   0.31176672  0.04113317  0.65586426
   0.43443056  0.79023886  0.52226482
   0.18532773  0.13728544  0.83390580
   0.18575334  0.28069567  0.12438942
   0.93817013  0.45878402  0.34411741
   0.56609525  0.86339145  0.16614396
   0.30584493  0.70039285  0.21118842
   0.93948324  0.61288856  0.16637743
   0.18844980  0.45828102  0.61149236
   0.06947456  0.87658292  0.70031312
   0.06161160  0.54111592  0.65587413
   0.30953200  0.52865163  0.12402521
   0.93626574  0.79155076  0.38840842
   0.94296923  0.29874790  0.78880172
   0.18658348  0.29115336  0.65589143
   0.93827489  0.95803712  0.61153264
   0.81198194  0.71260737  0.74467526
   0.68825518  0.28740742  0.25539012
   0.06191366  0.71276772  0.74467106
   0.68101580  0.45122174  0.21127410
   0.81546209  0.20960494  0.47764382