 288 288   0   0
  0.1280206E+02  0.9726678E-09  0.8423550E-09  0.4500000E-08  0.2500000E-15
  1.000000000000000E-004
  CAR 
 unknown system                          
      6.77906912     -6.02145607  301      4.29452285      1.00000000
     -6.021  0.0000E+00  0.0000E+00
     -5.979  0.0000E+00  0.0000E+00
     -5.936  0.0000E+00  0.0000E+00
     -5.893  0.0000E+00  0.0000E+00
     -5.851  0.0000E+00  0.0000E+00
     -5.808  0.0000E+00  0.0000E+00
     -5.765  0.0000E+00  0.0000E+00
     -5.723  0.0000E+00  0.0000E+00
     -5.680  0.0000E+00  0.0000E+00
     -5.637  0.0000E+00  0.0000E+00
     -5.595  0.0000E+00  0.0000E+00
     -5.552  0.0000E+00  0.0000E+00
     -5.509  0.0000E+00  0.0000E+00
     -5.467  0.0000E+00  0.0000E+00
     -5.424  0.0000E+00  0.0000E+00
     -5.381  0.1626E-15  0.6939E-17
     -5.339  0.3643E-14  0.1624E-15
     -5.296  0.7871E-13  0.3521E-14
     -5.253  0.1437E-11  0.6482E-13
     -5.211  0.2235E-10  0.1019E-11
     -5.168  0.2965E-09  0.1367E-10
     -5.125  0.3354E-08  0.1568E-09
     -5.083  0.3237E-07  0.1538E-08
     -5.040  0.2667E-06  0.1292E-07
     -4.997  0.1878E-05  0.9304E-07
     -4.955  0.1131E-04  0.5756E-06
     -4.912  0.5835E-04  0.3065E-05
     -4.869  0.2586E-03  0.1410E-04
     -4.827  0.9878E-03  0.5625E-04
     -4.784  0.3266E-02  0.1956E-03
     -4.741  0.9406E-02  0.5969E-03
     -4.699  0.2378E-01  0.1612E-02
     -4.656  0.5330E-01  0.3886E-02
     -4.613  0.1071E+00  0.8454E-02
     -4.571  0.1949E+00  0.1677E-01
     -4.528  0.3250E+00  0.3064E-01
     -4.485  0.5003E+00  0.5198E-01
     -4.443  0.7159E+00  0.8253E-01
     -4.400  0.9566E+00  0.1233E+00
     -4.357  0.1199E+01  0.1745E+00
     -4.315  0.1417E+01  0.2350E+00
     -4.272  0.1589E+01  0.3028E+00
     -4.229  0.1707E+01  0.3756E+00
     -4.187  0.1779E+01  0.4515E+00
     -4.144  0.1832E+01  0.5297E+00
     -4.101  0.1905E+01  0.6110E+00
     -4.059  0.2031E+01  0.6976E+00
     -4.016  0.2225E+01  0.7926E+00
     -3.973  0.2476E+01  0.8982E+00
     -3.931  0.2746E+01  0.1015E+01
     -3.888  0.2985E+01  0.1143E+01
     -3.845  0.3143E+01  0.1277E+01
     -3.803  0.3199E+01  0.1413E+01
     -3.760  0.3165E+01  0.1548E+01
     -3.717  0.3089E+01  0.1680E+01
     -3.675  0.3031E+01  0.1810E+01
     -3.632  0.3045E+01  0.1940E+01
     -3.589  0.3157E+01  0.2074E+01
     -3.547  0.3353E+01  0.2217E+01
     -3.504  0.3591E+01  0.2370E+01
     -3.461  0.3816E+01  0.2533E+01
     -3.419  0.3986E+01  0.2703E+01
     -3.376  0.4087E+01  0.2878E+01
     -3.333  0.4131E+01  0.3054E+01
     -3.291  0.4144E+01  0.3231E+01
     -3.248  0.4157E+01  0.3408E+01
     -3.205  0.4198E+01  0.3587E+01
     -3.163  0.4282E+01  0.3770E+01
     -3.120  0.4414E+01  0.3958E+01
     -3.077  0.4587E+01  0.4154E+01
     -3.035  0.4784E+01  0.4358E+01
     -2.992  0.4980E+01  0.4571E+01
     -2.949  0.5145E+01  0.4790E+01
     -2.907  0.5264E+01  0.5015E+01
     -2.864  0.5336E+01  0.5243E+01
     -2.821  0.5384E+01  0.5472E+01
     -2.779  0.5439E+01  0.5704E+01
     -2.736  0.5526E+01  0.5940E+01
     -2.693  0.5636E+01  0.6181E+01
     -2.651  0.5718E+01  0.6425E+01
     -2.608  0.5711E+01  0.6668E+01
     -2.565  0.5597E+01  0.6907E+01
     -2.523  0.5439E+01  0.7139E+01
     -2.480  0.5367E+01  0.7368E+01
     -2.437  0.5512E+01  0.7603E+01
     -2.395  0.5928E+01  0.7856E+01
     -2.352  0.6535E+01  0.8135E+01
     -2.309  0.7151E+01  0.8440E+01
     -2.267  0.7564E+01  0.8763E+01
     -2.224  0.7649E+01  0.9089E+01
     -2.181  0.7426E+01  0.9406E+01
     -2.139  0.7066E+01  0.9708E+01
     -2.096  0.6800E+01  0.9998E+01
     -2.053  0.6808E+01  0.1029E+02
     -2.011  0.7137E+01  0.1059E+02
     -1.968  0.7688E+01  0.1092E+02
     -1.925  0.8273E+01  0.1127E+02
     -1.883  0.8706E+01  0.1165E+02
     -1.840  0.8891E+01  0.1202E+02
     -1.797  0.8856E+01  0.1240E+02
     -1.755  0.8731E+01  0.1278E+02
     -1.712  0.8659E+01  0.1314E+02
     -1.669  0.8724E+01  0.1352E+02
     -1.627  0.8918E+01  0.1390E+02
     -1.584  0.9184E+01  0.1429E+02
     -1.541  0.9466E+01  0.1469E+02
     -1.499  0.9743E+01  0.1511E+02
     -1.456  0.1001E+02  0.1554E+02
     -1.413  0.1024E+02  0.1597E+02
     -1.371  0.1041E+02  0.1642E+02
     -1.328  0.1050E+02  0.1687E+02
     -1.285  0.1062E+02  0.1732E+02
     -1.243  0.1096E+02  0.1779E+02
     -1.200  0.1169E+02  0.1828E+02
     -1.157  0.1281E+02  0.1883E+02
     -1.115  0.1405E+02  0.1943E+02
     -1.072  0.1507E+02  0.2007E+02
     -1.029  0.1558E+02  0.2074E+02
     -0.987  0.1563E+02  0.2141E+02
     -0.944  0.1552E+02  0.2207E+02
     -0.901  0.1571E+02  0.2274E+02
     -0.859  0.1648E+02  0.2344E+02
     -0.816  0.1788E+02  0.2420E+02
     -0.773  0.1979E+02  0.2505E+02
     -0.731  0.2217E+02  0.2599E+02
     -0.688  0.2516E+02  0.2707E+02
     -0.645  0.2896E+02  0.2830E+02
     -0.603  0.3356E+02  0.2974E+02
     -0.560  0.3853E+02  0.3138E+02
     -0.517  0.4322E+02  0.3322E+02
     -0.475  0.4707E+02  0.3523E+02
     -0.432  0.4992E+02  0.3736E+02
     -0.389  0.5199E+02  0.3958E+02
     -0.347  0.5362E+02  0.4187E+02
     -0.304  0.5499E+02  0.4421E+02
     -0.261  0.5608E+02  0.4661E+02
     -0.219  0.5677E+02  0.4903E+02
     -0.176  0.5702E+02  0.5146E+02
     -0.133  0.5695E+02  0.5389E+02
     -0.091  0.5681E+02  0.5632E+02
     -0.048  0.5688E+02  0.5874E+02
     -0.005  0.5741E+02  0.6119E+02
      0.037  0.5860E+02  0.6369E+02
      0.080  0.6054E+02  0.6628E+02
      0.123  0.6321E+02  0.6897E+02
      0.165  0.6646E+02  0.7181E+02
      0.208  0.7011E+02  0.7480E+02
      0.251  0.7388E+02  0.7795E+02
      0.293  0.7748E+02  0.8126E+02
      0.336  0.8061E+02  0.8470E+02
      0.379  0.8309E+02  0.8824E+02
      0.421  0.8492E+02  0.9187E+02
      0.464  0.8619E+02  0.9554E+02
      0.507  0.8700E+02  0.9926E+02
      0.549  0.8733E+02  0.1030E+03
      0.592  0.8718E+02  0.1067E+03
      0.635  0.8659E+02  0.1104E+03
      0.677  0.8563E+02  0.1141E+03
      0.720  0.8434E+02  0.1176E+03
      0.763  0.8269E+02  0.1212E+03
      0.805  0.8072E+02  0.1246E+03
      0.848  0.7868E+02  0.1280E+03
      0.891  0.7696E+02  0.1313E+03
      0.933  0.7591E+02  0.1345E+03
      0.976  0.7563E+02  0.1377E+03
      1.019  0.7589E+02  0.1410E+03
      1.062  0.7624E+02  0.1442E+03
      1.104  0.7630E+02  0.1475E+03
      1.147  0.7591E+02  0.1507E+03
      1.190  0.7516E+02  0.1539E+03
      1.232  0.7430E+02  0.1571E+03
      1.275  0.7351E+02  0.1602E+03
      1.318  0.7284E+02  0.1633E+03
      1.360  0.7215E+02  0.1664E+03
      1.403  0.7122E+02  0.1695E+03
      1.446  0.6988E+02  0.1724E+03
      1.488  0.6822E+02  0.1753E+03
      1.531  0.6665E+02  0.1782E+03
      1.574  0.6578E+02  0.1810E+03
      1.616  0.6611E+02  0.1838E+03
      1.659  0.6774E+02  0.1867E+03
      1.702  0.7036E+02  0.1897E+03
      1.744  0.7348E+02  0.1928E+03
      1.787  0.7665E+02  0.1961E+03
      1.830  0.7966E+02  0.1995E+03
      1.872  0.8241E+02  0.2030E+03
      1.915  0.8486E+02  0.2067E+03
      1.958  0.8703E+02  0.2104E+03
      2.000  0.8897E+02  0.2142E+03
      2.043  0.9073E+02  0.2180E+03
      2.086  0.9231E+02  0.2220E+03
      2.128  0.9364E+02  0.2260E+03
      2.171  0.9472E+02  0.2300E+03
      2.214  0.9578E+02  0.2341E+03
      2.256  0.9723E+02  0.2382E+03
      2.299  0.9949E+02  0.2425E+03
      2.342  0.1028E+03  0.2469E+03
      2.384  0.1069E+03  0.2514E+03
      2.427  0.1113E+03  0.2562E+03
      2.470  0.1156E+03  0.2611E+03
      2.512  0.1192E+03  0.2662E+03
      2.555  0.1220E+03  0.2714E+03
      2.598  0.1243E+03  0.2767E+03
      2.640  0.1263E+03  0.2821E+03
      2.683  0.1282E+03  0.2876E+03
      2.726  0.1302E+03  0.2931E+03
      2.768  0.1324E+03  0.2988E+03
      2.811  0.1350E+03  0.3045E+03
      2.854  0.1379E+03  0.3104E+03
      2.896  0.1406E+03  0.3164E+03
      2.939  0.1421E+03  0.3225E+03
      2.982  0.1415E+03  0.3285E+03
      3.024  0.1381E+03  0.3344E+03
      3.067  0.1319E+03  0.3400E+03
      3.110  0.1237E+03  0.3453E+03
      3.152  0.1147E+03  0.3502E+03
      3.195  0.1060E+03  0.3547E+03
      3.238  0.9860E+02  0.3589E+03
      3.280  0.9300E+02  0.3629E+03
      3.323  0.8915E+02  0.3667E+03
      3.366  0.8672E+02  0.3704E+03
      3.408  0.8530E+02  0.3741E+03
      3.451  0.8450E+02  0.3777E+03
      3.494  0.8396E+02  0.3812E+03
      3.536  0.8340E+02  0.3848E+03
      3.579  0.8276E+02  0.3883E+03
      3.622  0.8234E+02  0.3918E+03
      3.664  0.8266E+02  0.3954E+03
      3.707  0.8424E+02  0.3990E+03
      3.750  0.8724E+02  0.4027E+03
      3.792  0.9133E+02  0.4066E+03
      3.835  0.9588E+02  0.4107E+03
      3.878  0.1002E+03  0.4150E+03
      3.920  0.1039E+03  0.4194E+03
      3.963  0.1066E+03  0.4239E+03
      4.006  0.1084E+03  0.4286E+03
      4.048  0.1091E+03  0.4332E+03
      4.091  0.1089E+03  0.4379E+03
      4.134  0.1081E+03  0.4425E+03
      4.176  0.1070E+03  0.4470E+03
      4.219  0.1057E+03  0.4515E+03
      4.262  0.1044E+03  0.4560E+03
      4.304  0.1032E+03  0.4604E+03
      4.347  0.1023E+03  0.4648E+03
      4.390  0.1017E+03  0.4691E+03
      4.432  0.1013E+03  0.4734E+03
      4.475  0.1010E+03  0.4777E+03
      4.518  0.1002E+03  0.4820E+03
      4.560  0.9903E+02  0.4862E+03
      4.603  0.9777E+02  0.4904E+03
      4.646  0.9699E+02  0.4945E+03
      4.688  0.9716E+02  0.4987E+03
      4.731  0.9841E+02  0.5029E+03
      4.774  0.1006E+03  0.5072E+03
      4.816  0.1032E+03  0.5116E+03
      4.859  0.1058E+03  0.5161E+03
      4.902  0.1078E+03  0.5207E+03
      4.944  0.1091E+03  0.5254E+03
      4.987  0.1091E+03  0.5300E+03
      5.030  0.1072E+03  0.5346E+03
      5.072  0.1026E+03  0.5390E+03
      5.115  0.9429E+02  0.5430E+03
      5.158  0.8183E+02  0.5465E+03
      5.200  0.6601E+02  0.5493E+03
      5.243  0.4879E+02  0.5514E+03
      5.286  0.3266E+02  0.5528E+03
      5.328  0.1962E+02  0.5536E+03
      5.371  0.1050E+02  0.5541E+03
      5.414  0.4978E+01  0.5543E+03
      5.456  0.2081E+01  0.5544E+03
      5.499  0.7645E+00  0.5544E+03
      5.542  0.2460E+00  0.5544E+03
      5.584  0.6914E-01  0.5544E+03
      5.627  0.1694E-01  0.5544E+03
      5.670  0.3610E-02  0.5544E+03
      5.712  0.6682E-03  0.5544E+03
      5.755  0.1072E-03  0.5544E+03
      5.798  0.1490E-04  0.5544E+03
      5.840  0.1791E-05  0.5544E+03
      5.883  0.1860E-06  0.5544E+03
      5.926  0.1667E-07  0.5544E+03
      5.968  0.1288E-08  0.5544E+03
      6.011  0.8570E-10  0.5544E+03
      6.054  0.4908E-11  0.5544E+03
      6.096  0.2407E-12  0.5544E+03
      6.139  0.9302E-14  0.5544E+03
      6.182  0.1301E-15  0.5544E+03
      6.224  0.0000E+00  0.5544E+03
      6.267  0.0000E+00  0.5544E+03
      6.310  0.0000E+00  0.5544E+03
      6.352  0.0000E+00  0.5544E+03
      6.395  0.0000E+00  0.5544E+03
      6.438  0.0000E+00  0.5544E+03
      6.480  0.0000E+00  0.5544E+03
      6.523  0.0000E+00  0.5544E+03
      6.566  0.0000E+00  0.5544E+03
      6.608  0.0000E+00  0.5544E+03
      6.651  0.0000E+00  0.5544E+03
      6.694  0.0000E+00  0.5544E+03
      6.736  0.0000E+00  0.5544E+03
      6.779  0.0000E+00  0.5544E+03
