unknown system                          
           1
     9.726678    0.000000    0.000000
     0.000000    8.423550    0.000000
     0.000000    0.000000   45.000000
   Fe   Mn
 281   7
Direct configuration=     1
   0.05338641  0.70190369  0.21143959
   0.31824370  0.72370710  0.87616878
   0.68765761  0.95795566  0.61128201
   0.43776392  0.45794601  0.61127097
   0.44008137  0.28809546  0.25546738
   0.05861170  0.38792693  0.83348525
   0.30858795  0.88753895  0.83352145
   0.44726848  0.62616239  0.70011539
   0.06037849  0.21228652  0.74482022
   0.17853092  0.45109101  0.21134028
   0.56788161  0.21068530  0.47748647
   0.06674733  0.87499270  0.56675781
   0.56789749  0.22382169  0.87608220
   0.81061674  0.53186909  0.12425586
   0.42817683  0.95127526  0.21146251
   0.56664193  0.37501608  0.56687128
   0.81222879  0.04189399  0.38860445
   0.68214695  0.78827444  0.52233688
   0.44275900  0.46081411  0.47747165
   0.43492126  0.96198690  0.74455803
   0.44205757  0.62485209  0.56672485
   0.06077527  0.53096845  0.12425878
   0.31015155  0.03183120  0.12428130
   0.69028709  0.95928422  0.34418781
   0.68210617  0.77780824  0.12404543
   0.05269460  0.37390194  0.29975503
   0.68947194  0.46744176  0.87589386
   0.42855597  0.45104625  0.21132443
   0.80845715  0.37513382  0.43311893
   0.56275935  0.70815260  0.61140736
   0.55983768  0.54149322  0.65569724
   0.93343457  0.12501438  0.43310509
   0.56569749  0.53764517  0.25545811
   0.69024182  0.45931926  0.34416694
   0.19145032  0.61201357  0.16673988
   0.19571979  0.79888927  0.78873840
   0.44723161  0.12609102  0.70014017
   0.92782162  0.62366397  0.29965872
   0.31804837  0.22363410  0.87606777
   0.31692209  0.87445679  0.56678426
   0.81749300  0.22330243  0.87611263
   0.80966304  0.54105780  0.65570904
   0.55893782  0.53144753  0.12422241
   0.57042383  0.04948477  0.78870194
   0.18991115  0.28824156  0.25547059
   0.80854053  0.87502444  0.43310427
   0.57217568  0.37619757  0.70021956
   0.06064730  0.03157604  0.12414781
   0.30965704  0.54083337  0.65579643
   0.56537275  0.20946460  0.34414858
   0.18770545  0.95819875  0.61132586
   0.30270034  0.37393653  0.29974780
   0.43438981  0.79104350  0.65569833
   0.19611062  0.29826542  0.78861560
   0.06629566  0.36236554  0.16653707
   0.69672254  0.62645591  0.70039555
   0.31223787  0.54180822  0.38858089
   0.06787064  0.72311395  0.87612116
   0.93362242  0.63745055  0.83364523
   0.32037538  0.54939511  0.78882048
   0.30339474  0.20187755  0.21143751
   0.06802519  0.71070685  0.47745816
   0.55353570  0.20146936  0.21144886
   0.31099828  0.21157055  0.74463936
   0.07212287  0.37628720  0.70032724
   0.18329676  0.63755785  0.83350181
   0.07120285  0.04884243  0.78881069
   0.44173273  0.12491910  0.56684432
   0.93465371  0.29101826  0.65574164
   0.80367834  0.20150554  0.21137082
   0.92892300  0.95108026  0.21133577
   0.94158157  0.62501274  0.56686970
   0.80844612  0.38782039  0.83350413
   0.19708979  0.62582950  0.70003266
   0.80854964  0.88774731  0.83352578
   0.68480044  0.29075975  0.65581375
   0.31261095  0.20794224  0.61128497
   0.43573337  0.46238987  0.74449761
   0.43706532  0.79182205  0.38851522
   0.68495967  0.96270146  0.74458042
   0.80334188  0.70183143  0.21145345
   0.81292414  0.70790429  0.61132890
   0.43211683  0.77821670  0.12420620
   0.31063120  0.71148818  0.74456686
   0.32077016  0.04945448  0.78878286
   0.81194211  0.54172807  0.38842990
   0.68241131  0.28821647  0.52233419
   0.69563223  0.79897882  0.78875148
   0.18996454  0.78817508  0.25546949
   0.69115821  0.11160206  0.16655539
   0.69282259  0.96069980  0.47744995
   0.94037299  0.95948199  0.34413809
   0.80732871  0.03820989  0.52239899
   0.68350927  0.62496658  0.43308720
   0.44026498  0.45920163  0.34418642
   0.81073724  0.21214320  0.74447998
   0.43966437  0.96775054  0.87604620
   0.56690311  0.87487826  0.56671112
   0.81100892  0.03150407  0.12429542
   0.42778680  0.62388530  0.29971341
   0.81724605  0.72336660  0.87611781
   0.68766927  0.45816921  0.61124590
   0.55858994  0.38776701  0.83319165
   0.80283012  0.37370366  0.29967686
   0.18713058  0.29183770  0.38852671
   0.82108259  0.54896179  0.78883428
   0.18243976  0.78830923  0.52245807
   0.30268775  0.87390432  0.29974933
   0.17873596  0.95130075  0.21128203
   0.18552874  0.46221215  0.74461090
   0.43242030  0.28820134  0.52233616
   0.06537311  0.70950689  0.34414598
   0.18474648  0.79056510  0.65578084
   0.44549774  0.79895446  0.78875546
   0.68340948  0.12498638  0.43306876
   0.93250747  0.78824272  0.52235623
   0.69162006  0.61261474  0.16649528
   0.81544716  0.70953479  0.34412540
   0.93458074  0.46255574  0.74495538
   0.19040774  0.45940371  0.34415516
   0.57031506  0.54935804  0.78887525
   0.56615911  0.36219913  0.16663920
   0.56540279  0.70955146  0.34412992
   0.55273921  0.37400059  0.29973768
   0.18946099  0.46743518  0.87589799
   0.19143989  0.11246649  0.16686591
   0.44499502  0.29874075  0.78876948
   0.68999364  0.78831383  0.25546335
   0.93364393  0.13758607  0.83351258
   0.44279329  0.96076383  0.47745787
   0.56763545  0.72414379  0.87607978
   0.19274558  0.46078342  0.47746788
   0.93500273  0.27931756  0.12408802
   0.31209938  0.04181029  0.38854909
   0.05963181  0.04050232  0.65588666
   0.55851373  0.37493108  0.43308804
   0.68446895  0.46243737  0.74495665
   0.31624732  0.36259424  0.16674866
   0.94672600  0.12673090  0.70034943
   0.55974256  0.04089967  0.65575887
   0.55734040  0.53826068  0.52239077
   0.17778383  0.12374515  0.29969084
   0.44146579  0.11223435  0.16683650
   0.67774061  0.62386991  0.29971676
   0.92773617  0.12393429  0.29983046
   0.81669327  0.37502845  0.56683110
   0.05276843  0.87390287  0.29979943
   0.19166822  0.62487083  0.56686863
   0.94588386  0.79914659  0.78873479
   0.30836473  0.38753336  0.83349274
   0.93938136  0.46771321  0.87590676
   0.43373546  0.63797549  0.83349073
   0.06525343  0.20935240  0.34410132
   0.18943670  0.96737000  0.87601807
   0.93232672  0.77885719  0.12402027
   0.68712545  0.79180664  0.38855296
   0.93468671  0.79079660  0.65581347
   0.94129537  0.11153977  0.16666594
   0.43480430  0.29068082  0.65587198
   0.05348475  0.20176848  0.21143277
   0.67828235  0.95134884  0.21156177
   0.17782644  0.62368375  0.29965517
   0.82209757  0.87604029  0.70018406
   0.94659592  0.62625510  0.70042065
   0.19705753  0.12602427  0.70022659
   0.94292743  0.46065699  0.47743733
   0.81274144  0.20803984  0.61134816
   0.18337907  0.62499704  0.43311287
   0.42770693  0.12395942  0.29973700
   0.67792694  0.12417764  0.29980425
   0.56213118  0.54179311  0.38857224
   0.81524320  0.20940098  0.34409841
   0.43955556  0.46763279  0.87585561
   0.55854840  0.88745628  0.83351118
   0.31790371  0.21059067  0.47746924
   0.19302249  0.96075067  0.47748847
   0.05860842  0.88780966  0.83343295
   0.05734962  0.53831197  0.52232926
   0.94284284  0.96061341  0.47740168
   0.06273510  0.70773752  0.61133199
   0.55735325  0.03827791  0.52233593
   0.69630622  0.29866358  0.78871828
   0.81637579  0.36211580  0.16650669
   0.43340809  0.12498441  0.43309469
   0.06789180  0.21066624  0.47745618
   0.30974589  0.04067179  0.65574015
   0.43233177  0.78823306  0.52235610
   0.18366732  0.13766593  0.83355542
   0.18221717  0.27772277  0.12405399
   0.94033580  0.45933200  0.34419275
   0.31647464  0.86247675  0.16672516
   0.30344998  0.70183388  0.21145159
   0.94130987  0.61233172  0.16662323
   0.18771748  0.45813826  0.61134843
   0.07236715  0.87615332  0.70012822
   0.05983461  0.54058442  0.65578808
   0.30891571  0.53040590  0.12424062
   0.93692483  0.79169482  0.38852739
   0.94630212  0.29805986  0.78856006
   0.18462884  0.29067641  0.65581466
   0.93772714  0.95814017  0.61136535
   0.81132730  0.71128498  0.74462515
   0.68997599  0.28820717  0.25546842
   0.05992209  0.71206799  0.74488579
   0.67853574  0.45084037  0.21131004
   0.81805771  0.21072965  0.47749312
   0.56774704  0.71055846  0.47744356
   0.06627956  0.86254811  0.16665734
   0.93237792  0.28820863  0.52237681
   0.68463156  0.79070216  0.65576493
   0.05834884  0.87479465  0.43312100
   0.06792463  0.22284161  0.87610967
   0.80980881  0.04060491  0.65577326
   0.56004026  0.03197670  0.12437410
   0.30844898  0.37488708  0.43306644
   0.31659735  0.37487149  0.56682377
   0.31792104  0.71065026  0.47740153
   0.05740012  0.03823138  0.52236499
   0.32218456  0.87640135  0.70038349
   0.06550172  0.53797857  0.25541487
   0.68338128  0.13763748  0.83351232
   0.81571671  0.03763340  0.25528785
   0.18354642  0.12501006  0.43310039
   0.69752331  0.12653595  0.70026509
   0.18239017  0.28829844  0.52235863
   0.44020596  0.78816292  0.25545819
   0.81559105  0.53781276  0.25541367
   0.06267699  0.20802738  0.61131412
   0.18684981  0.79153884  0.38845526
   0.30741716  0.53824300  0.52235203
   0.82204140  0.37621951  0.70010171
   0.68707963  0.29184554  0.38851988
   0.19165311  0.12497493  0.56686308
   0.68977594  0.96829958  0.87603351
   0.69175072  0.12485150  0.56677145
   0.44028911  0.95931106  0.34418313
   0.18527400  0.96207767  0.74436578
   0.93995652  0.78827390  0.25544192
   0.55852076  0.87504044  0.43307988
   0.30842003  0.87503277  0.43309435
   0.80732483  0.53830277  0.52238899
   0.92860850  0.45099626  0.21133209
   0.31510505  0.53802840  0.25544527
   0.56223598  0.04188688  0.38861377
   0.93768853  0.45806738  0.61141049
   0.06209391  0.04183520  0.38854774
   0.06205462  0.54174596  0.38848784
   0.43702342  0.29180314  0.38854702
   0.69297000  0.46066826  0.47745553
   0.06669863  0.37469037  0.56683191
   0.55365929  0.70167999  0.21149093
   0.93989559  0.28819531  0.25546041
   0.82043381  0.04917160  0.78887121
   0.19024903  0.95933202  0.34416066
   0.55274249  0.87385587  0.29986162
   0.05836618  0.37498237  0.43308482
   0.31534277  0.70952391  0.34415967
   0.31546384  0.20959218  0.34412178
   0.94172315  0.12494043  0.56676927
   0.43771342  0.95810974  0.61132482
   0.56532128  0.03752566  0.25545388
   0.18301170  0.77929329  0.12429746
   0.06545648  0.03769657  0.25544318
   0.69191562  0.62484345  0.56674789
   0.44170548  0.61249052  0.16679197
   0.30714346  0.03825048  0.52233092
   0.68263156  0.27944662  0.12422623
   0.81784988  0.71074674  0.47744250
   0.43365496  0.13783177  0.83349495
   0.32231598  0.37629365  0.70013085
   0.68366570  0.63787705  0.83349907
   0.56071510  0.71202564  0.74450119
   0.93722285  0.29191126  0.38859162
   0.93938454  0.96763592  0.87596368
   0.56259292  0.20835968  0.61119949
   0.81706359  0.87494779  0.56671523
   0.80266682  0.87405927  0.29982392
   0.31536213  0.03772567  0.25546509
   0.43083040  0.27815542  0.12418522
   0.31260597  0.70805971  0.61136593
   0.43338058  0.62496879  0.43309720
   0.93274742  0.62512055  0.43324757
   0.56584473  0.86173644  0.16581746
   0.07172340  0.54908939  0.78866199
   0.81735276  0.86199636  0.16581081
   0.56050630  0.21137023  0.74442716
   0.93463922  0.96176099  0.74440168
   0.57295817  0.87729849  0.70045088
Direct configuration=     2
   0.05390579  0.70183342  0.21144170
   0.31794234  0.72319076  0.87610258
   0.68772268  0.95792953  0.61128613
   0.43782312  0.45793414  0.61128482
   0.43952639  0.28798620  0.25549648
   0.05896477  0.38772082  0.83355420
   0.30901468  0.88740636  0.83360072
   0.44652917  0.62623228  0.70012164
   0.06095728  0.21236082  0.74475840
   0.17903477  0.45115416  0.21134206
   0.56732742  0.21045585  0.47753454
   0.06638769  0.87491766  0.56674762
   0.56757773  0.22323134  0.87600912
   0.81064061  0.53148782  0.12430644
   0.42871928  0.95135583  0.21146062
   0.56630172  0.37489895  0.56684706
   0.81217902  0.04195637  0.38859666
   0.68270179  0.78859580  0.52230501
   0.44223531  0.46054207  0.47752054
   0.43543657  0.96204696  0.74455151
   0.44160383  0.62477907  0.56672154
   0.06079200  0.53072676  0.12432135
   0.31029531  0.03146813  0.12435374
   0.68983491  0.95922456  0.34422089
   0.68242799  0.77822616  0.12403360
   0.05339127  0.37385032  0.29975489
   0.68941023  0.46796523  0.87582210
   0.42905039  0.45111188  0.21132245
   0.80883193  0.37513826  0.43311894
   0.56278387  0.70811511  0.61140841
   0.56026234  0.54152566  0.65567025
   0.93380828  0.12504340  0.43310884
   0.56504658  0.53764289  0.25548022
   0.68976709  0.45922565  0.34417270
   0.19102182  0.61210855  0.16666320
   0.19527171  0.79888749  0.78871200
   0.44650803  0.12614975  0.70014812
   0.92850061  0.62366383  0.29967973
   0.31766325  0.22307588  0.87600617
   0.31650322  0.87446773  0.56676571
   0.81721079  0.22279032  0.87604370
   0.81010682  0.54111736  0.65568857
   0.55914699  0.53109952  0.12429544
   0.57000650  0.04943897  0.78872100
   0.18936196  0.28814023  0.25550347
   0.80889132  0.87508796  0.43310372
   0.57149995  0.37629383  0.70022184
   0.06062724  0.03126516  0.12422025
   0.31011870  0.54090826  0.65575959
   0.56490962  0.20933211  0.34418079
   0.18776399  0.95815135  0.61133955
   0.30337064  0.37390163  0.29976069
   0.43485853  0.79107999  0.65567241
   0.19558296  0.29829650  0.78862780
   0.06594932  0.36254096  0.16650220
   0.69610981  0.62643708  0.70037019
   0.31218648  0.54183754  0.38857582
   0.06752858  0.72261587  0.87606439
   0.93404861  0.63734105  0.83370866
   0.32005021  0.54937395  0.78881544
   0.30393361  0.20179759  0.21144037
   0.06746321  0.71045427  0.47751661
   0.55405317  0.20141897  0.21144761
   0.31139411  0.21181637  0.74459605
   0.07143856  0.37633113  0.70031903
   0.18374066  0.63745830  0.83355415
   0.07067394  0.04884528  0.78880690
   0.44136075  0.12485118  0.56681841
   0.93511294  0.29110646  0.65570958
   0.80415965  0.20145797  0.21136807
   0.92936226  0.95115321  0.21132357
   0.94123710  0.62497037  0.56684775
   0.80883739  0.38764212  0.83358640
   0.19642725  0.62590925  0.70005675
   0.80890124  0.88756353  0.83360210
   0.68527243  0.29090334  0.65578109
   0.31269352  0.20791969  0.61130219
   0.43613914  0.46239378  0.74447043
   0.43703919  0.79185658  0.38852433
   0.68552269  0.96265168  0.74457219
   0.80384913  0.70169129  0.21145394
   0.81298093  0.70787714  0.61131598
   0.43245368  0.77853548  0.12422508
   0.31103887  0.71162909  0.74452763
   0.32040961  0.04942468  0.78880189
   0.81196321  0.54179656  0.38844958
   0.68297109  0.28852080  0.52229642
   0.69520465  0.79899156  0.78874626
   0.18940761  0.78803290  0.25549566
   0.69075527  0.11176017  0.16652199
   0.69224232  0.96047309  0.47750781
   0.93990098  0.95942714  0.34416188
   0.80785782  0.03848220  0.52235128
   0.68381608  0.62499629  0.43309276
   0.43981770  0.45916310  0.34420818
   0.81130786  0.21227272  0.74446814
   0.43958374  0.96824521  0.87596567
   0.56652004  0.87482005  0.56669890
   0.81098105  0.03122011  0.12430477
   0.42847991  0.62384044  0.29972369
   0.81695478  0.72286729  0.87606636
   0.68773823  0.45813195  0.61126358
   0.55895085  0.38765158  0.83329825
   0.80348064  0.37371216  0.29968977
   0.18711063  0.29186956  0.38852671
   0.82050183  0.54898838  0.78885390
   0.18300575  0.78861058  0.52241895
   0.30337518  0.87386715  0.29975927
   0.17919270  0.95131658  0.21128715
   0.18607501  0.46229330  0.74457786
   0.43294769  0.28849940  0.52229595
   0.06490613  0.70936835  0.34416679
   0.18520495  0.79061663  0.65573703
   0.44509053  0.79898031  0.78874040
   0.68370594  0.12501933  0.43308142
   0.93305036  0.78850380  0.52231936
   0.69117372  0.61273633  0.16646000
   0.81498482  0.70939464  0.34415134
   0.93524177  0.46258896  0.74486559
   0.18995141  0.45930184  0.34417855
   0.56998163  0.54924007  0.78887285
   0.56561840  0.36234980  0.16658501
   0.56493899  0.70941681  0.34416527
   0.55342058  0.37396977  0.29974676
   0.18938035  0.46792306  0.87583937
   0.19101772  0.11280605  0.16678064
   0.44465031  0.29870569  0.78874104
   0.68944311  0.78819169  0.25549581
   0.93409560  0.13741526  0.83355646
   0.44224095  0.96050336  0.47751212
   0.56734220  0.72359673  0.87601964
   0.19216645  0.46054437  0.47751913
   0.93498173  0.27951156  0.12415650
   0.31206625  0.04186814  0.38855121
   0.06008424  0.04059247  0.65585099
   0.55887423  0.37491048  0.43309059
   0.68502628  0.46240277  0.74487342
   0.31567680  0.36273067  0.16668989
   0.94616001  0.12675616  0.70033381
   0.56021502  0.04097770  0.65571921
   0.55789005  0.53857858  0.52233841
   0.17846934  0.12371391  0.29969793
   0.44101168  0.11242129  0.16676922
   0.67844784  0.62380923  0.29972659
   0.92843075  0.12384022  0.29981520
   0.81632264  0.37493654  0.56681255
   0.05344577  0.87385185  0.29979556
   0.19131288  0.62481747  0.56685515
   0.94530439  0.79911373  0.78874484
   0.30878580  0.38743230  0.83357469
   0.93934412  0.46820727  0.87584247
   0.43412830  0.63781665  0.83355808
   0.06481947  0.20928824  0.34414217
   0.18934610  0.96788686  0.87594281
   0.93264605  0.77916404  0.12404545
   0.68710398  0.79184102  0.38855256
   0.93515714  0.79082900  0.65577377
   0.94091542  0.11186424  0.16659751
   0.43526261  0.29083086  0.65583068
   0.05401981  0.20171637  0.21142338
   0.67884551  0.95142892  0.21152962
   0.17850299  0.62369720  0.29967122
   0.82149313  0.87611171  0.70018084
   0.94602526  0.62623655  0.70039947
   0.19639724  0.12613871  0.70022475
   0.94238188  0.46041775  0.47749692
   0.81277700  0.20797683  0.61134939
   0.18379536  0.62503228  0.43311302
   0.42839747  0.12390282  0.29974200
   0.67858961  0.12406275  0.29979551
   0.56208254  0.54181611  0.38856791
   0.81478537  0.20931793  0.34413979
   0.43949562  0.46812997  0.87577936
   0.55893032  0.88731747  0.83359559
   0.31734924  0.21037253  0.47752349
   0.19243550  0.96048997  0.47753954
   0.05899103  0.88761088  0.83351883
   0.05790604  0.53859068  0.52229055
   0.94229642  0.96034910  0.47745680
   0.06278790  0.70773847  0.61133487
   0.55789490  0.03858887  0.52229743
   0.69578439  0.29861351  0.78872155
   0.81599772  0.36225535  0.16646482
   0.43377441  0.12499995  0.43310058
   0.06733999  0.21039357  0.47750896
   0.31018981  0.04072590  0.65570597
   0.43288220  0.78853241  0.52231055
   0.18415364  0.13754384  0.83360612
   0.18259923  0.27804061  0.12412276
   0.93987864  0.45927997  0.34420800
   0.31605129  0.86267444  0.16667075
   0.30399632  0.70179762  0.21145211
   0.94083000  0.61235297  0.16656796
   0.18776099  0.45805474  0.61135680
   0.07172200  0.87622275  0.70012601
   0.06026514  0.54069141  0.65577032
   0.30916179  0.53018567  0.12431354
   0.93692756  0.79176175  0.38853164
   0.94573173  0.29809664  0.78858221
   0.18505316  0.29077699  0.65578469
   0.93774941  0.95806174  0.61137779
   0.81175971  0.71153124  0.74460405
   0.68944415  0.28805197  0.25549253
   0.06060781  0.71216711  0.74480328
   0.67906358  0.45093626  0.21129462
   0.81745197  0.21045018  0.47754304
   0.56720659  0.71034361  0.47750328
   0.06576475  0.86273694  0.16660136
   0.93292692  0.28846607  0.52234703
   0.68502351  0.79080198  0.65574098
   0.05874142  0.87482502  0.43311877
   0.06760745  0.22233695  0.87606042
   0.81027663  0.04067950  0.65572532
   0.56017189  0.03157859  0.12438395
   0.30880878  0.37487449  0.43307312
   0.31623731  0.37482646  0.56679901
   0.31735699  0.71042164  0.47746094
   0.05794838  0.03850438  0.52231922
   0.32144216  0.87636541  0.70035126
   0.06487922  0.53791873  0.25544223
   0.68384781  0.13755672  0.83357302
   0.81502152  0.03762226  0.25534618
   0.18396997  0.12502494  0.43310390
   0.69683200  0.12655111  0.70023898
   0.18292752  0.28859825  0.52232156
   0.43963058  0.78802828  0.25549401
   0.81494507  0.53778897  0.25543729
   0.06272196  0.20798854  0.61132115
   0.18683940  0.79161027  0.38847524
   0.30795349  0.53853348  0.52231472
   0.82141111  0.37634444  0.70012326
   0.68703425  0.29188750  0.38852433
   0.19129198  0.12489967  0.56683791
   0.68965066  0.96873446  0.87595344
   0.69136695  0.12481250  0.56675782
   0.43984695  0.95924867  0.34421475
   0.18575127  0.96207910  0.74437163
   0.93938483  0.78814329  0.25547319
   0.55887897  0.87511144  0.43309028
   0.30878111  0.87509125  0.43309874
   0.80789095  0.53857688  0.52234714
   0.92912888  0.45107634  0.21132092
   0.31458558  0.53794169  0.25546948
   0.56216392  0.04193070  0.38859999
   0.93774614  0.45797877  0.61141276
   0.06207169  0.04190279  0.38855170
   0.06203443  0.54178656  0.38849733
   0.43701188  0.29183596  0.38854610
   0.69240639  0.46042872  0.47751478
   0.06634383  0.37465407  0.56681408
   0.55421932  0.70158931  0.21148388
   0.93936803  0.28808999  0.25548957
   0.81996539  0.04918524  0.78886377
   0.18979970  0.95925784  0.34418731
   0.55342865  0.87382365  0.29985239
   0.05877668  0.37500889  0.43308406
   0.31489888  0.70939146  0.34418484
   0.31498409  0.20945710  0.34415871
   0.94135117  0.12489866  0.56675349
   0.43778341  0.95807583  0.61133089
   0.56472842  0.03755903  0.25549278
   0.18330246  0.77952842  0.12435029
   0.06482476  0.03770622  0.25547232
   0.69151609  0.62479826  0.56674315
   0.44132599  0.61257430  0.16670530
   0.30773867  0.03854471  0.52229581
   0.68294115  0.27967310  0.12427586
   0.81729918  0.71049348  0.47750234
   0.43413649  0.13764657  0.83354790
   0.32160485  0.37631019  0.70014025
   0.68415641  0.63772624  0.83355284
   0.56115173  0.71208171  0.74449232
   0.93718476  0.29195728  0.38858845
   0.93937714  0.96811833  0.87589214
   0.56266492  0.20827449  0.61121102
   0.81662711  0.87488596  0.56671955
   0.80337196  0.87400854  0.29981465
   0.31480312  0.03773201  0.25550048
   0.43137849  0.27847701  0.12424428
   0.31266292  0.70801903  0.61135971
   0.43371367  0.62500430  0.43310015
   0.93319743  0.62511917  0.43323522
   0.56541554  0.86200526  0.16583265
   0.07121235  0.54905501  0.78865544
   0.81700497  0.86223136  0.16581449
   0.56094016  0.21156574  0.74442656
   0.93516820  0.96189469  0.74442021
   0.57225163  0.87720752  0.70041852
Direct configuration=     3
   0.05546391  0.70162261  0.21144802
   0.31703826  0.72164176  0.87590396
   0.68791789  0.95785116  0.61129852
   0.43800072  0.45789855  0.61132639
   0.43786144  0.28765843  0.25558377
   0.06002398  0.38710251  0.83376103
   0.31029488  0.88700857  0.83383853
   0.44431122  0.62644195  0.70014038
   0.06269364  0.21258372  0.74457295
   0.18054634  0.45134358  0.21134739
   0.56566483  0.20976750  0.47767876
   0.06530877  0.87469254  0.56671703
   0.56661843  0.22146030  0.87578988
   0.81071223  0.53034399  0.12445818
   0.43034660  0.95159754  0.21145494
   0.56528106  0.37454756  0.56677440
   0.81202971  0.04214353  0.38857331
   0.68436629  0.78955986  0.52220937
   0.44066423  0.45972593  0.47766719
   0.43698251  0.96222713  0.74453196
   0.44024261  0.62456000  0.56671162
   0.06084220  0.53000169  0.12450907
   0.31072657  0.03037892  0.12457105
   0.68847834  0.95904561  0.34432012
   0.68339347  0.77947991  0.12399811
   0.05548127  0.37369545  0.29975446
   0.68922509  0.46953563  0.87560683
   0.43053366  0.45130878  0.21131652
   0.80995624  0.37515156  0.43311896
   0.56285744  0.70800264  0.61141158
   0.56153633  0.54162300  0.65558926
   0.93492941  0.12513048  0.43312008
   0.56309386  0.53763605  0.25554656
   0.68834290  0.45894482  0.34419000
   0.18973632  0.61239349  0.16643316
   0.19392747  0.79888213  0.78863278
   0.44433729  0.12632594  0.70017197
   0.93053760  0.62366341  0.29974274
   0.31650788  0.22140121  0.87582140
   0.31524662  0.87450054  0.56671005
   0.81636416  0.22125400  0.87583690
   0.81143816  0.54129603  0.65562717
   0.55977451  0.53005551  0.12451455
   0.56875450  0.04930156  0.78877818
   0.18771439  0.28783625  0.25560213
   0.80994371  0.87527850  0.43310207
   0.56947274  0.37658259  0.70022869
   0.06056705  0.03033253  0.12443757
   0.31150368  0.54113293  0.65564907
   0.56352023  0.20893465  0.34427743
   0.18793962  0.95800914  0.61138064
   0.30538153  0.37379693  0.29979937
   0.43626469  0.79118945  0.65559467
   0.19399997  0.29838972  0.78866441
   0.06491030  0.36306723  0.16639757
   0.69427164  0.62638058  0.70029410
   0.31203231  0.54192550  0.38856060
   0.06650240  0.72112161  0.87589407
   0.93532717  0.63701255  0.83389897
   0.31907468  0.54931049  0.78880032
   0.30555023  0.20155772  0.21144897
   0.06577727  0.70969651  0.47769196
   0.55560559  0.20126781  0.21144386
   0.31258163  0.21255384  0.74446611
   0.06938562  0.37646294  0.70029441
   0.18507238  0.63715966  0.83371119
   0.06908722  0.04885384  0.78879552
   0.44024483  0.12464741  0.56674068
   0.93649064  0.29137106  0.65561341
   0.80560359  0.20131526  0.21135982
   0.93068004  0.95137207  0.21128697
   0.94020368  0.62484326  0.56678191
   0.81001122  0.38710733  0.83383321
   0.19443962  0.62614850  0.70012903
   0.80995602  0.88701219  0.83383104
   0.68668838  0.29133411  0.65568310
   0.31294124  0.20785204  0.61135385
   0.43735645  0.46240554  0.74438889
   0.43696078  0.79196019  0.38855167
   0.68721173  0.96250237  0.74454750
   0.80537090  0.70127087  0.21145543
   0.81315130  0.70779569  0.61127720
   0.43346421  0.77949180  0.12428173
   0.31226188  0.71205182  0.74440995
   0.31932794  0.04933525  0.78885900
   0.81202651  0.54200204  0.38850862
   0.68465042  0.28943380  0.52218313
   0.69392190  0.79902979  0.78873061
   0.18773682  0.78760638  0.25557418
   0.68954647  0.11223450  0.16642178
   0.69050153  0.95979294  0.47768137
   0.93848496  0.95926258  0.34423322
   0.80944515  0.03929913  0.52220812
   0.68473650  0.62508541  0.43310943
   0.43847587  0.45904748  0.34427347
   0.81301972  0.21266127  0.74443261
   0.43934184  0.96972922  0.87572408
   0.56537081  0.87464540  0.56666226
   0.81089747  0.03036820  0.12433285
   0.43055924  0.62370586  0.29975455
   0.81608098  0.72136936  0.87591201
   0.68794509  0.45802018  0.61131660
   0.56003357  0.38730529  0.83361806
   0.80543219  0.37373767  0.29972853
   0.18705076  0.29196513  0.38852670
   0.81875953  0.54906817  0.78891276
   0.18470373  0.78951462  0.52230160
   0.30543747  0.87375565  0.29978912
   0.18056290  0.95136407  0.21130250
   0.18771384  0.46253675  0.74447874
   0.43452984  0.28939357  0.52217532
   0.06350518  0.70895274  0.34422921
   0.18658038  0.79077123  0.65560562
   0.44386888  0.79905787  0.78869522
   0.68459531  0.12511817  0.43311942
   0.93467906  0.78928704  0.52220872
   0.68983469  0.61310111  0.16635415
   0.81359779  0.70897420  0.34422917
   0.93722486  0.46268863  0.74459620
   0.18858242  0.45899621  0.34424870
   0.56898136  0.54888614  0.78886567
   0.56399626  0.36280181  0.16642245
   0.56354762  0.70901287  0.34427135
   0.55546469  0.37387730  0.29977400
   0.18913843  0.46938672  0.87566351
   0.18975123  0.11382473  0.16652485
   0.44361619  0.29860051  0.78865573
   0.68779152  0.78782527  0.25559318
   0.93545060  0.13690285  0.83368810
   0.44058393  0.95972195  0.47767489
   0.56646247  0.72195552  0.87583922
   0.19042906  0.45982721  0.47767287
   0.93491873  0.28009357  0.12436196
   0.31196686  0.04204167  0.38855756
   0.06144152  0.04086292  0.65574396
   0.55995575  0.37484865  0.43309827
   0.68669826  0.46229897  0.74462374
   0.31396526  0.36313996  0.16651360
   0.94446206  0.12683194  0.70028693
   0.56163237  0.04121182  0.65560023
   0.55953902  0.53953228  0.52218131
   0.18052586  0.12362018  0.29971922
   0.43964933  0.11298211  0.16656737
   0.68056951  0.62362719  0.29975606
   0.93051450  0.12355801  0.29976944
   0.81521076  0.37466082  0.56675689
   0.05547780  0.87369878  0.29978395
   0.19024687  0.62465739  0.56681469
   0.94356599  0.79901515  0.78877501
   0.31004899  0.38712911  0.83382054
   0.93923239  0.46968943  0.87564961
   0.43530682  0.63734011  0.83376011
   0.06351760  0.20909579  0.34426472
   0.18907427  0.96943747  0.87571702
   0.93360404  0.78008459  0.12412101
   0.68703959  0.79194416  0.38855134
   0.93656843  0.79092618  0.65565467
   0.93977559  0.11283765  0.16639221
   0.43663755  0.29128099  0.65570677
   0.05562499  0.20156003  0.21139521
   0.68053499  0.95166914  0.21143315
   0.18053263  0.62373758  0.29971935
   0.81967983  0.87632599  0.70017117
   0.94431327  0.62618093  0.70033593
   0.19441635  0.12648204  0.70021920
   0.94074523  0.45970004  0.47767567
   0.81288366  0.20778782  0.61135308
   0.18504423  0.62513799  0.43311346
   0.43046911  0.12373300  0.29975698
   0.68057762  0.12371809  0.29976930
   0.56193662  0.54188513  0.38855492
   0.81341190  0.20906876  0.34426392
   0.43931580  0.46962152  0.87555062
   0.56007609  0.88690103  0.83384881
   0.31568584  0.20971813  0.47768623
   0.19067452  0.95970788  0.47769275
   0.06013885  0.88701455  0.83377646
   0.05957533  0.53942679  0.52217439
   0.94065714  0.95955619  0.47762215
   0.06294630  0.70774133  0.61134352
   0.55951985  0.03952175  0.52218193
   0.69421892  0.29846333  0.78873138
   0.81486349  0.36267401  0.16633922
   0.43487339  0.12504657  0.43311827
   0.06568458  0.20957557  0.47766732
   0.31152156  0.04088824  0.65560341
   0.43453347  0.78943045  0.52217390
   0.18561257  0.13717756  0.83375823
   0.18374540  0.27899416  0.12432907
   0.93850715  0.45912389  0.34425375
   0.31478124  0.86326751  0.16650752
   0.30563533  0.70168885  0.21145366
   0.93939038  0.61241671  0.16640214
   0.18789152  0.45780418  0.61138191
   0.06978656  0.87643105  0.70011939
   0.06155673  0.54101238  0.65571704
   0.30990003  0.52952501  0.12453231
   0.93693573  0.79196255  0.38854442
   0.94402057  0.29820696  0.78864863
   0.18632611  0.29107873  0.65569481
   0.93781623  0.95782643  0.61141512
   0.81305694  0.71227004  0.74454078
   0.68784862  0.28758636  0.25556484
   0.06266497  0.71246446  0.74455576
   0.68064709  0.45122393  0.21124837
   0.81563477  0.20961178  0.47769281