 288 288   0   0
  0.1280206E+02  0.9726678E-09  0.8423550E-09  0.4500000E-08  0.2500000E-15
  1.000000000000000E-004
  CAR 
 unknown system                          
      6.79039942     -6.02499028  301      4.29192206      1.00000000
     -6.025  0.0000E+00  0.0000E+00
     -5.982  0.0000E+00  0.0000E+00
     -5.940  0.0000E+00  0.0000E+00
     -5.897  0.0000E+00  0.0000E+00
     -5.854  0.0000E+00  0.0000E+00
     -5.811  0.0000E+00  0.0000E+00
     -5.769  0.0000E+00  0.0000E+00
     -5.726  0.0000E+00  0.0000E+00
     -5.683  0.0000E+00  0.0000E+00
     -5.641  0.0000E+00  0.0000E+00
     -5.598  0.0000E+00  0.0000E+00
     -5.555  0.0000E+00  0.0000E+00
     -5.512  0.0000E+00  0.0000E+00
     -5.470  0.0000E+00  0.0000E+00
     -5.427  0.0000E+00  0.0000E+00
     -5.384  0.1624E-15  0.6939E-17
     -5.342  0.3866E-14  0.1721E-15
     -5.299  0.8336E-13  0.3733E-14
     -5.256  0.1521E-11  0.6870E-13
     -5.213  0.2365E-10  0.1079E-11
     -5.171  0.3135E-09  0.1447E-10
     -5.128  0.3541E-08  0.1658E-09
     -5.085  0.3412E-07  0.1623E-08
     -5.042  0.2804E-06  0.1360E-07
     -5.000  0.1969E-05  0.9770E-07
     -4.957  0.1182E-04  0.6025E-06
     -4.914  0.6075E-04  0.3198E-05
     -4.872  0.2681E-03  0.1465E-04
     -4.829  0.1019E-02  0.5820E-04
     -4.786  0.3354E-02  0.2015E-03
     -4.743  0.9613E-02  0.6121E-03
     -4.701  0.2419E-01  0.1645E-02
     -4.658  0.5399E-01  0.3952E-02
     -4.615  0.1081E+00  0.8567E-02
     -4.573  0.1962E+00  0.1695E-01
     -4.530  0.3264E+00  0.3089E-01
     -4.487  0.5017E+00  0.5232E-01
     -4.444  0.7171E+00  0.8296E-01
     -4.402  0.9575E+00  0.1239E+00
     -4.359  0.1200E+01  0.1751E+00
     -4.316  0.1418E+01  0.2357E+00
     -4.274  0.1591E+01  0.3037E+00
     -4.231  0.1710E+01  0.3767E+00
     -4.188  0.1784E+01  0.4529E+00
     -4.145  0.1839E+01  0.5315E+00
     -4.103  0.1913E+01  0.6132E+00
     -4.060  0.2039E+01  0.7003E+00
     -4.017  0.2231E+01  0.7956E+00
     -3.975  0.2480E+01  0.9015E+00
     -3.932  0.2747E+01  0.1019E+01
     -3.889  0.2984E+01  0.1146E+01
     -3.846  0.3142E+01  0.1281E+01
     -3.804  0.3200E+01  0.1417E+01
     -3.761  0.3170E+01  0.1553E+01
     -3.718  0.3098E+01  0.1685E+01
     -3.676  0.3044E+01  0.1815E+01
     -3.633  0.3060E+01  0.1946E+01
     -3.590  0.3172E+01  0.2081E+01
     -3.547  0.3368E+01  0.2225E+01
     -3.505  0.3604E+01  0.2379E+01
     -3.462  0.3828E+01  0.2543E+01
     -3.419  0.3998E+01  0.2713E+01
     -3.376  0.4100E+01  0.2889E+01
     -3.334  0.4143E+01  0.3066E+01
     -3.291  0.4153E+01  0.3243E+01
     -3.248  0.4165E+01  0.3421E+01
     -3.206  0.4205E+01  0.3600E+01
     -3.163  0.4292E+01  0.3784E+01
     -3.120  0.4430E+01  0.3973E+01
     -3.077  0.4610E+01  0.4170E+01
     -3.035  0.4810E+01  0.4375E+01
     -2.992  0.5002E+01  0.4589E+01
     -2.949  0.5158E+01  0.4809E+01
     -2.907  0.5265E+01  0.5034E+01
     -2.864  0.5328E+01  0.5262E+01
     -2.821  0.5377E+01  0.5492E+01
     -2.778  0.5444E+01  0.5724E+01
     -2.736  0.5550E+01  0.5961E+01
     -2.693  0.5674E+01  0.6204E+01
     -2.650  0.5755E+01  0.6450E+01
     -2.608  0.5731E+01  0.6694E+01
     -2.565  0.5593E+01  0.6933E+01
     -2.522  0.5418E+01  0.7165E+01
     -2.479  0.5347E+01  0.7393E+01
     -2.437  0.5511E+01  0.7629E+01
     -2.394  0.5953E+01  0.7883E+01
     -2.351  0.6580E+01  0.8164E+01
     -2.309  0.7197E+01  0.8471E+01
     -2.266  0.7592E+01  0.8796E+01
     -2.223  0.7648E+01  0.9122E+01
     -2.180  0.7402E+01  0.9439E+01
     -2.138  0.7038E+01  0.9739E+01
     -2.095  0.6787E+01  0.1003E+02
     -2.052  0.6820E+01  0.1032E+02
     -2.010  0.7167E+01  0.1063E+02
     -1.967  0.7720E+01  0.1096E+02
     -1.924  0.8290E+01  0.1131E+02
     -1.881  0.8702E+01  0.1168E+02
     -1.839  0.8875E+01  0.1206E+02
     -1.796  0.8847E+01  0.1244E+02
     -1.753  0.8744E+01  0.1281E+02
     -1.710  0.8694E+01  0.1318E+02
     -1.668  0.8763E+01  0.1356E+02
     -1.625  0.8941E+01  0.1394E+02
     -1.582  0.9182E+01  0.1433E+02
     -1.540  0.9451E+01  0.1474E+02
     -1.497  0.9739E+01  0.1515E+02
     -1.454  0.1003E+02  0.1558E+02
     -1.411  0.1029E+02  0.1602E+02
     -1.369  0.1046E+02  0.1647E+02
     -1.326  0.1053E+02  0.1692E+02
     -1.283  0.1065E+02  0.1737E+02
     -1.241  0.1101E+02  0.1784E+02
     -1.198  0.1178E+02  0.1835E+02
     -1.155  0.1293E+02  0.1890E+02
     -1.112  0.1417E+02  0.1950E+02
     -1.070  0.1514E+02  0.2015E+02
     -1.027  0.1560E+02  0.2082E+02
     -0.984  0.1561E+02  0.2148E+02
     -0.942  0.1553E+02  0.2215E+02
     -0.899  0.1579E+02  0.2282E+02
     -0.856  0.1664E+02  0.2353E+02
     -0.813  0.1812E+02  0.2431E+02
     -0.771  0.2009E+02  0.2516E+02
     -0.728  0.2254E+02  0.2613E+02
     -0.685  0.2563E+02  0.2722E+02
     -0.643  0.2952E+02  0.2848E+02
     -0.600  0.3416E+02  0.2994E+02
     -0.557  0.3911E+02  0.3161E+02
     -0.514  0.4369E+02  0.3348E+02
     -0.472  0.4739E+02  0.3550E+02
     -0.429  0.5012E+02  0.3764E+02
     -0.386  0.5212E+02  0.3987E+02
     -0.344  0.5374E+02  0.4217E+02
     -0.301  0.5511E+02  0.4452E+02
     -0.258  0.5619E+02  0.4692E+02
     -0.215  0.5685E+02  0.4935E+02
     -0.173  0.5707E+02  0.5179E+02
     -0.130  0.5699E+02  0.5422E+02
     -0.087  0.5686E+02  0.5665E+02
     -0.044  0.5697E+02  0.5908E+02
     -0.002  0.5757E+02  0.6154E+02
      0.041  0.5886E+02  0.6406E+02
      0.084  0.6092E+02  0.6666E+02
      0.126  0.6369E+02  0.6938E+02
      0.169  0.6703E+02  0.7225E+02
      0.212  0.7071E+02  0.7527E+02
      0.255  0.7447E+02  0.7845E+02
      0.297  0.7800E+02  0.8178E+02
      0.340  0.8104E+02  0.8524E+02
      0.383  0.8343E+02  0.8880E+02
      0.425  0.8520E+02  0.9244E+02
      0.468  0.8642E+02  0.9614E+02
      0.511  0.8716E+02  0.9986E+02
      0.554  0.8741E+02  0.1036E+03
      0.596  0.8717E+02  0.1073E+03
      0.639  0.8650E+02  0.1110E+03
      0.682  0.8547E+02  0.1147E+03
      0.724  0.8411E+02  0.1183E+03
      0.767  0.8239E+02  0.1218E+03
      0.810  0.8040E+02  0.1252E+03
      0.853  0.7838E+02  0.1286E+03
      0.895  0.7676E+02  0.1318E+03
      0.938  0.7584E+02  0.1351E+03
      0.981  0.7566E+02  0.1383E+03
      1.023  0.7595E+02  0.1416E+03
      1.066  0.7627E+02  0.1448E+03
      1.109  0.7626E+02  0.1481E+03
      1.152  0.7582E+02  0.1513E+03
      1.194  0.7506E+02  0.1545E+03
      1.237  0.7420E+02  0.1577E+03
      1.280  0.7341E+02  0.1608E+03
      1.322  0.7271E+02  0.1639E+03
      1.365  0.7194E+02  0.1670E+03
      1.408  0.7091E+02  0.1700E+03
      1.451  0.6948E+02  0.1730E+03
      1.493  0.6779E+02  0.1759E+03
      1.536  0.6632E+02  0.1787E+03
      1.579  0.6565E+02  0.1815E+03
      1.622  0.6621E+02  0.1844E+03
      1.664  0.6805E+02  0.1873E+03
      1.707  0.7080E+02  0.1903E+03
      1.750  0.7397E+02  0.1934E+03
      1.792  0.7716E+02  0.1967E+03
      1.835  0.8017E+02  0.2002E+03
      1.878  0.8291E+02  0.2037E+03
      1.921  0.8535E+02  0.2074E+03
      1.963  0.8749E+02  0.2111E+03
      2.006  0.8939E+02  0.2149E+03
      2.049  0.9111E+02  0.2188E+03
      2.091  0.9263E+02  0.2228E+03
      2.134  0.9389E+02  0.2268E+03
      2.177  0.9493E+02  0.2308E+03
      2.220  0.9602E+02  0.2349E+03
      2.262  0.9760E+02  0.2391E+03
      2.305  0.1000E+03  0.2434E+03
      2.348  0.1035E+03  0.2478E+03
      2.390  0.1077E+03  0.2524E+03
      2.433  0.1122E+03  0.2572E+03
      2.476  0.1164E+03  0.2622E+03
      2.519  0.1199E+03  0.2673E+03
      2.561  0.1226E+03  0.2725E+03
      2.604  0.1248E+03  0.2778E+03
      2.647  0.1268E+03  0.2833E+03
      2.689  0.1286E+03  0.2888E+03
      2.732  0.1306E+03  0.2943E+03
      2.775  0.1329E+03  0.3000E+03
      2.818  0.1356E+03  0.3058E+03
      2.860  0.1385E+03  0.3117E+03
      2.903  0.1410E+03  0.3178E+03
      2.946  0.1421E+03  0.3238E+03
      2.989  0.1410E+03  0.3298E+03
      3.031  0.1370E+03  0.3357E+03
      3.074  0.1303E+03  0.3413E+03
      3.117  0.1218E+03  0.3465E+03
      3.159  0.1127E+03  0.3513E+03
      3.202  0.1042E+03  0.3557E+03
      3.245  0.9708E+02  0.3599E+03
      3.288  0.9182E+02  0.3638E+03
      3.330  0.8830E+02  0.3676E+03
      3.373  0.8618E+02  0.3713E+03
      3.416  0.8499E+02  0.3749E+03
      3.458  0.8433E+02  0.3785E+03
      3.501  0.8381E+02  0.3821E+03
      3.544  0.8320E+02  0.3856E+03
      3.587  0.8252E+02  0.3891E+03
      3.629  0.8212E+02  0.3927E+03
      3.672  0.8258E+02  0.3962E+03
      3.715  0.8438E+02  0.3998E+03
      3.757  0.8759E+02  0.4035E+03
      3.800  0.9181E+02  0.4075E+03
      3.843  0.9635E+02  0.4116E+03
      3.886  0.1006E+03  0.4159E+03
      3.928  0.1040E+03  0.4203E+03
      3.971  0.1067E+03  0.4249E+03
      4.014  0.1084E+03  0.4295E+03
      4.056  0.1093E+03  0.4342E+03
      4.099  0.1093E+03  0.4388E+03
      4.142  0.1088E+03  0.4435E+03
      4.185  0.1078E+03  0.4481E+03
      4.227  0.1065E+03  0.4526E+03
      4.270  0.1051E+03  0.4571E+03
      4.313  0.1037E+03  0.4616E+03
      4.355  0.1025E+03  0.4659E+03
      4.398  0.1016E+03  0.4703E+03
      4.441  0.1009E+03  0.4746E+03
      4.484  0.1002E+03  0.4789E+03
      4.526  0.9935E+02  0.4831E+03
      4.569  0.9828E+02  0.4873E+03
      4.612  0.9740E+02  0.4915E+03
      4.655  0.9714E+02  0.4956E+03
      4.697  0.9781E+02  0.4998E+03
      4.740  0.9941E+02  0.5040E+03
      4.783  0.1017E+03  0.5084E+03
      4.825  0.1042E+03  0.5128E+03
      4.868  0.1066E+03  0.5174E+03
      4.911  0.1085E+03  0.5220E+03
      4.954  0.1094E+03  0.5267E+03
      4.996  0.1091E+03  0.5314E+03
      5.039  0.1066E+03  0.5359E+03
      5.082  0.1010E+03  0.5402E+03
      5.124  0.9129E+02  0.5441E+03
      5.167  0.7748E+02  0.5474E+03
      5.210  0.6078E+02  0.5500E+03
      5.253  0.4349E+02  0.5519E+03
      5.295  0.2807E+02  0.5531E+03
      5.338  0.1621E+02  0.5538E+03
      5.381  0.8318E+01  0.5541E+03
      5.423  0.3772E+01  0.5543E+03
      5.466  0.1506E+01  0.5544E+03
      5.509  0.5277E+00  0.5544E+03
      5.552  0.1619E+00  0.5544E+03
      5.594  0.4343E-01  0.5544E+03
      5.637  0.1017E-01  0.5544E+03
      5.680  0.2077E-02  0.5544E+03
      5.722  0.3700E-03  0.5544E+03
      5.765  0.5744E-04  0.5544E+03
      5.808  0.7772E-05  0.5544E+03
      5.851  0.9159E-06  0.5544E+03
      5.893  0.9397E-07  0.5544E+03
      5.936  0.8386E-08  0.5544E+03
      5.979  0.6501E-09  0.5544E+03
      6.021  0.4372E-10  0.5544E+03
      6.064  0.2546E-11  0.5544E+03
      6.107  0.1273E-12  0.5544E+03
      6.150  0.4873E-14  0.5544E+03
      6.192  0.1299E-15  0.5544E+03
      6.235  0.0000E+00  0.5544E+03
      6.278  0.0000E+00  0.5544E+03
      6.321  0.0000E+00  0.5544E+03
      6.363  0.0000E+00  0.5544E+03
      6.406  0.0000E+00  0.5544E+03
      6.449  0.0000E+00  0.5544E+03
      6.491  0.0000E+00  0.5544E+03
      6.534  0.0000E+00  0.5544E+03
      6.577  0.0000E+00  0.5544E+03
      6.620  0.0000E+00  0.5544E+03
      6.662  0.0000E+00  0.5544E+03
      6.705  0.0000E+00  0.5544E+03
      6.748  0.0000E+00  0.5544E+03
      6.790  0.0000E+00  0.5544E+03
