unknown system                          
           1
     9.726678    0.000000    0.000000
     0.000000    8.423550    0.000000
     0.000000    0.000000   45.000000
   Fe   Mn
 281   7
Direct configuration=     1
   0.05341988  0.70190513  0.21142676
   0.31770703  0.72457626  0.87630026
   0.68752575  0.95806823  0.61118940
   0.43805053  0.45762341  0.61123974
   0.43994114  0.28815600  0.25545627
   0.05851129  0.38783370  0.83352284
   0.30829462  0.88748341  0.83351036
   0.44711271  0.62678042  0.70017102
   0.06066610  0.21178274  0.74482972
   0.17854805  0.45097288  0.21131567
   0.56785369  0.21070526  0.47744946
   0.06687139  0.87480967  0.56675179
   0.56791754  0.22422811  0.87603585
   0.80969886  0.53321500  0.12425569
   0.42859798  0.95102686  0.21131802
   0.56685442  0.37465755  0.56682429
   0.81220110  0.04184222  0.38857834
   0.68255618  0.78840206  0.52219931
   0.44278822  0.46062631  0.47745305
   0.43482615  0.96181746  0.74457305
   0.44202139  0.62498349  0.56672325
   0.05954628  0.53322924  0.12426474
   0.30958048  0.03323818  0.12426914
   0.69039647  0.95934573  0.34417359
   0.68125493  0.77744047  0.12406237
   0.05286904  0.37389088  0.29981822
   0.68931555  0.46724171  0.87592686
   0.42862727  0.45102973  0.21130584
   0.80841092  0.37495952  0.43311634
   0.56282218  0.70803888  0.61137242
   0.56001252  0.54123257  0.65568576
   0.93347968  0.12502605  0.43310763
   0.56585364  0.53751436  0.25544909
   0.69031842  0.45939499  0.34417915
   0.19144624  0.61242801  0.16681884
   0.19514246  0.79834111  0.78868924
   0.44788360  0.12556208  0.70009460
   0.92782926  0.62381097  0.29972412
   0.31813210  0.22424054  0.87608796
   0.31673633  0.87463316  0.56679498
   0.81819160  0.22384230  0.87617361
   0.81018319  0.54075288  0.65583259
   0.55946019  0.53324792  0.12427678
   0.56625697  0.86249548  0.16662770
   0.18997753  0.28815580  0.25544897
   0.80842148  0.87493823  0.43311571
   0.57204241  0.37615715  0.70009985
   0.05968464  0.03327376  0.12425786
   0.30972630  0.54076573  0.65577263
   0.56536198  0.20934699  0.34418789
   0.18770451  0.95811789  0.61135450
   0.30287720  0.37391881  0.29978404
   0.43460229  0.79074531  0.65570583
   0.68465977  0.46197445  0.74465700
   0.06622599  0.36250376  0.16662513
   0.69746234  0.62625488  0.70043217
   0.31220003  0.54185575  0.38857147
   0.06817372  0.72434924  0.87612408
   0.93334060  0.63751541  0.83355650
   0.32008421  0.54976267  0.78872850
   0.30337255  0.20183050  0.21143241
   0.06782336  0.71068841  0.47745994
   0.55342571  0.20184844  0.21142428
   0.31100986  0.21190380  0.74451015
   0.07219062  0.37580599  0.70045007
   0.18348797  0.63753684  0.83339426
   0.07149332  0.04900496  0.78874149
   0.44169157  0.12509815  0.56680563
   0.93489868  0.29123809  0.65570977
   0.80342126  0.20183047  0.21143047
   0.92860634  0.95109416  0.21128989
   0.94164845  0.62509014  0.56689248
   0.80858560  0.38795895  0.83348794
   0.19727582  0.62632154  0.70006839
   0.80852575  0.88819010  0.83346916
   0.68475270  0.29065831  0.65578486
   0.31277671  0.20805477  0.61128916
   0.43569316  0.46214369  0.74440041
   0.43727633  0.79190385  0.38861787
   0.68531974  0.96199424  0.74450845
   0.80331400  0.70179824  0.21142395
   0.81287686  0.70800087  0.61121753
   0.43117814  0.77737790  0.12407912
   0.31081766  0.71235252  0.74447668
   0.32116850  0.04923157  0.78868201
   0.81216876  0.54179950  0.38857673
   0.68241285  0.28821297  0.52231767
   0.69500324  0.79845246  0.78876623
   0.18991157  0.78821278  0.25546835
   0.69135685  0.11238385  0.16680628
   0.69290379  0.96062171  0.47748494
   0.94038453  0.95931730  0.34417324
   0.80762074  0.03835968  0.52226695
   0.68349544  0.62503696  0.43308447
   0.44034553  0.45938733  0.34418280
   0.81080841  0.21175466  0.74465078
   0.43930235  0.96709433  0.87595500
   0.56659076  0.87492954  0.56686444
   0.80971176  0.03333659  0.12426710
   0.42778552  0.62378898  0.29971471
   0.81769972  0.72361628  0.87613484
   0.68748946  0.45810756  0.61118000
   0.55847620  0.38769994  0.83316127
   0.80282968  0.37375495  0.29977291
   0.18697689  0.29174920  0.38849547
   0.82106592  0.54908204  0.78879349
   0.18248866  0.78842870  0.52232213
   0.30284499  0.87382163  0.29977761
   0.17871404  0.95105873  0.21129507
   0.18590051  0.46141935  0.74462460
   0.43234874  0.28818233  0.52232451
   0.06536036  0.70940309  0.34417120
   0.18481428  0.79061836  0.65587936
   0.44618907  0.79844479  0.78871060
   0.68346451  0.12510631  0.43310234
   0.93242725  0.78824960  0.52234366
   0.69134187  0.61237297  0.16679687
   0.81543899  0.70931506  0.34417245
   0.93502220  0.46185655  0.74456619
   0.19034047  0.45925476  0.34419680
   0.56973464  0.54913787  0.78892721
   0.56627001  0.36248610  0.16665286
   0.56528634  0.70939185  0.34417670
   0.55283905  0.37384332  0.29978738
   0.18985230  0.46719842  0.87592687
   0.19136175  0.11235692  0.16681321
   0.44482286  0.29874752  0.78879030
   0.69001352  0.78814149  0.25544544
   0.93370886  0.13780361  0.83352169
   0.44292401  0.96080252  0.47745964
   0.56748817  0.72374603  0.87611949
   0.19284768  0.46074497  0.47745154
   0.93114872  0.27750264  0.12407953
   0.31213767  0.04174370  0.38854078
   0.05982444  0.04059910  0.65582932
   0.55844068  0.37498773  0.43312609
   0.93354581  0.62494865  0.43307968
   0.31625261  0.36251030  0.16663076
   0.94663525  0.12644825  0.70010768
   0.55999824  0.04144245  0.65568154
   0.55731888  0.53829232  0.52232181
   0.17786799  0.12378400  0.29973496
   0.44136042  0.11242202  0.16681352
   0.67782433  0.62380485  0.29977066
   0.92785947  0.12374966  0.29969319
   0.81678972  0.37457001  0.56679216
   0.05277773  0.87383965  0.29977355
   0.19173297  0.62518493  0.56678621
   0.94546910  0.79802257  0.78878260
   0.30816201  0.38731772  0.83351566
   0.93901750  0.46718225  0.87594473
   0.43379192  0.63764110  0.83343495
   0.06529502  0.20938570  0.34418641
   0.18934033  0.96605124  0.87605552
   0.93120687  0.77734631  0.12406689
   0.68712177  0.79186857  0.38854604
   0.93475803  0.79073937  0.65584045
   0.94129927  0.11233510  0.16677380
   0.43478791  0.29084315  0.65592032
   0.05342477  0.20176718  0.21142878
   0.67863975  0.95099637  0.21130566
   0.17799626  0.62393367  0.29976943
   0.82235962  0.87599061  0.70014473
   0.94684294  0.62600156  0.70019699
   0.19710830  0.12631915  0.70021931
   0.94282046  0.46073013  0.47744863
   0.81271440  0.20796555  0.61136148
   0.18344033  0.62497276  0.43310474
   0.42793470  0.12387607  0.29979598
   0.67800252  0.12391291  0.29978694
   0.56221755  0.54184276  0.38857461
   0.81534371  0.20941626  0.34418126
   0.43976104  0.46723988  0.87596736
   0.55848717  0.88839408  0.83338263
   0.31792594  0.21068947  0.47745492
   0.19293119  0.96068801  0.47746363
   0.05870694  0.88764876  0.83337847
   0.05742166  0.53820761  0.52234329
   0.94283228  0.96080305  0.47746837
   0.06287281  0.70781922  0.61122605
   0.55748651  0.03827572  0.52234888
   0.69635863  0.29843117  0.78875155
   0.81624483  0.36251299  0.16663073
   0.43344876  0.12503996  0.43310791
   0.06790236  0.21073685  0.47746232
   0.30985652  0.04087086  0.65572419
   0.43247024  0.78825358  0.52220315
   0.18372238  0.13804777  0.83344652
   0.18116263  0.27752976  0.12408989
   0.94028133  0.45931695  0.34418133
   0.31626247  0.86245832  0.16665834
   0.30338134  0.70180696  0.21142272
   0.94130277  0.61233790  0.16678395
   0.18785323  0.45847741  0.61126763
   0.07233014  0.87620817  0.69995686
   0.05981239  0.54063051  0.65580516
   0.30955897  0.53322505  0.12426772
   0.93714054  0.79177081  0.38855433
   0.94609016  0.29833461  0.78862116
   0.18480388  0.29097287  0.65573677
   0.93788977  0.95803725  0.61122545
   0.81140474  0.71127888  0.74459352
   0.69001685  0.28818100  0.25546526
   0.06101635  0.71146848  0.74482362
   0.67866351  0.45103887  0.21130281
   0.81795093  0.21064603  0.47745623
   0.56789162  0.71060402  0.47751728
   0.06625737  0.86246777  0.16662378
   0.93243600  0.28847994  0.52232048
   0.68465420  0.79077815  0.65578802
   0.05841392  0.87502082  0.43310467
   0.06819744  0.22403245  0.87611736
   0.81019703  0.04131344  0.65594592
   0.55959800  0.03319037  0.12426941
   0.30842677  0.37498933  0.43312514
   0.31686154  0.37474531  0.56677910
   0.31786688  0.71064076  0.47745807
   0.05730671  0.03820154  0.52234365
   0.32230139  0.87601102  0.70009371
   0.06592832  0.53755769  0.25543926
   0.68323306  0.13722574  0.83342834
   0.81581926  0.03751812  0.25545733
   0.18344862  0.12507314  0.43310898
   0.69828131  0.12650503  0.70010511
   0.18242843  0.28827561  0.52231177
   0.43993426  0.78814929  0.25545462
   0.81588462  0.53747441  0.25543339
   0.06276124  0.20804629  0.61122147
   0.18706252  0.79178441  0.38851510
   0.30747505  0.53833514  0.52236919
   0.81625735  0.86248726  0.16663521
   0.68720353  0.29181965  0.38856238
   0.19157262  0.12507583  0.56689615
   0.68943866  0.96797889  0.87609093
   0.69203187  0.12513079  0.56669905
   0.44030575  0.95936657  0.34419286
   0.18500825  0.96247910  0.74467818
   0.93995531  0.78820541  0.25546011
   0.55844845  0.87502442  0.43306954
   0.30840904  0.87499041  0.43311235
   0.80736216  0.53819749  0.52232885
   0.92860980  0.45100157  0.21130972
   0.31593027  0.53744360  0.25542521
   0.56215429  0.04176537  0.38854937
   0.93760376  0.45818951  0.61135740
   0.06216300  0.04179834  0.38856920
   0.06213993  0.54185773  0.38855677
   0.43718465  0.29183791  0.38857783
   0.69303178  0.46070582  0.47746572
   0.06691934  0.37466469  0.56676440
   0.55340902  0.70181781  0.21142810
   0.93998821  0.28820085  0.25545256
   0.82048614  0.04927385  0.78893973
   0.19032253  0.95937895  0.34419203
   0.55280637  0.87378641  0.29978690
   0.05838669  0.37495551  0.43311935
   0.31528194  0.70935513  0.34418159
   0.31540520  0.20939379  0.34418278
   0.94167013  0.12498358  0.56686284
   0.43831334  0.95805487  0.61126759
   0.56582488  0.03747550  0.25545162
   0.18118144  0.77741562  0.12407652
   0.06590852  0.03756721  0.25545379
   0.69160321  0.62497419  0.56682164
   0.44148462  0.61229431  0.16680244
   0.30718946  0.03826000  0.52228200
   0.68113671  0.27747900  0.12408283
   0.81791987  0.71068362  0.47745632
   0.43378517  0.13756050  0.83356726
   0.32200551  0.37570841  0.70012416
   0.68370929  0.63733258  0.83354693
   0.56106377  0.71304864  0.74456509
   0.93710047  0.29181455  0.38853830
   0.93910774  0.96686925  0.87594791
   0.93507719  0.96170078  0.74453536
   0.81685206  0.87450794  0.56681390
   0.80282582  0.87384897  0.29978620
   0.31590680  0.03755568  0.25544227
   0.43120933  0.27742961  0.12407395
   0.31243968  0.70789067  0.61137986
   0.43336617  0.62499908  0.43309188
   0.19712477  0.29693943  0.78849341
   0.57111604  0.04955698  0.78870307
   0.07104905  0.55015906  0.78881824
   0.82263740  0.37670755  0.70015044
   0.56094812  0.21197295  0.74456256
   0.56255585  0.20692216  0.61124211
   0.57237082  0.87638499  0.70050641
Direct configuration=     2
   0.05394651  0.70183846  0.21143186
   0.31752025  0.72391628  0.87621424
   0.68764812  0.95799691  0.61120990
   0.43807037  0.45762710  0.61125935
   0.43941787  0.28800890  0.25549572
   0.05887965  0.38765035  0.83362449
   0.30875570  0.88729664  0.83359583
   0.44643488  0.62674885  0.70017178
   0.06114013  0.21194826  0.74477288
   0.17905786  0.45103260  0.21131066
   0.56730535  0.21045030  0.47750150
   0.06648240  0.87475121  0.56673440
   0.56759224  0.22352504  0.87598653
   0.80977406  0.53270045  0.12432514
   0.42910806  0.95106218  0.21131323
   0.56649513  0.37462651  0.56679517
   0.81216822  0.04187944  0.38857552
   0.68308457  0.78869022  0.52218368
   0.44224126  0.46038499  0.47750387
   0.43537035  0.96189541  0.74455123
   0.44157810  0.62494358  0.56671853
   0.05965724  0.53271356  0.12433205
   0.30968605  0.03272146  0.12433822
   0.68993294  0.95926229  0.34420590
   0.68160647  0.77791767  0.12412879
   0.05354711  0.37383309  0.29981106
   0.68925408  0.46781295  0.87585667
   0.42912588  0.45105786  0.21130399
   0.80878645  0.37499757  0.43311659
   0.56287194  0.70799800  0.61136728
   0.56047321  0.54126080  0.65566082
   0.93384370  0.12503980  0.43311131
   0.56521872  0.53754144  0.25548128
   0.68986570  0.45930306  0.34420904
   0.19099610  0.61261885  0.16671969
   0.19485597  0.79838939  0.78866361
   0.44714022  0.12561097  0.70009664
   0.92852846  0.62377674  0.29972941
   0.31771187  0.22363068  0.87604229
   0.31635165  0.87460410  0.56677011
   0.81791753  0.22326920  0.87610536
   0.81058650  0.54089270  0.65578988
   0.55958692  0.53273134  0.12434039
   0.56575669  0.86265023  0.16657587
   0.18943763  0.28801098  0.25549075
   0.80879688  0.87497195  0.43311834
   0.57132769  0.37623490  0.70011533
   0.05977411  0.03275077  0.12432610
   0.31020109  0.54082647  0.65573753
   0.56490857  0.20926204  0.34421227
   0.18780821  0.95800967  0.61135677
   0.30354084  0.37385146  0.29978368
   0.43505432  0.79081752  0.65566602
   0.68526856  0.46204200  0.74463855
   0.06573061  0.36265901  0.16657566
   0.69674718  0.62624893  0.70040230
   0.31216637  0.54188864  0.38857260
   0.06781670  0.72362366  0.87606239
   0.93377536  0.63742022  0.83361994
   0.31978498  0.54970865  0.78872776
   0.30391274  0.20178062  0.21143705
   0.06728091  0.71043558  0.47751117
   0.55395857  0.20178459  0.21143135
   0.31147455  0.21196465  0.74447771
   0.07156580  0.37590348  0.70041221
   0.18391221  0.63741768  0.83345260
   0.07087093  0.04889571  0.78875762
   0.44132215  0.12500896  0.56678395
   0.93534506  0.29127248  0.65568998
   0.80394760  0.20177927  0.21143593
   0.92910689  0.95111171  0.21128971
   0.94130084  0.62502298  0.56686369
   0.80902629  0.38782258  0.83358002
   0.19659123  0.62636050  0.70007916
   0.80888879  0.88794834  0.83356409
   0.68523077  0.29082276  0.65574347
   0.31277658  0.20801589  0.61130037
   0.43610248  0.46222628  0.74439094
   0.43722315  0.79192419  0.38860951
   0.68595241  0.96207408  0.74450004
   0.80386510  0.70175344  0.21142897
   0.81300722  0.70795951  0.61121615
   0.43153651  0.77787007  0.12414454
   0.31121576  0.71239616  0.74445705
   0.32060920  0.04916868  0.78871281
   0.81213321  0.54184870  0.38857515
   0.68296960  0.28851781  0.52227819
   0.69465434  0.79841564  0.78874574
   0.18938557  0.78805327  0.25550425
   0.69092787  0.11258439  0.16670804
   0.69234309  0.96038694  0.47753272
   0.93991516  0.95924265  0.34420220
   0.80815246  0.03859139  0.52222171
   0.68386325  0.62505322  0.43309325
   0.43988837  0.45930169  0.34421224
   0.81130598  0.21185089  0.74461930
   0.43930525  0.96769596  0.87588471
   0.56627267  0.87489386  0.56683317
   0.80978634  0.03280489  0.12433364
   0.42849871  0.62376767  0.29972268
   0.81731470  0.72307633  0.87607888
   0.68762901  0.45806681  0.61120449
   0.55882868  0.38761388  0.83328063
   0.80351074  0.37372799  0.29977455
   0.18698516  0.29180655  0.38851028
   0.82054071  0.54910218  0.78881302
   0.18302532  0.78869251  0.52228580
   0.30352105  0.87378605  0.29977905
   0.17919457  0.95109171  0.21129590
   0.18630681  0.46166182  0.74460603
   0.43290662  0.28847936  0.52228227
   0.06490456  0.70929866  0.34419633
   0.18527542  0.79069025  0.65583207
   0.44566431  0.79845348  0.78870237
   0.68382948  0.12511175  0.43310623
   0.93298890  0.78852621  0.52230830
   0.69091982  0.61258357  0.16669881
   0.81496609  0.70922355  0.34419886
   0.93561842  0.46196178  0.74455159
   0.18988535  0.45918651  0.34422210
   0.56943193  0.54910003  0.78892567
   0.56576764  0.36263535  0.16659819
   0.56484655  0.70928993  0.34420271
   0.55352403  0.37378938  0.29978614
   0.18969275  0.46776579  0.87586275
   0.19093219  0.11256210  0.16671380
   0.44452862  0.29878776  0.78875396
   0.68945850  0.78799856  0.25548811
   0.93416151  0.13763761  0.83357606
   0.44235111  0.96053542  0.47751162
   0.56723358  0.72314267  0.87605281
   0.19228657  0.46050461  0.47750857
   0.93151363  0.27797764  0.12414094
   0.31211145  0.04180771  0.38854701
   0.06031124  0.04069892  0.65578402
   0.55880329  0.37501587  0.43312480
   0.93389019  0.62499335  0.43308628
   0.31575216  0.36265602  0.16658006
   0.94608338  0.12640765  0.70012515
   0.56043209  0.04139827  0.65566756
   0.55788616  0.53864384  0.52227171
   0.17856862  0.12376164  0.29973811
   0.44093328  0.11261145  0.16671496
   0.67853019  0.62377194  0.29976679
   0.92856339  0.12373045  0.29970554
   0.81638009  0.37455307  0.56677949
   0.05346842  0.87378985  0.29977438
   0.19136232  0.62510192  0.56677416
   0.94495697  0.79802869  0.78877011
   0.30848511  0.38722616  0.83360330
   0.93899774  0.46775962  0.87588356
   0.43419159  0.63751571  0.83351830
   0.06485604  0.20928504  0.34420890
   0.18923747  0.96671794  0.87596560
   0.93155971  0.77784925  0.12413226
   0.68709969  0.79190105  0.38854871
   0.93519815  0.79082137  0.65579851
   0.94088710  0.11254118  0.16668341
   0.43521531  0.29095111  0.65586688
   0.05395397  0.20172377  0.21143267
   0.67913503  0.95104526  0.21130458
   0.17866317  0.62387573  0.29976613
   0.82174031  0.87602235  0.70014985
   0.94629696  0.62604885  0.70019486
   0.19649140  0.12629423  0.70020191
   0.94227530  0.46048106  0.47750746
   0.81282559  0.20794612  0.61135508
   0.18381116  0.62501064  0.43310759
   0.42861819  0.12383062  0.29978929
   0.67866374  0.12385189  0.29977920
   0.56216715  0.54187795  0.38857383
   0.81489510  0.20930291  0.34420449
   0.43977521  0.46788045  0.87587611
   0.55885080  0.88811054  0.83348630
   0.31735508  0.21044474  0.47750640
   0.19236873  0.96046458  0.47752197
   0.05905385  0.88749509  0.83347303
   0.05796012  0.53850627  0.52230119
   0.94228094  0.96054852  0.47752341
   0.06290290  0.70779437  0.61124422
   0.55802345  0.03856881  0.52230742
   0.69593661  0.29844138  0.78873098
   0.81574800  0.36265875  0.16658127
   0.43381685  0.12506596  0.43310845
   0.06734695  0.21049150  0.47751347
   0.31034469  0.04091735  0.65568220
   0.43299484  0.78857732  0.52218535
   0.18416591  0.13790295  0.83350054
   0.18153869  0.27799335  0.12415141
   0.93984333  0.45923821  0.34420872
   0.31576674  0.86261895  0.16660263
   0.30390902  0.70175574  0.21143032
   0.94089141  0.61254492  0.16669162
   0.18790374  0.45839517  0.61128297
   0.07169438  0.87633575  0.70000343
   0.06028118  0.54072102  0.65577185
   0.30966486  0.53270696  0.12433679
   0.93711828  0.79182964  0.38855611
   0.94548878  0.29845517  0.78863281
   0.18523973  0.29101872  0.65571297
   0.93795321  0.95796206  0.61125045
   0.81189869  0.71147062  0.74456275
   0.68946247  0.28802760  0.25550236
   0.06149191  0.71169038  0.74475233
   0.67915184  0.45107582  0.21130284
   0.81737586  0.21040288  0.47750694
   0.56733448  0.71034334  0.47756281
   0.06575478  0.86263539  0.16657297
   0.93298598  0.28875328  0.52228323
   0.68510460  0.79093673  0.65576667
   0.05878167  0.87503278  0.43310338
   0.06788030  0.22336849  0.87607388
   0.81059844  0.04131182  0.65587447
   0.55970020  0.03268094  0.12433761
   0.30880051  0.37501658  0.43312258
   0.31649326  0.37471951  0.56676030
   0.31729917  0.71039941  0.47750467
   0.05786736  0.03850805  0.52230520
   0.32153483  0.87610867  0.70009428
   0.06527310  0.53758475  0.25547323
   0.68371564  0.13714809  0.83349195
   0.81518334  0.03755202  0.25548425
   0.18381634  0.12507737  0.43311194
   0.69739921  0.12651711  0.70010806
   0.18297885  0.28855470  0.52227969
   0.43940956  0.78801162  0.25549418
   0.81524423  0.53751762  0.25546668
   0.06283944  0.20798509  0.61122283
   0.18705111  0.79183737  0.38852586
   0.30801811  0.53861079  0.52232928
   0.81576026  0.86263916  0.16658297
   0.68716062  0.29186413  0.38856580
   0.19120928  0.12497215  0.56687206
   0.68932645  0.96844121  0.87599435
   0.69161680  0.12502766  0.56668760
   0.43986334  0.95927447  0.34421981
   0.18555929  0.96243023  0.74461986
   0.93942143  0.78805246  0.25549558
   0.55881500  0.87505059  0.43307756
   0.30878941  0.87501210  0.43311540
   0.80790885  0.53849772  0.52229430
   0.92911771  0.45104639  0.21130655
   0.31526988  0.53748681  0.25545863
   0.56212140  0.04181762  0.38855439
   0.93768223  0.45817088  0.61135731
   0.06212422  0.04184112  0.38857101
   0.06210867  0.54188777  0.38855826
   0.43714626  0.29188149  0.38857630
   0.69244191  0.46046905  0.47751520
   0.06652568  0.37462884  0.56675098
   0.55394356  0.70176398  0.21143283
   0.93945454  0.28805706  0.25549202
   0.82012030  0.04921470  0.78893097
   0.18987447  0.95929101  0.34421726
   0.55349015  0.87374449  0.29978520
   0.05877286  0.37498618  0.43311910
   0.31485213  0.70925593  0.34420628
   0.31494437  0.20929621  0.34420830
   0.94132600  0.12488806  0.56683371
   0.43824702  0.95795491  0.61127224
   0.56519870  0.03751253  0.25548401
   0.18155297  0.77790095  0.12414112
   0.06525842  0.03758503  0.25548340
   0.69125606  0.62492061  0.56679365
   0.44102808  0.61251384  0.16670711
   0.30776531  0.03851587  0.52224231
   0.68150729  0.27794494  0.12414677
   0.81735767  0.71042927  0.47750946
   0.43424933  0.13744016  0.83362815
   0.32134629  0.37587583  0.70013791
   0.68418668  0.63725264  0.83360182
   0.56148065  0.71298314  0.74455185
   0.93708842  0.29186064  0.38854373
   0.93910466  0.96749245  0.87586141
   0.93564424  0.96173184  0.74450885
   0.81647574  0.87450272  0.56679129
   0.80350031  0.87379567  0.29978517
   0.31526065  0.03758730  0.25547780
   0.43155888  0.27790150  0.12414053
   0.31247537  0.70782594  0.61136750
   0.43373856  0.62502198  0.43309803
   0.19656770  0.29708674  0.78849013
   0.57064507  0.04938230  0.78869564
   0.07053098  0.55008467  0.78879862
   0.82197808  0.37666365  0.70015917
   0.56141349  0.21205722  0.74451819
   0.56263515  0.20707496  0.61123538
   0.57175782  0.87643053  0.70046730
Direct configuration=     3
   0.05552637  0.70163843  0.21144716
   0.31695993  0.72193636  0.87595619
   0.68801523  0.95778297  0.61127141
   0.43812986  0.45763817  0.61131820
   0.43784805  0.28756761  0.25561410
   0.05998472  0.38710029  0.83392945
   0.31013896  0.88673631  0.83385223
   0.44440140  0.62665414  0.70017406
   0.06256219  0.21244483  0.74460235
   0.18058730  0.45121178  0.21129565
   0.56566033  0.20968541  0.47765763
   0.06531544  0.87457582  0.56668222
   0.56661636  0.22141581  0.87583856
   0.80999963  0.53115681  0.12453351
   0.43063831  0.95116814  0.21129884
   0.56541725  0.37453337  0.56670781
   0.81206959  0.04199109  0.38856706
   0.68466975  0.78955471  0.52213676
   0.44060039  0.45966103  0.47765634
   0.43700293  0.96212926  0.74448578
   0.44024823  0.62482387  0.56670435
   0.05999014  0.53116653  0.12453399
   0.31000278  0.03117132  0.12454546
   0.68854233  0.95901196  0.34430282
   0.68266111  0.77934925  0.12432805
   0.05558131  0.37365972  0.29978959
   0.68906966  0.46952665  0.87564613
   0.43062173  0.45114224  0.21129846
   0.80991303  0.37511174  0.43311735
   0.56302124  0.70787536  0.61135188
   0.56185527  0.54134549  0.65558598
   0.93493577  0.12508107  0.43312234
   0.56331396  0.53762266  0.25557787
   0.68850755  0.45902725  0.34429873
   0.18964566  0.61319135  0.16642225
   0.19399650  0.79853423  0.78858674
   0.44491006  0.12575762  0.70010277
   0.93062604  0.62367404  0.29974526
   0.31645118  0.22180107  0.87590529
   0.31519764  0.87451692  0.56669552
   0.81709532  0.22154990  0.87590060
   0.81179644  0.54131214  0.65566175
   0.55996712  0.53118161  0.12453121
   0.56425586  0.86311448  0.16642039
   0.18781793  0.28757653  0.25561608
   0.80992307  0.87507312  0.43312625
   0.56918355  0.37646813  0.70016178
   0.06004255  0.03118180  0.12453083
   0.31162545  0.54100868  0.65563222
   0.56354832  0.20900718  0.34428543
   0.18811929  0.95768501  0.61136360
   0.30553177  0.37364943  0.29978259
   0.43641039  0.79103415  0.65554656
   0.68709496  0.46224465  0.74458320
   0.06424449  0.36312477  0.16642724
   0.69460171  0.62623109  0.70031270
   0.31206540  0.54198729  0.38857597
   0.06674564  0.72144693  0.87587732
   0.93507961  0.63713466  0.83381026
   0.31888731  0.54954661  0.78872554
   0.30553331  0.20163098  0.21145096
   0.06565354  0.70967710  0.47766487
   0.55555714  0.20159307  0.21145259
   0.31286863  0.21214721  0.74438038
   0.06969136  0.37619593  0.70029864
   0.18518494  0.63706021  0.83362762
   0.06900375  0.04856795  0.78880602
   0.44021391  0.12474140  0.56671892
   0.93668419  0.29137565  0.65563061
   0.80552662  0.20162567  0.21145229
   0.93060854  0.95116438  0.21128920
   0.94025799  0.62482149  0.56677730
   0.81034835  0.38741346  0.83385625
   0.19453745  0.62647737  0.70011146
   0.80997791  0.88722306  0.83384888
   0.68666497  0.29131609  0.65561931
   0.31277616  0.20789925  0.61133402
   0.43733042  0.46247403  0.74436252
   0.43706363  0.79198521  0.38858444
   0.68785040  0.96231362  0.74447480
   0.80551838  0.70161904  0.21144402
   0.81339831  0.70783544  0.61121199
   0.43261163  0.77934660  0.12434081
   0.31241006  0.71252708  0.74439814
   0.31893133  0.04898001  0.78880522
   0.81202658  0.54199630  0.38857043
   0.68463984  0.28943233  0.52215975
   0.69360766  0.79830516  0.78868426
   0.18780758  0.78757473  0.25561192
   0.68964094  0.11318603  0.16641330
   0.69066097  0.95968261  0.47767608
   0.93850705  0.95901869  0.34428909
   0.80974762  0.03928653  0.52208599
   0.68496668  0.62510202  0.43311957
   0.43851687  0.45904479  0.34430056
   0.81279867  0.21213959  0.74452485
   0.43931396  0.96950087  0.87567384
   0.56531839  0.87478682  0.56673935
   0.81001007  0.03120977  0.12453325
   0.43063829  0.62370374  0.29974659
   0.81615967  0.72145646  0.87591100
   0.68804766  0.45794457  0.61127794
   0.55988610  0.38735569  0.83363873
   0.80555394  0.37364712  0.29977946
   0.18700998  0.29197859  0.38855473
   0.81896508  0.54916260  0.78887159
   0.18463530  0.78948394  0.52217679
   0.30554922  0.87367931  0.29978334
   0.18063615  0.95119063  0.21129841
   0.18752570  0.46238924  0.74455033
   0.43458025  0.28937045  0.52215558
   0.06353718  0.70898537  0.34427172
   0.18665883  0.79090594  0.65569023
   0.44409003  0.79847955  0.78867766
   0.68492440  0.12512806  0.43311789
   0.93467388  0.78935605  0.52220223
   0.68965368  0.61321536  0.16640464
   0.81354739  0.70894902  0.34427808
   0.93740708  0.46227746  0.74450777
   0.18851997  0.45898175  0.34429797
   0.56852378  0.54898648  0.78892107
   0.56426053  0.36308311  0.16643419
   0.56352717  0.70898419  0.34428074
   0.55557895  0.37362758  0.29978241
   0.18921410  0.46946788  0.87567039
   0.18964350  0.11317764  0.16641555
   0.44364589  0.29890851  0.78864493
   0.68779344  0.78756975  0.25561613
   0.93551946  0.13713962  0.83373918
   0.44063244  0.95973411  0.47766756
   0.56646981  0.72133259  0.87585278
   0.19060326  0.45978351  0.47767964
   0.93260836  0.27940261  0.12432517
   0.31203280  0.04199973  0.38856570
   0.06177162  0.04099836  0.65564809
   0.55989113  0.37510028  0.43312094
   0.93492334  0.62512745  0.43310610
   0.31425084  0.36309321  0.16642797
   0.94442777  0.12628586  0.70017757
   0.56173364  0.04126572  0.65562562
   0.55958802  0.53969840  0.52212143
   0.18067050  0.12369456  0.29974757
   0.43965186  0.11317971  0.16641926
   0.68064779  0.62367323  0.29975519
   0.93067517  0.12367283  0.29974260
   0.81515120  0.37450225  0.56674147
   0.05554051  0.87364044  0.29977688
   0.19025038  0.62485292  0.56673801
   0.94342057  0.79804703  0.78873264
   0.30945442  0.38695149  0.83386623
   0.93893846  0.46949172  0.87570005
   0.43539060  0.63713953  0.83376834
   0.06353911  0.20898304  0.34427638
   0.18892890  0.96871804  0.87569584
   0.93261825  0.77935807  0.12432835
   0.68703342  0.79199849  0.38855672
   0.93651853  0.79106738  0.65567266
   0.93965059  0.11315943  0.16641227
   0.43649752  0.29127499  0.65570658
   0.05554158  0.20159352  0.21144431
   0.68062087  0.95119195  0.21130133
   0.18066392  0.62370191  0.29975622
   0.81988238  0.87611757  0.70016521
   0.94465901  0.62619072  0.70018847
   0.19464072  0.12621944  0.70014974
   0.94063981  0.45973385  0.47768395
   0.81315915  0.20788781  0.61133588
   0.18492364  0.62512427  0.43311614
   0.43066866  0.12369428  0.29976923
   0.68064739  0.12366884  0.29975599
   0.56201594  0.54198354  0.38857151
   0.81354927  0.20896283  0.34427420
   0.43981772  0.46980215  0.87560236
   0.55994170  0.88725990  0.83379730
   0.31564251  0.20971053  0.47766083
   0.19068133  0.95979430  0.47769699
   0.06009461  0.88703409  0.83375670
   0.05957549  0.53940226  0.52217488
   0.94062694  0.95978492  0.47768853
   0.06299316  0.70771983  0.61129870
   0.55963427  0.03944805  0.52218303
   0.69467053  0.29847200  0.78866929
   0.81425752  0.36309603  0.16643291
   0.43492113  0.12514397  0.43311006
   0.06568070  0.20975545  0.47766693
   0.31180919  0.04105681  0.65555621
   0.43456863  0.78954855  0.52213194
   0.18549648  0.13746847  0.83366261
   0.18266687  0.27938412  0.12433596
   0.93852934  0.45900200  0.34429092
   0.31427954  0.86310083  0.16643547
   0.30549206  0.70160211  0.21145311
   0.93965735  0.61316598  0.16641464
   0.18805527  0.45814846  0.61132899
   0.06978709  0.87671850  0.70014312
   0.06168752  0.54099256  0.65567191
   0.30998253  0.53115269  0.12454402
   0.93705150  0.79200613  0.38856145
   0.94368461  0.29881687  0.78866774
   0.18654726  0.29115627  0.65564158
   0.93814353  0.95773650  0.61132545
   0.81338055  0.71204584  0.74447046
   0.68779934  0.28756741  0.25561365
   0.06291861  0.71235608  0.74453844
   0.68061684  0.45118667  0.21130293
   0.81565066  0.20967342  0.47765907