 288 288   0   0
  0.1280206E+02  0.9726678E-09  0.8423550E-09  0.4500000E-08  0.2500000E-15
  1.000000000000000E-004
  CAR 
 unknown system                          
      6.78851363     -6.01621723  301      4.29529712      1.00000000
     -6.016  0.0000E+00  0.0000E+00
     -5.974  0.0000E+00  0.0000E+00
     -5.931  0.0000E+00  0.0000E+00
     -5.888  0.0000E+00  0.0000E+00
     -5.845  0.0000E+00  0.0000E+00
     -5.803  0.0000E+00  0.0000E+00
     -5.760  0.0000E+00  0.0000E+00
     -5.717  0.0000E+00  0.0000E+00
     -5.675  0.0000E+00  0.0000E+00
     -5.632  0.0000E+00  0.0000E+00
     -5.589  0.0000E+00  0.0000E+00
     -5.547  0.0000E+00  0.0000E+00
     -5.504  0.0000E+00  0.0000E+00
     -5.461  0.0000E+00  0.0000E+00
     -5.419  0.0000E+00  0.0000E+00
     -5.376  0.1626E-15  0.6939E-17
     -5.333  0.3707E-14  0.1651E-15
     -5.291  0.8018E-13  0.3587E-14
     -5.248  0.1464E-11  0.6606E-13
     -5.205  0.2278E-10  0.1039E-11
     -5.163  0.3024E-09  0.1395E-10
     -5.120  0.3423E-08  0.1600E-09
     -5.077  0.3306E-07  0.1571E-08
     -5.035  0.2726E-06  0.1321E-07
     -4.992  0.1921E-05  0.9520E-07
     -4.949  0.1158E-04  0.5896E-06
     -4.906  0.5985E-04  0.3144E-05
     -4.864  0.2657E-03  0.1448E-04
     -4.821  0.1016E-02  0.5786E-04
     -4.778  0.3366E-02  0.2015E-03
     -4.736  0.9706E-02  0.6158E-03
     -4.693  0.2457E-01  0.1664E-02
     -4.650  0.5508E-01  0.4015E-02
     -4.608  0.1106E+00  0.8737E-02
     -4.565  0.2012E+00  0.1732E-01
     -4.522  0.3349E+00  0.3162E-01
     -4.480  0.5145E+00  0.5358E-01
     -4.437  0.7340E+00  0.8491E-01
     -4.394  0.9776E+00  0.1266E+00
     -4.352  0.1221E+01  0.1787E+00
     -4.309  0.1437E+01  0.2401E+00
     -4.266  0.1604E+01  0.3085E+00
     -4.224  0.1715E+01  0.3818E+00
     -4.181  0.1781E+01  0.4578E+00
     -4.138  0.1830E+01  0.5359E+00
     -4.096  0.1903E+01  0.6171E+00
     -4.053  0.2034E+01  0.7039E+00
     -4.010  0.2237E+01  0.7994E+00
     -3.967  0.2497E+01  0.9060E+00
     -3.925  0.2774E+01  0.1024E+01
     -3.882  0.3014E+01  0.1153E+01
     -3.839  0.3167E+01  0.1288E+01
     -3.797  0.3212E+01  0.1425E+01
     -3.754  0.3167E+01  0.1561E+01
     -3.711  0.3082E+01  0.1692E+01
     -3.669  0.3022E+01  0.1821E+01
     -3.626  0.3042E+01  0.1951E+01
     -3.583  0.3165E+01  0.2086E+01
     -3.541  0.3376E+01  0.2230E+01
     -3.498  0.3625E+01  0.2385E+01
     -3.455  0.3854E+01  0.2549E+01
     -3.413  0.4020E+01  0.2721E+01
     -3.370  0.4110E+01  0.2896E+01
     -3.327  0.4140E+01  0.3073E+01
     -3.285  0.4140E+01  0.3250E+01
     -3.242  0.4147E+01  0.3427E+01
     -3.199  0.4189E+01  0.3605E+01
     -3.156  0.4281E+01  0.3788E+01
     -3.114  0.4426E+01  0.3977E+01
     -3.071  0.4611E+01  0.4174E+01
     -3.028  0.4816E+01  0.4380E+01
     -2.986  0.5011E+01  0.4593E+01
     -2.943  0.5167E+01  0.4814E+01
     -2.900  0.5272E+01  0.5039E+01
     -2.858  0.5333E+01  0.5267E+01
     -2.815  0.5377E+01  0.5496E+01
     -2.772  0.5437E+01  0.5728E+01
     -2.730  0.5533E+01  0.5964E+01
     -2.687  0.5649E+01  0.6205E+01
     -2.644  0.5728E+01  0.6450E+01
     -2.602  0.5708E+01  0.6694E+01
     -2.559  0.5580E+01  0.6932E+01
     -2.516  0.5419E+01  0.7163E+01
     -2.474  0.5364E+01  0.7392E+01
     -2.431  0.5545E+01  0.7629E+01
     -2.388  0.5998E+01  0.7885E+01
     -2.346  0.6626E+01  0.8167E+01
     -2.303  0.7230E+01  0.8476E+01
     -2.260  0.7604E+01  0.8801E+01
     -2.217  0.7637E+01  0.9127E+01
     -2.175  0.7377E+01  0.9441E+01
     -2.132  0.7010E+01  0.9741E+01
     -2.089  0.6769E+01  0.1003E+02
     -2.047  0.6824E+01  0.1032E+02
     -2.004  0.7200E+01  0.1063E+02
     -1.961  0.7777E+01  0.1096E+02
     -1.919  0.8356E+01  0.1132E+02
     -1.876  0.8756E+01  0.1169E+02
     -1.833  0.8898E+01  0.1207E+02
     -1.791  0.8833E+01  0.1245E+02
     -1.748  0.8700E+01  0.1282E+02
     -1.705  0.8646E+01  0.1319E+02
     -1.663  0.8739E+01  0.1356E+02
     -1.620  0.8956E+01  0.1394E+02
     -1.577  0.9229E+01  0.1434E+02
     -1.535  0.9507E+01  0.1474E+02
     -1.492  0.9775E+01  0.1516E+02
     -1.449  0.1003E+02  0.1559E+02
     -1.407  0.1026E+02  0.1603E+02
     -1.364  0.1042E+02  0.1647E+02
     -1.321  0.1051E+02  0.1692E+02
     -1.278  0.1065E+02  0.1737E+02
     -1.236  0.1102E+02  0.1784E+02
     -1.193  0.1180E+02  0.1835E+02
     -1.150  0.1294E+02  0.1890E+02
     -1.108  0.1418E+02  0.1951E+02
     -1.065  0.1515E+02  0.2015E+02
     -1.022  0.1561E+02  0.2082E+02
     -0.980  0.1561E+02  0.2149E+02
     -0.937  0.1553E+02  0.2215E+02
     -0.894  0.1578E+02  0.2282E+02
     -0.852  0.1663E+02  0.2353E+02
     -0.809  0.1810E+02  0.2430E+02
     -0.766  0.2006E+02  0.2516E+02
     -0.724  0.2250E+02  0.2612E+02
     -0.681  0.2556E+02  0.2721E+02
     -0.638  0.2945E+02  0.2847E+02
     -0.596  0.3410E+02  0.2993E+02
     -0.553  0.3906E+02  0.3159E+02
     -0.510  0.4366E+02  0.3346E+02
     -0.468  0.4739E+02  0.3548E+02
     -0.425  0.5014E+02  0.3762E+02
     -0.382  0.5218E+02  0.3985E+02
     -0.339  0.5381E+02  0.4214E+02
     -0.297  0.5518E+02  0.4450E+02
     -0.254  0.5623E+02  0.4690E+02
     -0.211  0.5685E+02  0.4932E+02
     -0.169  0.5704E+02  0.5176E+02
     -0.126  0.5694E+02  0.5419E+02
     -0.083  0.5682E+02  0.5661E+02
     -0.041  0.5695E+02  0.5905E+02
      0.002  0.5756E+02  0.6150E+02
      0.045  0.5883E+02  0.6401E+02
      0.087  0.6085E+02  0.6661E+02
      0.130  0.6359E+02  0.6932E+02
      0.173  0.6691E+02  0.7218E+02
      0.215  0.7059E+02  0.7519E+02
      0.258  0.7436E+02  0.7837E+02
      0.301  0.7792E+02  0.8169E+02
      0.343  0.8098E+02  0.8515E+02
      0.386  0.8339E+02  0.8871E+02
      0.429  0.8515E+02  0.9234E+02
      0.472  0.8636E+02  0.9603E+02
      0.514  0.8709E+02  0.9975E+02
      0.557  0.8734E+02  0.1035E+03
      0.600  0.8710E+02  0.1072E+03
      0.642  0.8645E+02  0.1109E+03
      0.685  0.8545E+02  0.1145E+03
      0.728  0.8411E+02  0.1181E+03
      0.770  0.8241E+02  0.1216E+03
      0.813  0.8043E+02  0.1251E+03
      0.856  0.7843E+02  0.1284E+03
      0.898  0.7681E+02  0.1317E+03
      0.941  0.7590E+02  0.1349E+03
      0.984  0.7571E+02  0.1382E+03
      1.026  0.7600E+02  0.1414E+03
      1.069  0.7630E+02  0.1447E+03
      1.112  0.7629E+02  0.1479E+03
      1.154  0.7585E+02  0.1512E+03
      1.197  0.7510E+02  0.1544E+03
      1.240  0.7428E+02  0.1575E+03
      1.282  0.7353E+02  0.1607E+03
      1.325  0.7285E+02  0.1638E+03
      1.368  0.7210E+02  0.1669E+03
      1.411  0.7106E+02  0.1699E+03
      1.453  0.6963E+02  0.1729E+03
      1.496  0.6794E+02  0.1758E+03
      1.539  0.6646E+02  0.1786E+03
      1.581  0.6577E+02  0.1814E+03
      1.624  0.6630E+02  0.1842E+03
      1.667  0.6809E+02  0.1871E+03
      1.709  0.7081E+02  0.1902E+03
      1.752  0.7396E+02  0.1933E+03
      1.795  0.7712E+02  0.1966E+03
      1.837  0.8011E+02  0.2000E+03
      1.880  0.8283E+02  0.2036E+03
      1.923  0.8526E+02  0.2072E+03
      1.965  0.8741E+02  0.2109E+03
      2.008  0.8934E+02  0.2148E+03
      2.051  0.9110E+02  0.2186E+03
      2.093  0.9266E+02  0.2226E+03
      2.136  0.9393E+02  0.2266E+03
      2.179  0.9496E+02  0.2307E+03
      2.221  0.9601E+02  0.2348E+03
      2.264  0.9753E+02  0.2389E+03
      2.307  0.9993E+02  0.2432E+03
      2.350  0.1034E+03  0.2476E+03
      2.392  0.1076E+03  0.2522E+03
      2.435  0.1121E+03  0.2570E+03
      2.478  0.1163E+03  0.2619E+03
      2.520  0.1198E+03  0.2671E+03
      2.563  0.1225E+03  0.2723E+03
      2.606  0.1247E+03  0.2776E+03
      2.648  0.1266E+03  0.2830E+03
      2.691  0.1285E+03  0.2885E+03
      2.734  0.1305E+03  0.2941E+03
      2.776  0.1328E+03  0.2997E+03
      2.819  0.1355E+03  0.3055E+03
      2.862  0.1384E+03  0.3114E+03
      2.904  0.1409E+03  0.3175E+03
      2.947  0.1421E+03  0.3235E+03
      2.990  0.1411E+03  0.3295E+03
      3.032  0.1372E+03  0.3354E+03
      3.075  0.1307E+03  0.3410E+03
      3.118  0.1223E+03  0.3462E+03
      3.161  0.1132E+03  0.3510E+03
      3.203  0.1046E+03  0.3555E+03
      3.246  0.9748E+02  0.3596E+03
      3.289  0.9214E+02  0.3636E+03
      3.331  0.8853E+02  0.3674E+03
      3.374  0.8631E+02  0.3710E+03
      3.417  0.8504E+02  0.3747E+03
      3.459  0.8430E+02  0.3783E+03
      3.502  0.8376E+02  0.3818E+03
      3.545  0.8318E+02  0.3854E+03
      3.587  0.8259E+02  0.3889E+03
      3.630  0.8235E+02  0.3924E+03
      3.673  0.8299E+02  0.3960E+03
      3.715  0.8494E+02  0.3996E+03
      3.758  0.8822E+02  0.4034E+03
      3.801  0.9242E+02  0.4073E+03
      3.843  0.9688E+02  0.4114E+03
      3.886  0.1010E+03  0.4158E+03
      3.929  0.1044E+03  0.4202E+03
      3.971  0.1069E+03  0.4248E+03
      4.014  0.1084E+03  0.4294E+03
      4.057  0.1090E+03  0.4341E+03
      4.100  0.1088E+03  0.4387E+03
      4.142  0.1080E+03  0.4433E+03
      4.185  0.1068E+03  0.4479E+03
      4.228  0.1055E+03  0.4524E+03
      4.270  0.1042E+03  0.4568E+03
      4.313  0.1030E+03  0.4612E+03
      4.356  0.1022E+03  0.4656E+03
      4.398  0.1017E+03  0.4699E+03
      4.441  0.1014E+03  0.4742E+03
      4.484  0.1009E+03  0.4786E+03
      4.526  0.1001E+03  0.4828E+03
      4.569  0.9880E+02  0.4870E+03
      4.612  0.9757E+02  0.4912E+03
      4.654  0.9695E+02  0.4953E+03
      4.697  0.9736E+02  0.4995E+03
      4.740  0.9886E+02  0.5037E+03
      4.782  0.1012E+03  0.5080E+03
      4.825  0.1039E+03  0.5125E+03
      4.868  0.1064E+03  0.5170E+03
      4.910  0.1083E+03  0.5216E+03
      4.953  0.1092E+03  0.5263E+03
      4.996  0.1087E+03  0.5309E+03
      5.039  0.1063E+03  0.5355E+03
      5.081  0.1009E+03  0.5398E+03
      5.124  0.9181E+02  0.5437E+03
      5.167  0.7870E+02  0.5470E+03
      5.209  0.6258E+02  0.5497E+03
      5.252  0.4554E+02  0.5517E+03
      5.295  0.2998E+02  0.5529E+03
      5.337  0.1771E+02  0.5537E+03
      5.380  0.9320E+01  0.5541E+03
      5.423  0.4348E+01  0.5543E+03
      5.465  0.1791E+01  0.5544E+03
      5.508  0.6489E+00  0.5544E+03
      5.551  0.2063E+00  0.5544E+03
      5.593  0.5744E-01  0.5544E+03
      5.636  0.1397E-01  0.5544E+03
      5.679  0.2965E-02  0.5544E+03
      5.721  0.5478E-03  0.5544E+03
      5.764  0.8803E-04  0.5544E+03
      5.807  0.1228E-04  0.5544E+03
      5.850  0.1486E-05  0.5544E+03
      5.892  0.1556E-06  0.5544E+03
      5.935  0.1410E-07  0.5544E+03
      5.978  0.1103E-08  0.5544E+03
      6.020  0.7446E-10  0.5544E+03
      6.063  0.4327E-11  0.5544E+03
      6.106  0.2166E-12  0.5544E+03
      6.148  0.8584E-14  0.5544E+03
      6.191  0.1951E-15  0.5544E+03
      6.234  0.0000E+00  0.5544E+03
      6.276  0.0000E+00  0.5544E+03
      6.319  0.0000E+00  0.5544E+03
      6.362  0.0000E+00  0.5544E+03
      6.404  0.0000E+00  0.5544E+03
      6.447  0.0000E+00  0.5544E+03
      6.490  0.0000E+00  0.5544E+03
      6.532  0.0000E+00  0.5544E+03
      6.575  0.0000E+00  0.5544E+03
      6.618  0.0000E+00  0.5544E+03
      6.660  0.0000E+00  0.5544E+03
      6.703  0.0000E+00  0.5544E+03
      6.746  0.0000E+00  0.5544E+03
      6.789  0.0000E+00  0.5544E+03
