 running on  448 total cores
 distrk:  each k-point on  112 cores,    4 groups
 distr:  one band on    8 cores,   14 groups
 using from now: INCAR     
 vasp.5.4.4.18Apr17-6-g9f103f2a35 (build Sep 27 2018 12:46:37) complex + VL-xray
 _
 POSCAR found type information on POSCAR  Fe Mn
 POSCAR found :  2 types and     288 ions
 scaLAPACK will be used

 ----------------------------------------------------------------------------- 
|                                                                             |
|           W    W    AA    RRRRR   N    N  II  N    N   GGGG   !!!           |
|           W    W   A  A   R    R  NN   N  II  NN   N  G    G  !!!           |
|           W    W  A    A  R    R  N N  N  II  N N  N  G       !!!           |
|           W WW W  AAAAAA  RRRRR   N  N N  II  N  N N  G  GGG   !            |
|           WW  WW  A    A  R   R   N   NN  II  N   NN  G    G                |
|           W    W  A    A  R    R  N    N  II  N    N   GGGG   !!!           |
|                                                                             |
|      For optimal performance we recommend to set                            |
|        NCORE= 4 - approx SQRT( number of cores)                             |
|      NCORE specifies how many cores store one orbital (NPAR=cpu/NCORE).     |
|      This setting can  greatly improve the performance of VASP for DFT.     |
|      The default,   NCORE=1            might be grossly inefficient         |
|      on modern multi-core architectures or massively parallel machines.     |
|      Do your own testing !!!!                                               |
|      Unfortunately you need to use the default for GW and RPA calculations. |
|      (for HF NCORE is supported but not extensively tested yet)             |
|                                                                             |
 ----------------------------------------------------------------------------- 


 ----------------------------------------------------------------------------- 
|                                                                             |
|           W    W    AA    RRRRR   N    N  II  N    N   GGGG   !!!           |
|           W    W   A  A   R    R  NN   N  II  NN   N  G    G  !!!           |
|           W    W  A    A  R    R  N N  N  II  N N  N  G       !!!           |
|           W WW W  AAAAAA  RRRRR   N  N N  II  N  N N  G  GGG   !            |
|           WW  WW  A    A  R   R   N   NN  II  N   NN  G    G                |
|           W    W  A    A  R    R  N    N  II  N    N   GGGG   !!!           |
|                                                                             |
|      You have enabled k-point parallelism (KPAR>1).                         |
|      This developmental code was originally  written by Paul Kent at ORNL,  |
|      and carefully double checked in Vienna.                                |
|      GW as well as linear response parallelism added by Martijn Marsman     |
|      and Georg Kresse.                                                      |
|      Carefully verify results versus KPAR=1.                                |
|      Report problems to Paul Kent and Vienna.                               |
|                                                                             |
 ----------------------------------------------------------------------------- 

 LDA part: xc-table for Pade appr. of Perdew
 POSCAR found type information on POSCAR  Fe Mn
 POSCAR found :  2 types and     288 ions
 POSCAR, INCAR and KPOINTS ok, starting setup
 FFT: planning ...
 WAVECAR not read
 WARNING: random wavefunctions but no delay for mixing, default for NELMDL
 entering main loop
       N       E                     dE             d eps       ncg     rms          rms(c)
DAV:   1     0.292121632160E+05    0.29212E+05   -0.86583E+05 27944   0.197E+03
DAV:   2     0.119192511597E+04   -0.28020E+05   -0.27409E+05 27720   0.604E+02
DAV:   3    -0.193982708992E+04   -0.31318E+04   -0.27207E+04 39004   0.279E+02
DAV:   4    -0.260677849135E+04   -0.66695E+03   -0.60679E+03 51030   0.974E+01
DAV:   5    -0.272699185254E+04   -0.12021E+03   -0.11230E+03 48412   0.396E+01    0.203E+02
RMM:   6    -0.556422174273E+04   -0.28372E+04   -0.11449E+04 48331   0.243E+02    0.635E+02
RMM:   7    -0.368265264382E+04    0.18816E+04   -0.39877E+03 39721   0.106E+02    0.399E+02
RMM:   8    -0.100581714369E+05   -0.63755E+04   -0.18242E+04 43032   0.324E+02    0.114E+03
RMM:   9    -0.125017302942E+05   -0.24436E+04   -0.15814E+04 48573   0.168E+02    0.781E+02
RMM:  10    -0.820399692176E+04    0.42977E+04   -0.75987E+03 34036   0.159E+02    0.571E+02
RMM:  11    -0.105213440126E+05   -0.23173E+04   -0.15714E+04 44149   0.258E+02    0.789E+02
RMM:  12    -0.116006612991E+05   -0.10793E+04   -0.13655E+04 48795   0.140E+02    0.714E+02
RMM:  13    -0.768537315719E+04    0.39153E+04   -0.50661E+03 36196   0.140E+02    0.546E+02
RMM:  14    -0.638004287059E+04    0.13053E+04   -0.34155E+03 34896   0.143E+02    0.489E+02
RMM:  15    -0.515640646103E+04    0.12236E+04   -0.47291E+03 29513   0.134E+02    0.435E+02
RMM:  16    -0.427137240287E+04    0.88503E+03   -0.11704E+03 28651   0.624E+01    0.399E+02
RMM:  17    -0.366515273386E+04    0.60622E+03   -0.27559E+03 37978   0.127E+02    0.351E+02
RMM:  18    -0.350360448568E+04    0.16155E+03   -0.37346E+03 49148   0.615E+01    0.334E+02
RMM:  19    -0.369886179650E+04   -0.19526E+03   -0.19552E+03 43108   0.614E+01    0.311E+02
RMM:  20    -0.334453568210E+04    0.35433E+03   -0.11306E+03 40860   0.648E+01    0.255E+02
RMM:  21    -0.325673792184E+04    0.87798E+02   -0.16598E+03 50120   0.472E+01    0.217E+02
RMM:  22    -0.322466579173E+04    0.32072E+02   -0.81052E+02 47866   0.359E+01    0.208E+02
RMM:  23    -0.312336693120E+04    0.10130E+03   -0.68741E+02 41940   0.279E+01    0.208E+02
RMM:  24    -0.288125589586E+04    0.24211E+03   -0.60612E+02 37083   0.295E+01    0.206E+02
RMM:  25    -0.262177123125E+04    0.25948E+03   -0.60326E+02 41381   0.230E+01    0.169E+02
RMM:  26    -0.255872870441E+04    0.63043E+02   -0.42649E+02 42070   0.156E+01    0.161E+02
RMM:  27    -0.249165203054E+04    0.67077E+02   -0.16087E+02 40598   0.115E+01    0.153E+02
RMM:  28    -0.243741547970E+04    0.54237E+02   -0.10559E+02 45716   0.611E+00    0.130E+02
RMM:  29    -0.238148371215E+04    0.55932E+02   -0.65362E+01 35901   0.748E+00    0.101E+02
RMM:  30    -0.234079427896E+04    0.40689E+02   -0.47556E+01 37079   0.691E+00    0.733E+01
RMM:  31    -0.234719289151E+04   -0.63986E+01   -0.31643E+01 33347   0.697E+00    0.794E+01
RMM:  32    -0.239832898503E+04   -0.51136E+02   -0.23602E+01 40305   0.473E+00    0.117E+02
RMM:  33    -0.239539030472E+04    0.29387E+01   -0.98798E+00 37379   0.307E+00    0.116E+02
RMM:  34    -0.237912432217E+04    0.16266E+02   -0.53050E+00 38034   0.239E+00    0.106E+02
RMM:  35    -0.237448069142E+04    0.46436E+01   -0.53555E+00 32046   0.332E+00    0.104E+02
RMM:  36    -0.236071428870E+04    0.13766E+02   -0.73659E+00 39154   0.271E+00    0.915E+01
RMM:  37    -0.235836451931E+04    0.23498E+01   -0.41236E+00 45398   0.883E-01    0.893E+01
RMM:  38    -0.234917436387E+04    0.91902E+01   -0.97037E-01 31446   0.143E+00    0.789E+01
RMM:  39    -0.234491054396E+04    0.42638E+01   -0.83044E-01 29782   0.173E+00    0.740E+01
RMM:  40    -0.233731177278E+04    0.75988E+01   -0.18624E+00 29490   0.264E+00    0.649E+01
RMM:  41    -0.232787166589E+04    0.94401E+01   -0.35159E+00 30189   0.336E+00    0.524E+01
RMM:  42    -0.232106810368E+04    0.68036E+01   -0.74975E+00 33555   0.353E+00    0.408E+01
RMM:  43    -0.231980062248E+04    0.12675E+01   -0.12978E+01 40271   0.295E+00    0.384E+01
RMM:  44    -0.232275029034E+04   -0.29497E+01   -0.83304E+00 40159   0.196E+00    0.440E+01
RMM:  45    -0.232293222060E+04   -0.18193E+00   -0.26217E+00 35670   0.151E+00    0.440E+01
RMM:  46    -0.232213578335E+04    0.79644E+00   -0.13530E+00 43735   0.634E-01    0.422E+01
RMM:  47    -0.232211309999E+04    0.22683E-01   -0.45718E-01 33112   0.589E-01    0.422E+01
RMM:  48    -0.232305888178E+04   -0.94578E+00   -0.84907E-01 29442   0.170E+00    0.429E+01
RMM:  49    -0.232643047471E+04   -0.33716E+01   -0.16463E+00 32426   0.183E+00    0.489E+01
RMM:  50    -0.232707914684E+04   -0.64867E+00   -0.15666E+00 39282   0.130E+00    0.504E+01
RMM:  51    -0.239322451127E+04   -0.66145E+02   -0.32298E+01 29059   0.105E+01    0.110E+02
RMM:  52    -0.243308053026E+04   -0.39856E+02   -0.29902E+01 28905   0.110E+01    0.137E+02
RMM:  53    -0.238672746911E+04    0.46353E+02   -0.19792E+01 29315   0.839E+00    0.105E+02
RMM:  54    -0.237927043735E+04    0.74570E+01   -0.20933E+01 38788   0.501E+00    0.100E+02
RMM:  55    -0.238286823431E+04   -0.35978E+01   -0.13700E+01 33309   0.502E+00    0.106E+02
RMM:  56    -0.235714332088E+04    0.25725E+02   -0.48119E+01 29522   0.123E+01    0.859E+01
RMM:  57    -0.235746330906E+04   -0.31999E+00   -0.26512E+01 29336   0.967E+00    0.849E+01
RMM:  58    -0.233111962282E+04    0.26344E+02   -0.40626E+01 33659   0.868E+00    0.490E+01
RMM:  59    -0.232872450643E+04    0.23951E+01   -0.13551E+01 28932   0.721E+00    0.456E+01
RMM:  60    -0.233205477983E+04   -0.33303E+01   -0.16085E+01 31971   0.592E+00    0.528E+01
RMM:  61    -0.232754523230E+04    0.45095E+01   -0.13723E+01 28533   0.743E+00    0.484E+01
RMM:  62    -0.232808750270E+04   -0.54227E+00   -0.13896E+01 28001   0.790E+00    0.489E+01
RMM:  63    -0.232683854131E+04    0.12490E+01   -0.87131E+00 28830   0.592E+00    0.467E+01
RMM:  64    -0.232340880644E+04    0.34297E+01   -0.54060E+00 28624   0.479E+00    0.406E+01
RMM:  65    -0.232113119234E+04    0.22776E+01   -0.67341E+00 29989   0.452E+00    0.351E+01
RMM:  66    -0.233216163229E+04   -0.11030E+02   -0.33644E+01 30277   0.977E+00    0.541E+01
RMM:  67    -0.232523053068E+04    0.69311E+01   -0.80324E+00 27721   0.671E+00    0.431E+01
RMM:  68    -0.232258175328E+04    0.26488E+01   -0.52230E+00 31403   0.359E+00    0.368E+01
RMM:  69    -0.232023843219E+04    0.23433E+01   -0.44392E+00 33577   0.296E+00    0.298E+01
RMM:  70    -0.231810069369E+04    0.21377E+01   -0.14755E+00 28505   0.248E+00    0.228E+01
RMM:  71    -0.231800979136E+04    0.90902E-01   -0.33843E+00 28887   0.335E+00    0.231E+01
RMM:  72    -0.231632605701E+04    0.16837E+01   -0.19269E+00 28447   0.293E+00    0.155E+01
RMM:  73    -0.231612468197E+04    0.20138E+00   -0.16948E+00 32142   0.186E+00    0.139E+01
RMM:  74    -0.231579498747E+04    0.32969E+00   -0.10215E+00 35236   0.127E+00    0.113E+01
RMM:  75    -0.231589275898E+04   -0.97772E-01   -0.47228E-01 31074   0.110E+00    0.122E+01
RMM:  76    -0.231585523488E+04    0.37524E-01   -0.54129E-01 31081   0.119E+00    0.116E+01
RMM:  77    -0.231556523292E+04    0.29000E+00   -0.22578E-01 28447   0.999E-01    0.914E+00
RMM:  78    -0.231552922100E+04    0.36012E-01   -0.22171E-01 28997   0.952E-01    0.879E+00
RMM:  79    -0.231533743216E+04    0.19179E+00   -0.20234E-01 28529   0.916E-01    0.634E+00
RMM:  80    -0.231527850614E+04    0.58926E-01   -0.24926E-01 30267   0.848E-01    0.541E+00
RMM:  81    -0.231641534876E+04   -0.11368E+01   -0.95692E-01 29023   0.190E+00    0.153E+01
RMM:  82    -0.231537940897E+04    0.10359E+01   -0.29986E-01 27742   0.148E+00    0.655E+00
RMM:  83    -0.231526009641E+04    0.11931E+00   -0.95468E-02 29517   0.584E-01    0.506E+00
RMM:  84    -0.231516296901E+04    0.97127E-01   -0.77108E-02 32649   0.398E-01    0.265E+00
RMM:  85    -0.231514406283E+04    0.18906E-01   -0.46863E-02 31689   0.332E-01    0.185E+00
RMM:  86    -0.231516902656E+04   -0.24964E-01   -0.10457E-01 33283   0.459E-01    0.273E+00
RMM:  87    -0.231514046450E+04    0.28562E-01   -0.27517E-02 27976   0.370E-01    0.146E+00
RMM:  88    -0.231514480238E+04   -0.43379E-02   -0.18655E-02 32672   0.203E-01    0.172E+00
RMM:  89    -0.231513944644E+04    0.53559E-02   -0.65888E-03 29493   0.153E-01    0.137E+00
RMM:  90    -0.231513515628E+04    0.42902E-02   -0.54942E-03 30795   0.124E-01    0.100E+00
RMM:  91    -0.231513528048E+04   -0.12419E-03   -0.80255E-03 30627   0.150E-01    0.997E-01
RMM:  92    -0.231513181862E+04    0.34619E-02   -0.43632E-03 28681   0.140E-01    0.545E-01
RMM:  93    -0.231513213072E+04   -0.31210E-03   -0.61423E-03 37344   0.795E-02    0.531E-01
RMM:  94    -0.231513199265E+04    0.13807E-03   -0.22939E-03 35510   0.581E-02    0.464E-01
RMM:  95    -0.231513172042E+04    0.27223E-03   -0.10734E-03 31609   0.497E-02    0.378E-01
RMM:  96    -0.231513209766E+04   -0.37724E-03   -0.10155E-03 31917   0.482E-02    0.434E-01
RMM:  97    -0.231513179396E+04    0.30370E-03   -0.95130E-04 33382   0.429E-02    0.337E-01
RMM:  98    -0.231513165228E+04    0.14168E-03   -0.65973E-04 29140   0.502E-02    0.275E-01
RMM:  99    -0.231513142961E+04    0.22267E-03   -0.57803E-04 33611   0.327E-02    0.161E-01
RMM: 100    -0.231513143822E+04   -0.86068E-05   -0.42556E-04 36404   0.239E-02    0.141E-01
RMM: 101    -0.231513155406E+04   -0.11584E-03   -0.24897E-04 31626   0.241E-02    0.164E-01
RMM: 102    -0.231513147406E+04    0.80003E-04   -0.99031E-05 29190   0.204E-02    0.898E-02
RMM: 103    -0.231513149681E+04   -0.22757E-04   -0.11254E-04 33513   0.139E-02    0.788E-02
RMM: 104    -0.231513152556E+04   -0.28751E-04   -0.59534E-05 31067   0.118E-02    0.626E-02
RMM: 105    -0.231513155254E+04   -0.26974E-04   -0.49794E-05 32380   0.993E-03    0.639E-02
RMM: 106    -0.231513158764E+04   -0.35100E-04   -0.43786E-05 29260   0.124E-02    0.917E-02
RMM: 107    -0.231513155974E+04    0.27896E-04   -0.22089E-05 28147   0.990E-03    0.539E-02
RMM: 108    -0.231513158787E+04   -0.28126E-04   -0.23754E-05 30195   0.728E-03    0.400E-02
RMM: 109    -0.231513161672E+04   -0.28854E-04   -0.17887E-05 27969   0.620E-03    0.284E-02
RMM: 110    -0.231513163278E+04   -0.16056E-04   -0.14595E-05 26393   0.400E-03    0.247E-02
RMM: 111    -0.231513165629E+04   -0.23514E-04   -0.12392E-05 27154   0.554E-03    0.287E-02
RMM: 112    -0.231513166411E+04   -0.78207E-05   -0.59005E-06 20164   0.445E-03    0.240E-02
RMM: 113    -0.231513167443E+04   -0.10316E-04   -0.39579E-06 17982   0.275E-03    0.191E-02
RMM: 114    -0.231513168561E+04   -0.11181E-04   -0.36567E-06 17500   0.279E-03    0.136E-02
RMM: 115    -0.231513170169E+04   -0.16083E-04   -0.36866E-06 17448   0.257E-03    0.976E-03
RMM: 116    -0.231513170611E+04   -0.44145E-05   -0.33523E-06 16623   0.315E-03    0.130E-02
RMM: 117    -0.231513171021E+04   -0.40985E-05   -0.26004E-06 15893   0.263E-03    0.724E-03
RMM: 118    -0.231513172086E+04   -0.10650E-04   -0.23809E-06 16071   0.165E-03    0.825E-03
RMM: 119    -0.231513172858E+04   -0.77276E-05   -0.21370E-06 15923   0.176E-03    0.692E-03
RMM: 120    -0.231513173570E+04   -0.71132E-05   -0.20068E-06 15925   0.141E-03    0.480E-03
RMM: 121    -0.231513173688E+04   -0.11801E-05   -0.16197E-06 15507   0.154E-03    0.525E-03
RMM: 122    -0.231513173866E+04   -0.17845E-05   -0.13903E-06 15437   0.134E-03    0.270E-03
RMM: 123    -0.231513174386E+04   -0.51937E-05   -0.14731E-06 15584   0.950E-04    0.361E-03
RMM: 124    -0.231513174864E+04   -0.47845E-05   -0.15351E-06 15585   0.135E-03    0.261E-03
RMM: 125    -0.231513174991E+04   -0.12718E-05   -0.11985E-06 15322   0.945E-04    0.207E-03
RMM: 126    -0.231513174867E+04    0.12466E-05   -0.92911E-07 15345   0.104E-03    0.411E-03
RMM: 127    -0.231513175153E+04   -0.28648E-05   -0.99729E-07 15381   0.930E-04    0.174E-03
RMM: 128    -0.231513175237E+04   -0.83787E-06   -0.83868E-07 14284   0.723E-04
   1 F= -.23151318E+04 E0= -.23122561E+04  d E =-.231513E+04
 curvature:   0.00 expect dE= 0.000E+00 dE for cont linesearch  0.000E+00
 trial: gam= 0.00000 g(F)=  0.320E+00 g(S)=  0.000E+00 ort = 0.000E+00 (trialstep = 0.100E+01)
 search vector abs. value=  0.320E+00
 bond charge predicted
       N       E                     dE             d eps       ncg     rms          rms(c)
DAV:   1    -0.231536709935E+04   -0.23535E+00   -0.55752E+01 27804   0.782E+00    0.115E+00
RMM:   2    -0.231585230055E+04   -0.48520E+00   -0.87693E-01 27956   0.193E+00    0.889E+00
RMM:   3    -0.231641452398E+04   -0.56222E+00   -0.32439E-01 39534   0.677E-01    0.136E+01
RMM:   4    -0.231565783864E+04    0.75669E+00   -0.86634E-02 27842   0.590E-01    0.624E+00
RMM:   5    -0.231637575159E+04   -0.71791E+00   -0.11982E-01 36973   0.416E-01    0.134E+01
RMM:   6    -0.231560679644E+04    0.76896E+00   -0.12559E-01 29070   0.617E-01    0.530E+00
RMM:   7    -0.231557510932E+04    0.31687E-01   -0.14428E-01 28013   0.757E-01    0.517E+00
RMM:   8    -0.231560618207E+04   -0.31073E-01   -0.59582E-02 27741   0.577E-01    0.583E+00
RMM:   9    -0.231546521271E+04    0.14097E+00   -0.27592E-02 27935   0.353E-01    0.256E+00
RMM:  10    -0.231545204474E+04    0.13168E-01   -0.40071E-02 27836   0.416E-01    0.208E+00
RMM:  11    -0.231543797564E+04    0.14069E-01   -0.23801E-02 27862   0.335E-01    0.135E+00
RMM:  12    -0.231543379718E+04    0.41785E-02   -0.91109E-03 27865   0.219E-01    0.109E+00
RMM:  13    -0.231543022649E+04    0.35707E-02   -0.53966E-03 30227   0.121E-01    0.726E-01
RMM:  14    -0.231543014039E+04    0.86101E-04   -0.67403E-03 32708   0.115E-01    0.682E-01
RMM:  15    -0.231542851705E+04    0.16233E-02   -0.29273E-03 30039   0.928E-02    0.385E-01
RMM:  16    -0.231542795712E+04    0.55992E-03   -0.16565E-03 31719   0.624E-02    0.176E-01
RMM:  17    -0.231542819468E+04   -0.23756E-03   -0.18029E-03 37087   0.473E-02    0.247E-01
RMM:  18    -0.231542800042E+04    0.19427E-03   -0.59339E-04 31017   0.392E-02    0.136E-01
RMM:  19    -0.231542798589E+04    0.14528E-04   -0.51815E-04 37562   0.231E-02    0.982E-02
RMM:  20    -0.231542800748E+04   -0.21596E-04   -0.27351E-04 36240   0.188E-02    0.105E-01
RMM:  21    -0.231542798323E+04    0.24253E-04   -0.12359E-04 31685   0.171E-02    0.762E-02
RMM:  22    -0.231542797589E+04    0.73441E-05   -0.10323E-04 37345   0.110E-02    0.555E-02
RMM:  23    -0.231542797801E+04   -0.21265E-05   -0.64300E-05 36546   0.927E-03    0.520E-02
RMM:  24    -0.231542796714E+04    0.10874E-04   -0.21339E-05 29958   0.791E-03    0.217E-02
RMM:  25    -0.231542796739E+04   -0.24890E-06   -0.18013E-05 28298   0.410E-03    0.167E-02
RMM:  26    -0.231542796852E+04   -0.11315E-05   -0.92537E-06 24963   0.398E-03    0.186E-02
RMM:  27    -0.231542796753E+04    0.99535E-06   -0.35075E-06 19062   0.376E-03
   2 F= -.23154280E+04 E0= -.23125479E+04  d E =-.296215E+00
 ZBRENT: can't locate minimum, use default step
 trial-energy change:   -0.296215  1 .order   -0.296181   -0.319614   -0.272748
 step:   4.0000(harm=  6.8197)  dis= 0.02886  next Energy= -2316.221582 (dE=-0.109E+01)
 bond charge predicted
       N       E                     dE             d eps       ncg     rms          rms(c)
DAV:   1    -0.231528631588E+04    0.14165E+00   -0.50049E+02 27720   0.236E+01    0.407E+00
RMM:   2    -0.231998303126E+04   -0.46967E+01   -0.11289E+01 27833   0.686E+00    0.273E+01
RMM:   3    -0.233126618033E+04   -0.11283E+02   -0.39536E+00 39183   0.256E+00    0.509E+01
RMM:   4    -0.232183094029E+04    0.94352E+01   -0.12462E+00 28032   0.211E+00    0.323E+01
RMM:   5    -0.232867255684E+04   -0.68416E+01   -0.23225E+00 38344   0.163E+00    0.499E+01
RMM:   6    -0.231843192995E+04    0.10241E+02   -0.18511E+00 28319   0.248E+00    0.194E+01
RMM:   7    -0.231718474959E+04    0.12472E+01   -0.12756E+00 27767   0.249E+00    0.144E+01
RMM:   8    -0.231794969921E+04   -0.76495E+00   -0.68947E-01 27775   0.192E+00    0.192E+01
RMM:   9    -0.231667697242E+04    0.12727E+01   -0.45146E-01 28271   0.130E+00    0.109E+01
RMM:  10    -0.231660463616E+04    0.72336E-01   -0.67695E-01 27844   0.170E+00    0.101E+01
RMM:  11    -0.231625535799E+04    0.34928E+00   -0.29662E-01 27749   0.126E+00    0.631E+00
RMM:  12    -0.231607552425E+04    0.17983E+00   -0.11837E-01 28187   0.747E-01    0.285E+00
RMM:  13    -0.231606326756E+04    0.12257E-01   -0.11995E-01 31565   0.504E-01    0.235E+00
RMM:  14    -0.231606015171E+04    0.31158E-02   -0.87919E-02 33546   0.408E-01    0.206E+00
RMM:  15    -0.231604647345E+04    0.13678E-01   -0.29952E-02 28945   0.344E-01    0.140E+00
RMM:  16    -0.231604496899E+04    0.15045E-02   -0.36085E-02 36457   0.224E-01    0.113E+00
RMM:  17    -0.231604451168E+04    0.45731E-03   -0.13718E-02 31052   0.185E-01    0.108E+00
RMM:  18    -0.231604294583E+04    0.15658E-02   -0.73543E-03 31465   0.136E-01    0.899E-01
RMM:  19    -0.231604152911E+04    0.14167E-02   -0.84154E-03 35772   0.112E-01    0.653E-01
RMM:  20    -0.231604039211E+04    0.11370E-02   -0.27487E-03 30143   0.952E-02    0.478E-01
RMM:  21    -0.231604037970E+04    0.12411E-04   -0.32100E-03 37206   0.597E-02    0.433E-01
RMM:  22    -0.231603992563E+04    0.45407E-03   -0.18046E-03 32910   0.572E-02    0.263E-01
RMM:  23    -0.231603975298E+04    0.17265E-03   -0.98490E-04 32733   0.435E-02    0.174E-01
RMM:  24    -0.231603976972E+04   -0.16741E-04   -0.83768E-04 38758   0.295E-02    0.163E-01
RMM:  25    -0.231603968363E+04    0.86088E-04   -0.25485E-04 31164   0.263E-02    0.963E-02
RMM:  26    -0.231603966733E+04    0.16304E-04   -0.19490E-04 35557   0.162E-02    0.638E-02
RMM:  27    -0.231603967974E+04   -0.12409E-04   -0.14674E-04 38836   0.126E-02    0.707E-02
RMM:  28    -0.231603966740E+04    0.12335E-04   -0.49861E-05 31144   0.110E-02    0.474E-02
RMM:  29    -0.231603966519E+04    0.22107E-05   -0.42499E-05 36100   0.689E-03    0.360E-02
RMM:  30    -0.231603966404E+04    0.11543E-05   -0.22982E-05 32262   0.588E-03    0.295E-02
RMM:  31    -0.231603966092E+04    0.31188E-05   -0.82062E-06 23502   0.484E-03    0.169E-02
RMM:  32    -0.231603966106E+04   -0.14136E-06   -0.59272E-06 21622   0.274E-03
   3 F= -.23160397E+04 E0= -.23131484E+04  d E =-.907909E+00
 curvature:  -2.61 expect dE=-0.275E+00 dE for cont linesearch -0.149E+00
 ZBRENT: increasing intervall
 opt :  10.0000  next Energy= -2316.025504 (dE=-0.894E+00)
 bond charge predicted
       N       E                     dE             d eps       ncg     rms          rms(c)
DAV:   1    -0.231209800681E+04    0.39417E+01   -0.20035E+03 27720   0.483E+01    0.858E+00
RMM:   2    -0.233423970632E+04   -0.22142E+02   -0.59065E+01 27800   0.139E+01    0.580E+01
RMM:   3    -0.238904704365E+04   -0.54807E+02   -0.20880E+01 38632   0.618E+00    0.106E+02
RMM:   4    -0.234554177574E+04    0.43505E+02   -0.52013E+00 28945   0.396E+00    0.722E+01
RMM:   5    -0.236430388101E+04   -0.18762E+02   -0.16097E+01 39594   0.364E+00    0.930E+01
RMM:   6    -0.232353426990E+04    0.40770E+02   -0.67664E+00 28063   0.486E+00    0.342E+01
RMM:   7    -0.232405394090E+04   -0.51967E+00   -0.48792E+00 27867   0.475E+00    0.392E+01
RMM:   8    -0.232849192722E+04   -0.44380E+01   -0.35976E+00 28201   0.357E+00    0.484E+01
RMM:   9    -0.231856958833E+04    0.99223E+01   -0.31868E+00 27746   0.402E+00    0.206E+01
RMM:  10    -0.232021923847E+04   -0.16497E+01   -0.32143E+00 28043   0.364E+00    0.279E+01
RMM:  11    -0.231672146600E+04    0.34978E+01   -0.14887E+00 27732   0.289E+00    0.110E+01
RMM:  12    -0.231622296769E+04    0.49850E+00   -0.78416E-01 29160   0.169E+00    0.656E+00
RMM:  13    -0.231617825990E+04    0.44708E-01   -0.70152E-01 33109   0.112E+00    0.554E+00
RMM:  14    -0.231617101315E+04    0.72467E-02   -0.19998E-01 29083   0.882E-01    0.549E+00
RMM:  15    -0.231611775872E+04    0.53254E-01   -0.16529E-01 31043   0.647E-01    0.430E+00
RMM:  16    -0.231606021232E+04    0.57546E-01   -0.15878E-01 34182   0.512E-01    0.249E+00
RMM:  17    -0.231606116080E+04   -0.94847E-03   -0.64966E-02 30551   0.444E-01    0.255E+00
RMM:  18    -0.231605793405E+04    0.32267E-02   -0.76835E-02 34686   0.360E-01    0.224E+00
RMM:  19    -0.231604748743E+04    0.10447E-01   -0.28295E-02 29937   0.290E-01    0.173E+00
RMM:  20    -0.231604916148E+04   -0.16741E-02   -0.29913E-02 35618   0.207E-01    0.175E+00
RMM:  21    -0.231604265287E+04    0.65086E-02   -0.16161E-02 31560   0.193E-01    0.128E+00
RMM:  22    -0.231603904350E+04    0.36094E-02   -0.91256E-03 30869   0.160E-01    0.938E-01
RMM:  23    -0.231604011550E+04   -0.10720E-02   -0.11236E-02 35747   0.128E-01    0.983E-01
RMM:  24    -0.231603848254E+04    0.16330E-02   -0.39029E-03 30928   0.101E-01    0.778E-01
RMM:  25    -0.231603817989E+04    0.30264E-03   -0.33766E-03 36862   0.612E-02    0.714E-01
RMM:  26    -0.231603689764E+04    0.12823E-02   -0.19931E-03 33590   0.596E-02    0.505E-01
RMM:  27    -0.231603595712E+04    0.94051E-03   -0.80894E-04 29191   0.563E-02    0.296E-01
RMM:  28    -0.231603597669E+04   -0.19563E-04   -0.10210E-03 32027   0.474E-02    0.294E-01
RMM:  29    -0.231603580788E+04    0.16880E-03   -0.60922E-04 31990   0.357E-02    0.226E-01
RMM:  30    -0.231603575648E+04    0.51404E-04   -0.40111E-04 35212   0.230E-02    0.196E-01
RMM:  31    -0.231603570083E+04    0.55649E-04   -0.28672E-04 38597   0.177E-02    0.161E-01
RMM:  32    -0.231603559720E+04    0.10363E-03   -0.86975E-05 30861   0.151E-02    0.821E-02
RMM:  33    -0.231603558940E+04    0.77979E-05   -0.89988E-05 39753   0.818E-03    0.653E-02
RMM:  34    -0.231603557753E+04    0.11870E-04   -0.42516E-05 32936   0.866E-03    0.444E-02
RMM:  35    -0.231603557003E+04    0.74987E-05   -0.19446E-05 29867   0.703E-03    0.245E-02
RMM:  36    -0.231603557041E+04   -0.38664E-06   -0.17449E-05 28572   0.413E-03    0.219E-02
RMM:  37    -0.231603557057E+04   -0.15416E-06   -0.72762E-06 22585   0.400E-03
   4 F= -.23160356E+04 E0= -.23131468E+04  d E =-.903818E+00
 curvature:   0.25 expect dE= 0.103E+00 dE for cont linesearch  0.149E-01
 ZBRENT: bracketing found
 ZBRENT: interpolating
 opt :   6.9607  next Energy= -2316.239794 (dE=-0.111E+01)
 bond charge predicted
       N       E                     dE             d eps       ncg     rms          rms(c)
DAV:   1    -0.231545717732E+04    0.57839E+00   -0.51365E+02 27720   0.239E+01    0.432E+00
RMM:   2    -0.232016279043E+04   -0.47056E+01   -0.13250E+01 27771   0.763E+00    0.284E+01
RMM:   3    -0.232327123699E+04   -0.31084E+01   -0.30896E+00 30528   0.317E+00    0.352E+01
RMM:   4    -0.232301680307E+04    0.25443E+00   -0.19234E+00 36054   0.185E+00    0.355E+01
RMM:   5    -0.232020101048E+04    0.28158E+01   -0.13804E+00 27833   0.230E+00    0.265E+01
RMM:   6    -0.233079972956E+04   -0.10599E+02   -0.23397E+00 40068   0.144E+00    0.518E+01
RMM:   7    -0.231747964041E+04    0.13320E+02   -0.14255E+00 27763   0.248E+00    0.126E+01
RMM:   8    -0.231728896231E+04    0.19068E+00   -0.92062E-01 27769   0.212E+00    0.142E+01
RMM:   9    -0.231739946683E+04   -0.11050E+00   -0.68242E-01 32220   0.127E+00    0.150E+01
RMM:  10    -0.231694495350E+04    0.45451E+00   -0.89647E-01 27940   0.182E+00    0.111E+01
RMM:  11    -0.231657979396E+04    0.36516E+00   -0.43529E-01 27738   0.151E+00    0.792E+00
RMM:  12    -0.231632747308E+04    0.25232E+00   -0.17301E-01 27895   0.917E-01    0.410E+00
RMM:  13    -0.231627848410E+04    0.48989E-01   -0.13752E-01 30874   0.550E-01    0.279E+00
RMM:  14    -0.231627362834E+04    0.48558E-02   -0.11717E-01 33322   0.490E-01    0.253E+00
RMM:  15    -0.231624522961E+04    0.28399E-01   -0.34633E-02 28066   0.400E-01    0.109E+00
RMM:  16    -0.231624930211E+04   -0.40725E-02   -0.43064E-02 37124   0.244E-01    0.128E+00
RMM:  17    -0.231624888354E+04    0.41857E-03   -0.18613E-02 31021   0.212E-01    0.122E+00
RMM:  18    -0.231624515635E+04    0.37272E-02   -0.10336E-02 31638   0.155E-01    0.837E-01
RMM:  19    -0.231624486516E+04    0.29119E-03   -0.99575E-03 35562   0.124E-01    0.739E-01
RMM:  20    -0.231624427717E+04    0.58799E-03   -0.35231E-03 29778   0.110E-01    0.669E-01
RMM:  21    -0.231624416858E+04    0.10859E-03   -0.34055E-03 36001   0.669E-02    0.623E-01
RMM:  22    -0.231624330401E+04    0.86457E-03   -0.24771E-03 32771   0.696E-02    0.436E-01
RMM:  23    -0.231624247172E+04    0.83229E-03   -0.89165E-04 29444   0.585E-02    0.181E-01
RMM:  24    -0.231624248356E+04   -0.11838E-04   -0.10501E-03 38232   0.316E-02    0.149E-01
RMM:  25    -0.231624254202E+04   -0.58457E-04   -0.55073E-04 36360   0.258E-02    0.170E-01
RMM:  26    -0.231624248786E+04    0.54160E-04   -0.21115E-04 32758   0.190E-02    0.129E-01
RMM:  27    -0.231624247507E+04    0.12790E-04   -0.18522E-04 42287   0.989E-03    0.111E-01
RMM:  28    -0.231624241980E+04    0.55263E-04   -0.41503E-05 31701   0.917E-03    0.431E-02
RMM:  29    -0.231624241779E+04    0.20188E-05   -0.32196E-05 32998   0.756E-03    0.367E-02
RMM:  30    -0.231624242234E+04   -0.45545E-05   -0.31633E-05 31836   0.866E-03    0.437E-02
RMM:  31    -0.231624241588E+04    0.64553E-05   -0.12543E-05 27587   0.725E-03    0.264E-02
RMM:  32    -0.231624241535E+04    0.53688E-06   -0.10942E-05 24943   0.374E-03    0.221E-02
RMM:  33    -0.231624241423E+04    0.11199E-05   -0.49145E-06 21179   0.374E-03    0.150E-02
RMM:  34    -0.231624241337E+04    0.85973E-06   -0.24110E-06 17803   0.340E-03
   5 F= -.23162424E+04 E0= -.23133472E+04  d E =-.111066E+01
 curvature:  -3.32 expect dE=-0.525E+00 dE for cont linesearch -0.244E-04
 trial: gam= 0.49003 g(F)=  0.158E+00 g(S)=  0.000E+00 ort = 0.153E-02 (trialstep = 0.219E+01)
 search vector abs. value=  0.236E+00
