unknown system                          
           1
     9.726678    0.000000    0.000000
     0.000000    8.423550    0.000000
     0.000000    0.000000   45.000000
   Fe   Mn
 281   7
Direct configuration=     1
   0.05398332  0.70115844  0.21127471
   0.31817288  0.72383306  0.87627558
   0.68814694  0.95873255  0.61154373
   0.43848521  0.45840739  0.61159732
   0.44072689  0.28750352  0.25504799
   0.05862426  0.38837935  0.83354500
   0.30861247  0.88765359  0.83351629
   0.44701584  0.62646400  0.70040676
   0.05983736  0.21270688  0.74491415
   0.17874408  0.45111246  0.21135628
   0.56777972  0.21063109  0.47734001
   0.06667196  0.87492656  0.56689772
   0.56819383  0.22392276  0.87614848
   0.80876342  0.52784990  0.12384385
   0.42896824  0.95118973  0.21137780
   0.56657930  0.37499710  0.56681625
   0.81122691  0.04176760  0.38830925
   0.68237701  0.78902603  0.52249365
   0.44262537  0.46078740  0.47749191
   0.43380995  0.96266727  0.74473521
   0.44169198  0.62509219  0.56688911
   0.57151494  0.87636350  0.70055780
   0.30915664  0.02602079  0.12391923
   0.69015960  0.95898932  0.34397075
   0.68810118  0.78206464  0.12416211
   0.05271707  0.37378568  0.29955127
   0.68974214  0.46794583  0.87609315
   0.42887130  0.45110219  0.21142722
   0.80859164  0.37504622  0.43310341
   0.56338999  0.70846589  0.61155894
   0.55967933  0.54073443  0.65588063
   0.81764094  0.86194622  0.16665949
   0.56552253  0.53758145  0.25501395
   0.68986405  0.45879032  0.34400100
   0.19182712  0.61170810  0.16639050
   0.19448850  0.79957120  0.78885296
   0.44718527  0.12603313  0.70041931
   0.92779974  0.62361669  0.29966257
   0.31752111  0.22363141  0.87612011
   0.31659627  0.87500119  0.56691133
   0.81740317  0.22384160  0.87618117
   0.80966565  0.54071725  0.65581397
   0.55906292  0.52700453  0.12383542
   0.56920661  0.04981451  0.78895870
   0.19052324  0.28714384  0.25515853
   0.80866188  0.87531924  0.43306112
   0.57232451  0.37631819  0.70039503
   0.05726683  0.02659159  0.12404655
   0.30974402  0.54070222  0.65592889
   0.56514547  0.20914682  0.34401597
   0.18823850  0.95850334  0.61148583
   0.30289760  0.37394566  0.29953204
   0.43466858  0.79052532  0.65595896
   0.19477273  0.29917773  0.78879984
   0.06746448  0.36311677  0.16663461
   0.69699945  0.62626130  0.70042974
   0.31140544  0.54111349  0.38841586
   0.06747705  0.72342467  0.87620353
   0.93375846  0.63745436  0.83390431
   0.31961034  0.54972055  0.78890945
   0.30463278  0.20041186  0.21118003
   0.06790147  0.71053708  0.47750207
   0.55450048  0.20074546  0.21103738
   0.30972468  0.21262083  0.74492355
   0.07195972  0.37641926  0.70049089
   0.18338789  0.63769203  0.83357532
   0.06938641  0.04952859  0.78899780
   0.44120536  0.12499417  0.56688383
   0.93479524  0.29069436  0.65586410
   0.80441405  0.20134576  0.21117857
   0.92934846  0.95119708  0.21130223
   0.94180151  0.62498729  0.56673878
   0.80822090  0.38758731  0.83352392
   0.19706703  0.62622905  0.70034039
   0.80857152  0.88758546  0.83353763
   0.68482666  0.29063233  0.65605958
   0.31321862  0.20833527  0.61146446
   0.43458668  0.46272230  0.74489910
   0.43614391  0.79123856  0.38840418
   0.68436981  0.96279568  0.74482711
   0.80395620  0.70105043  0.21126563
   0.81324421  0.70883797  0.61155259
   0.43707939  0.78353307  0.12397665
   0.30987154  0.71221930  0.74479815
   0.32005406  0.04954093  0.78885181
   0.81156107  0.54151140  0.38839914
   0.68178022  0.28907778  0.52249355
   0.69477887  0.79929774  0.78888911
   0.19034191  0.78771156  0.25519787
   0.69166004  0.11225015  0.16660615
   0.69277356  0.96060195  0.47743574
   0.94012789  0.95943872  0.34414694
   0.80718627  0.03927347  0.52254059
   0.68259972  0.62402206  0.43305079
   0.44009973  0.45848104  0.34400699
   0.81050795  0.21157003  0.74460489
   0.43969318  0.96828038  0.87610687
   0.56647870  0.87512200  0.56685646
   0.80938251  0.02775907  0.12393967
   0.42806070  0.62392679  0.29938142
   0.81708598  0.72376978  0.87631954
   0.68836518  0.45848303  0.61157017
   0.55856686  0.38770262  0.83349536
   0.80277783  0.37360609  0.29944184
   0.18604311  0.29097793  0.38838729
   0.81973507  0.54940735  0.78894391
   0.18234384  0.78931825  0.52252087
   0.30288623  0.87393913  0.29963628
   0.17854917  0.95122294  0.21128222
   0.18437495  0.46264808  0.74491018
   0.43228395  0.28939460  0.52254022
   0.06515522  0.70870549  0.34398937
   0.18484186  0.79054452  0.65586485
   0.44466070  0.79910501  0.78884319
   0.68350287  0.12486858  0.43308073
   0.93187097  0.78880912  0.52248420
   0.69194245  0.61256584  0.16660015
   0.81452213  0.70876467  0.34387316
   0.93448369  0.46257223  0.74497316
   0.19015405  0.45914390  0.34400751
   0.56976113  0.54964841  0.78904635
   0.56640465  0.36235460  0.16644015
   0.56507172  0.70897386  0.34399839
   0.55316078  0.37378231  0.29952094
   0.18980172  0.46805680  0.87607085
   0.19162277  0.11138507  0.16640465
   0.44465904  0.29904566  0.78879207
   0.69107367  0.78748193  0.25536724
   0.93359160  0.13773527  0.83351509
   0.44279305  0.96070716  0.47748946
   0.56750786  0.72464375  0.87623799
   0.19268039  0.46041447  0.47745111
   0.93435221  0.28172907  0.12411683
   0.31147232  0.04138629  0.38841102
   0.06008798  0.04068980  0.65601490
   0.93335977  0.62515242  0.43308293
   0.68415632  0.46275280  0.74496598
   0.56008536  0.21258205  0.74481183
   0.94713237  0.12622752  0.70038036
   0.55971225  0.04072935  0.65586761
   0.55725926  0.53882005  0.52236069
   0.17772149  0.12382627  0.29960101
   0.44184258  0.11048981  0.16636994
   0.67782709  0.62363947  0.29960310
   0.92788141  0.12360504  0.29964449
   0.81671532  0.37503227  0.56692185
   0.05274535  0.87386905  0.29957628
   0.19166022  0.62492357  0.56680547
   0.94474659  0.79951463  0.78884258
   0.30823929  0.38755963  0.83350005
   0.93985635  0.46836481  0.87611161
   0.43359488  0.63796353  0.83350532
   0.06451889  0.20859574  0.34390097
   0.18965145  0.96816035  0.87613280
   0.93469742  0.78183480  0.12409006
   0.68640624  0.79147381  0.38838355
   0.93474289  0.79064212  0.65588858
   0.94145145  0.11193695  0.16648248
   0.43511616  0.29088607  0.65607773
   0.05429247  0.20101141  0.21126564
   0.67885116  0.95119900  0.21128997
   0.17850581  0.62385929  0.29942259
   0.82204878  0.87624942  0.70045655
   0.94681918  0.62661228  0.70052054
   0.19709509  0.12620462  0.70032795
   0.94267606  0.46029897  0.47728822
   0.81328482  0.20854667  0.61154892
   0.18357526  0.62496265  0.43310881
   0.42766622  0.12371182  0.29949204
   0.67788012  0.12354308  0.29940568
   0.56148253  0.54119784  0.38841460
   0.81503863  0.20837357  0.34402791
   0.43982683  0.46800604  0.87595418
   0.55857200  0.88769867  0.83350900
   0.31785615  0.21087183  0.47738795
   0.19271280  0.96068644  0.47747617
   0.05854153  0.88788887  0.83350257
   0.05716254  0.53921515  0.52254712
   0.94276244  0.96050998  0.47732149
   0.06328474  0.70862365  0.61160287
   0.55695112  0.03895214  0.52253901
   0.69500279  0.29898997  0.78877219
   0.81769888  0.36188779  0.16670520
   0.43349442  0.12501626  0.43311181
   0.06801940  0.21071859  0.47745975
   0.30980211  0.04083286  0.65595770
   0.43217904  0.78938656  0.52252418
   0.18379033  0.13798742  0.83356462
   0.18571416  0.28288861  0.12424000
   0.94017769  0.45945943  0.34402018
   0.56661856  0.86254576  0.16645592
   0.30374489  0.70092117  0.21129776
   0.94117563  0.61207809  0.16656353
   0.18824583  0.45858508  0.61153140
   0.07230408  0.87651908  0.70035136
   0.05982451  0.54075711  0.65587968
   0.30817832  0.52616656  0.12394387
   0.93665198  0.79139009  0.38845286
   0.94501620  0.29870921  0.78878356
   0.18465309  0.29056441  0.65592336
   0.93794893  0.95827285  0.61148083
   0.81003516  0.71204062  0.74482813
   0.69067064  0.28779647  0.25523570
   0.05938140  0.71240391  0.74497781
   0.67908157  0.45129504  0.21125106
   0.81754246  0.21086263  0.47738205
   0.56765185  0.71062862  0.47743751
   0.06774643  0.86324254  0.16667610
   0.93224494  0.28830662  0.52228838
   0.68453846  0.79055433  0.65587335
   0.05839484  0.87498579  0.43304545
   0.06810433  0.22298670  0.87616250
   0.80964553  0.04069644  0.65592553
   0.55942102  0.02707945  0.12382073
   0.30868059  0.37524400  0.43305708
   0.31685393  0.37480795  0.56686339
   0.31744835  0.71035316  0.47738859
   0.05683357  0.03899303  0.52237825
   0.32201302  0.87628043  0.70052776
   0.06514954  0.53744801  0.25508862
   0.68347966  0.13784402  0.83351260
   0.81497421  0.03753645  0.25519564
   0.18346345  0.12476580  0.43310531
   0.69731387  0.12627974  0.70040927
   0.18220185  0.28929989  0.52253638
   0.44063730  0.78764406  0.25521703
   0.44148669  0.61050324  0.16639623
   0.06354568  0.20856743  0.61152372
   0.18648756  0.79142213  0.38836147
   0.30676947  0.53900426  0.52249524
   0.82207885  0.37647049  0.70033169
   0.68641276  0.29099753  0.38841678
   0.19159289  0.12504257  0.56693681
   0.68990002  0.96843600  0.87606972
   0.69174010  0.12483028  0.56692534
   0.44000364  0.95890746  0.34393515
   0.18389588  0.96258305  0.74475247
   0.94076029  0.78755422  0.25522369
   0.55852359  0.87474051  0.43309667
   0.30847517  0.87492840  0.43302388
   0.80723251  0.53903714  0.52259147
   0.92932422  0.45108165  0.21129666
   0.31544729  0.53779040  0.25507865
   0.56170474  0.04170080  0.38842673
   0.93821794  0.45839289  0.61158687
   0.06154927  0.04131716  0.38836651
   0.06125827  0.54128477  0.38841105
   0.43605246  0.29127381  0.38830531
   0.69289800  0.46067813  0.47744805
   0.06671432  0.37507611  0.56691292
   0.55395971  0.70109764  0.21109981
   0.94102143  0.28736684  0.25541020
   0.81914164  0.04962227  0.78904585
   0.19020433  0.95904136  0.34405234
   0.55260582  0.87365968  0.29969763
   0.05859322  0.37494957  0.43303135
   0.31505436  0.70901106  0.34399376
   0.31476737  0.20861378  0.34388499
   0.94160156  0.12495352  0.56689706
   0.43859190  0.95870907  0.61155925
   0.56549748  0.03751134  0.25508627
   0.18597263  0.78263275  0.12427094
   0.06527424  0.03738810  0.25511084
   0.69169762  0.62500463  0.56687521
   0.05696550  0.52601521  0.12413881
   0.30729077  0.03818898  0.52232392
   0.68747043  0.28192670  0.12414016
   0.81787239  0.71070455  0.47753719
   0.43356334  0.13784496  0.83352417
   0.32233630  0.37631676  0.70042006
   0.68342894  0.63800138  0.83349238
   0.55993439  0.71217543  0.74486990
   0.93653210  0.29118397  0.38852648
   0.93957945  0.96836732  0.87610353
   0.56284746  0.20812956  0.61137098
   0.81661286  0.87502404  0.56687441
   0.80326973  0.87308593  0.29941103
   0.31521777  0.03763994  0.25518248
   0.43689470  0.28357736  0.12404208
   0.31372559  0.70867292  0.61158020
   0.43364740  0.62485965  0.43303256
   0.55821289  0.37549630  0.43319306
   0.31835796  0.86268236  0.16573017
   0.07070898  0.54966030  0.78874086
   0.93305097  0.12411237  0.43313148
   0.31822252  0.36303136  0.16574618
   0.93328967  0.96241419  0.74470064
   0.81596640  0.53743305  0.25551820
Direct configuration=     2
   0.05454163  0.70111255  0.21124217
   0.31786637  0.72336495  0.87619860
   0.68818071  0.95863861  0.61152809
   0.43845268  0.45835775  0.61158242
   0.44014166  0.28738776  0.25511611
   0.05894787  0.38815276  0.83363238
   0.30898086  0.88754786  0.83362232
   0.44633964  0.62645203  0.70040505
   0.06039169  0.21279073  0.74485455
   0.17929039  0.45112864  0.21133285
   0.56722423  0.21040621  0.47742401
   0.06631254  0.87492645  0.56689451
   0.56784178  0.22334819  0.87608257
   0.80896903  0.52819495  0.12393687
   0.42957718  0.95123097  0.21134143
   0.56625282  0.37495248  0.56681214
   0.81129922  0.04177501  0.38832351
   0.68289626  0.78923528  0.52243261
   0.44207838  0.46053457  0.47754685
   0.43440759  0.96269481  0.74470446
   0.44133094  0.62502587  0.56688188
   0.57093614  0.87637794  0.70052662
   0.30937240  0.02668071  0.12394930
   0.68964854  0.95884013  0.34397811
   0.68803023  0.78172794  0.12422866
   0.05344460  0.37375178  0.29956795
   0.68963407  0.46844111  0.87600552
   0.42948526  0.45114399  0.21137584
   0.80899591  0.37512237  0.43309062
   0.56338200  0.70838890  0.61155349
   0.56015005  0.54082628  0.65586923
   0.81721883  0.86217621  0.16656306
   0.56487314  0.53753476  0.25508571
   0.68944187  0.45872005  0.34402599
   0.19134901  0.61182305  0.16636046
   0.19410415  0.79954285  0.78883692
   0.44651278  0.12611054  0.70041758
   0.92853593  0.62356937  0.29967367
   0.31720527  0.22313062  0.87605914
   0.31622480  0.87495750  0.56690285
   0.81711155  0.22330314  0.87611206
   0.81012507  0.54087005  0.65581057
   0.55921717  0.52735861  0.12392059
   0.56885841  0.04977140  0.78895651
   0.18998264  0.28710985  0.25520499
   0.80902836  0.87524831  0.43306593
   0.57159169  0.37636538  0.70040381
   0.05781785  0.02693924  0.12410516
   0.31020285  0.54078306  0.65590963
   0.56465904  0.20902427  0.34403173
   0.18824472  0.95842318  0.61148070
   0.30356762  0.37389419  0.29953151
   0.43513321  0.79068181  0.65593792
   0.19434754  0.29906604  0.78880830
   0.06696127  0.36316385  0.16654161
   0.69631187  0.62631157  0.70041997
   0.31145201  0.54120698  0.38842119
   0.06718784  0.72293420  0.87615293
   0.93412019  0.63737248  0.83395697
   0.31928416  0.54972754  0.78891517
   0.30503566  0.20038907  0.21116457
   0.06730818  0.71030552  0.47755375
   0.55489959  0.20075811  0.21104748
   0.31028935  0.21272814  0.74485211
   0.07129968  0.37649099  0.70047328
   0.18377459  0.63758026  0.83364743
   0.06902639  0.04949189  0.78898765
   0.44092188  0.12495840  0.56688357
   0.93526767  0.29085984  0.65584108
   0.80484897  0.20132906  0.21116357
   0.92980132  0.95125981  0.21129942
   0.94138906  0.62496569  0.56674485
   0.80860957  0.38747476  0.83362072
   0.19637541  0.62628316  0.70034119
   0.80893844  0.88743858  0.83363972
   0.68528678  0.29075865  0.65602145
   0.31324507  0.20831401  0.61147291
   0.43511235  0.46273788  0.74482728
   0.43624239  0.79130739  0.38841075
   0.68484638  0.96277118  0.74478343
   0.80443516  0.70101604  0.21124455
   0.81324767  0.70869888  0.61153309
   0.43707968  0.78296115  0.12401284
   0.31033331  0.71232517  0.74474546
   0.31964536  0.04953980  0.78887040
   0.81150891  0.54156366  0.38841664
   0.68240295  0.28934571  0.52244690
   0.69438235  0.79931278  0.78888731
   0.18982907  0.78773194  0.25525037
   0.69128492  0.11243636  0.16654096
   0.69222814  0.96035073  0.47750138
   0.93968734  0.95919461  0.34414866
   0.80772860  0.03947110  0.52248020
   0.68305683  0.62417142  0.43305016
   0.43964580  0.45847993  0.34402038
   0.81089653  0.21185268  0.74458948
   0.43959721  0.96873752  0.87602095
   0.56614971  0.87505290  0.56684686
   0.80954020  0.02807298  0.12402051
   0.42868632  0.62382222  0.29941985
   0.81680725  0.72328931  0.87624880
   0.68834107  0.45839904  0.61154706
   0.55891996  0.38759168  0.83357929
   0.80345938  0.37351494  0.29947550
   0.18608855  0.29107828  0.38839603
   0.81928317  0.54943198  0.78895968
   0.18285959  0.78950912  0.52246034
   0.30354531  0.87387765  0.29963479
   0.17910992  0.95129183  0.21127873
   0.18499056  0.46269962  0.74484208
   0.43280268  0.28956771  0.52247743
   0.06475841  0.70869207  0.34402788
   0.18529694  0.79064239  0.65584251
   0.44424304  0.79919403  0.78883492
   0.68378503  0.12484116  0.43306842
   0.93248366  0.78904213  0.52244012
   0.69150223  0.61265074  0.16652708
   0.81414047  0.70872315  0.34393167
   0.93501874  0.46262369  0.74489918
   0.18967469  0.45904233  0.34403104
   0.56940801  0.54960494  0.78903514
   0.56626488  0.36257862  0.16633955
   0.56456840  0.70892171  0.34402985
   0.55380831  0.37370865  0.29952585
   0.18966179  0.46852101  0.87600067
   0.19121225  0.11156590  0.16636163
   0.44424714  0.29902277  0.78879665
   0.69034770  0.78741770  0.25538459
   0.93404627  0.13759792  0.83360035
   0.44223052  0.96045040  0.47753989
   0.56721009  0.72402406  0.87616482
   0.19213923  0.46024452  0.47751804
   0.93463101  0.28141286  0.12418850
   0.31147672  0.04143318  0.38841962
   0.06048581  0.04073572  0.65598012
   0.93370218  0.62519163  0.43308179
   0.68464702  0.46273520  0.74489736
   0.56056898  0.21272130  0.74476087
   0.94647574  0.12633656  0.70038005
   0.56018126  0.04080408  0.65585902
   0.55780030  0.53912521  0.52233095
   0.17842069  0.12377579  0.29960485
   0.44135785  0.11074836  0.16631443
   0.67844505  0.62359989  0.29961263
   0.92849943  0.12352800  0.29965078
   0.81635491  0.37496461  0.56691395
   0.05346549  0.87378545  0.29959138
   0.19130847  0.62489583  0.56681314
   0.94421794  0.79945987  0.78885334
   0.30868991  0.38746357  0.83359759
   0.93977027  0.46880642  0.87603091
   0.43402127  0.63784119  0.83359440
   0.06415200  0.20860552  0.34393837
   0.18954634  0.96857858  0.87603960
   0.93494681  0.78149358  0.12416745
   0.68639450  0.79153851  0.38839497
   0.93520947  0.79075361  0.65587619
   0.94104637  0.11217921  0.16643524
   0.43548789  0.29097349  0.65604272
   0.05487431  0.20100663  0.21124532
   0.67942798  0.95122878  0.21128719
   0.17905707  0.62378879  0.29946421
   0.82134546  0.87629731  0.70043897
   0.94619743  0.62663096  0.70050456
   0.19640841  0.12631640  0.70033946
   0.94215123  0.46011283  0.47736399
   0.81328995  0.20847140  0.61153425
   0.18396296  0.62502699  0.43310527
   0.42839150  0.12368440  0.29950889
   0.67852144  0.12347569  0.29943560
   0.56145155  0.54130435  0.38842032
   0.81460480  0.20832310  0.34405969
   0.43972787  0.46850989  0.87588431
   0.55892534  0.88756203  0.83361127
   0.31730993  0.21061079  0.47745984
   0.19211687  0.96045785  0.47752405
   0.05890074  0.88772346  0.83360269
   0.05772013  0.53935793  0.52247594
   0.94222431  0.96028314  0.47740301
   0.06329239  0.70853756  0.61157846
   0.55754731  0.03915864  0.52248253
   0.69456148  0.29895304  0.78877124
   0.81721621  0.36211759  0.16660391
   0.43381196  0.12501223  0.43310136
   0.06744330  0.21048033  0.47752313
   0.31027109  0.04090696  0.65593259
   0.43272387  0.78950884  0.52246177
   0.18419934  0.13780881  0.83364263
   0.18574551  0.28232379  0.12426781
   0.93970464  0.45930522  0.34404088
   0.56647428  0.86275111  0.16636053
   0.30430486  0.70080790  0.21126783
   0.94073611  0.61226102  0.16650943
   0.18825077  0.45851706  0.61151760
   0.07157701  0.87655778  0.70033313
   0.06026841  0.54086598  0.65587868
   0.30850898  0.52681796  0.12396146
   0.93660183  0.79144524  0.38846076
   0.94451475  0.29871622  0.78878966
   0.18512988  0.29071901  0.65590807
   0.93804219  0.95826077  0.61148143
   0.81053176  0.71218455  0.74479033
   0.69005763  0.28770033  0.25526169
   0.06001834  0.71250177  0.74490037
   0.67960646  0.45129413  0.21124360
   0.81699033  0.21059555  0.47744424
   0.56713323  0.71038185  0.47749250
   0.06713819  0.86332020  0.16657827
   0.93280111  0.28869982  0.52226951
   0.68499681  0.79067221  0.65586330
   0.05878149  0.87497400  0.43303898
   0.06774988  0.22249647  0.87610632
   0.81013753  0.04076311  0.65590307
   0.55954232  0.02740097  0.12390132
   0.30892509  0.37523300  0.43305625
   0.31643045  0.37480625  0.56685794
   0.31691845  0.71020020  0.47745875
   0.05745893  0.03925120  0.52233752
   0.32132371  0.87633929  0.70050527
   0.06468046  0.53739038  0.25516077
   0.68391282  0.13775473  0.83359552
   0.81445604  0.03744643  0.25524596
   0.18387781  0.12475783  0.43309296
   0.69659759  0.12632543  0.70039979
   0.18277243  0.28951392  0.52249031
   0.44005433  0.78761938  0.25526295
   0.44107453  0.61075632  0.16634598
   0.06348453  0.20850251  0.61150838
   0.18649220  0.79143140  0.38836475
   0.30738536  0.53928869  0.52244771
   0.82137004  0.37650947  0.70032940
   0.68643948  0.29112186  0.38842592
   0.19123426  0.12497723  0.56691921
   0.68975812  0.96889128  0.87599127
   0.69135140  0.12485001  0.56691803
   0.43956040  0.95888407  0.34396930
   0.18453871  0.96264039  0.74471842
   0.94015788  0.78752916  0.25526791
   0.55887656  0.87476795  0.43307960
   0.30875189  0.87491554  0.43302891
   0.80779430  0.53924657  0.52253553
   0.92978282  0.45114348  0.21130491
   0.31488309  0.53764822  0.25515590
   0.56164762  0.04169839  0.38844029
   0.93825030  0.45831950  0.61156930
   0.06156977  0.04135938  0.38838313
   0.06129428  0.54137470  0.38842673
   0.43613940  0.29133608  0.38832270
   0.69230041  0.46045991  0.47751700
   0.06633327  0.37500899  0.56690819
   0.55448456  0.70103357  0.21110132
   0.94035562  0.28729342  0.25542973
   0.81876729  0.04958434  0.78902779
   0.18974790  0.95890963  0.34406465
   0.55334751  0.87361677  0.29969151
   0.05889561  0.37493961  0.43303214
   0.31459533  0.70885416  0.34401925
   0.31432044  0.20855221  0.34390939
   0.94122747  0.12493718  0.56688345
   0.43851513  0.95861655  0.61154559
   0.56477885  0.03745173  0.25514871
   0.18600979  0.78210909  0.12428474
   0.06482253  0.03733080  0.25517230
   0.69130702  0.62496369  0.56687957
   0.05752247  0.52647289  0.12418188
   0.30781189  0.03862353  0.52229257
   0.68747390  0.28161628  0.12421341
   0.81727853  0.71044083  0.47758485
   0.43399847  0.13769024  0.83358798
   0.32164598  0.37633797  0.70041066
   0.68393151  0.63786359  0.83357954
   0.56041402  0.71224776  0.74481606
   0.93649238  0.29127561  0.38851570
   0.93953762  0.96878676  0.87602032
   0.56295372  0.20815711  0.61138525
   0.81625656  0.87501619  0.56687385
   0.80386702  0.87313303  0.29944230
   0.31465724  0.03752606  0.25524256
   0.43690536  0.28302396  0.12407129
   0.31362948  0.70856073  0.61155859
   0.43391582  0.62494643  0.43303125
   0.55856729  0.37546968  0.43318504
   0.31788625  0.86278013  0.16570499
   0.07019395  0.54960741  0.78875053
   0.93341584  0.12419704  0.43312528
   0.31776600  0.36306469  0.16572348
   0.93390255  0.96249641  0.74469064
   0.81538453  0.53733911  0.25549590
Direct configuration=     3
   0.05621657  0.70097489  0.21114455
   0.31694682  0.72196060  0.87596763
   0.68828203  0.95835678  0.61148119
   0.43835510  0.45820882  0.61153773
   0.43838596  0.28704046  0.25532046
   0.05991870  0.38747301  0.83389452
   0.31008606  0.88723068  0.83394043
   0.44431104  0.62641611  0.70039992
   0.06205469  0.21304229  0.74467573
   0.18092930  0.45117719  0.21126257
   0.56555774  0.20973158  0.47767602
   0.06523430  0.87492611  0.56688489
   0.56678565  0.22162445  0.87588483
   0.80958586  0.52923009  0.12421593
   0.43140400  0.95135467  0.21123232
   0.56527337  0.37481864  0.56679979
   0.81151613  0.04179726  0.38836626
   0.68445403  0.78986304  0.52224950
   0.44043740  0.45977610  0.47771167
   0.43620051  0.96277742  0.74461222
   0.44024781  0.62482690  0.56686022
   0.56919976  0.87642126  0.70043309
   0.31001970  0.02866046  0.12403952
   0.68811537  0.95839256  0.34400017
   0.68781738  0.78071783  0.12442832
   0.05562719  0.37365010  0.29961799
   0.68930988  0.46992697  0.87574264
   0.43132716  0.45126940  0.21122170
   0.81020871  0.37535083  0.43305225
   0.56335806  0.70815794  0.61153716
   0.56156223  0.54110184  0.65583504
   0.81595248  0.86286619  0.16627377
   0.56292497  0.53739470  0.25530097
   0.68817533  0.45850924  0.34410096
   0.18991468  0.61216791  0.16627035
   0.19295111  0.79945778  0.78878880
   0.44449531  0.12634275  0.70041240
   0.93074448  0.62342740  0.29970697
   0.31625777  0.22162827  0.87587625
   0.31511039  0.87482645  0.56687741
   0.81623668  0.22168776  0.87590474
   0.81150333  0.54132846  0.65580037
   0.55967994  0.52842084  0.12417611
   0.56781380  0.04964206  0.78894992
   0.18836082  0.28700787  0.25534438
   0.81012778  0.87503553  0.43308036
   0.56939323  0.37650694  0.70043017
   0.05947093  0.02798219  0.12428099
   0.31157934  0.54102556  0.65585184
   0.56319974  0.20865661  0.34407899
   0.18826336  0.95818271  0.61146531
   0.30557767  0.37373980  0.29952992
   0.43652711  0.79115129  0.65587479
   0.19307196  0.29873095  0.78883368
   0.06545163  0.36330509  0.16626259
   0.69424915  0.62646238  0.70039064
   0.31159174  0.54148744  0.38843717
   0.06632023  0.72146277  0.87600114
   0.93520537  0.63712685  0.83411493
   0.31830562  0.54974851  0.78893231
   0.30624431  0.20032069  0.21111818
   0.06552831  0.70961084  0.47770879
   0.55609692  0.20079604  0.21107777
   0.31198335  0.21305006  0.74463779
   0.06931955  0.37670617  0.70042047
   0.18493468  0.63724495  0.83386374
   0.06794634  0.04938181  0.78895721
   0.44007143  0.12485108  0.56688280
   0.93668495  0.29135627  0.65577202
   0.80615375  0.20127897  0.21111856
   0.93115988  0.95144800  0.21129100
   0.94015170  0.62490090  0.56676307
   0.80977557  0.38713711  0.83391112
   0.19430055  0.62644549  0.70034358
   0.81003921  0.88699795  0.83394599
   0.68666714  0.29113763  0.65590708
   0.31332444  0.20825023  0.61149826
   0.43668935  0.46278464  0.74461183
   0.43653784  0.79151385  0.38843045
   0.68627610  0.96269767  0.74465238
   0.80587204  0.70091288  0.21118133
   0.81325804  0.70828161  0.61147461
   0.43708055  0.78124541  0.12412142
   0.31171862  0.71264276  0.74458739
   0.31841923  0.04953639  0.78892617
   0.81135243  0.54172044  0.38846916
   0.68427114  0.29014949  0.52230698
   0.69319277  0.79935787  0.78888192
   0.18829057  0.78779306  0.25540789
   0.69015957  0.11299500  0.16634540
   0.69059187  0.95959707  0.47769832
   0.93836571  0.95846228  0.34415381
   0.80935561  0.04006397  0.52229903
   0.68442815  0.62461950  0.43304825
   0.43828398  0.45847660  0.34406058
   0.81206229  0.21270065  0.74454326
   0.43930929  0.97010893  0.87576319
   0.56516275  0.87484560  0.56681806
   0.81001328  0.02901469  0.12426301
   0.43056318  0.62350851  0.29953513
   0.81597103  0.72184789  0.87603660
   0.68826873  0.45814710  0.61147771
   0.55997926  0.38725886  0.83383106
   0.80550401  0.37324148  0.29957650
   0.18622487  0.29137935  0.38842224
   0.81792748  0.54950587  0.78900699
   0.18440682  0.79008175  0.52227876
   0.30552256  0.87369321  0.29963032
   0.18079216  0.95149848  0.21126826
   0.18683739  0.46285422  0.74463776
   0.43435887  0.29008706  0.52228907
   0.06356799  0.70865182  0.34414342
   0.18666216  0.79093601  0.65577548
   0.44299007  0.79946111  0.78881010
   0.68463152  0.12475891  0.43303150
   0.93432173  0.78974116  0.52230786
   0.69018156  0.61290542  0.16630785
   0.81299549  0.70859860  0.34410723
   0.93662390  0.46277809  0.74467724
   0.18823661  0.45873764  0.34410164
   0.56834866  0.54947450  0.78900151
   0.56584556  0.36325066  0.16603775
   0.56305846  0.70876523  0.34412421
   0.55575093  0.37348766  0.29954057
   0.18924200  0.46991365  0.87579014
   0.18998069  0.11210841  0.16623255
   0.44301143  0.29895409  0.78881040
   0.68816978  0.78722501  0.25543662
   0.93541028  0.13718589  0.83385610
   0.44054292  0.95968014  0.47769116
   0.56631680  0.72216497  0.87594531
   0.19051575  0.45973470  0.47771882
   0.93546742  0.28046424  0.12440351
   0.31148991  0.04157386  0.38844543
   0.06167931  0.04087347  0.65587577
   0.93472942  0.62530924  0.43307836
   0.68611912  0.46268240  0.74469149
   0.56201982  0.21313906  0.74460801
   0.94450587  0.12666369  0.70037911
   0.56158827  0.04102830  0.65583324
   0.55942342  0.54004068  0.52224173
   0.18051827  0.12362436  0.29961638
   0.43990368  0.11152400  0.16614787
   0.68029895  0.62348116  0.29964122
   0.93035350  0.12329688  0.29966964
   0.81527367  0.37476166  0.56689024
   0.05562592  0.87353465  0.29963669
   0.19025325  0.62481261  0.56683615
   0.94263198  0.79929556  0.78888561
   0.31004179  0.38717540  0.83389019
   0.93951206  0.47013125  0.87578881
   0.43530045  0.63747416  0.83386163
   0.06305134  0.20863484  0.34405055
   0.18923102  0.96983326  0.87576000
   0.93569499  0.78046993  0.12439961
   0.68635928  0.79173261  0.38842922
   0.93660918  0.79108809  0.65583901
   0.93983114  0.11290600  0.16629353
   0.43660308  0.29123575  0.65593768
   0.05661983  0.20099230  0.21118437
   0.68115846  0.95131809  0.21127886
   0.18071084  0.62357730  0.29958907
   0.81923552  0.87644097  0.70038620
   0.94433217  0.62668700  0.70045662
   0.19434836  0.12665175  0.70037399
   0.94057675  0.45955442  0.47759133
   0.81330537  0.20824560  0.61149022
   0.18512608  0.62522001  0.43309465
   0.43056737  0.12360213  0.29955945
   0.68044542  0.12327355  0.29952536
   0.56135863  0.54162389  0.38843747
   0.81330330  0.20817170  0.34415504
   0.43943101  0.47002143  0.87567470
   0.55998536  0.88715211  0.83391811
   0.31567127  0.20982767  0.47767549
   0.19032907  0.95977209  0.47766768
   0.05997834  0.88722721  0.83390305
   0.05939291  0.53978625  0.52226241
   0.94060992  0.95960263  0.47764756
   0.06331535  0.70827929  0.61150523
   0.55933589  0.03977815  0.52231311
   0.69323754  0.29884226  0.78876836
   0.81576820  0.36280698  0.16630005
   0.43476457  0.12500012  0.43307002
   0.06571500  0.20976554  0.47771325
   0.31167804  0.04112927  0.65585724
   0.43435835  0.78987569  0.52227454
   0.18542637  0.13727299  0.83387666
   0.18583956  0.28062934  0.12435126
   0.93828550  0.45884260  0.34410295
   0.56604144  0.86336717  0.16607438
   0.30598477  0.70046810  0.21117806
   0.93941757  0.61280981  0.16634714
   0.18826557  0.45831297  0.61147620
   0.06939580  0.87667389  0.70027843
   0.06160014  0.54119262  0.65587568
   0.30950097  0.52877216  0.12401425
   0.93645141  0.79161070  0.38848445
   0.94301042  0.29873728  0.78880795
   0.18656025  0.29118283  0.65586221
   0.93832198  0.95822452  0.61148325
   0.81202159  0.71261635  0.74467692
   0.68821859  0.28741190  0.25533967
   0.06192914  0.71279535  0.74466804
   0.68118110  0.45129138  0.21122123
   0.81533395  0.20979434  0.47763080