<?xml version="1.0" encoding="ISO-8859-1"?>
<modeling>
 <generator>
  <i name="program" type="string">vasp </i>
  <i name="version" type="string">5.4.4.18Apr17-6-g9f103f2a35  </i>
  <i name="subversion" type="string">(build May 29 2019 08:40:53) complex            parallel </i>
  <i name="platform" type="string">LinuxPGI </i>
  <i name="date" type="string">2021 11 22 </i>
  <i name="time" type="string">02:55:18 </i>
 </generator>
 <incar>
  <i type="int" name="ISTART">     2</i>
  <i type="string" name="PREC">accurate</i>
  <i type="string" name="ALGO"> Fast</i>
  <i type="int" name="ICHARG">     2</i>
  <i type="int" name="INIWAV">     1</i>
  <i type="int" name="NELM">   100</i>
  <i type="int" name="NELMIN">     4</i>
  <i type="int" name="IBRION">     2</i>
  <i name="EDIFF">      0.00001000</i>
  <i type="int" name="NSW">   500</i>
  <i type="int" name="ISIF">     2</i>
  <i type="int" name="ISYM">     2</i>
  <i name="ENCUT">    500.00000000</i>
  <i name="POTIM">      0.25000000</i>
  <i type="string" name="LREAL"> Auto</i>
  <i type="int" name="ISMEAR">     0</i>
  <i name="SIGMA">      0.15000000</i>
  <i type="logical" name="LWAVE"> F  </i>
  <i type="logical" name="LCHARG"> F  </i>
  <v type="int" name="KPOINT_BSE">    -1     0     0     0</v>
  <i type="int" name="NELM">   100</i>
 </incar>
 <structure name="primitive_cell" >
  <crystal>
   <varray name="basis" >
    <v>       9.72667800       0.00000000       0.00000000 </v>
    <v>       0.00000000       8.42355000       0.00000000 </v>
    <v>       0.00000000       0.00000000      45.00000000 </v>
   </varray>
   <i name="volume">   3686.99213101 </i>
   <varray name="rec_basis" >
    <v>       0.10281002       0.00000000       0.00000000 </v>
    <v>       0.00000000       0.11871479       0.00000000 </v>
    <v>       0.00000000       0.00000000       0.02222222 </v>
   </varray>
  </crystal>
  <varray name="positions" >
   <v>      -0.06224889      -0.04960211       0.21397879 </v>
   <v>      -0.06261339      -0.21586273       0.25796296 </v>
   <v>       0.06255755       0.03403593       0.25794622 </v>
   <v>      -0.18725604       0.03362014       0.25796024 </v>
   <v>       0.06244210       0.19995620       0.21384682 </v>
   <v>       0.18738438      -0.04987430       0.21388516 </v>
   <v>      -0.18736399       0.20010182       0.21382596 </v>
   <v>       0.06248339      -0.29963912       0.21385652 </v>
   <v>      -0.31287407      -0.04935302       0.21393765 </v>
   <v>      -0.18773152      -0.30017995       0.21394642 </v>
   <v>      -0.06243364       0.11520063       0.16903731 </v>
   <v>       0.06231327      -0.13366888       0.16900903 </v>
   <v>      -0.18756431      -0.13398773       0.16838451 </v>
   <v>       0.18737032      -0.21560237       0.25781846 </v>
   <v>      -0.06276058       0.28358443       0.25784249 </v>
   <v>      -0.31222744      -0.21616031       0.25783048 </v>
   <v>       0.18765860       0.11620359       0.16905843 </v>
   <v>      -0.31251724       0.11553955       0.16897277 </v>
   <v>      -0.06285668      -0.38405855       0.16898390 </v>
   <v>       0.06243829       0.03219569       0.12701531 </v>
   <v>      -0.18753992       0.03181470       0.12684522 </v>
   <v>      -0.06278921      -0.21721805       0.12685659 </v>
   <v>      -0.18723791      -0.13177859       0.30192915 </v>
   <v>       0.06248711      -0.13164047       0.30205893 </v>
   <v>       0.31227933       0.03413015       0.25788029 </v>
   <v>       0.06251345      -0.46606765       0.25786598 </v>
   <v>       0.31244252       0.20013634       0.21372821 </v>
   <v>      -0.18741342      -0.46621954       0.25792539 </v>
   <v>       0.18756821       0.28398907       0.25793337 </v>
   <v>      -0.06246766       0.11850257       0.30205523 </v>
   <v>      -0.06245120       0.45010755       0.21382313 </v>
   <v>      -0.31253310       0.28385958       0.25789996 </v>
   <v>      -0.43754521       0.03371491       0.25789740 </v>
   <v>       0.31271053      -0.29980446       0.21385652 </v>
   <v>      -0.43736881      -0.29963816       0.21382936 </v>
   <v>      -0.43744793       0.20031706       0.21390965 </v>
   <v>      -0.18739675       0.36572787       0.16896980 </v>
   <v>       0.06286487       0.36615019       0.16901310 </v>
   <v>       0.31265338      -0.13410115       0.16900473 </v>
   <v>      -0.43734634      -0.13332936       0.16891886 </v>
   <v>      -0.31216069      -0.38394866       0.16902866 </v>
   <v>       0.18762015      -0.38438024       0.16902261 </v>
   <v>      -0.06228880       0.28294966       0.12710091 </v>
   <v>       0.18811323      -0.21712040       0.12706862 </v>
   <v>      -0.31204337      -0.21726850       0.12683040 </v>
   <v>      -0.06244875      -0.38198264       0.30202817 </v>
   <v>       0.18749921       0.11823165       0.30204523 </v>
   <v>       0.18753815       0.45005262       0.21390883 </v>
   <v>      -0.31274239       0.11810235       0.30202879 </v>
   <v>       0.43771963      -0.04957688       0.21385171 </v>
   <v>      -0.31242097       0.45031767       0.21384890 </v>
   <v>       0.18785964       0.28274823       0.12701273 </v>
   <v>      -0.31284565       0.28287977       0.12705969 </v>
   <v>       0.31260625       0.03247205       0.12700740 </v>
   <v>      -0.43737665       0.03213534       0.12701540 </v>
   <v>      -0.18743874      -0.46742120       0.12699997 </v>
   <v>       0.06262985      -0.46819035       0.12703267 </v>
   <v>       0.18740187      -0.38186935       0.30200935 </v>
   <v>      -0.31231541      -0.38176739       0.30204292 </v>
   <v>       0.31242489      -0.13176723       0.30200316 </v>
   <v>      -0.43738239      -0.13194781       0.30194950 </v>
   <v>       0.31234674      -0.46587572       0.25790375 </v>
   <v>       0.43743408      -0.21594048       0.25789026 </v>
   <v>       0.06270261       0.36797596       0.30191566 </v>
   <v>      -0.43750737      -0.46601678       0.25781532 </v>
   <v>      -0.18765141       0.36836979       0.30198829 </v>
   <v>       0.31236855       0.36607733       0.16897777 </v>
   <v>       0.43738133       0.11644781       0.16909473 </v>
   <v>      -0.43776258       0.36621800       0.16901842 </v>
   <v>       0.43773105       0.28427493       0.25781848 </v>
   <v>      -0.06282257      -0.04736725       0.34646862 </v>
   <v>       0.43756980      -0.38420650       0.16896825 </v>
   <v>       0.43684597      -0.21716354       0.12703925 </v>
   <v>       0.31256561      -0.46765401       0.12695132 </v>
   <v>      -0.43753794      -0.46825217       0.12700967 </v>
   <v>       0.43766093       0.11798456       0.30198466 </v>
   <v>       0.43733339       0.45025607       0.21391080 </v>
   <v>       0.06240503      -0.29777601       0.34645077 </v>
   <v>      -0.43764591       0.36849012       0.30188301 </v>
   <v>       0.31265329       0.36849449       0.30198816 </v>
   <v>      -0.18727732      -0.29754593       0.34651628 </v>
   <v>       0.18724753      -0.04758090       0.34647264 </v>
   <v>      -0.31241159      -0.04768641       0.34644762 </v>
   <v>       0.06247878       0.20272431       0.34648646 </v>
   <v>      -0.18775621       0.20272521       0.34653261 </v>
   <v>       0.43739752       0.28258203       0.12697079 </v>
   <v>       0.43736149      -0.38169252       0.30208391 </v>
   <v>      -0.06265277       0.45227376       0.34638241 </v>
   <v>       0.31204898      -0.29744563       0.34655988 </v>
   <v>      -0.43733617      -0.29730085       0.34656215 </v>
   <v>      -0.43768525       0.20199953       0.34649958 </v>
   <v>       0.31288329       0.20254156       0.34651238 </v>
   <v>      -0.31242856       0.45259716       0.34641797 </v>
   <v>       0.18730125       0.45240924       0.34648686 </v>
   <v>       0.43731206      -0.04773166       0.34631991 </v>
   <v>      -0.06250512      -0.21326246       0.39025144 </v>
   <v>      -0.18714222       0.03713319       0.39030410 </v>
   <v>       0.06282266       0.03672386       0.39033164 </v>
   <v>       0.18763289      -0.21328363       0.39021037 </v>
   <v>      -0.31276004      -0.21313007       0.39035309 </v>
   <v>      -0.06247211       0.28717675       0.39037470 </v>
   <v>      -0.18723521      -0.46305569       0.39028742 </v>
   <v>       0.06272513      -0.46297375       0.39038725 </v>
   <v>       0.43756376       0.45245973       0.34648353 </v>
   <v>       0.31245075       0.03693912       0.39035427 </v>
   <v>      -0.43754367       0.03719513       0.39034369 </v>
   <v>       0.18747881       0.28697385       0.39034820 </v>
   <v>      -0.31230920       0.28690920       0.39033152 </v>
   <v>      -0.43748641      -0.46303018       0.39031992 </v>
   <v>       0.31223675      -0.46331734       0.39038575 </v>
   <v>       0.43774028      -0.21271147       0.39038544 </v>
   <v>       0.43735770       0.28648807       0.39024608 </v>
   <v>      -0.18763742      -0.12855363       0.43480859 </v>
   <v>      -0.06262158       0.12155382       0.43482616 </v>
   <v>       0.06242898      -0.12850660       0.43521280 </v>
   <v>      -0.06284958      -0.37833124       0.43491734 </v>
   <v>       0.18736660       0.12144513       0.43496218 </v>
   <v>      -0.31236443       0.12144233       0.43494960 </v>
   <v>       0.18765130      -0.37861687       0.43483563 </v>
   <v>       0.31283103      -0.12869736       0.43483755 </v>
   <v>      -0.31276046      -0.37875339       0.43502077 </v>
   <v>      -0.43766653      -0.12856397       0.43501281 </v>
   <v>       0.06242517       0.37177833       0.43497233 </v>
   <v>      -0.18741743       0.37164454       0.43500025 </v>
   <v>       0.43719376       0.12138809       0.43499501 </v>
   <v>       0.31239512       0.37139235       0.43498121 </v>
   <v>      -0.43742371       0.37157231       0.43495648 </v>
   <v>       0.43780878      -0.37880364       0.43508117 </v>
   <v>      -0.06265378      -0.04453296       0.47864780 </v>
   <v>      -0.18738146      -0.29449477       0.47865948 </v>
   <v>       0.06255180      -0.29487361       0.47875530 </v>
   <v>       0.18768717      -0.04445151       0.47862560 </v>
   <v>      -0.31235588      -0.04457406       0.47862678 </v>
   <v>      -0.18751859       0.20542517       0.47869446 </v>
   <v>       0.06247145       0.20531551       0.47871647 </v>
   <v>      -0.06255133       0.45545975       0.47863585 </v>
   <v>       0.31234416      -0.29448546       0.47866374 </v>
   <v>      -0.43750183      -0.29458025       0.47876818 </v>
   <v>      -0.43746543       0.20545692       0.47863041 </v>
   <v>       0.31256659       0.20557633       0.47866421 </v>
   <v>       0.18764294       0.45552850       0.47859677 </v>
   <v>      -0.31258910       0.45535213       0.47869466 </v>
   <v>       0.43732508      -0.04441367       0.47863501 </v>
   <v>       0.43755859       0.45546685       0.47865648 </v>
   <v>       0.06244375      -0.12717025      -0.47874020 </v>
   <v>      -0.18766670      -0.12767779      -0.47874074 </v>
   <v>      -0.06250852       0.12277754      -0.47867888 </v>
   <v>      -0.06292890      -0.37752941      -0.47865846 </v>
   <v>      -0.31240037       0.12260204      -0.47871163 </v>
   <v>       0.18745452       0.12291311      -0.47866675 </v>
   <v>       0.18787639      -0.37749798      -0.47870062 </v>
   <v>      -0.31235510      -0.37757409      -0.47866239 </v>
   <v>       0.31268944      -0.12763837      -0.47871719 </v>
   <v>      -0.43744420      -0.12723071      -0.47868577 </v>
   <v>      -0.18765079       0.37253689      -0.47869271 </v>
   <v>       0.06246352       0.37261999      -0.47866762 </v>
   <v>       0.43746693       0.12271145      -0.47870746 </v>
   <v>       0.31272876       0.37258268      -0.47870048 </v>
   <v>      -0.43746554       0.37270462      -0.47868497 </v>
   <v>       0.43743796      -0.37755352      -0.47866742 </v>
   <v>      -0.06227528      -0.20483286      -0.12704527 </v>
   <v>       0.06175808       0.04553515      -0.12685028 </v>
   <v>      -0.18799128       0.04492508      -0.12694897 </v>
   <v>       0.18740844      -0.20488498      -0.12689646 </v>
   <v>      -0.31260208      -0.20503517      -0.12703531 </v>
   <v>      -0.06253872       0.29638569      -0.12686359 </v>
   <v>      -0.18761915      -0.45438828      -0.12691289 </v>
   <v>       0.06195777      -0.45484644      -0.12699331 </v>
   <v>      -0.43645081       0.04561906      -0.12692827 </v>
   <v>       0.31266596       0.04506662      -0.12693016 </v>
   <v>      -0.06296146      -0.04351285      -0.43497575 </v>
   <v>      -0.31230208       0.29625774      -0.12683983 </v>
   <v>       0.18608561       0.29566716      -0.12695418 </v>
   <v>      -0.31242262      -0.04357451      -0.43515964 </v>
   <v>      -0.18749526      -0.29290631      -0.43496933 </v>
   <v>       0.06253877      -0.29362681      -0.43496134 </v>
   <v>       0.18808762      -0.04365722      -0.43502920 </v>
   <v>      -0.18775435       0.20652721      -0.43498567 </v>
   <v>       0.06252943       0.20674536      -0.43487290 </v>
   <v>      -0.43746733      -0.45486147      -0.12688721 </v>
   <v>       0.31282342      -0.45480556      -0.12700185 </v>
   <v>       0.43765718      -0.20606966      -0.12697996 </v>
   <v>      -0.06256824       0.45687349      -0.43508462 </v>
   <v>       0.31248242      -0.29317910      -0.43494443 </v>
   <v>      -0.43742536      -0.29317188      -0.43495557 </v>
   <v>       0.43847146       0.29568612      -0.12686871 </v>
   <v>       0.31285725       0.20644538      -0.43498613 </v>
   <v>      -0.43746471       0.20665852      -0.43496559 </v>
   <v>       0.18753650       0.45661172      -0.43506723 </v>
   <v>      -0.31232112       0.45682996      -0.43496324 </v>
   <v>       0.43726322      -0.04350990      -0.43507280 </v>
   <v>       0.43747377       0.45662191      -0.43490795 </v>
   <v>      -0.06266291      -0.03845352      -0.16892788 </v>
   <v>       0.18800386      -0.03761882      -0.16840567 </v>
   <v>      -0.18777365      -0.28859448      -0.16905290 </v>
   <v>       0.06202802      -0.28761410      -0.16910294 </v>
   <v>      -0.31227390      -0.03840931      -0.16900443 </v>
   <v>       0.06316533       0.21177226      -0.16884308 </v>
   <v>      -0.18751960       0.21175978      -0.16891617 </v>
   <v>      -0.06299062       0.46157319      -0.16898025 </v>
   <v>       0.31270258      -0.28712091      -0.16887076 </v>
   <v>      -0.43730598      -0.28857549      -0.16911724 </v>
   <v>       0.31224255       0.21126770      -0.16871547 </v>
   <v>      -0.43847432       0.21158493      -0.16872787 </v>
   <v>      -0.06232791      -0.20894835      -0.39041441 </v>
   <v>       0.06234467       0.04053101      -0.39037922 </v>
   <v>      -0.18750843       0.04089582      -0.39035974 </v>
   <v>       0.18756338       0.46218931      -0.16900715 </v>
   <v>      -0.31255682       0.46104835      -0.16895129 </v>
   <v>       0.43673507      -0.03775531      -0.16872170 </v>
   <v>       0.18736726      -0.20919938      -0.39038280 </v>
   <v>      -0.31256184      -0.20885841      -0.39034337 </v>
   <v>      -0.06291119       0.29083973      -0.39026269 </v>
   <v>      -0.18711704      -0.45925185      -0.39031621 </v>
   <v>       0.06237514      -0.45962341      -0.39022928 </v>
   <v>       0.31293399       0.04078341      -0.39030879 </v>
   <v>      -0.43769421       0.04079566      -0.39025277 </v>
   <v>      -0.31229762       0.29052122      -0.39034332 </v>
   <v>       0.18749494       0.29084189      -0.39026870 </v>
   <v>       0.43782261       0.46218433      -0.16896274 </v>
   <v>      -0.43748486      -0.45902494      -0.39038361 </v>
   <v>       0.31225520      -0.45941556      -0.39030124 </v>
   <v>       0.43744728      -0.20873056      -0.39038662 </v>
   <v>       0.43735632       0.29072159      -0.39038267 </v>
   <v>      -0.18734961      -0.12242257      -0.21385259 </v>
   <v>       0.06226931      -0.12259804      -0.21398833 </v>
   <v>      -0.06238020       0.12749680      -0.21389373 </v>
   <v>      -0.06254289      -0.37219949      -0.21388751 </v>
   <v>       0.18728451       0.12820372      -0.21388578 </v>
   <v>      -0.31240781       0.12728694      -0.21390524 </v>
   <v>       0.18711570      -0.37215568      -0.21392300 </v>
   <v>      -0.31236434      -0.37250918      -0.21389444 </v>
   <v>      -0.43716784      -0.12267249      -0.21390804 </v>
   <v>       0.31273815      -0.12228320      -0.21395120 </v>
   <v>       0.06272468       0.37834259      -0.21375795 </v>
   <v>      -0.18767537       0.37758033      -0.21378768 </v>
   <v>       0.06263130      -0.12521100      -0.34642646 </v>
   <v>      -0.18779312      -0.12474790      -0.34642326 </v>
   <v>      -0.06228558       0.12520698      -0.34646566 </v>
   <v>       0.43701314       0.12720032      -0.21407960 </v>
   <v>      -0.43712292       0.37743936      -0.21390867 </v>
   <v>       0.31230693       0.37831326      -0.21397434 </v>
   <v>      -0.06240362      -0.37495404      -0.34642617 </v>
   <v>      -0.31259340       0.12553190      -0.34650707 </v>
   <v>       0.18734588       0.12524774      -0.34645301 </v>
   <v>       0.43774007      -0.37212063      -0.21394157 </v>
   <v>      -0.31281123      -0.37472731      -0.34652112 </v>
   <v>       0.18787287      -0.37496367      -0.34637856 </v>
   <v>      -0.43734403      -0.12485905      -0.34652052 </v>
   <v>       0.31268879      -0.12502858      -0.34648337 </v>
   <v>       0.06274049       0.37530623      -0.34642181 </v>
   <v>      -0.18746824       0.37542885      -0.34638952 </v>
   <v>       0.43753522       0.12516515      -0.34646187 </v>
   <v>      -0.43745390       0.37537310      -0.34653115 </v>
   <v>       0.31249105       0.37554054      -0.34637177 </v>
   <v>       0.43747669      -0.37499302      -0.34652233 </v>
   <v>      -0.06226617      -0.20642712      -0.25783907 </v>
   <v>      -0.18740264       0.04403283      -0.25783330 </v>
   <v>       0.06245155       0.04412334      -0.25790634 </v>
   <v>      -0.31256287      -0.20642930      -0.25782136 </v>
   <v>       0.18749557      -0.20605123      -0.25796206 </v>
   <v>      -0.06220644       0.29355754      -0.25786679 </v>
   <v>       0.06256019      -0.45652054      -0.25789446 </v>
   <v>      -0.18748266      -0.45621079      -0.25793432 </v>
   <v>       0.31248217       0.04410030      -0.25786115 </v>
   <v>      -0.43757232       0.04431893      -0.25797510 </v>
   <v>      -0.31272861       0.29389799      -0.25783650 </v>
   <v>       0.18777436       0.29372657      -0.25786550 </v>
   <v>      -0.06274957      -0.04060830      -0.30203821 </v>
   <v>       0.31246217      -0.45620945      -0.25787440 </v>
   <v>      -0.43756336      -0.45598138      -0.25790385 </v>
   <v>       0.43731222      -0.20606940      -0.25795074 </v>
   <v>      -0.18760766      -0.29041668      -0.30206525 </v>
   <v>       0.06244351      -0.29061430      -0.30205646 </v>
   <v>       0.18729036      -0.04057600      -0.30213874 </v>
   <v>      -0.31219466      -0.04035469      -0.30214030 </v>
   <v>       0.06249697       0.20920824      -0.30194506 </v>
   <v>      -0.18724975       0.20969664      -0.30193184 </v>
   <v>       0.43720605       0.29353424      -0.25785319 </v>
   <v>      -0.06244438       0.45950355      -0.30204029 </v>
   <v>       0.31277221      -0.29012124      -0.30201522 </v>
   <v>      -0.43759513      -0.29042258      -0.30199374 </v>
   <v>      -0.43748933       0.20986008      -0.30205308 </v>
   <v>       0.31225484       0.20973700      -0.30202042 </v>
   <v>      -0.31245964       0.45962039      -0.30202984 </v>
   <v>       0.18754122       0.45962214      -0.30198464 </v>
   <v>       0.43767029      -0.04016424      -0.30207860 </v>
   <v>       0.43736084       0.45984126      -0.30215988 </v>
  </varray>
 </structure>
 <varray name="primitive_index" >
  <v type="int" >        1 </v>
  <v type="int" >       97 </v>
  <v type="int" >       48 </v>
  <v type="int" >      138 </v>
  <v type="int" >      145 </v>
  <v type="int" >       25 </v>
  <v type="int" >      133 </v>
  <v type="int" >      264 </v>
  <v type="int" >       69 </v>
  <v type="int" >      209 </v>
  <v type="int" >      101 </v>
  <v type="int" >      108 </v>
  <v type="int" >      276 </v>
  <v type="int" >       22 </v>
  <v type="int" >      139 </v>
  <v type="int" >      213 </v>
  <v type="int" >      120 </v>
  <v type="int" >      166 </v>
  <v type="int" >      253 </v>
  <v type="int" >      126 </v>
  <v type="int" >      151 </v>
  <v type="int" >       77 </v>
  <v type="int" >       98 </v>
  <v type="int" >      160 </v>
  <v type="int" >      269 </v>
  <v type="int" >       44 </v>
  <v type="int" >      250 </v>
  <v type="int" >      238 </v>
  <v type="int" >        2 </v>
  <v type="int" >      208 </v>
  <v type="int" >       62 </v>
  <v type="int" >       58 </v>
  <v type="int" >      148 </v>
  <v type="int" >      119 </v>
  <v type="int" >      155 </v>
  <v type="int" >       96 </v>
  <v type="int" >      167 </v>
  <v type="int" >      203 </v>
  <v type="int" >      270 </v>
  <v type="int" >       18 </v>
  <v type="int" >       81 </v>
  <v type="int" >       26 </v>
  <v type="int" >      157 </v>
  <v type="int" >       54 </v>
  <v type="int" >      201 </v>
  <v type="int" >      184 </v>
  <v type="int" >       27 </v>
  <v type="int" >       56 </v>
  <v type="int" >       46 </v>
  <v type="int" >      202 </v>
  <v type="int" >      136 </v>
  <v type="int" >      246 </v>
  <v type="int" >      252 </v>
  <v type="int" >      111 </v>
  <v type="int" >       17 </v>
  <v type="int" >      199 </v>
  <v type="int" >       33 </v>
  <v type="int" >      216 </v>
  <v type="int" >      230 </v>
  <v type="int" >      171 </v>
  <v type="int" >       63 </v>
  <v type="int" >       91 </v>
  <v type="int" >       71 </v>
  <v type="int" >      161 </v>
  <v type="int" >      283 </v>
  <v type="int" >       59 </v>
  <v type="int" >      206 </v>
  <v type="int" >      146 </v>
  <v type="int" >      106 </v>
  <v type="int" >      122 </v>
  <v type="int" >      158 </v>
  <v type="int" >       70 </v>
  <v type="int" >      215 </v>
  <v type="int" >        3 </v>
  <v type="int" >      174 </v>
  <v type="int" >      195 </v>
  <v type="int" >      192 </v>
  <v type="int" >      153 </v>
  <v type="int" >      173 </v>
  <v type="int" >      131 </v>
  <v type="int" >      162 </v>
  <v type="int" >      137 </v>
  <v type="int" >       13 </v>
  <v type="int" >      183 </v>
  <v type="int" >        7 </v>
  <v type="int" >       15 </v>
  <v type="int" >       90 </v>
  <v type="int" >      247 </v>
  <v type="int" >      197 </v>
  <v type="int" >       93 </v>
  <v type="int" >       73 </v>
  <v type="int" >      190 </v>
  <v type="int" >      135 </v>
  <v type="int" >      277 </v>
  <v type="int" >      287 </v>
  <v type="int" >       82 </v>
  <v type="int" >      168 </v>
  <v type="int" >       68 </v>
  <v type="int" >      258 </v>
  <v type="int" >      200 </v>
  <v type="int" >       32 </v>
  <v type="int" >      282 </v>
  <v type="int" >      154 </v>
  <v type="int" >      191 </v>
  <v type="int" >      218 </v>
  <v type="int" >      274 </v>
  <v type="int" >       53 </v>
  <v type="int" >       94 </v>
  <v type="int" >      242 </v>
  <v type="int" >       20 </v>
  <v type="int" >        5 </v>
  <v type="int" >      116 </v>
  <v type="int" >      231 </v>
  <v type="int" >      226 </v>
  <v type="int" >      214 </v>
  <v type="int" >       79 </v>
  <v type="int" >      164 </v>
  <v type="int" >        8 </v>
  <v type="int" >      271 </v>
  <v type="int" >      229 </v>
  <v type="int" >       16 </v>
  <v type="int" >       50 </v>
  <v type="int" >      239 </v>
  <v type="int" >      107 </v>
  <v type="int" >      220 </v>
  <v type="int" >      129 </v>
  <v type="int" >       64 </v>
  <v type="int" >      234 </v>
  <v type="int" >      117 </v>
  <v type="int" >      102 </v>
  <v type="int" >      228 </v>
  <v type="int" >      178 </v>
  <v type="int" >       11 </v>
  <v type="int" >      224 </v>
  <v type="int" >      221 </v>
  <v type="int" >       38 </v>
  <v type="int" >      267 </v>
  <v type="int" >       60 </v>
  <v type="int" >      179 </v>
  <v type="int" >      241 </v>
  <v type="int" >      110 </v>
  <v type="int" >      125 </v>
  <v type="int" >      263 </v>
  <v type="int" >       95 </v>
  <v type="int" >      281 </v>
  <v type="int" >       61 </v>
  <v type="int" >      176 </v>
  <v type="int" >      261 </v>
  <v type="int" >       43 </v>
  <v type="int" >      272 </v>
  <v type="int" >      185 </v>
  <v type="int" >      198 </v>
  <v type="int" >      170 </v>
  <v type="int" >      219 </v>
  <v type="int" >      128 </v>
  <v type="int" >      240 </v>
  <v type="int" >      121 </v>
  <v type="int" >      251 </v>
  <v type="int" >        9 </v>
  <v type="int" >      189 </v>
  <v type="int" >       88 </v>
  <v type="int" >      147 </v>
  <v type="int" >      124 </v>
  <v type="int" >       29 </v>
  <v type="int" >      259 </v>
  <v type="int" >      140 </v>
  <v type="int" >       40 </v>
  <v type="int" >      217 </v>
  <v type="int" >      233 </v>
  <v type="int" >      280 </v>
  <v type="int" >      243 </v>
  <v type="int" >      193 </v>
  <v type="int" >      103 </v>
  <v type="int" >      196 </v>
  <v type="int" >      156 </v>
  <v type="int" >        4 </v>
  <v type="int" >      115 </v>
  <v type="int" >      265 </v>
  <v type="int" >      286 </v>
  <v type="int" >       49 </v>
  <v type="int" >      256 </v>
  <v type="int" >      134 </v>
  <v type="int" >       51 </v>
  <v type="int" >      127 </v>
  <v type="int" >      245 </v>
  <v type="int" >      130 </v>
  <v type="int" >       34 </v>
  <v type="int" >       99 </v>
  <v type="int" >      225 </v>
  <v type="int" >       83 </v>
  <v type="int" >      266 </v>
  <v type="int" >       35 </v>
  <v type="int" >      149 </v>
  <v type="int" >      275 </v>
  <v type="int" >       89 </v>
  <v type="int" >       31 </v>
  <v type="int" >      114 </v>
  <v type="int" >      159 </v>
  <v type="int" >      255 </v>
  <v type="int" >       85 </v>
  <v type="int" >      172 </v>
  <v type="int" >      175 </v>
  <v type="int" >      142 </v>
  <v type="int" >       23 </v>
  <v type="int" >      144 </v>
  <v type="int" >      204 </v>
  <v type="int" >      132 </v>
  <v type="int" >       84 </v>
  <v type="int" >       37 </v>
  <v type="int" >      169 </v>
  <v type="int" >      260 </v>
  <v type="int" >       36 </v>
  <v type="int" >      180 </v>
  <v type="int" >       14 </v>
  <v type="int" >      278 </v>
  <v type="int" >       78 </v>
  <v type="int" >      279 </v>
  <v type="int" >      150 </v>
  <v type="int" >       80 </v>
  <v type="int" >      188 </v>
  <v type="int" >      222 </v>
  <v type="int" >      112 </v>
  <v type="int" >      249 </v>
  <v type="int" >      237 </v>
  <v type="int" >       76 </v>
  <v type="int" >       66 </v>
  <v type="int" >       10 </v>
  <v type="int" >       52 </v>
  <v type="int" >       19 </v>
  <v type="int" >       67 </v>
  <v type="int" >      118 </v>
  <v type="int" >       41 </v>
  <v type="int" >      163 </v>
  <v type="int" >      223 </v>
  <v type="int" >      273 </v>
  <v type="int" >       21 </v>
  <v type="int" >      182 </v>
  <v type="int" >       30 </v>
  <v type="int" >      288 </v>
  <v type="int" >      285 </v>
  <v type="int" >      113 </v>
  <v type="int" >      227 </v>
  <v type="int" >      235 </v>
  <v type="int" >      262 </v>
  <v type="int" >       74 </v>
  <v type="int" >      207 </v>
  <v type="int" >      165 </v>
  <v type="int" >       87 </v>
  <v type="int" >      257 </v>
  <v type="int" >       45 </v>
  <v type="int" >      104 </v>
  <v type="int" >      105 </v>
  <v type="int" >       55 </v>
  <v type="int" >       39 </v>
  <v type="int" >       24 </v>
  <v type="int" >       28 </v>
  <v type="int" >        6 </v>
  <v type="int" >      181 </v>
  <v type="int" >      232 </v>
  <v type="int" >      284 </v>
  <v type="int" >      268 </v>
  <v type="int" >      186 </v>
  <v type="int" >      100 </v>
  <v type="int" >      210 </v>
  <v type="int" >      194 </v>
  <v type="int" >       86 </v>
  <v type="int" >       42 </v>
  <v type="int" >       92 </v>
  <v type="int" >      248 </v>
  <v type="int" >      205 </v>
  <v type="int" >       47 </v>
  <v type="int" >      211 </v>
  <v type="int" >       57 </v>
  <v type="int" >       72 </v>
  <v type="int" >      152 </v>
  <v type="int" >      244 </v>
  <v type="int" >      143 </v>
  <v type="int" >      109 </v>
  <v type="int" >      141 </v>
  <v type="int" >      187 </v>
  <v type="int" >      177 </v>
  <v type="int" >      236 </v>
  <v type="int" >      212 </v>
  <v type="int" >       65 </v>
  <v type="int" >       12 </v>
  <v type="int" >       75 </v>
  <v type="int" >      123 </v>
  <v type="int" >      254 </v>
 </varray>
 <kpoints>
  <generation param="Gamma">
   <v type="int" name="divisions">       4        4        1 </v>
   <v name="usershift">      0.00000000       0.00000000       0.00000000 </v>
   <v name="genvec1">      0.25000000       0.00000000       0.00000000 </v>
   <v name="genvec2">      0.00000000       0.25000000       0.00000000 </v>
   <v name="genvec3">      0.00000000       0.00000000       1.00000000 </v>
   <v name="shift">      0.00000000       0.00000000       0.00000000 </v>
  </generation>
  <varray name="kpointlist" >
   <v>       0.00000000       0.00000000       0.00000000 </v>
   <v>       0.25000000       0.00000000       0.00000000 </v>
   <v>       0.50000000       0.00000000       0.00000000 </v>
   <v>       0.00000000       0.25000000       0.00000000 </v>
   <v>       0.25000000       0.25000000       0.00000000 </v>
   <v>       0.50000000       0.25000000       0.00000000 </v>
   <v>      -0.25000000       0.25000000       0.00000000 </v>
   <v>       0.00000000       0.50000000       0.00000000 </v>
   <v>       0.25000000       0.50000000       0.00000000 </v>
   <v>       0.50000000       0.50000000       0.00000000 </v>
  </varray>
  <varray name="weights" >
   <v>       0.06250000 </v>
   <v>       0.12500000 </v>
   <v>       0.06250000 </v>
   <v>       0.12500000 </v>
   <v>       0.12500000 </v>
   <v>       0.12500000 </v>
   <v>       0.12500000 </v>
   <v>       0.06250000 </v>
   <v>       0.12500000 </v>
   <v>       0.06250000 </v>
  </varray>
 </kpoints>
 <parameters>
  <separator name="general" >
   <i type="string" name="SYSTEM">unknown system</i>
   <i type="logical" name="LCOMPAT"> F  </i>
  </separator>
  <separator name="electronic" >
   <i type="string" name="PREC">accura</i>
   <i name="ENMAX">    500.00000000</i>
   <i name="ENAUG">    838.43500000</i>
   <i name="EDIFF">      0.00001000</i>
   <i type="int" name="IALGO">    68</i>
   <i type="int" name="IWAVPR">    11</i>
   <i type="int" name="NBANDS">  1380</i>
   <i name="NELECT">   2289.00000000</i>
   <i type="int" name="TURBO">     0</i>
   <i type="int" name="IRESTART">     0</i>
   <i type="int" name="NREBOOT">     0</i>
   <i type="int" name="NMIN">     0</i>
   <i name="EREF">      0.00000000</i>
   <separator name="electronic smearing" >
    <i type="int" name="ISMEAR">     0</i>
    <i name="SIGMA">      0.15000000</i>
    <i name="KSPACING">      0.50000000</i>
    <i type="logical" name="KGAMMA"> T  </i>
   </separator>
   <separator name="electronic projectors" >
    <i type="logical" name="LREAL"> T  </i>
    <v name="ROPT">     -0.00025000     -0.00025000</v>
    <i type="int" name="LMAXPAW">  -100</i>
    <i type="int" name="LMAXMIX">     2</i>
    <i type="logical" name="NLSPLINE"> F  </i>
   </separator>
   <separator name="electronic startup" >
    <i type="int" name="ISTART">     0</i>
    <i type="int" name="ICHARG">     2</i>
    <i type="int" name="INIWAV">     1</i>
   </separator>
   <separator name="electronic spin" >
    <i type="int" name="ISPIN">     1</i>
    <i type="logical" name="LNONCOLLINEAR"> F  </i>
    <v name="MAGMOM">      1.00000000      1.00000000      1.00000000      1.00000000      1.00000000      1.00000000      1.00000000      1.00000000      1.00000000      1.00000000      1.00000000      1.00000000      1.00000000      1.00000000      1.00000000      1.00000000      1.00000000      1.00000000      1.00000000      1.00000000
      1.00000000      1.00000000      1.00000000      1.00000000      1.00000000      1.00000000      1.00000000      1.00000000      1.00000000      1.00000000      1.00000000      1.00000000      1.00000000      1.00000000      1.00000000      1.00000000      1.00000000      1.00000000      1.00000000      1.00000000
      1.00000000      1.00000000      1.00000000      1.00000000      1.00000000      1.00000000      1.00000000      1.00000000      1.00000000      1.00000000      1.00000000      1.00000000      1.00000000      1.00000000      1.00000000      1.00000000      1.00000000      1.00000000      1.00000000      1.00000000
      1.00000000      1.00000000      1.00000000      1.00000000      1.00000000      1.00000000      1.00000000      1.00000000      1.00000000      1.00000000      1.00000000      1.00000000      1.00000000      1.00000000      1.00000000      1.00000000      1.00000000      1.00000000      1.00000000      1.00000000
      1.00000000      1.00000000      1.00000000      1.00000000      1.00000000      1.00000000      1.00000000      1.00000000      1.00000000      1.00000000      1.00000000      1.00000000      1.00000000      1.00000000      1.00000000      1.00000000      1.00000000      1.00000000      1.00000000      1.00000000
      1.00000000      1.00000000      1.00000000      1.00000000      1.00000000      1.00000000      1.00000000      1.00000000      1.00000000      1.00000000      1.00000000      1.00000000      1.00000000      1.00000000      1.00000000      1.00000000      1.00000000      1.00000000      1.00000000      1.00000000
      1.00000000      1.00000000      1.00000000      1.00000000      1.00000000      1.00000000      1.00000000      1.00000000      1.00000000      1.00000000      1.00000000      1.00000000      1.00000000      1.00000000      1.00000000      1.00000000      1.00000000      1.00000000      1.00000000      1.00000000
      1.00000000      1.00000000      1.00000000      1.00000000      1.00000000      1.00000000      1.00000000      1.00000000      1.00000000      1.00000000      1.00000000      1.00000000      1.00000000      1.00000000      1.00000000      1.00000000      1.00000000      1.00000000      1.00000000      1.00000000
      1.00000000      1.00000000      1.00000000      1.00000000      1.00000000      1.00000000      1.00000000      1.00000000      1.00000000      1.00000000      1.00000000      1.00000000      1.00000000      1.00000000      1.00000000      1.00000000      1.00000000      1.00000000      1.00000000      1.00000000
      1.00000000      1.00000000      1.00000000      1.00000000      1.00000000      1.00000000      1.00000000      1.00000000      1.00000000      1.00000000      1.00000000      1.00000000      1.00000000      1.00000000      1.00000000      1.00000000      1.00000000      1.00000000      1.00000000      1.00000000
      1.00000000      1.00000000      1.00000000      1.00000000      1.00000000      1.00000000      1.00000000      1.00000000      1.00000000      1.00000000      1.00000000      1.00000000      1.00000000      1.00000000      1.00000000      1.00000000      1.00000000      1.00000000      1.00000000      1.00000000
      1.00000000      1.00000000      1.00000000      1.00000000      1.00000000      1.00000000      1.00000000      1.00000000      1.00000000      1.00000000      1.00000000      1.00000000      1.00000000      1.00000000      1.00000000      1.00000000      1.00000000      1.00000000      1.00000000      1.00000000
      1.00000000      1.00000000      1.00000000      1.00000000      1.00000000      1.00000000      1.00000000      1.00000000      1.00000000      1.00000000      1.00000000      1.00000000      1.00000000      1.00000000      1.00000000      1.00000000      1.00000000      1.00000000      1.00000000      1.00000000
      1.00000000      1.00000000      1.00000000      1.00000000      1.00000000      1.00000000      1.00000000      1.00000000      1.00000000      1.00000000      1.00000000      1.00000000      1.00000000      1.00000000      1.00000000      1.00000000      1.00000000      1.00000000      1.00000000      1.00000000
      1.00000000      1.00000000      1.00000000      1.00000000      1.00000000      1.00000000      1.00000000      1.00000000</v>
    <i name="NUPDOWN">     -1.00000000</i>
    <i type="logical" name="LSORBIT"> F  </i>
    <v name="SAXIS">      0.00000000      0.00000000      1.00000000</v>
    <i type="logical" name="LSPIRAL"> F  </i>
    <v name="QSPIRAL">      0.00000000      0.00000000      0.00000000</v>
    <i type="logical" name="LZEROZ"> F  </i>
   </separator>
   <separator name="electronic exchange-correlation" >
    <i type="logical" name="LASPH"> F  </i>
    <i type="logical" name="LMETAGGA"> F  </i>
   </separator>
   <separator name="electronic convergence" >
    <i type="int" name="NELM">   100</i>
    <i type="int" name="NELMDL">     0</i>
    <i type="int" name="NELMIN">     4</i>
    <i name="ENINI">    500.00000000</i>
    <separator name="electronic convergence detail" >
     <i type="logical" name="LDIAG"> T  </i>
     <i type="logical" name="LSUBROT"> F  </i>
     <i name="WEIMIN">      0.00100000</i>
     <i name="EBREAK">      0.00000000</i>
     <i name="DEPER">      0.30000000</i>
     <i type="int" name="NRMM">     4</i>
     <i name="TIME">      0.40000000</i>
    </separator>
   </separator>
   <separator name="electronic mixer" >
    <i name="AMIX">      0.40000000</i>
    <i name="BMIX">      1.00000000</i>
    <i name="AMIN">      0.10000000</i>
    <i name="AMIX_MAG">      1.60000000</i>
    <i name="BMIX_MAG">      1.00000000</i>
    <separator name="electronic mixer details" >
     <i type="int" name="IMIX">     4</i>
     <i type="logical" name="MIXFIRST"> F  </i>
     <i type="int" name="MAXMIX">   -45</i>
     <i name="WC">    100.00000000</i>
     <i type="int" name="INIMIX">     1</i>
     <i type="int" name="MIXPRE">     1</i>
     <i type="int" name="MREMOVE">     5</i>
    </separator>
   </separator>
   <separator name="electronic dipolcorrection" >
    <i type="logical" name="LDIPOL"> F  </i>
    <i type="logical" name="LMONO"> F  </i>
    <i type="int" name="IDIPOL">     0</i>
    <i name="EPSILON">      1.00000000</i>
    <v name="DIPOL">   -100.00000000   -100.00000000   -100.00000000</v>
    <i name="EFIELD">      0.00000000</i>
   </separator>
  </separator>
  <separator name="grids" >
   <i type="int" name="NGX">    72</i>
   <i type="int" name="NGY">    64</i>
   <i type="int" name="NGZ">   336</i>
   <i type="int" name="NGXF">   144</i>
   <i type="int" name="NGYF">   128</i>
   <i type="int" name="NGZF">   672</i>
   <i type="logical" name="ADDGRID"> F  </i>
  </separator>
  <separator name="ionic" >
   <i type="int" name="NSW">   500</i>
   <i type="int" name="IBRION">     2</i>
   <i type="int" name="MDALGO">     0</i>
   <i type="int" name="ISIF">     2</i>
   <i name="PSTRESS">      0.00000000</i>
   <i name="EDIFFG">      0.00010000</i>
   <i type="int" name="NFREE">     1</i>
   <i name="POTIM">      0.25000000</i>
   <i name="SMASS">     -3.00000000</i>
   <i name="SCALEE">      1.00000000</i>
  </separator>
  <separator name="ionic md" >
   <i name="TEBEG">      0.00010000</i>
   <i name="TEEND">      0.00010000</i>
   <i type="int" name="NBLOCK">     1</i>
   <i type="int" name="KBLOCK">   500</i>
   <i type="int" name="NPACO">   256</i>
   <i name="APACO">     16.00000000</i>
  </separator>
  <separator name="symmetry" >
   <i type="int" name="ISYM">     2</i>
   <i name="SYMPREC">      0.00001000</i>
  </separator>
  <separator name="dos" >
   <i type="int" name="LORBIT">     0</i>
   <v name="RWIGS">     -1.00000000     -1.00000000</v>
   <i type="int" name="NEDOS">   301</i>
   <i name="EMIN">     10.00000000</i>
   <i name="EMAX">    -10.00000000</i>
   <i name="EFERMI">      0.00000000</i>
  </separator>
  <separator name="writing" >
   <i type="int" name="NWRITE">     2</i>
   <i type="logical" name="LWAVE"> F  </i>
   <i type="logical" name="LDOWNSAMPLE"> F  </i>
   <i type="logical" name="LCHARG"> F  </i>
   <i type="logical" name="LPARD"> F  </i>
   <i type="logical" name="LVTOT"> F  </i>
   <i type="logical" name="LVHAR"> F  </i>
   <i type="logical" name="LELF"> F  </i>
   <i type="logical" name="LOPTICS"> F  </i>
   <v name="STM">      0.00000000      0.00000000      0.00000000      0.00000000      0.00000000      0.00000000      0.00000000</v>
  </separator>
  <separator name="performance" >
   <i type="int" name="NPAR">    10</i>
   <i type="int" name="NSIM">     4</i>
   <i type="int" name="NBLK">    -1</i>
   <i type="logical" name="LPLANE"> T  </i>
   <i type="logical" name="LSCALAPACK"> F  </i>
   <i type="logical" name="LSCAAWARE"> F  </i>
   <i type="logical" name="LSCALU"> F  </i>
   <i type="logical" name="LASYNC"> F  </i>
   <i type="logical" name="LORBITALREAL"> F  </i>
  </separator>
  <separator name="miscellaneous" >
   <i type="int" name="IDIOT">     3</i>
   <i type="int" name="ISPECIAL">     0</i>
   <i type="logical" name="LMUSIC"> F  </i>
   <v name="POMASS">     55.84700000     54.93800000</v>
   <v name="DARWINR">      0.00000000      0.00000000</v>
   <v name="DARWINV">      1.00000000      1.00000000</v>
   <i type="logical" name="LCORR"> T  </i>
  </separator>
  <i type="logical" name="GGA_COMPAT"> T  </i>
  <i type="logical" name="LBERRY"> F  </i>
  <i type="int" name="ICORELEVEL">     0</i>
  <i type="logical" name="LDAU"> F  </i>
  <i type="int" name="I_CONSTRAINED_M">     0</i>
  <separator name="electronic exchange-correlation" >
   <i type="string" name="GGA">--</i>
   <i type="int" name="VOSKOWN">     0</i>
   <i type="logical" name="LHFCALC"> F  </i>
   <i type="string" name="PRECFOCK"></i>
   <i type="logical" name="LSYMGRAD"> F  </i>
   <i type="logical" name="LHFONE"> F  </i>
   <i type="logical" name="LRHFCALC"> F  </i>
   <i type="logical" name="LTHOMAS"> F  </i>
   <i type="logical" name="LMODELHF"> F  </i>
   <i name="ENCUT4O">     -1.00000000</i>
   <i type="int" name="EXXOEP">     0</i>
   <i type="int" name="FOURORBIT">     0</i>
   <i name="AEXX">      0.00000000</i>
   <i name="HFALPHA">      0.00000000</i>
   <i name="MCALPHA">      0.00000000</i>
   <i name="ALDAX">      1.00000000</i>
   <i name="AGGAX">      1.00000000</i>
   <i name="ALDAC">      1.00000000</i>
   <i name="AGGAC">      1.00000000</i>
   <i type="int" name="NKREDX">     1</i>
   <i type="int" name="NKREDY">     1</i>
   <i type="int" name="NKREDZ">     1</i>
   <i type="logical" name="SHIFTRED"> F  </i>
   <i type="logical" name="ODDONLY"> F  </i>
   <i type="logical" name="EVENONLY"> F  </i>
   <i type="int" name="LMAXFOCK">     0</i>
   <i type="int" name="NMAXFOCKAE">     0</i>
   <i type="logical" name="LFOCKAEDFT"> F  </i>
   <i name="HFSCREEN">      0.00000000</i>
   <i name="HFSCREENC">      0.00000000</i>
   <i type="int" name="NBANDSGWLOW">     0</i>
  </separator>
  <separator name="vdW DFT" >
   <i type="logical" name="LUSE_VDW"> F  </i>
   <i name="Zab_VDW">     -0.84910000</i>
   <i name="PARAM1">      0.12340000</i>
   <i name="PARAM2">      1.00000000</i>
   <i name="PARAM3">      0.00000000</i>
  </separator>
  <separator name="model GW" >
   <i type="int" name="MODEL_GW">     0</i>
   <i name="MODEL_EPS0">      7.68123361</i>
   <i name="MODEL_ALPHA">      1.00000000</i>
  </separator>
  <separator name="linear response parameters" >
   <i type="logical" name="LEPSILON"> F  </i>
   <i type="logical" name="LRPA"> F  </i>
   <i type="logical" name="LNABLA"> F  </i>
   <i type="logical" name="LVEL"> F  </i>
   <i type="int" name="KINTER">     0</i>
   <i name="CSHIFT">      0.10000000</i>
   <i name="OMEGAMAX">     -1.00000000</i>
   <i name="DEG_THRESHOLD">      0.00200000</i>
   <i name="RTIME">     -0.10000000</i>
   <i name="WPLASMAI">      0.00000000</i>
   <v name="DFIELD">      0.00000000      0.00000000      0.00000000</v>
   <v name="WPLASMA">      0.00000000      0.00000000      0.00000000      0.00000000      0.00000000      0.00000000      0.00000000      0.00000000      0.00000000</v>
  </separator>
  <separator name="orbital magnetization" >
   <i type="logical" name="NUCIND"> F  </i>
   <v name="MAGPOS">      0.00000000      0.00000000      0.00000000</v>
   <i type="logical" name="LNICSALL"> T  </i>
   <i type="logical" name="ORBITALMAG"> F  </i>
   <i type="logical" name="LMAGBLOCH"> F  </i>
   <i type="logical" name="LCHIMAG"> F  </i>
   <i type="logical" name="LGAUGE"> T  </i>
   <i type="int" name="MAGATOM">     0</i>
   <v name="MAGDIPOL">      0.00000000      0.00000000      0.00000000</v>
   <v name="AVECCONST">      0.00000000      0.00000000      0.00000000</v>
  </separator>
  <separator name="response functions" >
   <i type="logical" name="LADDER"> F  </i>
   <i type="logical" name="LRPAFORCE"> F  </i>
   <i type="logical" name="LFXC"> F  </i>
   <i type="logical" name="LHARTREE"> T  </i>
   <i type="int" name="IBSE">     0</i>
   <v type="int" name="KPOINT">    -1     0     0     0</v>
   <i type="logical" name="LTCTE"> F  </i>
   <i type="logical" name="LTETE"> F  </i>
   <i type="logical" name="LTRIPLET"> F  </i>
   <i type="logical" name="LFXCEPS"> F  </i>
   <i type="logical" name="LFXHEG"> F  </i>
   <i type="int" name="NATURALO">     2</i>
   <i type="logical" name="L2ORDER"> F  </i>
   <i type="logical" name="LMP2LT"> F  </i>
   <i type="logical" name="LUSEW"> F  </i>
   <i name="ENCUTGW">     -2.00000000</i>
   <i name="ENCUTGWSOFT">     -2.00000000</i>
   <i name="ENCUTLF">     -1.00000000</i>
   <i type="int" name="LMAXMP2">    -1</i>
   <i name="SCISSOR">      0.00000000</i>
   <i type="int" name="NOMEGA">     0</i>
   <i type="int" name="NOMEGAR">     0</i>
   <i type="int" name="NBANDSGW">    -1</i>
   <i type="int" name="NBANDSO">    -1</i>
   <i type="int" name="NBANDSV">    -1</i>
   <i type="int" name="NELM">   100</i>
   <i type="int" name="NELMHF">     1</i>
   <i type="int" name="DIM">     3</i>
   <i type="int" name="ANTIRES">     0</i>
   <i name="OMEGAMAX">    -30.00000000</i>
   <i name="OMEGAMIN">    -30.00000000</i>
   <i name="OMEGATL">   -200.00000000</i>
   <i type="int" name="OMEGAGRID">   140</i>
   <i name="CSHIFT">     -0.10000000</i>
   <i type="logical" name="SELFENERGY"> F  </i>
   <i type="logical" name="LSPECTRAL"> F  </i>
   <i type="logical" name="LSPECTRALGW"> F  </i>
   <i type="logical" name="LSINGLES"> F  </i>
   <i type="logical" name="LFERMIGW"> F  </i>
   <i type="logical" name="ODDONLYGW"> F  </i>
   <i type="logical" name="EVENONLYGW"> F  </i>
   <i type="int" name="NKREDLFX">     1</i>
   <i type="int" name="NKREDLFY">     1</i>
   <i type="int" name="NKREDLFZ">     1</i>
   <i type="int" name="MAXMEM">  2800</i>
   <i type="int" name="TELESCOPE">     0</i>
   <i type="int" name="TAUPAR">     1</i>
   <i type="int" name="OMEGAPAR">    -1</i>
   <i name="LAMBDA">      1.00000000</i>
  </separator>
  <separator name="External order field" >
   <i name="OFIELD_KAPPA">      0.00000000</i>
   <v name="OFIELD_K">      0.00000000      0.00000000      0.00000000</v>
   <i name="OFIELD_Q6_NEAR">      0.00000000</i>
   <i name="OFIELD_Q6_FAR">      0.00000000</i>
   <i name="OFIELD_A">      0.00000000</i>
  </separator>
 </parameters>
 <atominfo>
  <atoms>     288 </atoms>
  <types>       2 </types>
  <array name="atoms" >
   <dimension dim="1">ion</dimension>
   <field type="string">element</field>
   <field type="int">atomtype</field>
   <set>
    <rc><c>Fe</c><c>   1</c></rc>
    <rc><c>Fe</c><c>   1</c></rc>
    <rc><c>Fe</c><c>   1</c></rc>
    <rc><c>Fe</c><c>   1</c></rc>
    <rc><c>Fe</c><c>   1</c></rc>
    <rc><c>Fe</c><c>   1</c></rc>
    <rc><c>Fe</c><c>   1</c></rc>
    <rc><c>Fe</c><c>   1</c></rc>
    <rc><c>Fe</c><c>   1</c></rc>
    <rc><c>Fe</c><c>   1</c></rc>
    <rc><c>Fe</c><c>   1</c></rc>
    <rc><c>Fe</c><c>   1</c></rc>
    <rc><c>Fe</c><c>   1</c></rc>
    <rc><c>Fe</c><c>   1</c></rc>
    <rc><c>Fe</c><c>   1</c></rc>
    <rc><c>Fe</c><c>   1</c></rc>
    <rc><c>Fe</c><c>   1</c></rc>
    <rc><c>Fe</c><c>   1</c></rc>
    <rc><c>Fe</c><c>   1</c></rc>
    <rc><c>Fe</c><c>   1</c></rc>
    <rc><c>Fe</c><c>   1</c></rc>
    <rc><c>Fe</c><c>   1</c></rc>
    <rc><c>Fe</c><c>   1</c></rc>
    <rc><c>Fe</c><c>   1</c></rc>
    <rc><c>Fe</c><c>   1</c></rc>
    <rc><c>Fe</c><c>   1</c></rc>
    <rc><c>Fe</c><c>   1</c></rc>
    <rc><c>Fe</c><c>   1</c></rc>
    <rc><c>Fe</c><c>   1</c></rc>
    <rc><c>Fe</c><c>   1</c></rc>
    <rc><c>Fe</c><c>   1</c></rc>
    <rc><c>Fe</c><c>   1</c></rc>
    <rc><c>Fe</c><c>   1</c></rc>
    <rc><c>Fe</c><c>   1</c></rc>
    <rc><c>Fe</c><c>   1</c></rc>
    <rc><c>Fe</c><c>   1</c></rc>
    <rc><c>Fe</c><c>   1</c></rc>
    <rc><c>Fe</c><c>   1</c></rc>
    <rc><c>Fe</c><c>   1</c></rc>
    <rc><c>Fe</c><c>   1</c></rc>
    <rc><c>Fe</c><c>   1</c></rc>
    <rc><c>Fe</c><c>   1</c></rc>
    <rc><c>Fe</c><c>   1</c></rc>
    <rc><c>Fe</c><c>   1</c></rc>
    <rc><c>Fe</c><c>   1</c></rc>
    <rc><c>Fe</c><c>   1</c></rc>
    <rc><c>Fe</c><c>   1</c></rc>
    <rc><c>Fe</c><c>   1</c></rc>
    <rc><c>Fe</c><c>   1</c></rc>
    <rc><c>Fe</c><c>   1</c></rc>
    <rc><c>Fe</c><c>   1</c></rc>
    <rc><c>Fe</c><c>   1</c></rc>
    <rc><c>Fe</c><c>   1</c></rc>
    <rc><c>Fe</c><c>   1</c></rc>
    <rc><c>Fe</c><c>   1</c></rc>
    <rc><c>Fe</c><c>   1</c></rc>
    <rc><c>Fe</c><c>   1</c></rc>
    <rc><c>Fe</c><c>   1</c></rc>
    <rc><c>Fe</c><c>   1</c></rc>
    <rc><c>Fe</c><c>   1</c></rc>
    <rc><c>Fe</c><c>   1</c></rc>
    <rc><c>Fe</c><c>   1</c></rc>
    <rc><c>Fe</c><c>   1</c></rc>
    <rc><c>Fe</c><c>   1</c></rc>
    <rc><c>Fe</c><c>   1</c></rc>
    <rc><c>Fe</c><c>   1</c></rc>
    <rc><c>Fe</c><c>   1</c></rc>
    <rc><c>Fe</c><c>   1</c></rc>
    <rc><c>Fe</c><c>   1</c></rc>
    <rc><c>Fe</c><c>   1</c></rc>
    <rc><c>Fe</c><c>   1</c></rc>
    <rc><c>Fe</c><c>   1</c></rc>
    <rc><c>Fe</c><c>   1</c></rc>
    <rc><c>Fe</c><c>   1</c></rc>
    <rc><c>Fe</c><c>   1</c></rc>
    <rc><c>Fe</c><c>   1</c></rc>
    <rc><c>Fe</c><c>   1</c></rc>
    <rc><c>Fe</c><c>   1</c></rc>
    <rc><c>Fe</c><c>   1</c></rc>
    <rc><c>Fe</c><c>   1</c></rc>
    <rc><c>Fe</c><c>   1</c></rc>
    <rc><c>Fe</c><c>   1</c></rc>
    <rc><c>Fe</c><c>   1</c></rc>
    <rc><c>Fe</c><c>   1</c></rc>
    <rc><c>Fe</c><c>   1</c></rc>
    <rc><c>Fe</c><c>   1</c></rc>
    <rc><c>Fe</c><c>   1</c></rc>
    <rc><c>Fe</c><c>   1</c></rc>
    <rc><c>Fe</c><c>   1</c></rc>
    <rc><c>Fe</c><c>   1</c></rc>
    <rc><c>Fe</c><c>   1</c></rc>
    <rc><c>Fe</c><c>   1</c></rc>
    <rc><c>Fe</c><c>   1</c></rc>
    <rc><c>Fe</c><c>   1</c></rc>
    <rc><c>Fe</c><c>   1</c></rc>
    <rc><c>Fe</c><c>   1</c></rc>
    <rc><c>Fe</c><c>   1</c></rc>
    <rc><c>Fe</c><c>   1</c></rc>
    <rc><c>Fe</c><c>   1</c></rc>
    <rc><c>Fe</c><c>   1</c></rc>
    <rc><c>Fe</c><c>   1</c></rc>
    <rc><c>Fe</c><c>   1</c></rc>
    <rc><c>Fe</c><c>   1</c></rc>
    <rc><c>Fe</c><c>   1</c></rc>
    <rc><c>Fe</c><c>   1</c></rc>
    <rc><c>Fe</c><c>   1</c></rc>
    <rc><c>Fe</c><c>   1</c></rc>
    <rc><c>Fe</c><c>   1</c></rc>
    <rc><c>Fe</c><c>   1</c></rc>
    <rc><c>Fe</c><c>   1</c></rc>
    <rc><c>Fe</c><c>   1</c></rc>
    <rc><c>Fe</c><c>   1</c></rc>
    <rc><c>Fe</c><c>   1</c></rc>
    <rc><c>Fe</c><c>   1</c></rc>
    <rc><c>Fe</c><c>   1</c></rc>
    <rc><c>Fe</c><c>   1</c></rc>
    <rc><c>Fe</c><c>   1</c></rc>
    <rc><c>Fe</c><c>   1</c></rc>
    <rc><c>Fe</c><c>   1</c></rc>
    <rc><c>Fe</c><c>   1</c></rc>
    <rc><c>Fe</c><c>   1</c></rc>
    <rc><c>Fe</c><c>   1</c></rc>
    <rc><c>Fe</c><c>   1</c></rc>
    <rc><c>Fe</c><c>   1</c></rc>
    <rc><c>Fe</c><c>   1</c></rc>
    <rc><c>Fe</c><c>   1</c></rc>
    <rc><c>Fe</c><c>   1</c></rc>
    <rc><c>Fe</c><c>   1</c></rc>
    <rc><c>Fe</c><c>   1</c></rc>
    <rc><c>Fe</c><c>   1</c></rc>
    <rc><c>Fe</c><c>   1</c></rc>
    <rc><c>Fe</c><c>   1</c></rc>
    <rc><c>Fe</c><c>   1</c></rc>
    <rc><c>Fe</c><c>   1</c></rc>
    <rc><c>Fe</c><c>   1</c></rc>
    <rc><c>Fe</c><c>   1</c></rc>
    <rc><c>Fe</c><c>   1</c></rc>
    <rc><c>Fe</c><c>   1</c></rc>
    <rc><c>Fe</c><c>   1</c></rc>
    <rc><c>Fe</c><c>   1</c></rc>
    <rc><c>Fe</c><c>   1</c></rc>
    <rc><c>Fe</c><c>   1</c></rc>
    <rc><c>Fe</c><c>   1</c></rc>
    <rc><c>Fe</c><c>   1</c></rc>
    <rc><c>Fe</c><c>   1</c></rc>
    <rc><c>Fe</c><c>   1</c></rc>
    <rc><c>Fe</c><c>   1</c></rc>
    <rc><c>Fe</c><c>   1</c></rc>
    <rc><c>Fe</c><c>   1</c></rc>
    <rc><c>Fe</c><c>   1</c></rc>
    <rc><c>Fe</c><c>   1</c></rc>
    <rc><c>Fe</c><c>   1</c></rc>
    <rc><c>Fe</c><c>   1</c></rc>
    <rc><c>Fe</c><c>   1</c></rc>
    <rc><c>Fe</c><c>   1</c></rc>
    <rc><c>Fe</c><c>   1</c></rc>
    <rc><c>Fe</c><c>   1</c></rc>
    <rc><c>Fe</c><c>   1</c></rc>
    <rc><c>Fe</c><c>   1</c></rc>
    <rc><c>Fe</c><c>   1</c></rc>
    <rc><c>Fe</c><c>   1</c></rc>
    <rc><c>Fe</c><c>   1</c></rc>
    <rc><c>Fe</c><c>   1</c></rc>
    <rc><c>Fe</c><c>   1</c></rc>
    <rc><c>Fe</c><c>   1</c></rc>
    <rc><c>Fe</c><c>   1</c></rc>
    <rc><c>Fe</c><c>   1</c></rc>
    <rc><c>Fe</c><c>   1</c></rc>
    <rc><c>Fe</c><c>   1</c></rc>
    <rc><c>Fe</c><c>   1</c></rc>
    <rc><c>Fe</c><c>   1</c></rc>
    <rc><c>Fe</c><c>   1</c></rc>
    <rc><c>Fe</c><c>   1</c></rc>
    <rc><c>Fe</c><c>   1</c></rc>
    <rc><c>Fe</c><c>   1</c></rc>
    <rc><c>Fe</c><c>   1</c></rc>
    <rc><c>Fe</c><c>   1</c></rc>
    <rc><c>Fe</c><c>   1</c></rc>
    <rc><c>Fe</c><c>   1</c></rc>
    <rc><c>Fe</c><c>   1</c></rc>
    <rc><c>Fe</c><c>   1</c></rc>
    <rc><c>Fe</c><c>   1</c></rc>
    <rc><c>Fe</c><c>   1</c></rc>
    <rc><c>Fe</c><c>   1</c></rc>
    <rc><c>Fe</c><c>   1</c></rc>
    <rc><c>Fe</c><c>   1</c></rc>
    <rc><c>Fe</c><c>   1</c></rc>
    <rc><c>Fe</c><c>   1</c></rc>
    <rc><c>Fe</c><c>   1</c></rc>
    <rc><c>Fe</c><c>   1</c></rc>
    <rc><c>Fe</c><c>   1</c></rc>
    <rc><c>Fe</c><c>   1</c></rc>
    <rc><c>Fe</c><c>   1</c></rc>
    <rc><c>Fe</c><c>   1</c></rc>
    <rc><c>Fe</c><c>   1</c></rc>
    <rc><c>Fe</c><c>   1</c></rc>
    <rc><c>Fe</c><c>   1</c></rc>
    <rc><c>Fe</c><c>   1</c></rc>
    <rc><c>Fe</c><c>   1</c></rc>
    <rc><c>Fe</c><c>   1</c></rc>
    <rc><c>Fe</c><c>   1</c></rc>
    <rc><c>Fe</c><c>   1</c></rc>
    <rc><c>Fe</c><c>   1</c></rc>
    <rc><c>Fe</c><c>   1</c></rc>
    <rc><c>Fe</c><c>   1</c></rc>
    <rc><c>Fe</c><c>   1</c></rc>
    <rc><c>Fe</c><c>   1</c></rc>
    <rc><c>Fe</c><c>   1</c></rc>
    <rc><c>Fe</c><c>   1</c></rc>
    <rc><c>Fe</c><c>   1</c></rc>
    <rc><c>Fe</c><c>   1</c></rc>
    <rc><c>Fe</c><c>   1</c></rc>
    <rc><c>Fe</c><c>   1</c></rc>
    <rc><c>Fe</c><c>   1</c></rc>
    <rc><c>Fe</c><c>   1</c></rc>
    <rc><c>Fe</c><c>   1</c></rc>
    <rc><c>Fe</c><c>   1</c></rc>
    <rc><c>Fe</c><c>   1</c></rc>
    <rc><c>Fe</c><c>   1</c></rc>
    <rc><c>Fe</c><c>   1</c></rc>
    <rc><c>Fe</c><c>   1</c></rc>
    <rc><c>Fe</c><c>   1</c></rc>
    <rc><c>Fe</c><c>   1</c></rc>
    <rc><c>Fe</c><c>   1</c></rc>
    <rc><c>Fe</c><c>   1</c></rc>
    <rc><c>Fe</c><c>   1</c></rc>
    <rc><c>Fe</c><c>   1</c></rc>
    <rc><c>Fe</c><c>   1</c></rc>
    <rc><c>Fe</c><c>   1</c></rc>
    <rc><c>Fe</c><c>   1</c></rc>
    <rc><c>Fe</c><c>   1</c></rc>
    <rc><c>Fe</c><c>   1</c></rc>
    <rc><c>Fe</c><c>   1</c></rc>
    <rc><c>Fe</c><c>   1</c></rc>
    <rc><c>Fe</c><c>   1</c></rc>
    <rc><c>Fe</c><c>   1</c></rc>
    <rc><c>Fe</c><c>   1</c></rc>
    <rc><c>Fe</c><c>   1</c></rc>
    <rc><c>Fe</c><c>   1</c></rc>
    <rc><c>Fe</c><c>   1</c></rc>
    <rc><c>Fe</c><c>   1</c></rc>
    <rc><c>Fe</c><c>   1</c></rc>
    <rc><c>Fe</c><c>   1</c></rc>
    <rc><c>Fe</c><c>   1</c></rc>
    <rc><c>Fe</c><c>   1</c></rc>
    <rc><c>Fe</c><c>   1</c></rc>
    <rc><c>Fe</c><c>   1</c></rc>
    <rc><c>Fe</c><c>   1</c></rc>
    <rc><c>Fe</c><c>   1</c></rc>
    <rc><c>Fe</c><c>   1</c></rc>
    <rc><c>Fe</c><c>   1</c></rc>
    <rc><c>Fe</c><c>   1</c></rc>
    <rc><c>Fe</c><c>   1</c></rc>
    <rc><c>Fe</c><c>   1</c></rc>
    <rc><c>Fe</c><c>   1</c></rc>
    <rc><c>Fe</c><c>   1</c></rc>
    <rc><c>Fe</c><c>   1</c></rc>
    <rc><c>Fe</c><c>   1</c></rc>
    <rc><c>Fe</c><c>   1</c></rc>
    <rc><c>Fe</c><c>   1</c></rc>
    <rc><c>Fe</c><c>   1</c></rc>
    <rc><c>Fe</c><c>   1</c></rc>
    <rc><c>Fe</c><c>   1</c></rc>
    <rc><c>Fe</c><c>   1</c></rc>
    <rc><c>Fe</c><c>   1</c></rc>
    <rc><c>Fe</c><c>   1</c></rc>
    <rc><c>Fe</c><c>   1</c></rc>
    <rc><c>Fe</c><c>   1</c></rc>
    <rc><c>Fe</c><c>   1</c></rc>
    <rc><c>Fe</c><c>   1</c></rc>
    <rc><c>Fe</c><c>   1</c></rc>
    <rc><c>Fe</c><c>   1</c></rc>
    <rc><c>Fe</c><c>   1</c></rc>
    <rc><c>Mn</c><c>   2</c></rc>
    <rc><c>Mn</c><c>   2</c></rc>
    <rc><c>Mn</c><c>   2</c></rc>
    <rc><c>Mn</c><c>   2</c></rc>
    <rc><c>Mn</c><c>   2</c></rc>
    <rc><c>Mn</c><c>   2</c></rc>
    <rc><c>Mn</c><c>   2</c></rc>
    <rc><c>Mn</c><c>   2</c></rc>
    <rc><c>Mn</c><c>   2</c></rc>
    <rc><c>Mn</c><c>   2</c></rc>
    <rc><c>Mn</c><c>   2</c></rc>
    <rc><c>Mn</c><c>   2</c></rc>
    <rc><c>Mn</c><c>   2</c></rc>
    <rc><c>Mn</c><c>   2</c></rc>
    <rc><c>Mn</c><c>   2</c></rc>
   </set>
  </array>
  <array name="atomtypes" >
   <dimension dim="1">type</dimension>
   <field type="int">atomspertype</field>
   <field type="string">element</field>
   <field>mass</field>
   <field>valence</field>
   <field type="string">pseudopotential</field>
   <set>
    <rc><c> 273</c><c>Fe</c><c>     55.84700000</c><c>      8.00000000</c><c>  PAW_PBE Fe_GW 31Mar2010               </c></rc>
    <rc><c>  15</c><c>Mn</c><c>     54.93800000</c><c>      7.00000000</c><c>  PAW_PBE Mn_GW 31Mar2010               </c></rc>
   </set>
  </array>
 </atominfo>
 <structure name="initialpos" >
  <crystal>
   <varray name="basis" >
    <v>       9.72667800       0.00000000       0.00000000 </v>
    <v>       0.00000000       8.42355000       0.00000000 </v>
    <v>       0.00000000       0.00000000      45.00000000 </v>
   </varray>
   <i name="volume">   3686.99213101 </i>
   <varray name="rec_basis" >
    <v>       0.10281002       0.00000000       0.00000000 </v>
    <v>       0.00000000       0.11871479       0.00000000 </v>
    <v>       0.00000000       0.00000000       0.02222222 </v>
   </varray>
  </crystal>
  <varray name="positions" >
   <v>       0.93775111       0.95039789       0.21397879 </v>
   <v>       0.18756821       0.28398907       0.25793337 </v>
   <v>       0.31256561       0.53234599       0.12695132 </v>
   <v>       0.06253877       0.70637319       0.56503866 </v>
   <v>       0.43774028       0.78728853       0.39038544 </v>
   <v>       0.93773383       0.79357288       0.74216093 </v>
   <v>       0.81224379       0.20272521       0.34653261 </v>
   <v>       0.68763557       0.12144233       0.43494960 </v>
   <v>       0.56253446       0.37270462       0.52131503 </v>
   <v>       0.93761980       0.12749680       0.78610627 </v>
   <v>       0.68764412       0.95542594       0.47862678 </v>
   <v>       0.68754036       0.45962039       0.69797016 </v>
   <v>       0.68758841       0.95231359       0.34644762 </v>
   <v>       0.81288296       0.54074815       0.60968379 </v>
   <v>       0.43739752       0.28258203       0.12697079 </v>
   <v>       0.68723954       0.62124661       0.43502077 </v>
   <v>       0.56262335       0.03213534       0.12701540 </v>
   <v>       0.56265366       0.86667064       0.16891886 </v>
   <v>       0.18728451       0.12820372       0.78611422 </v>
   <v>       0.31223675       0.53668266       0.39038575 </v>
   <v>       0.81232463       0.37758033       0.78621232 </v>
   <v>       0.18737032       0.78439763       0.25781846 </v>
   <v>       0.56152568       0.21158493       0.83127213 </v>
   <v>       0.31249105       0.37554054       0.65362823 </v>
   <v>       0.18738438       0.95012570       0.21388516 </v>
   <v>       0.18762015       0.61561976       0.16902261 </v>
   <v>       0.18749921       0.11823165       0.30204523 </v>
   <v>       0.43747669       0.62500698       0.65347767 </v>
   <v>       0.18740844       0.79511502       0.87310354 </v>
   <v>       0.81220688       0.87525210       0.65357674 </v>
   <v>       0.06202802       0.71238590       0.83089706 </v>
   <v>       0.93752789       0.28717675       0.39037470 </v>
   <v>       0.06262985       0.53180965       0.12703267 </v>
   <v>       0.31285725       0.20644538       0.56501387 </v>
   <v>       0.43747377       0.45662191       0.56509205 </v>
   <v>       0.68743816       0.79114159       0.60965663 </v>
   <v>       0.68744318       0.46104835       0.83104871 </v>
   <v>       0.93744867       0.45545975       0.47863585 </v>
   <v>       0.56254610       0.37537310       0.65346885 </v>
   <v>       0.81238085       0.54561172       0.87308711 </v>
   <v>       0.68763566       0.62749082       0.78610556 </v>
   <v>       0.68727139       0.29389799       0.74216350 </v>
   <v>       0.68759963       0.12260204       0.52128837 </v>
   <v>       0.06251345       0.53393235       0.25786598 </v>
   <v>       0.31268879       0.87497142       0.65351663 </v>
   <v>       0.68725761       0.11810235       0.30202879 </v>
   <v>       0.56243664       0.54401862       0.74209615 </v>
   <v>       0.06255755       0.03403593       0.25794622 </v>
   <v>       0.56253267       0.54513853       0.87311279 </v>
   <v>       0.56233347       0.87143603       0.43501281 </v>
   <v>       0.93743176       0.45687349       0.56491538 </v>
   <v>       0.93745711       0.62780051       0.78611249 </v>
   <v>       0.18747881       0.28697385       0.39034820 </v>
   <v>       0.18811323       0.78287960       0.12706862 </v>
   <v>       0.43753522       0.12516515       0.65353813 </v>
   <v>       0.18753815       0.45005262       0.21390883 </v>
   <v>       0.81239234       0.70958332       0.69793475 </v>
   <v>       0.68746690       0.28385958       0.25789996 </v>
   <v>       0.81234859       0.36836979       0.30198829 </v>
   <v>       0.56249817       0.70541975       0.47876818 </v>
   <v>       0.81233330       0.87232221       0.52125926 </v>
   <v>       0.93754880       0.45010755       0.21382313 </v>
   <v>       0.56261761       0.86805219       0.30194950 </v>
   <v>       0.56257629       0.37157231       0.43495648 </v>
   <v>       0.31225484       0.20973700       0.69797958 </v>
   <v>       0.06226931       0.87740196       0.78601167 </v>
   <v>       0.68759219       0.12728694       0.78609476 </v>
   <v>       0.06282266       0.03672386       0.39033164 </v>
   <v>       0.68712593       0.95064698       0.21393765 </v>
   <v>       0.43756980       0.61579350       0.16896825 </v>
   <v>       0.43743408       0.78405952       0.25789026 </v>
   <v>       0.06244351       0.70938570       0.69794354 </v>
   <v>       0.56231475       0.20199953       0.34649958 </v>
   <v>       0.18734588       0.12524774       0.65354699 </v>
   <v>       0.18754122       0.45962214       0.69801536 </v>
   <v>       0.81265039       0.87757743       0.78614741 </v>
   <v>       0.93721079       0.78278195       0.12685659 </v>
   <v>       0.31293399       0.04078341       0.60969121 </v>
   <v>       0.93715042       0.62166876       0.43491734 </v>
   <v>       0.18749494       0.29084189       0.60973130 </v>
   <v>       0.68783931       0.61605134       0.16902866 </v>
   <v>       0.93749488       0.78673754       0.39025144 </v>
   <v>       0.68767888       0.45682996       0.56503676 </v>
   <v>       0.18756338       0.46218931       0.83099285 </v>
   <v>       0.93700938       0.46157319       0.83101975 </v>
   <v>       0.56242768       0.04431893       0.74202490 </v>
   <v>       0.18787287       0.62503633       0.65362144 </v>
   <v>       0.93772472       0.79516714       0.87295473 </v>
   <v>       0.81222635       0.71140552       0.83094710 </v>
   <v>       0.43736149       0.61830748       0.30208391 </v>
   <v>       0.31234674       0.53412428       0.25790375 </v>
   <v>       0.18777436       0.29372657       0.74213450 </v>
   <v>       0.56266383       0.70269915       0.34656215 </v>
   <v>       0.68769080       0.28690920       0.39033152 </v>
   <v>       0.43755859       0.45546685       0.47865648 </v>
   <v>       0.56255207       0.20031706       0.21390965 </v>
   <v>       0.93738661       0.78413727       0.25796296 </v>
   <v>       0.81276209       0.86822141       0.30192915 </v>
   <v>       0.56253529       0.20665852       0.56503441 </v>
   <v>       0.06256019       0.54347946       0.74210554 </v>
   <v>       0.93756636       0.11520063       0.16903731 </v>
   <v>       0.81261854       0.70550523       0.47865948 </v>
   <v>       0.18608561       0.29566716       0.87304582 </v>
   <v>       0.06274049       0.37530623       0.65357819 </v>
   <v>       0.81253176       0.37542885       0.65361048 </v>
   <v>       0.56223742       0.36621800       0.16901842 </v>
   <v>       0.81258257       0.37164454       0.43500025 </v>
   <v>       0.06231327       0.86633112       0.16900903 </v>
   <v>       0.81275025       0.20969664       0.69806816 </v>
   <v>       0.18764294       0.45552850       0.47859677 </v>
   <v>       0.31260625       0.03247205       0.12700740 </v>
   <v>       0.31225520       0.54058444       0.60969876 </v>
   <v>       0.56287708       0.37743936       0.78609133 </v>
   <v>       0.68772610       0.96159069       0.83099557 </v>
   <v>       0.18808762       0.95634278       0.56497080 </v>
   <v>       0.43735770       0.28648807       0.39024608 </v>
   <v>       0.93734622       0.95546704       0.47864780 </v>
   <v>       0.18711570       0.62784432       0.78607700 </v>
   <v>       0.31271053       0.70019554       0.21385652 </v>
   <v>       0.18765860       0.11620359       0.16905843 </v>
   <v>       0.43746693       0.12271145       0.52129254 </v>
   <v>       0.43773105       0.28427493       0.25781848 </v>
   <v>       0.43767029       0.95983576       0.69792140 </v>
   <v>       0.81200872       0.04492508       0.87305103 </v>
   <v>       0.68741090       0.45535213       0.47869466 </v>
   <v>       0.06243829       0.03219569       0.12701531 </v>
   <v>       0.31248242       0.70682090       0.56505557 </v>
   <v>       0.81234921       0.37253689       0.52130729 </v>
   <v>       0.31239512       0.37139235       0.43498121 </v>
   <v>       0.43847146       0.29568612       0.87313129 </v>
   <v>       0.31265329       0.36849449       0.30198816 </v>
   <v>       0.81249157       0.04089582       0.60964026 </v>
   <v>       0.81263601       0.20010182       0.21382596 </v>
   <v>       0.43765718       0.79393034       0.87302004 </v>
   <v>       0.68757144       0.45259716       0.34641797 </v>
   <v>       0.68757903       0.45031767       0.21384890 </v>
   <v>       0.18724753       0.95241910       0.34647264 </v>
   <v>       0.81274396       0.03362014       0.25796024 </v>
   <v>       0.93723942       0.28358443       0.25784249 </v>
   <v>       0.93746128       0.29638569       0.87313641 </v>
   <v>       0.43720605       0.29353424       0.74214681 </v>
   <v>       0.31224255       0.21126770       0.83128453 </v>
   <v>       0.06249697       0.20920824       0.69805494 </v>
   <v>       0.93767209       0.79105165       0.60958559 </v>
   <v>       0.06244210       0.19995620       0.21384682 </v>
   <v>       0.43738133       0.11644781       0.16909473 </v>
   <v>       0.06175808       0.04553515       0.87314972 </v>
   <v>       0.56245479       0.03371491       0.25789740 </v>
   <v>       0.93733709       0.96154648       0.83107212 </v>
   <v>       0.68770238       0.29052122       0.60965668 </v>
   <v>       0.81246008       0.03181470       0.12684522 </v>
   <v>       0.18729036       0.95942400       0.69786126 </v>
   <v>       0.06240503       0.70222399       0.34645077 </v>
   <v>       0.06272513       0.53702625       0.39038725 </v>
   <v>       0.56263119       0.70036184       0.21382936 </v>
   <v>       0.81250474       0.70709369       0.56503067 </v>
   <v>       0.93771120       0.28294966       0.12710091 </v>
   <v>       0.93717743       0.95263275       0.34646862 </v>
   <v>       0.06316533       0.21177226       0.83115692 </v>
   <v>       0.06248711       0.86835953       0.30205893 </v>
   <v>       0.06270261       0.36797596       0.30191566 </v>
   <v>       0.81272268       0.70245407       0.34651628 </v>
   <v>       0.56283216       0.87732751       0.78609196 </v>
   <v>       0.18736660       0.12144513       0.43496218 </v>
   <v>       0.68718877       0.62527269       0.65347888 </v>
   <v>       0.68748276       0.11553955       0.16897277 </v>
   <v>       0.81260325       0.36572787       0.16896980 </v>
   <v>       0.81285778       0.03713319       0.39030410 </v>
   <v>       0.43673507       0.96224469       0.83127830 </v>
   <v>       0.31268944       0.87236163       0.52128281 </v>
   <v>       0.31242489       0.86823277       0.30200316 </v>
   <v>       0.31270258       0.71287909       0.83112924 </v>
   <v>       0.56235409       0.36849012       0.30188301 </v>
   <v>       0.56246206       0.53174783       0.12700967 </v>
   <v>       0.56269402       0.71142451       0.83088276 </v>
   <v>       0.93749148       0.12277754       0.52132112 </v>
   <v>       0.31277221       0.70987876       0.69798478 </v>
   <v>       0.18768717       0.95554849       0.47862560 </v>
   <v>       0.56253457       0.20545692       0.47863041 </v>
   <v>       0.93708881       0.29083973       0.60973731 </v>
   <v>       0.81259736       0.04403283       0.74216670 </v>
   <v>       0.06263130       0.87478900       0.65357354 </v>
   <v>       0.06247878       0.20272431       0.34648646 </v>
   <v>       0.93755125       0.61801736       0.30202817 </v>
   <v>       0.18787639       0.62250202       0.52129938 </v>
   <v>       0.93779356       0.29355754       0.74213321 </v>
   <v>       0.93755562       0.45950355       0.69795971 </v>
   <v>       0.43782261       0.46218433       0.83103726 </v>
   <v>       0.43743796       0.62244648       0.52133258 </v>
   <v>       0.31288329       0.20254156       0.34651238 </v>
   <v>       0.43756376       0.45245973       0.34648353 </v>
   <v>       0.43733339       0.45025607       0.21391080 </v>
   <v>       0.68769792       0.29625774       0.87316017 </v>
   <v>       0.31248217       0.04410030       0.74213885 </v>
   <v>       0.43766093       0.11798456       0.30198466 </v>
   <v>       0.68757738       0.95642549       0.56484036 </v>
   <v>       0.31204898       0.70255437       0.34655988 </v>
   <v>       0.68764490       0.62242591       0.52133761 </v>
   <v>       0.81256126       0.53257880       0.12699997 </v>
   <v>       0.68723996       0.78686993       0.39035309 </v>
   <v>       0.68795663       0.78273150       0.12683040 </v>
   <v>       0.43771963       0.95042312       0.21385171 </v>
   <v>       0.06286487       0.36615019       0.16901310 </v>
   <v>       0.06234467       0.04053101       0.60962078 </v>
   <v>       0.31246217       0.54379055       0.74212560 </v>
   <v>       0.31236855       0.36607733       0.16897777 </v>
   <v>       0.43774007       0.62787937       0.78605843 </v>
   <v>       0.93753234       0.11850257       0.30205523 </v>
   <v>       0.81226848       0.69982005       0.21394642 </v>
   <v>       0.81251734       0.54378921       0.74206568 </v>
   <v>       0.43731222       0.79393060       0.74204926 </v>
   <v>       0.56251067       0.20986008       0.69794692 </v>
   <v>       0.68777256       0.78383969       0.25783048 </v>
   <v>       0.06242898       0.87149340       0.43521280 </v>
   <v>       0.43684597       0.78283646       0.12703925 </v>
   <v>       0.18740187       0.61813065       0.30200935 </v>
   <v>       0.06195777       0.54515356       0.87300669 </v>
   <v>       0.31245075       0.03693912       0.39035427 </v>
   <v>       0.56255580       0.87276929       0.52131423 </v>
   <v>       0.43719376       0.12138809       0.43499501 </v>
   <v>       0.06247145       0.20531551       0.47871647 </v>
   <v>       0.56251514       0.54097506       0.60961639 </v>
   <v>       0.31273815       0.87771680       0.78604880 </v>
   <v>       0.81248141       0.20542517       0.47869446 </v>
   <v>       0.18753650       0.45661172       0.56493277 </v>
   <v>       0.93737842       0.12155382       0.43482616 </v>
   <v>       0.31230693       0.37831326       0.78602566 </v>
   <v>       0.06255180       0.70512639       0.47875530 </v>
   <v>       0.31283103       0.87130264       0.43483755 </v>
   <v>       0.68768459       0.61823261       0.30204292 </v>
   <v>       0.81236258       0.87144637       0.43480859 </v>
   <v>       0.06245155       0.04412334       0.74209366 </v>
   <v>       0.56354919       0.04561906       0.87307173 </v>
   <v>       0.43780878       0.62119636       0.43508117 </v>
   <v>       0.93759638       0.62504596       0.65357383 </v>
   <v>       0.56240487       0.70957742       0.69800626 </v>
   <v>       0.43735632       0.29072159       0.60961733 </v>
   <v>       0.81258658       0.53378046       0.25792539 </v>
   <v>       0.06242517       0.37177833       0.43497233 </v>
   <v>       0.06246352       0.37261999       0.52133238 </v>
   <v>       0.31256659       0.20557633       0.47866421 </v>
   <v>       0.56251359       0.53696982       0.39031992 </v>
   <v>       0.93703854       0.95648715       0.56502425 </v>
   <v>       0.68780534       0.95964531       0.69785970 </v>
   <v>       0.56257464       0.70682812       0.56504443 </v>
   <v>       0.18785964       0.28274823       0.12701273 </v>
   <v>       0.93734723       0.45227376       0.34638241 </v>
   <v>       0.93725043       0.95939170       0.69796179 </v>
   <v>       0.43744728       0.79126944       0.60961338 </v>
   <v>       0.31244252       0.20013634       0.21372821 </v>
   <v>       0.31272876       0.37258268       0.52129952 </v>
   <v>       0.68715435       0.28287977       0.12705969 </v>
   <v>       0.93714332       0.61594145       0.16898390 </v>
   <v>       0.43736084       0.45984126       0.69784012 </v>
   <v>       0.81248040       0.21175978       0.83108383 </v>
   <v>       0.31282342       0.54519444       0.87299815 </v>
   <v>       0.56265597       0.87514095       0.65347948 </v>
   <v>       0.18763289       0.78671637       0.39021037 </v>
   <v>       0.68739792       0.79496483       0.87296469 </v>
   <v>       0.18736726       0.79080062       0.60961720 </v>
   <v>       0.93707110       0.62247059       0.52134154 </v>
   <v>       0.68740660       0.12553190       0.65349293 </v>
   <v>       0.43732508       0.95558633       0.47863501 </v>
   <v>       0.06248339       0.70036088       0.21385652 </v>
   <v>       0.81224565       0.20652721       0.56501433 </v>
   <v>       0.43726322       0.95649010       0.56492720 </v>
   <v>       0.31234416       0.70551454       0.47866374 </v>
   <v>       0.18749557       0.79394877       0.74203794 </v>
   <v>       0.31227933       0.03413015       0.25788029 </v>
   <v>       0.31265338       0.86589885       0.16900473 </v>
   <v>       0.18765130       0.62138313       0.43483563 </v>
   <v>       0.18745452       0.12291311       0.52133325 </v>
   <v>       0.06272468       0.37834259       0.78624205 </v>
   <v>       0.56245633       0.03719513       0.39034369 </v>
   <v>       0.18800386       0.96238118       0.83159433 </v>
   <v>       0.81243569       0.86601227       0.16838451 </v>
   <v>       0.18730125       0.45240924       0.34648686 </v>
   <v>       0.06237514       0.54037659       0.60977072 </v>
   <v>       0.56230579       0.04079566       0.60974723 </v>
   <v>       0.31266596       0.04506662       0.87306984 </v>
   <v>       0.06244375       0.87282975       0.52125980 </v>
   <v>       0.81276479       0.53694431       0.39028742 </v>
   <v>       0.56249263       0.53398322       0.25781532 </v>
   <v>       0.68743713       0.79357070       0.74217864 </v>
   <v>       0.43701314       0.12720032       0.78592040 </v>
   <v>       0.06252943       0.20674536       0.56512710 </v>
   <v>       0.43731206       0.95226834       0.34631991 </v>
   <v>       0.93771442       0.12520698       0.65353434 </v>
  </varray>
 </structure>
 <calculation>
  <scstep>
   <time name="dav">  147.02  147.01</time>
   <time name="total">  147.46  147.46</time>
   <energy>
    <i name="alphaZ">  16277.55763135 </i>
    <i name="ewald"> 774212.41994594 </i>
    <i name="hartreedc">-964438.19530439 </i>
    <i name="XCdc">  -6523.97609130 </i>
    <i name="pawpsdc"> 162148.49262465 </i>
    <i name="pawaedc">-159453.03229289 </i>
    <i name="eentropy">     -0.97509316 </i>
    <i name="bandstr">  39728.52753017 </i>
    <i name="atom"> 168497.18126305 </i>
    <i name="e_fr_energy">  30448.00021343 </i>
    <i name="e_wo_entrp">  30448.97530658 </i>
    <i name="e_0_energy">  30448.48776000 </i>
   </energy>
  </scstep>
  <scstep>
   <time name="dav">  139.63  139.63</time>
   <time name="total">  139.63  139.63</time>
   <energy>
    <i name="e_fr_energy">   1536.03952917 </i>
    <i name="e_wo_entrp">   1537.41169411 </i>
    <i name="e_0_energy">   1536.72561164 </i>
   </energy>
  </scstep>
  <scstep>
   <time name="dav">  174.57  174.57</time>
   <time name="total">  174.58  174.57</time>
   <energy>
    <i name="e_fr_energy">  -1895.35331998 </i>
    <i name="e_wo_entrp">  -1891.84157572 </i>
    <i name="e_0_energy">  -1893.59744785 </i>
   </energy>
  </scstep>
  <scstep>
   <time name="dav">  216.48  216.48</time>
   <time name="total">  216.49  216.48</time>
   <energy>
    <i name="e_fr_energy">  -2609.13695513 </i>
    <i name="e_wo_entrp">  -2605.70052699 </i>
    <i name="e_0_energy">  -2607.41874106 </i>
   </energy>
  </scstep>
  <scstep>
   <time name="dav">  206.57  206.57</time>
   <time name="total">  211.21  211.21</time>
   <energy>
    <i name="e_fr_energy">  -2739.15302086 </i>
    <i name="e_wo_entrp">  -2735.64261569 </i>
    <i name="e_0_energy">  -2737.39781827 </i>
   </energy>
  </scstep>
  <scstep>
   <time name="diag">   30.96   30.96</time>
   <time name="diis">   74.82   74.82</time>
   <time name="orth">    8.71    8.71</time>
   <time name="total">  119.65  119.65</time>
   <energy>
    <i name="e_fr_energy">  -6778.60447695 </i>
    <i name="e_wo_entrp">  -6775.12697560 </i>
    <i name="e_0_energy">  -6776.86572627 </i>
   </energy>
  </scstep>
  <scstep>
   <time name="diag">   30.37   30.37</time>
   <time name="diis">   77.24   77.24</time>
   <time name="orth">    8.78    8.78</time>
   <time name="total">  121.23  121.23</time>
   <energy>
    <i name="e_fr_energy">  -6834.21909865 </i>
    <i name="e_wo_entrp">  -6829.95014023 </i>
    <i name="e_0_energy">  -6832.08461944 </i>
   </energy>
  </scstep>
  <scstep>
[...]
    <v>       0.31222424       0.03436081       0.25789902 </v>
    <v>       0.31254489       0.86638636       0.16904535 </v>
    <v>       0.18767198       0.62107828       0.43479927 </v>
    <v>       0.18763757       0.12304879       0.52133746 </v>
    <v>       0.06250990       0.37801891       0.78628996 </v>
    <v>       0.56254443       0.03738483       0.39027945 </v>
    <v>       0.18811620       0.96192864       0.83158488 </v>
    <v>       0.81262144       0.86652562       0.16841956 </v>
    <v>       0.18730734       0.45250828       0.34645018 </v>
    <v>       0.06246316       0.54050950       0.60983137 </v>
    <v>       0.56228886       0.04088192       0.60978947 </v>
    <v>       0.31237392       0.04412066       0.87325389 </v>
    <v>       0.06253821       0.87291459       0.52122599 </v>
    <v>       0.81270552       0.53716948       0.39019840 </v>
    <v>       0.56249930       0.53424737       0.25787969 </v>
    <v>       0.68758260       0.79346901       0.74213323 </v>
    <v>       0.43709605       0.12719397       0.78604856 </v>
    <v>       0.06255429       0.20695430       0.56512820 </v>
    <v>       0.43734921       0.95233247       0.34632048 </v>
    <v>       0.93761461       0.12537037       0.65352471 </v>
   </varray>
  </structure>
  <varray name="forces" >
   <v>      -0.00857715       0.00226937      -0.00029720 </v>
   <v>       0.00059714      -0.00198776       0.00751674 </v>
   <v>       0.01031803      -0.00820269       0.01815368 </v>
   <v>       0.00099847       0.00247648      -0.00666825 </v>
   <v>      -0.00233078      -0.00599822       0.00533839 </v>
   <v>      -0.00270745      -0.00442977      -0.01309281 </v>
   <v>      -0.00107370      -0.00191169      -0.00853747 </v>
   <v>      -0.00157929       0.00320714       0.00599666 </v>
   <v>      -0.00652327       0.01578321       0.01397835 </v>
   <v>      -0.00169768      -0.00372801       0.01035232 </v>
   <v>      -0.00067517       0.00209949      -0.00187581 </v>
   <v>      -0.00209167      -0.00354907       0.01013873 </v>
   <v>      -0.00140653      -0.00391193      -0.00991746 </v>
   <v>       0.00896821      -0.00428550      -0.00642888 </v>
   <v>       0.00495381       0.01304258       0.00480358 </v>
   <v>      -0.00280502      -0.00001648       0.01060463 </v>
   <v>       0.00691301      -0.00475014       0.00548163 </v>
   <v>       0.00735132      -0.00856588      -0.01760871 </v>
   <v>       0.00702473      -0.00573676       0.00953846 </v>
   <v>       0.00420817      -0.00101143       0.01149624 </v>
   <v>      -0.00558185      -0.01082607       0.01950997 </v>
   <v>      -0.00399046       0.00567826       0.01302969 </v>
   <v>      -0.00118039       0.00623464       0.00604009 </v>
   <v>       0.00135079      -0.00116161       0.00526513 </v>
   <v>      -0.00308992       0.00138390      -0.00359587 </v>
   <v>       0.00301708       0.00241910      -0.01828439 </v>
   <v>      -0.00263086      -0.00391193      -0.00978222 </v>
   <v>      -0.00149860       0.00381401       0.00363076 </v>
   <v>      -0.00988625      -0.00561540      -0.00083961 </v>
   <v>      -0.00013363      -0.00473559       0.00648154 </v>
   <v>      -0.00391213      -0.00882722       0.00564492 </v>
   <v>      -0.00555128      -0.00469539       0.00446975 </v>
   <v>       0.00182218       0.00612100       0.00741684 </v>
   <v>       0.00379627       0.00616287      -0.00051611 </v>
   <v>      -0.00064479      -0.00229387      -0.00521871 </v>
   <v>       0.00342626      -0.01247854      -0.01192126 </v>
   <v>       0.00568264      -0.01121683       0.01384275 </v>
   <v>      -0.02237671      -0.00585917      -0.01019818 </v>
   <v>       0.00557028      -0.00563035       0.00479375 </v>
   <v>      -0.00483739      -0.00711424      -0.01565633 </v>
   <v>       0.00269752      -0.01790959       0.01379098 </v>
   <v>      -0.00380909      -0.00719848      -0.00718226 </v>
   <v>      -0.01977895      -0.02477873       0.01540499 </v>
   <v>      -0.00363938       0.00519561       0.00590371 </v>
   <v>       0.00039761       0.00351681       0.00799688 </v>
   <v>       0.00046836       0.00033495      -0.00809771 </v>
   <v>      -0.00932420      -0.00939201      -0.00996472 </v>
   <v>      -0.00168936       0.00206274       0.01056501 </v>
   <v>       0.00422161      -0.01536445      -0.01229346 </v>
   <v>      -0.00126707       0.00976865       0.00072434 </v>
   <v>      -0.00302665      -0.00205560      -0.00023482 </v>
   <v>      -0.00450905      -0.00925281       0.01220785 </v>
   <v>       0.00175232      -0.00161936       0.00364786 </v>
   <v>      -0.00219872      -0.00094257       0.01429870 </v>
   <v>       0.00099626      -0.00253016       0.00965815 </v>
   <v>       0.00207032       0.01463049      -0.00734984 </v>
   <v>       0.00490194       0.00255474       0.00174509 </v>
   <v>       0.00204602      -0.00434080       0.01674402 </v>
   <v>      -0.00322492       0.00521676      -0.01227216 </v>
   <v>       0.01279500      -0.03336733      -0.01512231 </v>
   <v>       0.01826817       0.00097189       0.00966942 </v>
   <v>      -0.00299884       0.01162470      -0.01083213 </v>
   <v>       0.00119441       0.00509596      -0.00526837 </v>
   <v>       0.00105328       0.00180976       0.00256453 </v>
   <v>       0.00116689      -0.00334585       0.01201508 </v>
   <v>       0.00031234      -0.00253924       0.00189746 </v>
   <v>      -0.01081175      -0.00289217       0.00389148 </v>
   <v>       0.00302794       0.00356343       0.00759027 </v>
   <v>      -0.00009754       0.00414983      -0.00300396 </v>
   <v>       0.00422592       0.00328016      -0.01932923 </v>
   <v>      -0.00320830       0.00518625       0.01226925 </v>
   <v>      -0.00251059      -0.00096679       0.01609315 </v>
   <v>       0.00159741       0.00493692      -0.01149143 </v>
   <v>      -0.00390306       0.00277698       0.00392765 </v>
   <v>      -0.00108885       0.00081696       0.01606458 </v>
   <v>       0.00414513       0.00551954       0.00669338 </v>
   <v>      -0.00750755      -0.00291901       0.00858120 </v>
   <v>       0.00249437       0.00314423      -0.00795740 </v>
   <v>      -0.00128944       0.00180879       0.00050499 </v>
   <v>      -0.00097005      -0.00892480      -0.00418307 </v>
   <v>      -0.00919679       0.00663897      -0.01212485 </v>
   <v>      -0.00191727      -0.00165876       0.00353681 </v>
   <v>      -0.00112049      -0.00060966      -0.00680223 </v>
   <v>      -0.00250749      -0.00934465       0.00746137 </v>
   <v>      -0.01213250      -0.00991076       0.01801957 </v>
   <v>      -0.00179276       0.01300776      -0.01055213 </v>
   <v>      -0.00289201       0.00007227       0.01580976 </v>
   <v>       0.00437050      -0.00968954      -0.00757697 </v>
   <v>       0.00031583      -0.01031634       0.00980678 </v>
   <v>       0.00021634       0.00330991      -0.00499401 </v>
   <v>       0.00013984       0.00525560       0.00295816 </v>
   <v>       0.00295520      -0.00937918      -0.01196803 </v>
   <v>      -0.00279992      -0.00584929      -0.00591016 </v>
   <v>      -0.00134563      -0.00042874       0.00580826 </v>
   <v>       0.01612108       0.01481454      -0.00443830 </v>
   <v>       0.00671842       0.01142140      -0.00984237 </v>
   <v>      -0.00095572       0.00299090       0.00790341 </v>
   <v>       0.00038796       0.00377376      -0.00872998 </v>
   <v>      -0.00313726       0.00199628      -0.00748510 </v>
   <v>       0.00259248      -0.00109071      -0.00597873 </v>
   <v>      -0.00977302       0.00552043      -0.00751026 </v>
   <v>       0.00097344       0.00122553      -0.01061508 </v>
   <v>      -0.00556312       0.00472299      -0.00628200 </v>
   <v>      -0.00369212       0.00312017       0.00752235 </v>
   <v>      -0.00212619       0.00658445       0.00188947 </v>
   <v>      -0.00022962       0.01859548      -0.01063119 </v>
   <v>       0.00238871       0.00237728       0.01051922 </v>
   <v>      -0.00806151      -0.00690008      -0.01221420 </v>
   <v>      -0.00001715      -0.00059564       0.01322363 </v>
   <v>       0.01411556      -0.01355440      -0.00824408 </v>
   <v>       0.00693485       0.00719321       0.00159159 </v>
   <v>      -0.00829761      -0.00036690      -0.01435391 </v>
   <v>       0.00457633      -0.01258889       0.01596201 </v>
   <v>      -0.00059955      -0.00100780       0.00719544 </v>
   <v>      -0.00011455      -0.00702399      -0.01312941 </v>
   <v>      -0.00131422       0.00247589       0.00498906 </v>
   <v>      -0.00006827      -0.01064913       0.01356382 </v>
   <v>      -0.00123005      -0.00996132       0.00878649 </v>
   <v>       0.00487796       0.00157384      -0.00757139 </v>
   <v>      -0.00126090       0.00311802      -0.00563074 </v>
   <v>       0.02589308      -0.01419160       0.01574094 </v>
   <v>       0.00596152      -0.00828613       0.00982352 </v>
   <v>      -0.00060270       0.00066708       0.01234977 </v>
   <v>       0.00076230      -0.00308495      -0.00050944 </v>
   <v>      -0.00463611       0.02426543      -0.00523898 </v>
   <v>      -0.00672728      -0.00151872      -0.00233074 </v>
   <v>       0.00086407      -0.00016423      -0.00145490 </v>
   <v>       0.00886288       0.01159247       0.00801349 </v>
   <v>      -0.00132484       0.00166655       0.01518087 </v>
   <v>       0.01007789       0.00384028       0.00303364 </v>
   <v>       0.00191541      -0.00035095      -0.00681876 </v>
   <v>      -0.00250612      -0.00116407      -0.01426671 </v>
   <v>      -0.00076144       0.00890099      -0.00017011 </v>
   <v>       0.01264005      -0.00785157       0.00058078 </v>
   <v>      -0.00307741      -0.00161789      -0.00726680 </v>
   <v>       0.00256535       0.00897108      -0.01567546 </v>
   <v>       0.00664847       0.00441773      -0.00324182 </v>
   <v>      -0.00101415       0.00406473       0.00633984 </v>
   <v>      -0.00655757       0.00307777       0.00869101 </v>
   <v>      -0.00418327       0.00170065      -0.01013427 </v>
   <v>      -0.00231130      -0.01285604      -0.00423440 </v>
   <v>       0.01786689       0.00196589       0.01394661 </v>
   <v>       0.00064565       0.00893666       0.01234185 </v>
   <v>      -0.00273260      -0.00243742      -0.01203863 </v>
   <v>      -0.00508596       0.00799685      -0.00427916 </v>
   <v>       0.00798524       0.00408321      -0.00765973 </v>
   <v>      -0.00915070      -0.00013600      -0.00802843 </v>
   <v>       0.00328903      -0.00201669       0.01590126 </v>
   <v>       0.00317531       0.00155603       0.01095034 </v>
   <v>       0.00387645       0.00101733      -0.01344802 </v>
   <v>      -0.00723549      -0.00420448      -0.00197381 </v>
   <v>       0.00182842       0.00231506       0.00762745 </v>
   <v>       0.00147465       0.00520318      -0.00828626 </v>
   <v>      -0.00262751       0.00492696       0.01150317 </v>
   <v>       0.00048264       0.00887191      -0.01540432 </v>
   <v>      -0.00201007      -0.00018141      -0.00590876 </v>
   <v>      -0.00713809       0.00720738      -0.00265788 </v>
   <v>      -0.00124864       0.00169609      -0.00917290 </v>
   <v>      -0.01167538      -0.00051239       0.01176019 </v>
   <v>      -0.00301403       0.00831370      -0.00399662 </v>
   <v>       0.00055213      -0.00069511      -0.01468178 </v>
   <v>      -0.00474744      -0.00072179      -0.01078815 </v>
   <v>      -0.00560318       0.00530977       0.00495692 </v>
   <v>       0.00739736       0.00230355       0.00059866 </v>
   <v>       0.00469741      -0.00005316       0.00313018 </v>
   <v>       0.00033698       0.00190826      -0.00758572 </v>
   <v>      -0.00339598       0.01751635      -0.00459818 </v>
   <v>      -0.00229328       0.00112245       0.00295732 </v>
   <v>      -0.00319213       0.00232435      -0.00135291 </v>
   <v>      -0.03009267      -0.00339957       0.02089406 </v>
   <v>       0.00136043       0.00430477      -0.00830403 </v>
   <v>       0.00070208      -0.00635068       0.00039347 </v>
   <v>      -0.00080062      -0.00283668      -0.00575970 </v>
   <v>      -0.00016728       0.00209790       0.00051046 </v>
   <v>       0.00027211      -0.01116840      -0.00007716 </v>
   <v>       0.01058043      -0.03051044       0.00456688 </v>
   <v>       0.00322071       0.00049826       0.01583382 </v>
   <v>      -0.00496653      -0.01635782       0.00194394 </v>
   <v>      -0.00268757      -0.00816893      -0.00930307 </v>
   <v>      -0.00096587      -0.00601997      -0.00063056 </v>
   <v>      -0.00454435       0.00852536      -0.01340017 </v>
   <v>       0.00098604      -0.00155823       0.00631066 </v>
   <v>       0.00415319      -0.00796415      -0.00339145 </v>
   <v>      -0.00812192       0.00034696      -0.01046935 </v>
   <v>      -0.00420761       0.01580943       0.01236565 </v>
   <v>       0.00268558      -0.00255147      -0.00770859 </v>
   <v>      -0.00236904       0.00012314       0.01301916 </v>
   <v>       0.01082713      -0.01721562       0.00788656 </v>
   <v>       0.02227682      -0.02490906       0.01044047 </v>
   <v>       0.00130507       0.00071101      -0.00531098 </v>
   <v>      -0.00255035      -0.00435922      -0.00282444 </v>
   <v>      -0.00298498       0.01006784      -0.01566083 </v>
   <v>      -0.00354549       0.00376654      -0.00741085 </v>
   <v>       0.00538743       0.00009560      -0.00893063 </v>
   <v>      -0.00031852      -0.00039315      -0.00588433 </v>
   <v>      -0.00460006       0.00050266      -0.01232838 </v>
   <v>       0.00721272       0.00062122      -0.00156904 </v>
   <v>      -0.01881473      -0.00987311      -0.00241694 </v>
   <v>      -0.00933166       0.00112473       0.00472053 </v>
   <v>       0.00097938      -0.00710192       0.00705710 </v>
   <v>       0.00153595      -0.00474763       0.00878160 </v>
   <v>       0.00848661       0.00127518      -0.01052191 </v>
   <v>      -0.00032825       0.01682343      -0.00797175 </v>
   <v>      -0.00284254      -0.00533190      -0.01024598 </v>
   <v>      -0.00033585      -0.00781222      -0.00863550 </v>
   <v>       0.00093702       0.01925368      -0.01960575 </v>
   <v>       0.00305451      -0.01230758       0.01288984 </v>
   <v>       0.00130641      -0.00303952      -0.00801448 </v>
   <v>      -0.00538693       0.00437774      -0.00745544 </v>
   <v>       0.00695360      -0.00217012      -0.00085044 </v>
   <v>      -0.00079747      -0.00233153      -0.00870656 </v>
   <v>       0.00152224      -0.00183224       0.01166962 </v>
   <v>       0.00913405       0.00962867       0.00411705 </v>
   <v>       0.00089725       0.00311024       0.00561987 </v>
   <v>       0.00968683      -0.00269031       0.01787652 </v>
   <v>       0.00503995       0.00099086      -0.01133299 </v>
   <v>      -0.00359409      -0.01047121      -0.00931240 </v>
   <v>       0.00321691       0.00606488       0.01096560 </v>
   <v>       0.01712949       0.02530437       0.02213418 </v>
   <v>      -0.00278281      -0.00314928       0.00582153 </v>
   <v>       0.00241119       0.00016499      -0.01206045 </v>
   <v>       0.00201798      -0.00370479      -0.01651096 </v>
   <v>       0.00036552      -0.00006334       0.00786971 </v>
   <v>       0.01396288       0.00867738      -0.02161734 </v>
   <v>       0.00317221       0.00167194      -0.00509943 </v>
   <v>      -0.00419248       0.00362046      -0.00275255 </v>
   <v>       0.00380086      -0.00860876       0.00860243 </v>
   <v>      -0.00205518       0.02450316       0.00177884 </v>
   <v>       0.00030583       0.00578982       0.00197831 </v>
   <v>       0.00095816       0.00008974      -0.00209293 </v>
   <v>      -0.00039312       0.00877925       0.00363239 </v>
   <v>       0.00263621       0.00038145      -0.00195434 </v>
   <v>       0.00447045      -0.00063268       0.00169613 </v>
   <v>       0.00121929       0.00226592       0.00398594 </v>
   <v>       0.00099205       0.00392038       0.01063154 </v>
   <v>      -0.00381302       0.00178310       0.00697068 </v>
   <v>      -0.00293789       0.00121694      -0.01693690 </v>
   <v>       0.00097468       0.00182973       0.00929421 </v>
   <v>       0.00169615       0.00374404      -0.00217783 </v>
   <v>       0.00868285       0.00434805       0.01330996 </v>
   <v>      -0.01377299       0.01543204      -0.02309193 </v>
   <v>       0.00205997       0.00167893       0.00231522 </v>
   <v>       0.00192487      -0.00409619      -0.01392673 </v>
   <v>       0.00049225       0.00785900       0.00500127 </v>
   <v>      -0.00138206       0.00019313      -0.00098180 </v>
   <v>       0.00814205       0.01325123       0.00337967 </v>
   <v>       0.00257270      -0.00328446      -0.00315408 </v>
   <v>      -0.00112934       0.00219274       0.00873305 </v>
   <v>       0.00059902      -0.00619791      -0.01449486 </v>
   <v>       0.00355714       0.01298671      -0.00493179 </v>
   <v>      -0.01005754      -0.00141989       0.01025694 </v>
   <v>      -0.00334181       0.01179488      -0.00525649 </v>
   <v>       0.00278851       0.00763493      -0.01459275 </v>
   <v>       0.00355405      -0.00024988       0.01756248 </v>
   <v>      -0.00116390      -0.00007533       0.01527600 </v>
   <v>      -0.00116571      -0.00630066       0.00303378 </v>
   <v>       0.00174981       0.00124810       0.00874078 </v>
   <v>       0.00357173      -0.00022010       0.00539755 </v>
   <v>      -0.00159752      -0.01111528       0.00041864 </v>
   <v>       0.00004933       0.00261609      -0.01145818 </v>
   <v>       0.00309301       0.01293975       0.01130705 </v>
   <v>       0.00357690      -0.00385598       0.00995764 </v>
   <v>       0.00522952       0.01086996      -0.02281727 </v>
   <v>       0.00068271       0.00689617      -0.01318066 </v>
   <v>       0.00328520       0.00589282       0.00715200 </v>
   <v>      -0.00249556       0.00306670      -0.00543924 </v>
   <v>      -0.01474058      -0.00273826      -0.01844607 </v>
   <v>       0.00089359      -0.00307392      -0.00581114 </v>
   <v>      -0.00134804       0.00404667       0.00778423 </v>
   <v>       0.00784343      -0.00555055      -0.01690318 </v>
   <v>       0.00061658       0.00078518       0.00097365 </v>
   <v>      -0.01693763      -0.01287043       0.00764969 </v>
   <v>       0.00253913      -0.00480559       0.01337624 </v>
   <v>      -0.00287584      -0.00437974       0.00705962 </v>
   <v>      -0.00448534      -0.00487603       0.00885260 </v>
   <v>      -0.00939009      -0.00131843      -0.01753839 </v>
   <v>       0.00340507       0.00047849      -0.00768190 </v>
   <v>      -0.00485488      -0.00000878      -0.00838832 </v>
   <v>      -0.00069878       0.00149132      -0.00623076 </v>
   <v>       0.00655836       0.00682867      -0.00861491 </v>
   <v>      -0.00647235      -0.00187550       0.00818326 </v>
   <v>      -0.00048613      -0.00527239       0.01042463 </v>
   <v>       0.00320771       0.00238745      -0.00706931 </v>
   <v>      -0.00290048      -0.00413338       0.00308658 </v>
   <v>       0.00012519      -0.00574125       0.00047795 </v>
   <v>      -0.00085402       0.00239829       0.00546836 </v>
   <v>      -0.00245122       0.00202862      -0.01651416 </v>
   <v>       0.00181548      -0.00254226       0.01518405 </v>
  </varray>
  <varray name="stress" >
   <v>      -1.28898493      -0.04851541      -0.02213197 </v>
   <v>      -0.04851472       0.97195750      -3.20991058 </v>
   <v>      -0.02213140      -3.20991106      -2.64184702 </v>
  </varray>
  <energy>
   <i name="e_fr_energy">  -2325.99041717 </i>
   <i name="e_wo_entrp">  -2323.23510768 </i>
   <i name="e_0_energy">     -5.51061897 </i>
  </energy>
  <time name="totalsc"> 2000.69 2000.67</time>
 </calculation>
