unknown system                          
            1
     9.726678    0.000000    0.000000
     0.000000    8.423550    0.000000
     0.000000    0.000000   45.000000
   Fe   Mn
 273  15
Direct configuration=     1
   0.93775111  0.95039789  0.21397879
   0.18756821  0.28398907  0.25793337
   0.31256561  0.53234599  0.12695132
   0.06253877  0.70637319  0.56503866
   0.43774028  0.78728853  0.39038544
   0.93773383  0.79357288  0.74216093
   0.81224379  0.20272521  0.34653261
   0.68763557  0.12144233  0.43494960
   0.56253446  0.37270462  0.52131503
   0.93761980  0.12749680  0.78610627
   0.68764412  0.95542594  0.47862678
   0.68754036  0.45962039  0.69797016
   0.68758841  0.95231359  0.34644762
   0.81288296  0.54074815  0.60968379
   0.43739752  0.28258203  0.12697079
   0.68723954  0.62124661  0.43502077
   0.56262335  0.03213534  0.12701540
   0.56265366  0.86667064  0.16891886
   0.18728451  0.12820372  0.78611422
   0.31223675  0.53668266  0.39038575
   0.81232463  0.37758033  0.78621232
   0.18737032  0.78439763  0.25781846
   0.56152568  0.21158493  0.83127213
   0.31249105  0.37554054  0.65362823
   0.18738438  0.95012570  0.21388516
   0.18762015  0.61561976  0.16902261
   0.18749921  0.11823165  0.30204523
   0.43747669  0.62500698  0.65347767
   0.18740844  0.79511502  0.87310354
   0.81220688  0.87525210  0.65357674
   0.06202802  0.71238590  0.83089706
   0.93752789  0.28717675  0.39037470
   0.06262985  0.53180965  0.12703267
   0.31285725  0.20644538  0.56501387
   0.43747377  0.45662191  0.56509205
   0.68743816  0.79114159  0.60965663
   0.68744318  0.46104835  0.83104871
   0.93744867  0.45545975  0.47863585
   0.56254610  0.37537310  0.65346885
   0.81238085  0.54561172  0.87308711
   0.68763566  0.62749082  0.78610556
   0.68727139  0.29389799  0.74216350
   0.68759963  0.12260204  0.52128837
   0.06251345  0.53393235  0.25786598
   0.31268879  0.87497142  0.65351663
   0.68725761  0.11810235  0.30202879
   0.56243664  0.54401862  0.74209615
   0.06255755  0.03403593  0.25794622
   0.56253267  0.54513853  0.87311279
   0.56233347  0.87143603  0.43501281
   0.93743176  0.45687349  0.56491538
   0.93745711  0.62780051  0.78611249
   0.18747881  0.28697385  0.39034820
   0.18811323  0.78287960  0.12706862
   0.43753522  0.12516515  0.65353813
   0.18753815  0.45005262  0.21390883
   0.81239234  0.70958332  0.69793475
   0.68746690  0.28385958  0.25789996
   0.81234859  0.36836979  0.30198829
   0.56249817  0.70541975  0.47876818
   0.81233330  0.87232221  0.52125926
   0.93754880  0.45010755  0.21382313
   0.56261761  0.86805219  0.30194950
   0.56257629  0.37157231  0.43495648
   0.31225484  0.20973700  0.69797958
   0.06226931  0.87740196  0.78601167
   0.68759219  0.12728694  0.78609476
   0.06282266  0.03672386  0.39033164
   0.68712593  0.95064698  0.21393765
   0.43756980  0.61579350  0.16896825
   0.43743408  0.78405952  0.25789026
   0.06244351  0.70938570  0.69794354
   0.56231475  0.20199953  0.34649958
   0.18734588  0.12524774  0.65354699
   0.18754122  0.45962214  0.69801536
   0.81265039  0.87757743  0.78614741
   0.93721079  0.78278195  0.12685659
   0.31293399  0.04078341  0.60969121
   0.93715042  0.62166876  0.43491734
   0.18749494  0.29084189  0.60973130
   0.68783931  0.61605134  0.16902866
   0.93749488  0.78673754  0.39025144
   0.68767888  0.45682996  0.56503676
   0.18756338  0.46218931  0.83099285
   0.93700938  0.46157319  0.83101975
   0.56242768  0.04431893  0.74202490
   0.18787287  0.62503633  0.65362144
   0.93772472  0.79516714  0.87295473
   0.81222635  0.71140552  0.83094710
   0.43736149  0.61830748  0.30208391
   0.31234674  0.53412428  0.25790375
   0.18777436  0.29372657  0.74213450
   0.56266383  0.70269915  0.34656215
   0.68769080  0.28690920  0.39033152
   0.43755859  0.45546685  0.47865648
   0.56255207  0.20031706  0.21390965
   0.93738661  0.78413727  0.25796296
   0.81276209  0.86822141  0.30192915
   0.56253529  0.20665852  0.56503441
   0.06256019  0.54347946  0.74210554
   0.93756636  0.11520063  0.16903731
   0.81261854  0.70550523  0.47865948
   0.18608561  0.29566716  0.87304582
   0.06274049  0.37530623  0.65357819
   0.81253176  0.37542885  0.65361048
   0.56223742  0.36621800  0.16901842
   0.81258257  0.37164454  0.43500025
   0.06231327  0.86633112  0.16900903
   0.81275025  0.20969664  0.69806816
   0.18764294  0.45552850  0.47859677
   0.31260625  0.03247205  0.12700740
   0.31225520  0.54058444  0.60969876
   0.56287708  0.37743936  0.78609133
   0.68772610  0.96159069  0.83099557
   0.18808762  0.95634278  0.56497080
   0.43735770  0.28648807  0.39024608
   0.93734622  0.95546704  0.47864780
   0.18711570  0.62784432  0.78607700
   0.31271053  0.70019554  0.21385652
   0.18765860  0.11620359  0.16905843
   0.43746693  0.12271145  0.52129254
   0.43773105  0.28427493  0.25781848
   0.43767029  0.95983576  0.69792140
   0.81200872  0.04492508  0.87305103
   0.68741090  0.45535213  0.47869466
   0.06243829  0.03219569  0.12701531
   0.31248242  0.70682090  0.56505557
   0.81234921  0.37253689  0.52130729
   0.31239512  0.37139235  0.43498121
   0.43847146  0.29568612  0.87313129
   0.31265329  0.36849449  0.30198816
   0.81249157  0.04089582  0.60964026
   0.81263601  0.20010182  0.21382596
   0.43765718  0.79393034  0.87302004
   0.68757144  0.45259716  0.34641797
   0.68757903  0.45031767  0.21384890
   0.18724753  0.95241910  0.34647264
   0.81274396  0.03362014  0.25796024
   0.93723942  0.28358443  0.25784249
   0.93746128  0.29638569  0.87313641
   0.43720605  0.29353424  0.74214681
   0.31224255  0.21126770  0.83128453
   0.06249697  0.20920824  0.69805494
   0.93767209  0.79105165  0.60958559
   0.06244210  0.19995620  0.21384682
   0.43738133  0.11644781  0.16909473
   0.06175808  0.04553515  0.87314972
   0.56245479  0.03371491  0.25789740
   0.93733709  0.96154648  0.83107212
   0.68770238  0.29052122  0.60965668
   0.81246008  0.03181470  0.12684522
   0.18729036  0.95942400  0.69786126
   0.06240503  0.70222399  0.34645077
   0.06272513  0.53702625  0.39038725
   0.56263119  0.70036184  0.21382936
   0.81250474  0.70709369  0.56503067
   0.93771120  0.28294966  0.12710091
   0.93717743  0.95263275  0.34646862
   0.06316533  0.21177226  0.83115692
   0.06248711  0.86835953  0.30205893
   0.06270261  0.36797596  0.30191566
   0.81272268  0.70245407  0.34651628
   0.56283216  0.87732751  0.78609196
   0.18736660  0.12144513  0.43496218
   0.68718877  0.62527269  0.65347888
   0.68748276  0.11553955  0.16897277
   0.81260325  0.36572787  0.16896980
   0.81285778  0.03713319  0.39030410
   0.43673507  0.96224469  0.83127830
   0.31268944  0.87236163  0.52128281
   0.31242489  0.86823277  0.30200316
   0.31270258  0.71287909  0.83112924
   0.56235409  0.36849012  0.30188301
   0.56246206  0.53174783  0.12700967
   0.56269402  0.71142451  0.83088276
   0.93749148  0.12277754  0.52132112
   0.31277221  0.70987876  0.69798478
   0.18768717  0.95554849  0.47862560
   0.56253457  0.20545692  0.47863041
   0.93708881  0.29083973  0.60973731
   0.81259736  0.04403283  0.74216670
   0.06263130  0.87478900  0.65357354
   0.06247878  0.20272431  0.34648646
   0.93755125  0.61801736  0.30202817
   0.18787639  0.62250202  0.52129938
   0.93779356  0.29355754  0.74213321
   0.93755562  0.45950355  0.69795971
   0.43782261  0.46218433  0.83103726
   0.43743796  0.62244648  0.52133258
   0.31288329  0.20254156  0.34651238
   0.43756376  0.45245973  0.34648353
   0.43733339  0.45025607  0.21391080
   0.68769792  0.29625774  0.87316017
   0.31248217  0.04410030  0.74213885
   0.43766093  0.11798456  0.30198466
   0.68757738  0.95642549  0.56484036
   0.31204898  0.70255437  0.34655988
   0.68764490  0.62242591  0.52133761
   0.81256126  0.53257880  0.12699997
   0.68723996  0.78686993  0.39035309
   0.68795663  0.78273150  0.12683040
   0.43771963  0.95042312  0.21385171
   0.06286487  0.36615019  0.16901310
   0.06234467  0.04053101  0.60962078
   0.31246217  0.54379055  0.74212560
   0.31236855  0.36607733  0.16897777
   0.43774007  0.62787937  0.78605843
   0.93753234  0.11850257  0.30205523
   0.81226848  0.69982005  0.21394642
   0.81251734  0.54378921  0.74206568
   0.43731222  0.79393060  0.74204926
   0.56251067  0.20986008  0.69794692
   0.68777256  0.78383969  0.25783048
   0.06242898  0.87149340  0.43521280
   0.43684597  0.78283646  0.12703925
   0.18740187  0.61813065  0.30200935
   0.06195777  0.54515356  0.87300669
   0.31245075  0.03693912  0.39035427
   0.56255580  0.87276929  0.52131423
   0.43719376  0.12138809  0.43499501
   0.06247145  0.20531551  0.47871647
   0.56251514  0.54097506  0.60961639
   0.31273815  0.87771680  0.78604880
   0.81248141  0.20542517  0.47869446
   0.18753650  0.45661172  0.56493277
   0.93737842  0.12155382  0.43482616
   0.31230693  0.37831326  0.78602566
   0.06255180  0.70512639  0.47875530
   0.31283103  0.87130264  0.43483755
   0.68768459  0.61823261  0.30204292
   0.81236258  0.87144637  0.43480859
   0.06245155  0.04412334  0.74209366
   0.56354919  0.04561906  0.87307173
   0.43780878  0.62119636  0.43508117
   0.93759638  0.62504596  0.65357383
   0.56240487  0.70957742  0.69800626
   0.43735632  0.29072159  0.60961733
   0.81258658  0.53378046  0.25792539
   0.06242517  0.37177833  0.43497233
   0.06246352  0.37261999  0.52133238
   0.31256659  0.20557633  0.47866421
   0.56251359  0.53696982  0.39031992
   0.93703854  0.95648715  0.56502425
   0.68780534  0.95964531  0.69785970
   0.56257464  0.70682812  0.56504443
   0.18785964  0.28274823  0.12701273
   0.93734723  0.45227376  0.34638241
   0.93725043  0.95939170  0.69796179
   0.43744728  0.79126944  0.60961338
   0.31244252  0.20013634  0.21372821
   0.31272876  0.37258268  0.52129952
   0.68715435  0.28287977  0.12705969
   0.93714332  0.61594145  0.16898390
   0.43736084  0.45984126  0.69784012
   0.81248040  0.21175978  0.83108383
   0.31282342  0.54519444  0.87299815
   0.56265597  0.87514095  0.65347948
   0.18763289  0.78671637  0.39021037
   0.68739792  0.79496483  0.87296469
   0.18736726  0.79080062  0.60961720
   0.93707110  0.62247059  0.52134154
   0.68740660  0.12553190  0.65349293
   0.43732508  0.95558633  0.47863501
   0.06248339  0.70036088  0.21385652
   0.81224565  0.20652721  0.56501433
   0.43726322  0.95649010  0.56492720
   0.31234416  0.70551454  0.47866374
   0.18749557  0.79394877  0.74203794
   0.31227933  0.03413015  0.25788029
   0.31265338  0.86589885  0.16900473
   0.18765130  0.62138313  0.43483563
   0.18745452  0.12291311  0.52133325
   0.06272468  0.37834259  0.78624205
   0.56245633  0.03719513  0.39034369
   0.18800386  0.96238118  0.83159433
   0.81243569  0.86601227  0.16838451
   0.18730125  0.45240924  0.34648686
   0.06237514  0.54037659  0.60977072
   0.56230579  0.04079566  0.60974723
   0.31266596  0.04506662  0.87306984
   0.06244375  0.87282975  0.52125980
   0.81276479  0.53694431  0.39028742
   0.56249263  0.53398322  0.25781532
   0.68743713  0.79357070  0.74217864
   0.43701314  0.12720032  0.78592040
   0.06252943  0.20674536  0.56512710
   0.43731206  0.95226834  0.34631991
   0.93771442  0.12520698  0.65353434
Direct configuration=     2
   0.93770839  0.95074893  0.21417757
   0.18737298  0.28387796  0.25813501
   0.31335614  0.53026290  0.12659260
   0.06245409  0.70658216  0.56503297
   0.43826646  0.78709987  0.39019094
   0.93789293  0.79283230  0.74207999
   0.81195544  0.20286560  0.34642340
   0.68735673  0.12196938  0.43468856
   0.56195909  0.37242344  0.52119677
   0.93805826  0.12757413  0.78603400
   0.68708914  0.95563090  0.47853524
   0.68747909  0.45998565  0.69798686
   0.68744842  0.95220676  0.34634860
   0.81326132  0.54070260  0.60969244
   0.43786574  0.28305129  0.12667265
   0.68662588  0.62114188  0.43465135
   0.56369652  0.03357479  0.12680764
   0.56332533  0.86739494  0.16902498
   0.18742031  0.12867842  0.78614292
   0.31245758  0.53642085  0.39017702
   0.81255305  0.37846698  0.78607315
   0.18715623  0.78456247  0.25802501
   0.56075417  0.21116186  0.83150530
   0.31286924  0.37552937  0.65355981
   0.18692186  0.95071819  0.21408758
   0.18711139  0.61534184  0.16920112
   0.18766556  0.11857527  0.30217135
   0.43717502  0.62509127  0.65346822
   0.18763325  0.79433624  0.87325347
   0.81256753  0.87554078  0.65352370
   0.06259995  0.71199543  0.83093164
   0.93665738  0.28763104  0.39009263
   0.06213447  0.53087427  0.12699238
   0.31303725  0.20625824  0.56498183
   0.43706672  0.45621225  0.56503897
   0.68763747  0.79185866  0.60971680
   0.68709203  0.46082115  0.83105231
   0.93768998  0.45524855  0.47864224
   0.56231462  0.37513763  0.65349040
   0.81270215  0.54593535  0.87313453
   0.68778823  0.62753539  0.78600072
   0.68756619  0.29474408  0.74205774
   0.68748646  0.12274606  0.52133453
   0.06213107  0.53383728  0.25809818
   0.31272016  0.87489090  0.65341201
   0.68728428  0.11828356  0.30223861
   0.56273979  0.54430978  0.74200857
   0.06218544  0.03437642  0.25805808
   0.56169034  0.54514499  0.87312848
   0.56207572  0.87113042  0.43478115
   0.93781731  0.45645831  0.56494956
   0.93803603  0.62795438  0.78597614
   0.18783231  0.28743418  0.39011690
   0.18741353  0.78348917  0.12699741
   0.43758139  0.12515115  0.65340447
   0.18699240  0.44938924  0.21418340
   0.81257829  0.70944813  0.69798481
   0.68775767  0.28340290  0.25815143
   0.81206918  0.36833767  0.30222610
   0.56180308  0.70533769  0.47861881
   0.81257933  0.87259437  0.52130978
   0.93739919  0.44970846  0.21400193
   0.56272550  0.86807255  0.30227604
   0.56233997  0.37157497  0.43470341
   0.31217488  0.20997476  0.69785463
   0.06262857  0.87620282  0.78591358
   0.68735400  0.12720232  0.78611967
   0.06255320  0.03707862  0.39010780
   0.68763574  0.95101860  0.21420843
   0.43795425  0.61516885  0.16896387
   0.43755143  0.78426551  0.25819769
   0.06209690  0.70950307  0.69798002
   0.56248423  0.20200121  0.34639104
   0.18726978  0.12505024  0.65346441
   0.18764434  0.45992000  0.69806416
   0.81270127  0.87677882  0.78607654
   0.93579026  0.78353506  0.12673582
   0.31304925  0.04084274  0.60968873
   0.93683148  0.62138639  0.43461239
   0.18739665  0.29072407  0.60965733
   0.68844402  0.61572831  0.16893366
   0.93661317  0.78627654  0.38992841
   0.68788994  0.45621616  0.56505566
   0.18799891  0.46248450  0.83101318
   0.93783920  0.46202987  0.83100869
   0.56278321  0.04396082  0.74199464
   0.18783886  0.62546362  0.65353847
   0.93822526  0.79557978  0.87310743
   0.81224839  0.71169411  0.83095588
   0.43766945  0.61812666  0.30236647
   0.31213723  0.53402340  0.25821886
   0.18742916  0.29432592  0.74217629
   0.56275239  0.70286664  0.34640614
   0.68777376  0.28734467  0.39010775
   0.43710955  0.45525784  0.47854042
   0.56282687  0.20028279  0.21415082
   0.93706995  0.78433790  0.25814946
   0.81240467  0.86821281  0.30209305
   0.56245597  0.20595488  0.56507866
   0.06248081  0.54405161  0.74220767
   0.93754275  0.11540580  0.16913822
   0.81245219  0.70544524  0.47862993
   0.18654951  0.29628413  0.87309640
   0.06278493  0.37510777  0.65348474
   0.81232896  0.37514531  0.65355546
   0.56291313  0.36566052  0.16888763
   0.81188405  0.37141636  0.43464521
   0.06171773  0.86722075  0.16923442
   0.81306509  0.20980572  0.69798009
   0.18847453  0.45540881  0.47859658
   0.31250009  0.03462031  0.12686366
   0.31186528  0.54058712  0.60973411
   0.56244193  0.37788397  0.78612197
   0.68706714  0.96154024  0.83117555
   0.18809310  0.95639815  0.56495253
   0.43785810  0.28679881  0.39010879
   0.93769458  0.95565193  0.47866584
   0.18714451  0.62766152  0.78611099
   0.31247086  0.70065206  0.21418310
   0.18698248  0.11621901  0.16915057
   0.43715676  0.12266228  0.52122469
   0.43788925  0.28392499  0.25808262
   0.43771064  0.95972080  0.69775314
   0.81149666  0.04457875  0.87335499
   0.68679635  0.45506282  0.47858592
   0.06181557  0.03329353  0.12695714
   0.31240026  0.70720029  0.56502950
   0.81260257  0.37227651  0.52133470
   0.31305061  0.37137820  0.43484744
   0.43858804  0.29517027  0.87325634
   0.31293566  0.36865686  0.30226158
   0.81264624  0.04098723  0.60963553
   0.81296372  0.19997920  0.21401613
   0.43709601  0.79415592  0.87306981
   0.68775976  0.45250641  0.34633999
   0.68811266  0.44994549  0.21405012
   0.18776446  0.95248378  0.34631694
   0.81276725  0.03377176  0.25817027
   0.93701411  0.28341073  0.25801003
   0.93763705  0.29566123  0.87323514
   0.43697135  0.29454320  0.74210249
   0.31237150  0.21175605  0.83135339
   0.06221817  0.20873606  0.69801137
   0.93769174  0.79144361  0.60963361
   0.06213364  0.19963207  0.21399399
   0.43738199  0.11664397  0.16910427
   0.06146845  0.04521583  0.87332800
   0.56281751  0.03398167  0.25816466
   0.93719394  0.96117033  0.83128186
   0.68782441  0.28994668  0.60964279
   0.81210162  0.03238241  0.12664886
   0.18671482  0.95924701  0.69781925
   0.06212742  0.70144862  0.34630954
   0.06251775  0.53670637  0.39005376
   0.56324452  0.70071542  0.21412334
   0.81301755  0.70753158  0.56508451
   0.93670900  0.28224317  0.12707725
   0.93617966  0.95266074  0.34633009
   0.06405523  0.21221135  0.83128324
   0.06219423  0.86813306  0.30219975
   0.06267812  0.36823474  0.30212959
   0.81234630  0.70230284  0.34644439
   0.56261622  0.87686173  0.78617810
   0.18810879  0.12159137  0.43487221
   0.68730600  0.62554014  0.65352506
   0.68816545  0.11610764  0.16890749
   0.81280534  0.36538390  0.16896287
   0.81227027  0.03739294  0.39003908
   0.43695687  0.96198868  0.83133618
   0.31268764  0.87255667  0.52120727
   0.31295467  0.86807877  0.30223593
   0.31265265  0.71268117  0.83117865
   0.56236788  0.36850733  0.30214095
   0.56337854  0.53040558  0.12669550
   0.56207905  0.71203882  0.83091554
   0.93776972  0.12277663  0.52138415
   0.31258333  0.70951579  0.69794793
   0.18832677  0.95571583  0.47863867
   0.56191587  0.20553499  0.47850178
   0.93701171  0.29041643  0.60966236
   0.81304085  0.04346855  0.74205452
   0.06233933  0.87478582  0.65350440
   0.06212231  0.20360286  0.34632767
   0.93722603  0.61788847  0.30223548
   0.18807975  0.62245898  0.52121655
   0.93809561  0.29428721  0.74204711
   0.93711241  0.45993691  0.69806563
   0.43689943  0.46192708  0.83106184
   0.43697348  0.62224210  0.52120024
   0.31333160  0.20285196  0.34636434
   0.43783549  0.45242977  0.34633655
   0.43748585  0.44945614  0.21419284
   0.68694460  0.29470013  0.87338503
   0.31176229  0.04366324  0.74213092
   0.43802330  0.11814921  0.30225475
   0.68751609  0.95706917  0.56491907
   0.31254804  0.70222472  0.34641582
   0.68757045  0.62244048  0.52125712
   0.81136641  0.53207749  0.12681622
   0.68728962  0.78661464  0.39011597
   0.68887167  0.78253168  0.12657031
   0.43770787  0.95091940  0.21412019
   0.06235497  0.36507278  0.16920509
   0.06199717  0.04072583  0.60965801
   0.31196935  0.54399370  0.74221079
   0.31202152  0.36523174  0.16887496
   0.43702133  0.62771962  0.78611532
   0.93697992  0.11871303  0.30220764
   0.81248705  0.69994281  0.21419859
   0.81275954  0.54447747  0.74197344
   0.43705674  0.79324179  0.74208904
   0.56253649  0.21062179  0.69778245
   0.68818870  0.78415160  0.25807805
   0.06271065  0.87159660  0.43510723
   0.43796800  0.78262947  0.12688184
   0.18750211  0.61779193  0.30226682
   0.06307787  0.54560926  0.87312927
   0.31310699  0.03710577  0.39016533
   0.56204687  0.87314265  0.52131032
   0.43722880  0.12161729  0.43485246
   0.06301265  0.20522337  0.47874919
   0.56242540  0.54079640  0.60969497
   0.31259410  0.87668102  0.78617368
   0.81226993  0.20534704  0.47860117
   0.18737195  0.45634546  0.56493233
   0.93692315  0.12197445  0.43458879
   0.31169216  0.37908797  0.78609720
   0.06317403  0.70506480  0.47878719
   0.31348823  0.87124892  0.43472694
   0.68759570  0.61815015  0.30234704
   0.81162360  0.87162239  0.43448622
   0.06235680  0.04359026  0.74197796
   0.56383200  0.04577321  0.87322596
   0.43800038  0.62092058  0.43487972
   0.93779242  0.62571403  0.65354423
   0.56275030  0.70895187  0.69798938
   0.43745310  0.29021232  0.60964950
   0.81290990  0.53363717  0.25816795
   0.06261974  0.37158533  0.43475892
   0.06280375  0.37250305  0.52130881
   0.31283029  0.20576992  0.47861833
   0.56277128  0.53680066  0.39015069
   0.93690292  0.95679245  0.56506545
   0.68832049  0.95912548  0.69775308
   0.56226837  0.70757525  0.56504495
   0.18844032  0.28228994  0.12682558
   0.93702403  0.45225897  0.34631907
   0.93725835  0.95910664  0.69788566
   0.43744535  0.79183483  0.60964496
   0.31212101  0.19976020  0.21396877
   0.31270436  0.37251958  0.52116531
   0.68711320  0.28290532  0.12677289
   0.93660748  0.61573301  0.16914282
   0.43779679  0.46003598  0.69778566
   0.81217653  0.21154724  0.83131683
   0.31222385  0.54552503  0.87306333
   0.56256861  0.87529586  0.65335393
   0.18796143  0.78611852  0.39001357
   0.68722812  0.79636051  0.87312380
   0.18717492  0.79081824  0.60968483
   0.93735018  0.62250298  0.52137927
   0.68747269  0.12525723  0.65335618
   0.43693339  0.95578321  0.47854311
   0.06190542  0.70068910  0.21409866
   0.81243648  0.20603885  0.56508279
   0.43746180  0.95684920  0.56494448
   0.31257229  0.70544133  0.47861441
   0.18699373  0.79311916  0.74209175
   0.31224545  0.03440460  0.25805671
   0.31218205  0.86716375  0.16931956
   0.18843640  0.62096357  0.43467559
   0.18760269  0.12292527  0.52125438
   0.06350559  0.37939965  0.78618392
   0.56253649  0.03719743  0.38998318
   0.18871762  0.96161864  0.83162859
   0.81284632  0.86669621  0.16840157
   0.18717635  0.45249828  0.34633610
   0.06247808  0.54040473  0.60971180
   0.56226688  0.04078700  0.60966916
   0.31336457  0.04505655  0.87310304
   0.06272883  0.87304416  0.52130849
   0.81235524  0.53668603  0.38992293
   0.56279520  0.53372675  0.25821592
   0.68816333  0.79244108  0.74212372
   0.43662258  0.12716314  0.78622120
   0.06218410  0.20681653  0.56515951
   0.43813774  0.95227425  0.34619815
   0.93770077  0.12453141  0.65341952
Direct configuration=     3
   0.93771592  0.95068710  0.21414256
   0.18740737  0.28389753  0.25809950
   0.31321691  0.53062979  0.12665578
   0.06246901  0.70654535  0.56503397
   0.43817379  0.78713310  0.39022520
   0.93786491  0.79296274  0.74209425
   0.81200623  0.20284088  0.34644263
   0.68740584  0.12187655  0.43473454
   0.56206043  0.37247296  0.52121760
   0.93798103  0.12756051  0.78604673
   0.68718689  0.95559480  0.47855137
   0.68748988  0.45992132  0.69798392
   0.68747307  0.95222558  0.34636604
   0.81319468  0.54071062  0.60969092
   0.43778327  0.28296864  0.12672516
   0.68673396  0.62116032  0.43471642
   0.56350750  0.03332126  0.12684423
   0.56320703  0.86726737  0.16900629
   0.18739639  0.12859481  0.78613786
   0.31241869  0.53646697  0.39021378
   0.81251282  0.37831082  0.78609766
   0.18719394  0.78453344  0.25798863
   0.56089006  0.21123637  0.83146423
   0.31280263  0.37553134  0.65357186
   0.18700333  0.95061384  0.21405193
   0.18720100  0.61539079  0.16916968
   0.18763626  0.11851475  0.30214913
   0.43722816  0.62507642  0.65346988
   0.18759366  0.79447341  0.87322707
   0.81250401  0.87548993  0.65353304
   0.06249922  0.71206420  0.83092555
   0.93681070  0.28755103  0.39014231
   0.06222172  0.53103902  0.12699948
   0.31300555  0.20629120  0.56498747
   0.43713841  0.45628440  0.56504832
   0.68760237  0.79173237  0.60970620
   0.68715388  0.46086117  0.83105168
   0.93764748  0.45528575  0.47864111
   0.56235539  0.37517910  0.65348660
   0.81264556  0.54587835  0.87312618
   0.68776135  0.62752754  0.78601918
   0.68751426  0.29459506  0.74207636
   0.68750639  0.12272069  0.52132640
   0.06219841  0.53385402  0.25805728
   0.31271463  0.87490509  0.65343044
   0.68727958  0.11825164  0.30220166
   0.56268639  0.54425850  0.74202399
   0.06225098  0.03431645  0.25803838
   0.56183870  0.54514385  0.87312572
   0.56212112  0.87118424  0.43482195
   0.93774940  0.45653144  0.56494354
   0.93793406  0.62792728  0.78600015
   0.18777005  0.28735311  0.39015764
   0.18753676  0.78338180  0.12700996
   0.43757326  0.12515362  0.65342801
   0.18708852  0.44950608  0.21413504
   0.81254554  0.70947194  0.69797599
   0.68770646  0.28348334  0.25810714
   0.81211839  0.36834332  0.30218421
   0.56192551  0.70535214  0.47864512
   0.81253600  0.87254644  0.52130088
   0.93742554  0.44977875  0.21397044
   0.56270650  0.86806897  0.30221853
   0.56238159  0.37157450  0.43474798
   0.31218896  0.20993288  0.69787663
   0.06256529  0.87641403  0.78593085
   0.68739595  0.12721722  0.78611528
   0.06260066  0.03701614  0.39014723
   0.68754595  0.95095315  0.21416074
   0.43788654  0.61527887  0.16896464
   0.43753076  0.78422923  0.25814355
   0.06215795  0.70948239  0.69797360
   0.56245438  0.20200091  0.34641016
   0.18728318  0.12508502  0.65347895
   0.18762618  0.45986754  0.69805557
   0.81269231  0.87691948  0.78608902
   0.93604045  0.78340242  0.12675709
   0.31302895  0.04083229  0.60968916
   0.93688765  0.62143612  0.43466610
   0.18741396  0.29074482  0.60967036
   0.68833751  0.61578520  0.16895039
   0.93676846  0.78635774  0.38998530
   0.68785277  0.45632427  0.56505233
   0.18792220  0.46243250  0.83100960
   0.93769304  0.46194944  0.83101064
   0.56272059  0.04402389  0.74199997
   0.18784485  0.62538836  0.65355308
   0.93813710  0.79550710  0.87308053
   0.81224450  0.71164328  0.83095433
   0.43761521  0.61815851  0.30231670
   0.31217413  0.53404117  0.25816336
   0.18748996  0.29422036  0.74216893
   0.56273680  0.70283714  0.34643362
   0.68775915  0.28726797  0.39014716
   0.43718864  0.45529465  0.47856086
   0.56277847  0.20028883  0.21410835
   0.93712573  0.78430256  0.25811661
   0.81246762  0.86821432  0.30206419
   0.56246994  0.20607881  0.56507086
   0.06249479  0.54395084  0.74218968
   0.93754691  0.11536966  0.16912044
   0.81248149  0.70545581  0.47863513
   0.18646780  0.29617546  0.87308749
   0.06277710  0.37514273  0.65350120
   0.81236468  0.37519525  0.65356515
   0.56279412  0.36575871  0.16891066
   0.81200708  0.37145655  0.43470774
   0.06182262  0.86706406  0.16919472
   0.81300964  0.20978651  0.69799560
   0.18832807  0.45542989  0.47859661
   0.31251879  0.03424194  0.12688897
   0.31193396  0.54058665  0.60972788
   0.56251857  0.37780566  0.78611657
   0.68718320  0.96154913  0.83114385
   0.18809213  0.95638840  0.56495574
   0.43776996  0.28674408  0.39013297
   0.93763322  0.95561937  0.47866266
   0.18713943  0.62769372  0.78610500
   0.31251307  0.70057165  0.21412558
   0.18710157  0.11621629  0.16913434
   0.43721139  0.12267094  0.52123664
   0.43786139  0.28398662  0.25803610
   0.43770353  0.95974105  0.69778278
   0.81158685  0.04463975  0.87330146
   0.68690459  0.45511378  0.47860507
   0.06192525  0.03310017  0.12696739
   0.31241473  0.70713347  0.56503410
   0.81255795  0.37232237  0.52132987
   0.31293516  0.37138069  0.43487100
   0.43856751  0.29526112  0.87323432
   0.31288592  0.36862826  0.30221342
   0.81261900  0.04097113  0.60963636
   0.81290600  0.20000080  0.21398264
   0.43719485  0.79411619  0.87306104
   0.68772659  0.45252240  0.34635372
   0.68801867  0.45001104  0.21401468
   0.18767341  0.95247238  0.34634437
   0.81276315  0.03374506  0.25813327
   0.93705379  0.28344133  0.25798053
   0.93760609  0.29578883  0.87321775
   0.43701269  0.29436550  0.74211030
   0.31234879  0.21167003  0.83134126
   0.06226728  0.20881923  0.69801905
   0.93768828  0.79137457  0.60962515
   0.06218797  0.19968916  0.21396807
   0.43738187  0.11660942  0.16910259
   0.06151946  0.04527207  0.87329660
   0.56275363  0.03393468  0.25811759
   0.93721915  0.96123658  0.83124492
   0.68780292  0.29004787  0.60964524
   0.81216475  0.03228242  0.12668344
   0.18681619  0.95927818  0.69782665
   0.06217631  0.70158519  0.34633442
   0.06255428  0.53676271  0.39011249
   0.56313650  0.70065314  0.21407156
   0.81292723  0.70745446  0.56507503
   0.93688552  0.28236760  0.12708141
   0.93635539  0.95265581  0.34635449
   0.06389849  0.21213401  0.83126099
   0.06224581  0.86817295  0.30217495
   0.06268244  0.36818916  0.30209191
   0.81241259  0.70232948  0.34645705
   0.56265425  0.87694377  0.78616293
   0.18797807  0.12156561  0.43488805
   0.68728535  0.62549303  0.65351692
   0.68804521  0.11600759  0.16891899
   0.81276975  0.36544449  0.16896409
   0.81237375  0.03734719  0.39008576
   0.43691781  0.96203377  0.83132599
   0.31268796  0.87252232  0.52122057
   0.31286136  0.86810589  0.30219493
   0.31266144  0.71271603  0.83116994
   0.56236545  0.36850430  0.30209552
   0.56321712  0.53064199  0.12675083
   0.56218736  0.71193063  0.83090977
   0.93772072  0.12277679  0.52137305
   0.31261659  0.70957972  0.69795442
   0.18821412  0.95568635  0.47863636
   0.56202484  0.20552124  0.47852444
   0.93702529  0.29049098  0.60967556
   0.81296274  0.04356794  0.74207428
   0.06239076  0.87478638  0.65351658
   0.06218509  0.20344812  0.34635564
   0.93728331  0.61791117  0.30219897
   0.18804393  0.62246656  0.52123114
   0.93804241  0.29415869  0.74206227
   0.93719048  0.45986059  0.69804698
   0.43706203  0.46197239  0.83105751
   0.43705529  0.62227809  0.52122355
   0.31325264  0.20279729  0.34639042
   0.43778763  0.45243505  0.34636244
   0.43745900  0.44959703  0.21414316
   0.68707728  0.29497447  0.87334543
   0.31188908  0.04374022  0.74213232
   0.43795948  0.11812021  0.30220718
   0.68752689  0.95695580  0.56490521
   0.31246014  0.70228278  0.34644119
   0.68758356  0.62243791  0.52127130
   0.81157686  0.53216579  0.12684858
   0.68728087  0.78665960  0.39015773
   0.68871050  0.78256687  0.12661612
   0.43770994  0.95083199  0.21407290
   0.06244478  0.36526254  0.16917128
   0.06205837  0.04069152  0.60965146
   0.31205615  0.54395792  0.74219579
   0.31208264  0.36538068  0.16889307