unknown system                          
            1
     9.726678    0.000000    0.000000
     0.000000    8.423550    0.000000
     0.000000    0.000000   45.000000
   Fe   Mn
 273  15
Direct configuration=     1
   0.81316525  0.70680034  0.83056355
   0.43583770  0.12432408  0.78673479
   0.68968295  0.78761972  0.12852982
   0.80904972  0.87281936  0.52197182
   0.44152692  0.95495497  0.21139267
   0.31885119  0.20102184  0.21182682
   0.07093636  0.04122938  0.38925042
   0.55553713  0.70593413  0.34359133
   0.81085399  0.03981086  0.87296940
   0.94609449  0.29266921  0.38978253
   0.18740191  0.13391584  0.43239228
   0.18748089  0.78836215  0.60718167
   0.56182412  0.70500586  0.83155552
   0.43953002  0.28571802  0.12708502
   0.30777598  0.87670754  0.43113750
   0.18896321  0.62251288  0.65736332
   0.93509909  0.45613227  0.56548451
   0.05515344  0.53849370  0.12748016
   0.18810299  0.13328362  0.52163442
   0.31714729  0.53217243  0.60723549
   0.56329551  0.20782210  0.56619397
   0.93977048  0.12552451  0.43397906
   0.68396036  0.79060474  0.87378598
   0.43775481  0.95385820  0.83092905
   0.44010749  0.45768271  0.56608585
   0.93870648  0.61877598  0.43195772
   0.18930350  0.45411205  0.56594751
   0.93807411  0.28645456  0.87341222
   0.81449627  0.03960250  0.74516650
   0.94509987  0.45774574  0.34492933
   0.06042085  0.53103657  0.60709606
   0.94692008  0.78359606  0.38935882
   0.18762786  0.29247572  0.38954257
   0.81283141  0.54116424  0.12787891
   0.43305480  0.13231083  0.43378818
   0.05884173  0.87589045  0.65655346
   0.93733037  0.28682483  0.25696489
   0.30943224  0.37439519  0.78644117
   0.18600951  0.28802106  0.12722414
   0.30634715  0.20227133  0.34594803
   0.18584233  0.62667737  0.16973711
   0.94083323  0.61645980  0.78596883
   0.18384449  0.46054323  0.34621608
   0.93895679  0.11842947  0.29984736
   0.18703437  0.45563178  0.83011280
   0.05811713  0.87526006  0.43152370
   0.06292803  0.70549155  0.70558524
   0.05896007  0.87370156  0.16965236
   0.06139774  0.04371024  0.60870951
   0.94278567  0.62484978  0.30018743
   0.68549778  0.12225373  0.29802230
   0.06182366  0.20520120  0.83031518
   0.68264104  0.62726426  0.65442277
   0.44257328  0.61751400  0.52275438
   0.30968216  0.37106781  0.43295624
   0.81248528  0.03681109  0.12795733
   0.43651031  0.79373836  0.25672959
   0.93548037  0.29099007  0.12729526
   0.06266331  0.20051532  0.21120822
   0.18380881  0.12504128  0.78660852
   0.81437627  0.20594565  0.83081387
   0.81455111  0.87689829  0.29866274
   0.93217760  0.61116611  0.52321102
   0.68939349  0.28905162  0.39042196
   0.81091994  0.36375065  0.65502076
   0.56570453  0.20542701  0.21149286
   0.18746750  0.61216156  0.52350208
   0.31351935  0.03778268  0.87281793
   0.80674047  0.87992135  0.65531007
   0.42931737  0.46034839  0.34499324
   0.69034333  0.12356219  0.43481800
   0.56281978  0.20492819  0.83120661
   0.19183483  0.28705678  0.25666253
   0.43775899  0.12636149  0.52172096
   0.93225781  0.12048722  0.16869932
   0.69080749  0.12622738  0.78683538
   0.55645551  0.04540933  0.39016370
   0.55854376  0.53516111  0.38953855
   0.93342662  0.78545527  0.60779504
   0.31691570  0.69826828  0.56597588
   0.80876853  0.04206520  0.60911453
   0.44326883  0.62777200  0.65546531
   0.05800311  0.37601075  0.16828603
   0.31091867  0.70271121  0.83079740
   0.93786313  0.29007310  0.60824257
   0.43934861  0.45233485  0.47787589
   0.44383631  0.45728664  0.21137076
   0.68614439  0.45721803  0.56600742
   0.31123420  0.03649810  0.74452122
   0.06254738  0.03952886  0.87303763
   0.19135891  0.45940634  0.21157054
   0.93751022  0.78891571  0.87306710
   0.31554635  0.36094372  0.65542416
   0.80363052  0.20294902  0.21061193
   0.44129514  0.62736880  0.17006760
   0.06146457  0.21009428  0.56528681
   0.94004707  0.95597192  0.83047567
   0.43890225  0.28551853  0.25631600
   0.31602032  0.04502056  0.60952535
   0.93536747  0.44906337  0.47826912
   0.31313654  0.37193168  0.29951321
   0.18885773  0.11479681  0.30033128
   0.06246119  0.03800656  0.74493389
   0.80879353  0.70615512  0.47744042
   0.05961638  0.69957206  0.56657255
   0.81277873  0.37293872  0.30034936
   0.81695083  0.36964736  0.43400716
   0.69028947  0.61789607  0.43449644
   0.56470620  0.70072040  0.47865490
   0.81010309  0.87124222  0.16924683
   0.06422008  0.70369976  0.83057942
   0.56530408  0.87392365  0.43400976
   0.18851538  0.62955014  0.30074582
   0.43996312  0.78594218  0.87377540
   0.30341689  0.53803769  0.38903179
   0.18533223  0.95500982  0.83046328
   0.19010100  0.12418622  0.65571177
   0.18678058  0.78767252  0.74596501
   0.18628881  0.95727354  0.70426483
   0.55736305  0.20668702  0.34408251
   0.93975968  0.29084569  0.74540662
   0.56325681  0.87887208  0.65553741
   0.56465867  0.69923893  0.56554787
   0.06165114  0.37218179  0.78609811
   0.68729994  0.45622559  0.70327280
   0.68849500  0.12449154  0.52150903
   0.93560737  0.62292909  0.65501157
   0.30963244  0.86865517  0.78602574
   0.31362563  0.04060322  0.12724512
   0.81951749  0.70154530  0.34433659
   0.93169443  0.95672563  0.56677986
   0.06585910  0.53688021  0.87341980
   0.31402358  0.03716944  0.25655309
   0.93600807  0.13152845  0.52125408
   0.93077016  0.95203892  0.21094560
   0.68587752  0.95370387  0.70089776
   0.30968733  0.53861402  0.74684127
   0.56795889  0.54075536  0.12790255
   0.18487454  0.61847643  0.78596164
   0.56264964  0.03712944  0.87375241
   0.56128585  0.20249746  0.70049720
   0.18534096  0.78689904  0.38725058
   0.68560438  0.28492604  0.87401897
   0.68715557  0.95388702  0.83130525
   0.68311156  0.11647269  0.65443149
   0.43721115  0.11846409  0.29882092
   0.18514008  0.28754466  0.74541593
   0.94060106  0.45189931  0.82998236
   0.44129827  0.12084008  0.16930322
   0.44340122  0.79496372  0.12814881
   0.68915211  0.95966131  0.47789538
   0.81143508  0.20534833  0.47798149
   0.06430808  0.03318349  0.25658105
   0.31548242  0.20958673  0.47686564
   0.56224017  0.03659129  0.74527870
   0.81388703  0.70590227  0.70370352
   0.56776241  0.70756312  0.21085275
   0.55833923  0.87822426  0.29885460
   0.31566884  0.37434620  0.16945497
   0.06016556  0.04136878  0.12738975
   0.30919237  0.20594963  0.70360523
   0.56313123  0.53845485  0.74521057
   0.68599587  0.45286886  0.47851452
   0.18904963  0.95894417  0.56657614
   0.68509050  0.95721598  0.34362719
   0.18750414  0.78521913  0.87312808
   0.06661001  0.87203763  0.30010485
   0.44235883  0.11807280  0.65514263
   0.05957653  0.70170031  0.47596794
   0.44254616  0.78636949  0.60867232
   0.56374660  0.86850750  0.52222262
   0.82158348  0.53223452  0.38972127
   0.18694755  0.11801976  0.16897276
   0.68986767  0.78968283  0.38985006
   0.55973273  0.70394116  0.70401780
   0.31202841  0.53846818  0.12711893
   0.31914980  0.87904770  0.65627872
   0.43761870  0.95639549  0.70114820
   0.56078815  0.36432061  0.65419961
   0.55860144  0.37146726  0.43471352
   0.06641127  0.53768375  0.38864952
   0.56613967  0.37466042  0.16976106
   0.68699167  0.78451877  0.74500363
   0.93714881  0.79290487  0.25613692
   0.68922944  0.61674095  0.78601058
   0.42580383  0.78982980  0.38828579
   0.93049947  0.46182765  0.21072268
   0.56255450  0.53637543  0.60740360
   0.94030028  0.95547139  0.70387485
   0.44227448  0.95817170  0.56610789
   0.68368278  0.28650509  0.25521120
   0.81501561  0.87016055  0.78611606
   0.81499427  0.53650521  0.74536114
   0.43479722  0.61787672  0.78605835
   0.68719200  0.29178600  0.12773112
   0.80912223  0.70138515  0.56621516
   0.56239103  0.36936548  0.29894929
   0.43952669  0.29003481  0.87355609
   0.18687728  0.45133458  0.70497258
   0.18548588  0.79223856  0.12787162
   0.06553879  0.37187809  0.43223620
   0.06093171  0.20901502  0.47779944
   0.94958443  0.95407969  0.34418672
   0.06710997  0.20796784  0.34606373
   0.31867898  0.87219537  0.52253849
   0.56398715  0.03759190  0.12773591
   0.56092473  0.53790278  0.87376099
   0.68722703  0.95728423  0.56638210
   0.18818501  0.96976323  0.47704012
   0.30440213  0.70790808  0.34431495
   0.81565733  0.20196162  0.70226170
   0.68975540  0.29186270  0.74543707
   0.06244180  0.37468419  0.30095657
   0.68608795  0.45979502  0.21057196
   0.44285902  0.96557329  0.47830897
   0.43375464  0.45630279  0.70414564
   0.68591158  0.28810349  0.60827277
   0.92851246  0.96595024  0.47710805
   0.43429705  0.61286210  0.43353815
   0.43942706  0.28817153  0.60831974
   0.06178530  0.36226195  0.65544741
   0.31198525  0.54122231  0.25629624
   0.56281591  0.37253600  0.78628427
   0.56114594  0.53978978  0.25626181
   0.80691964  0.71029955  0.21073968
   0.81040484  0.53797165  0.60756218
   0.43583034  0.45420491  0.83065219
   0.06200480  0.53644694  0.74621942
   0.31806428  0.69848135  0.47766243
   0.42674586  0.28805716  0.39039606
   0.68667661  0.45137067  0.83043203
   0.81834368  0.21194369  0.34487108
   0.68623282  0.78678423  0.60838657
   0.93179717  0.62662240  0.16883807
   0.81658299  0.37022889  0.78663479
   0.94137475  0.45311513  0.70426217
   0.56648549  0.87002372  0.16913522
   0.81125688  0.54441282  0.25554740
   0.31205505  0.37271406  0.52163888
   0.18821707  0.79200476  0.25705255
   0.06352095  0.86922094  0.78607049
   0.31324970  0.53909719  0.87341629
   0.07019438  0.70446395  0.34511868
   0.06540842  0.20414252  0.70389584
   0.68741927  0.79452454  0.25536857
   0.43598957  0.28959950  0.74476657
   0.68939504  0.11884145  0.16949792
   0.81056239  0.03768185  0.25601899
   0.93963371  0.12709901  0.78652450
   0.05991097  0.71187821  0.21131202
   0.18677569  0.28991498  0.87335240
   0.56237597  0.20693700  0.47757816
   0.18497315  0.61276690  0.43112693
   0.81024222  0.37609821  0.16887466
   0.30538393  0.04395551  0.38859352
   0.93368894  0.78846562  0.12803105
   0.19043330  0.95377522  0.21137953
   0.43785152  0.78795155  0.74544950
   0.68636389  0.61669425  0.52260104
   0.18803713  0.29020800  0.60873968
   0.81435118  0.37201161  0.52171453
   0.06480240  0.54549301  0.25689690
   0.81768787  0.04333799  0.39078831
   0.31087666  0.20694874  0.83042955
   0.69122384  0.45596013  0.34449379
   0.31503520  0.87164548  0.16976993
   0.43242476  0.62985015  0.30004131
   0.93426263  0.12056190  0.65575478
   0.31312427  0.70556180  0.70485698
   0.31100373  0.87294111  0.30029334
   0.05858502  0.87466175  0.52268009
   0.31727028  0.70944329  0.21131075
   0.18947192  0.44610875  0.47743880
   0.68537096  0.62698624  0.29902432
   0.56133758  0.86844959  0.78597898
   0.06095490  0.36875740  0.52179567
   0.56192945  0.37787559  0.52111953
   0.56424316  0.04317909  0.61013074
   0.81669193  0.87290388  0.43390892
   0.42417891  0.95415856  0.34292603
   0.69204438  0.62673407  0.16966677
   0.68708894  0.95187510  0.21051489
   0.18963343  0.94874422  0.34496030
   0.56118900  0.04107137  0.25624205
   0.81079100  0.53626343  0.87197033
   0.80956350  0.20761928  0.56586020
   0.94017871  0.78461374  0.74559816
   0.31556194  0.21214775  0.56637346
Direct configuration=     2
   0.81295473  0.70614805  0.83084798
   0.43627522  0.12331326  0.78716884
   0.68914895  0.78764672  0.12784743
   0.81033361  0.87279670  0.52173554
   0.44041956  0.95535653  0.21183712
   0.31706513  0.20222921  0.21212798
   0.06815989  0.04064062  0.38913313
   0.55743682  0.70587913  0.34384454
   0.81136766  0.03961146  0.87298612
   0.94336182  0.29128112  0.38947645
   0.18738420  0.13056680  0.43285125
   0.18757090  0.78843729  0.60808935
   0.56219507  0.70498827  0.83165090
   0.43923232  0.28640158  0.12704386
   0.30899318  0.87579015  0.43184497
   0.18866105  0.62218289  0.65724902
   0.93552102  0.45571956  0.56542892
   0.05698028  0.53901508  0.12725305
   0.18837226  0.12957071  0.52144987
   0.31592106  0.53402117  0.60833257
   0.56321839  0.20657839  0.56575553
   0.93924463  0.12478689  0.43393123
   0.68460735  0.78997913  0.87361768
   0.43784423  0.95383684  0.83109525
   0.43949583  0.45681871  0.56574645
   0.93811758  0.62001298  0.43251775
   0.18906934  0.45435712  0.56575395
   0.93805477  0.28695569  0.87331861
   0.81342860  0.03943567  0.74488702
   0.94269733  0.45712050  0.34475445
   0.06078550  0.53265446  0.60814924
   0.94384261  0.78494360  0.38909716
   0.18762638  0.29177084  0.38918715
   0.81241066  0.54066413  0.12736838
   0.43438199  0.12914308  0.43383618
   0.05957392  0.87432765  0.65639939
   0.93775022  0.28791888  0.25677610
   0.31050393  0.37277199  0.78711696
   0.18647652  0.28851871  0.12713853
   0.30817880  0.20385878  0.34559416
   0.18652635  0.62558563  0.16932961
   0.93945111  0.61814293  0.78694559
   0.18534612  0.45882408  0.34570285
   0.93889039  0.11987779  0.29997134
   0.18707497  0.45541678  0.83055297
   0.05944788  0.87477342  0.43221772
   0.06297668  0.70498907  0.70410084
   0.06010788  0.87400909  0.16926504
   0.06177112  0.04219254  0.60935829
   0.94121472  0.62410416  0.30015815
   0.68601975  0.12302374  0.29857497
   0.06224780  0.20514352  0.83071285
   0.68375321  0.62590245  0.65455128
   0.44057462  0.61910462  0.52216466
   0.31066379  0.37245406  0.43320792
   0.81227435  0.03739154  0.12747559
   0.43673379  0.79235763  0.25653935
   0.93568371  0.29048491  0.12705575
   0.06262933  0.20206982  0.21169622
   0.18517275  0.12365387  0.78717661
   0.81391269  0.20560055  0.83111965
   0.81390360  0.87579348  0.29913597
   0.93403761  0.61554445  0.52243742
   0.68897632  0.28883459  0.39007172
   0.81123096  0.36579377  0.65514048
   0.56476163  0.20585923  0.21184330
   0.18710602  0.61589886  0.52267787
   0.31308751  0.03798888  0.87278556
   0.80847260  0.87736942  0.65532024
   0.43146533  0.45915068  0.34491902
   0.68962647  0.12286041  0.43453992
   0.56251449  0.20485242  0.83135435
   0.19046736  0.28767012  0.25655897
   0.43781373  0.12533137  0.52162122
   0.93388713  0.12173414  0.16863005
   0.68976114  0.12472966  0.78721988
   0.55814114  0.04368968  0.38989325
   0.55933383  0.53638766  0.38927987
   0.93460088  0.78620391  0.60868088
   0.31592714  0.70040757  0.56573478
   0.80986103  0.04118277  0.60969462
   0.44183190  0.62648905  0.65547216
   0.05911144  0.37515915  0.16838081
   0.31132850  0.70317030  0.83101842
   0.93766503  0.28946065  0.60901923
   0.43836884  0.45415149  0.47803217
   0.44190572  0.45688200  0.21187690
   0.68658862  0.45629265  0.56570391
   0.31233680  0.03692552  0.74454604
   0.06269011  0.03939623  0.87299460
   0.19044466  0.45825328  0.21199521
   0.93767101  0.78871934  0.87294639
   0.31487508  0.36365764  0.65549602
   0.80647300  0.20440054  0.21127311
   0.43990549  0.62576038  0.16950629
   0.06163414  0.20818139  0.56522461
   0.93938921  0.95558409  0.83074099
   0.43828772  0.28700439  0.25626013
   0.31494035  0.04286619  0.60997968
   0.93625537  0.45217946  0.47827304
   0.31295030  0.37216998  0.29969239
   0.18835903  0.11739709  0.30029079
   0.06225208  0.03798286  0.74489004
   0.81065360  0.70563576  0.47768278
   0.06031520  0.70125274  0.56608520
   0.81290349  0.37339008  0.30030344
   0.81569535  0.37029766  0.43403095
   0.68930283  0.61895954  0.43434005
   0.56373094  0.70203553  0.47852580
   0.81102882  0.87229235  0.16890643
   0.06355204  0.70409703  0.83090995
   0.56437059  0.87321822  0.43400538
   0.18813346  0.62681790  0.30052743
   0.43949795  0.78624258  0.87364920
   0.30694337  0.53883128  0.38889251
   0.18599268  0.95494405  0.83074575
   0.18940790  0.12335216  0.65569755
   0.18737973  0.78807507  0.74545551
   0.18645486  0.95618197  0.70308541
   0.55830519  0.20677262  0.34425116
   0.93868585  0.28940857  0.74486358
   0.56284094  0.87613355  0.65552022
   0.56401608  0.70146373  0.56544720
   0.06220377  0.37129434  0.78694278
   0.68733259  0.45587370  0.70233613
   0.68788827  0.12370508  0.52146635
   0.93615528  0.62258556  0.65508041
   0.31056303  0.86990227  0.78687495
   0.31352894  0.04036830  0.12711211
   0.81757043  0.70274236  0.34441286
   0.93324603  0.95683595  0.56630410
   0.06528547  0.53718198  0.87328124
   0.31323109  0.03773422  0.25637833
   0.93621239  0.12781375  0.52128640
   0.93256950  0.95388257  0.21157515
   0.68637655  0.95387420  0.70061220
   0.31050878  0.53832767  0.74591380
   0.56660491  0.54031671  0.12762788
   0.18543942  0.61976927  0.78700819
   0.56241923  0.03707235  0.87363270
   0.56178679  0.20368033  0.70025843
   0.18611216  0.78797597  0.38774767
   0.68600273  0.28529208  0.87384050
   0.68707599  0.95391337  0.83140152
   0.68464766  0.11859020  0.65463211
   0.43707506  0.12046219  0.29921169
   0.18623302  0.28694580  0.74513138
   0.93968117  0.45269937  0.83050440
   0.44021043  0.12174107  0.16894482
   0.44197980  0.79372538  0.12774535
   0.68796270  0.95752920  0.47807061
   0.81158018  0.20629989  0.47810555
   0.06386295  0.03513763  0.25642798
   0.31455345  0.20847590  0.47731694
   0.56251360  0.03727018  0.74493608
   0.81377906  0.70540338  0.70267677
   0.56587101  0.70701532  0.21163299
   0.55982720  0.87681977  0.29922534
   0.31497396  0.37399674  0.16909600
   0.06063072  0.04109765  0.12716785
   0.31012451  0.20585161  0.70268229
   0.56307014  0.53819052  0.74485945
   0.68706997  0.45401643  0.47848409
   0.18874491  0.95867353  0.56616164
   0.68565082  0.95707059  0.34392973
   0.18724751  0.78582173  0.87307392
   0.06500409  0.87186913  0.30011329
   0.44083869  0.11933955  0.65523518
   0.06073267  0.70276056  0.47652952
   0.44101067  0.78691829  0.60931392
   0.56364240  0.87002365  0.52189709
   0.81877155  0.53388108  0.38944929
   0.18713570  0.11953076  0.16879814
   0.68924896  0.78972776  0.38955815
   0.56028884  0.70389966  0.70294022
   0.31209023  0.53884867  0.12714226
   0.31722622  0.87667566  0.65616229
   0.43760955  0.95604368  0.70078565
   0.56123364  0.36676413  0.65445852
   0.55983736  0.37186780  0.43457151
   0.06491927  0.53847398  0.38862020
   0.56483541  0.37397377  0.16921005
   0.68701247  0.78601868  0.74474042
   0.93713348  0.79166842  0.25614930
   0.68884838  0.61806454  0.78678469
   0.42890214  0.78985616  0.38839636
   0.93259220  0.46026120  0.21141925
   0.56262137  0.53725542  0.60842128
   0.93959609  0.95503192  0.70286016
   0.44107022  0.95777263  0.56587164
   0.68503413  0.28823640  0.25539527
   0.81429027  0.87091284  0.78671574
   0.81407342  0.53673319  0.74491075
   0.43595034  0.61909188  0.78689916
   0.68696178  0.29135599  0.12740206
   0.80988496  0.70282659  0.56587373
   0.56235401  0.37062682  0.29927939
   0.43906317  0.28958758  0.87343972
   0.18717714  0.45260632  0.70369598
   0.18597487  0.79190834  0.12764282
   0.06428439  0.37247724  0.43284562
   0.06156301  0.20814121  0.47783972
   0.94626847  0.95464907  0.34434595
   0.06584822  0.20755902  0.34571781
   0.31654247  0.87245660  0.52204806
   0.56381703  0.03807519  0.12739607
   0.56130543  0.53763137  0.87360594
   0.68713156  0.95719384  0.56601623
   0.18805623  0.96541209  0.47736918
   0.30749084  0.70671249  0.34438544
   0.81481685  0.20285493  0.70165545
   0.68899734  0.29048067  0.74488332
   0.06274387  0.37403499  0.30072382
   0.68671157  0.45883692  0.21137973
   0.44070570  0.96188202  0.47830103
   0.43446174  0.45616927  0.70308333
   0.68648352  0.28849083  0.60901739
   0.93217101  0.96215358  0.47750174
   0.43525415  0.61581457  0.43360324
   0.43910419  0.28838304  0.60904884
   0.06181441  0.36466893  0.65550531
   0.31185419  0.54045514  0.25627191
   0.56244240  0.37163946  0.78684662
   0.56153017  0.54009830  0.25631072
   0.80892040  0.70905118  0.21162027
   0.81111049  0.53822402  0.60857572
   0.43641193  0.45421574  0.83093530
   0.06229073  0.53636167  0.74548838
   0.31585882  0.70082713  0.47782314
   0.42995925  0.28861578  0.38988662
   0.68699243  0.45223096  0.83077787
   0.81700655  0.21059176  0.34491973
   0.68650537  0.78748651  0.60911519
   0.93385654  0.62548934  0.16877736
   0.81534966  0.37033196  0.78718291
   0.94043289  0.45363104  0.70305841
   0.56506705  0.87109314  0.16887943
   0.81180819  0.54342074  0.25573981
   0.31280548  0.37238509  0.52139173
   0.18806488  0.79063593  0.25672352
   0.06298640  0.87006534  0.78689882
   0.31302675  0.53887844  0.87331966
   0.06687764  0.70442814  0.34487518
   0.06459695  0.20435738  0.70286514
   0.68743722  0.79321759  0.25557736
   0.43682431  0.28864091  0.74455300
   0.68860752  0.12004406  0.16903327
   0.81151121  0.03894188  0.25596237
   0.93886493  0.12519013  0.78705586
   0.06072275  0.71006607  0.21187107
   0.18687041  0.28960985  0.87323507
   0.56242738  0.20652773  0.47784381
   0.18565480  0.61590123  0.43198939
   0.81110128  0.37501467  0.16871026
   0.30760302  0.04258774  0.38868309
   0.93483736  0.78911454  0.12757843
   0.18984390  0.95452189  0.21184275
   0.43814855  0.78882410  0.74513176
   0.68721833  0.61879269  0.52207777
   0.18786620  0.28948270  0.60944932
   0.81287024  0.37125198  0.52147140
   0.06426886  0.54369021  0.25673409
   0.81635293  0.04217653  0.39032419
   0.31124728  0.20628716  0.83077511
   0.69014301  0.45613112  0.34457895
   0.31439165  0.87214216  0.16928856
   0.43394092  0.62777445  0.30008769
   0.93504518  0.12086704  0.65574446
   0.31269173  0.70498246  0.70358986
   0.31174906  0.87271389  0.30015588
   0.05959910  0.87415868  0.52213927
   0.31615746  0.70827402  0.21184925
   0.18849434  0.45047513  0.47764663
   0.68580815  0.62621306  0.29930186
   0.56178729  0.86939714  0.78662292
   0.06147299  0.37025188  0.52146039
   0.56214409  0.37510522  0.52100721
   0.56375412  0.04206073  0.61043304
   0.81535695  0.87230307  0.43386421
   0.42791345  0.95508688  0.34336170
   0.69061585  0.62537470  0.16919107
   0.68721188  0.95350630  0.21122183
   0.18850793  0.95101832  0.34497261
   0.56142077  0.04117057  0.25614763
   0.81116561  0.53639395  0.87198989
   0.81020968  0.20661334  0.56560964
   0.93896944  0.78574181  0.74528151
   0.31488227  0.20991947  0.56601609
Direct configuration=     3
   0.81249497  0.70472344  0.83146917
   0.43723079  0.12110563  0.78811682
   0.68798270  0.78770571  0.12635710
   0.81313765  0.87274723  0.52121950
   0.43800106  0.95623355  0.21280783
   0.31316436  0.20486610  0.21278574
   0.06209602  0.03935478  0.38887695
   0.56158578  0.70575902  0.34439757
   0.81248951  0.03917598  0.87302263
   0.93739363  0.28824950  0.38880796
   0.18734552  0.12325245  0.43385366
   0.18776749  0.78860140  0.61007175
   0.56300523  0.70494983  0.83185922
   0.43858213  0.28789448  0.12695397
   0.31165155  0.87378656  0.43339010
   0.18800111  0.62146217  0.65699939
   0.93644254  0.45481821  0.56530751
   0.06097015  0.54015376  0.12675703
   0.18896035  0.12146168  0.52104681
   0.31324297  0.53805885  0.61072862
   0.56304996  0.20386210  0.56479795
   0.93809616  0.12317593  0.43382677
   0.68602039  0.78861278  0.87325010
   0.43803953  0.95379021  0.83145823
   0.43815995  0.45493171  0.56500521
   0.93683141  0.62271460  0.43374086
   0.18855794  0.45489238  0.56533123
   0.93801254  0.28805015  0.87311415
   0.81109678  0.03907129  0.74427664
   0.93745014  0.45575498  0.34437250
   0.06158189  0.53618794  0.61044940
   0.93712136  0.78788665  0.38852568
   0.18762316  0.29023137  0.38841091
   0.81149175  0.53957190  0.12625338
   0.43728060  0.12222468  0.43394100
   0.06117303  0.87091449  0.65606290
   0.93866719  0.29030829  0.25636377
   0.31284452  0.36922689  0.78859290
   0.18749648  0.28960559  0.12695156
   0.31217916  0.20732581  0.34482131
   0.18802028  0.62320124  0.16843963
   0.93643252  0.62181892  0.78907885
   0.18862571  0.45506945  0.34458194
   0.93874535  0.12304093  0.30024211
   0.18716365  0.45494721  0.83151432
   0.06235426  0.87371061  0.43373345
   0.06308295  0.70389165  0.70085888
   0.06261471  0.87468073  0.16841913
   0.06258658  0.03887785  0.61077524
   0.93778373  0.62247573  0.30009420
   0.68715975  0.12470545  0.29978201
   0.06317413  0.20501755  0.83158137
   0.68618221  0.62292822  0.65483195
   0.43620950  0.62257856  0.52087670
   0.31280767  0.37548164  0.43375759
   0.81181367  0.03865926  0.12642345
   0.43722187  0.78934208  0.25612388
   0.93612780  0.28938164  0.12653264
   0.06255512  0.20546488  0.21276201
   0.18815162  0.12062375  0.78841732
   0.81290024  0.20484685  0.83178747
   0.81248942  0.87338055  0.30016953
   0.93809990  0.62510679  0.52074788
   0.68806521  0.28836061  0.38930680
   0.81191024  0.37025599  0.65540195
   0.56270230  0.20680320  0.21260869
   0.18631655  0.62406118  0.52087778
   0.31214437  0.03843922  0.87271486
   0.81225558  0.87179595  0.65534245
   0.43615650  0.45653487  0.34475692
   0.68806084  0.12132770  0.43393259
   0.56184772  0.20468694  0.83167703
   0.18748076  0.28900968  0.25633280
   0.43793326  0.12308157  0.52140339
   0.93744559  0.12445742  0.16847876
   0.68747591  0.12145859  0.78805963
   0.56182258  0.03993393  0.38930259
   0.56105936  0.53906648  0.38871491
   0.93716550  0.78783896  0.61061558
   0.31376809  0.70507979  0.56520820
   0.81224707  0.03925551  0.61096154
   0.43869363  0.62368708  0.65548711
   0.06153205  0.37329923  0.16858781
   0.31222359  0.70417296  0.83150115
   0.93723238  0.28812307  0.61071547
   0.43622900  0.45811906  0.47837348
   0.43768926  0.45599826  0.21298233
   0.68755883  0.45427162  0.56504103
   0.31474490  0.03785902  0.74460024
   0.06300182  0.03910659  0.87290062
   0.18844792  0.45573496  0.21292269
   0.93802218  0.78829046  0.87268275
   0.31340903  0.36958487  0.65565296
   0.81268103  0.20757070  0.21271716
   0.43687046  0.62224758  0.16828038
   0.06200448  0.20400362  0.56508876
   0.93795245  0.95473704  0.83132045
   0.43694558  0.29024952  0.25613810
   0.31258168  0.03816102  0.61097195
   0.93819458  0.45898505  0.47828159
   0.31254357  0.37269043  0.30008372
   0.18726984  0.12307615  0.30020236
   0.06179538  0.03793110  0.74479427
   0.81471602  0.70450148  0.47821208
   0.06184143  0.70492337  0.56502081
   0.81317598  0.37437586  0.30020316
   0.81295336  0.37171794  0.43408289
   0.68714800  0.62128219  0.43399848
   0.56160097  0.70490779  0.47824384
   0.81305065  0.87458585  0.16816299
   0.06209304  0.70496468  0.83163183
   0.56233184  0.87167757  0.43399583
   0.18729933  0.62085066  0.30005045
   0.43848201  0.78689865  0.87337359
   0.31464526  0.54056449  0.38858831
   0.18743510  0.95480041  0.83136265
   0.18789417  0.12153055  0.65566647
   0.18868829  0.78895425  0.74434273
   0.18681752  0.95379798  0.70050955
   0.56036283  0.20695957  0.34461950
   0.93634059  0.28626988  0.74367758
   0.56193267  0.87015255  0.65548267
   0.56261265  0.70632272  0.56522733
   0.06341073  0.36935612  0.78878757
   0.68740389  0.45510518  0.70029042
   0.68656316  0.12198744  0.52137314
   0.93735193  0.62183527  0.65523076
   0.31259546  0.87262596  0.78872963
   0.31331777  0.03985521  0.12682163
   0.81331800  0.70535678  0.34457943
   0.93663473  0.95707689  0.56526503
   0.06403265  0.53784106  0.87297861
   0.31150027  0.03896770  0.25599666
   0.93665862  0.11970078  0.52135700
   0.93649931  0.95790914  0.21295010
   0.68746643  0.95424619  0.69998851
   0.31230283  0.53770226  0.74388820
   0.56364778  0.53935869  0.12702800
   0.18667314  0.62259286  0.78929386
   0.56191604  0.03694767  0.87337124
   0.56288084  0.20626373  0.69973695
   0.18779647  0.79032802  0.38883334
   0.68687272  0.28609153  0.87345072
   0.68690218  0.95397092  0.83161177
   0.68800253  0.12321488  0.65507028
   0.43677785  0.12482608  0.30006513
   0.18862002  0.28563789  0.74450990
   0.93767212  0.45444670  0.83164456
   0.43783456  0.12370885  0.16816206
   0.43887539  0.79102082  0.12686417
   0.68536502  0.95287265  0.47845332
   0.81189708  0.20837812  0.47837651
   0.06289076  0.03940549  0.25609368
   0.31252457  0.20604982  0.47830260
   0.56311079  0.03875287  0.74418780
   0.81354324  0.70431379  0.70043433
   0.56174015  0.70581891  0.21333704
   0.56307698  0.87375233  0.30003504
   0.31345634  0.37323351  0.16831202
   0.06164664  0.04050551  0.12668323
   0.31216033  0.20563752  0.70066656
   0.56293672  0.53761321  0.74409259
   0.68941582  0.45652273  0.47841761
   0.18807942  0.95808247  0.56525638
   0.68687455  0.95675305  0.34459047
   0.18668703  0.78713781  0.87295563
   0.06149674  0.87150113  0.30013172
   0.43751867  0.12210615  0.65543730
   0.06325770  0.70507616  0.47775603
   0.43765715  0.78811688  0.61071519
   0.56341484  0.87333494  0.52118612
   0.81263025  0.53747719  0.38885529
   0.18754663  0.12283082  0.16841676
   0.68789769  0.78982590  0.38892061
   0.56150340  0.70380901  0.70058678
   0.31222527  0.53967966  0.12719320
   0.31302509  0.87149510  0.65590799
   0.43758959  0.95527530  0.69999384
   0.56220659  0.37210081  0.65502399
   0.56253663  0.37274258  0.43426136
   0.06166070  0.54019984  0.38855616
   0.56198689  0.37247410  0.16800664
   0.68705789  0.78929449  0.74416556
   0.93710000  0.78896799  0.25617632
   0.68801614  0.62095529  0.78847537
   0.43566888  0.78991373  0.38863783
   0.93716274  0.45684006  0.21294059
   0.56276741  0.53917734  0.61064391
   0.93805810  0.95407210  0.70064405
   0.43844009  0.95690106  0.56535569
   0.68798551  0.29201758  0.25579728
   0.81270612  0.87255586  0.78802544
   0.81206227  0.53723111  0.74392711
   0.43846878  0.62174582  0.78873549
   0.68645898  0.29041684  0.12668340
   0.81155077  0.70597472  0.56512803
   0.56227316  0.37338160  0.30000033
   0.43805084  0.28861082  0.87318558
   0.18783204  0.45538380  0.70090787
   0.18704282  0.79118712  0.12714312
   0.06154476  0.37378580  0.43417660
   0.06294178  0.20623280  0.47792770
   0.93902636  0.95589262  0.34469372
   0.06309251  0.20666616  0.34496231
   0.31187629  0.87302714  0.52097695
   0.56344548  0.03913071  0.12665384