unknown system                          
           1
     9.726678    0.000000    0.000000
     0.000000    8.423550    0.000000
     0.000000    0.000000   45.000000
   Fe   Mn
 281   7
Direct configuration=     1
   0.05403878  0.70108908  0.21126113
   0.31813699  0.72416597  0.87627911
   0.68801678  0.95841411  0.61134090
   0.43842042  0.45856909  0.61156470
   0.44060890  0.28739904  0.25506687
   0.05859589  0.38822099  0.83359910
   0.30851714  0.88757063  0.83356504
   0.44685595  0.62644774  0.70041433
   0.05973801  0.21260611  0.74492021
   0.17887998  0.45134979  0.21132934
   0.56787767  0.21081394  0.47747769
   0.06662692  0.87514928  0.56691605
   0.56811712  0.22396336  0.87613400
   0.80912423  0.52794264  0.12390888
   0.42906820  0.95130676  0.21136598
   0.56647327  0.37497902  0.56684348
   0.81127222  0.04169879  0.38831808
   0.68181757  0.78902155  0.52237822
   0.44274750  0.46075715  0.47747001
   0.43386986  0.96256203  0.74473592
   0.44176922  0.62516075  0.56683755
   0.57133893  0.87643954  0.70055697
   0.30922806  0.02589008  0.12387814
   0.69007830  0.95904828  0.34407363
   0.68794387  0.78200726  0.12417639
   0.05266285  0.37392368  0.29955800
   0.68971322  0.46801322  0.87612009
   0.42894099  0.45119696  0.21140577
   0.80840582  0.37510068  0.43307928
   0.56359881  0.70870651  0.61154597
   0.56003122  0.54051179  0.65591344
   0.81775842  0.86196398  0.16670511
   0.56570050  0.53747751  0.25516316
   0.68982501  0.45885696  0.34400341
   0.19173501  0.61164639  0.16637486
   0.19441242  0.79967605  0.78886163
   0.44669205  0.12586165  0.70034281
   0.92792106  0.62364563  0.29958888
   0.31764582  0.22382248  0.87610650
   0.31677612  0.87476506  0.56684938
   0.81737964  0.22380823  0.87622713
   0.80964572  0.54067965  0.65588117
   0.55892678  0.52691328  0.12383172
   0.56922963  0.04972349  0.78901529
   0.19064874  0.28739817  0.25516997
   0.80849398  0.87484051  0.43307881
   0.57217298  0.37626864  0.70040775
   0.05724243  0.02685372  0.12405343
   0.30972549  0.54066270  0.65588538
   0.56527939  0.20895777  0.34402676
   0.18801194  0.95848668  0.61149377
   0.30285607  0.37399756  0.29960972
   0.43473546  0.79050556  0.65599788
   0.19492928  0.29919612  0.78883460
   0.06749621  0.36315590  0.16664644
   0.69730413  0.62567559  0.70046416
   0.31157511  0.54113820  0.38844309
   0.06762249  0.72344866  0.87618081
   0.93371464  0.63766199  0.83401555
   0.31997634  0.54948651  0.78891238
   0.30451839  0.20054534  0.21118811
   0.06803956  0.71069303  0.47748356
   0.55443104  0.20083719  0.21108916
   0.30957550  0.21246848  0.74489729
   0.07143936  0.37637561  0.70059252
   0.18332132  0.63745821  0.83350876
   0.06930324  0.04940550  0.78902545
   0.44155731  0.12504082  0.56691104
   0.93460680  0.29079713  0.65586917
   0.80426434  0.20129636  0.21118786
   0.92926075  0.95128072  0.21128864
   0.94155948  0.62504858  0.56689384
   0.80829286  0.38781748  0.83353427
   0.19664624  0.62654683  0.70035421
   0.80867912  0.88777072  0.83354369
   0.68468420  0.29071016  0.65595327
   0.31295445  0.20818102  0.61140434
   0.43471895  0.46289876  0.74469706
   0.43635615  0.79116582  0.38842477
   0.68468352  0.96250000  0.74479086
   0.80388414  0.70104743  0.21123427
   0.81319992  0.70874362  0.61153227
   0.43727074  0.78377966  0.12395104
   0.30981984  0.71221171  0.74482943
   0.32008361  0.04941130  0.78881286
   0.81138047  0.54141284  0.38833201
   0.68251044  0.28838194  0.52229257
   0.69482135  0.79931812  0.78892119
   0.19040953  0.78773991  0.25519936
   0.69184061  0.11245312  0.16662565
   0.69273814  0.96082330  0.47747482
   0.94025314  0.95920786  0.34410297
   0.80729214  0.03928076  0.52247973
   0.68346149  0.62489879  0.43309312
   0.44013766  0.45863322  0.34401419
   0.81019391  0.21183262  0.74461732
   0.43976071  0.96822520  0.87610533
   0.56662341  0.87486964  0.56682476
   0.80938012  0.02786072  0.12396631
   0.42802066  0.62400204  0.29942146
   0.81687640  0.72379465  0.87638650
   0.68787305  0.45806867  0.61144384
   0.55845312  0.38743191  0.83348805
   0.80278733  0.37339698  0.29947083
   0.18644531  0.29109582  0.38838059
   0.81991823  0.54930764  0.78893544
   0.18245007  0.78926286  0.52252474
   0.30292245  0.87410148  0.29958883
   0.17828851  0.95135515  0.21129271
   0.18461493  0.46241347  0.74486841
   0.43255347  0.28848890  0.52231715
   0.06526985  0.70898822  0.34398132
   0.18492858  0.79048813  0.65585798
   0.44479110  0.79926697  0.78884216
   0.68344458  0.12506505  0.43298950
   0.93229758  0.78864098  0.52231641
   0.69188588  0.61250822  0.16663126
   0.81478614  0.70870159  0.34396895
   0.93439523  0.46246460  0.74493944
   0.19034160  0.45893323  0.34409344
   0.56969593  0.54979401  0.78913512
   0.56641358  0.36250889  0.16645174
   0.56489706  0.70898649  0.34395458
   0.55280593  0.37379326  0.29960919
   0.18972427  0.46797588  0.87607110
   0.19159139  0.11129282  0.16639430
   0.44467269  0.29900804  0.78879484
   0.69097875  0.78733650  0.25539189
   0.93357543  0.13777125  0.83357317
   0.44285768  0.96068736  0.47745204
   0.56751832  0.72482849  0.87624005
   0.19268254  0.46063023  0.47743978
   0.93435267  0.28165727  0.12410932
   0.31144539  0.04136388  0.38839721
   0.06001293  0.04047381  0.65597680
   0.55845757  0.37475409  0.43307929
   0.68378409  0.46274189  0.74505190
   0.56020566  0.21258780  0.74485413
   0.94656649  0.12607738  0.70042847
   0.55965368  0.04073588  0.65582415
   0.55709047  0.53921889  0.52253512
   0.17801494  0.12386980  0.29958215
   0.44189878  0.11043825  0.16634975
   0.67772762  0.62355855  0.29958794
   0.92789993  0.12358457  0.29965512
   0.81647058  0.37507491  0.56690556
   0.05300394  0.87403353  0.29953733
   0.19158490  0.62490431  0.56690162
   0.94455805  0.79988510  0.78890238
   0.30838671  0.38746599  0.83351051
   0.93957652  0.46836903  0.87614272
   0.43354197  0.63771673  0.83352013
   0.06516043  0.20878157  0.34390020
   0.18985516  0.96825768  0.87608587
   0.93482400  0.78197205  0.12411399
   0.68635392  0.79124596  0.38837960
   0.93479114  0.79058838  0.65585427
   0.94137557  0.11189134  0.16651613
   0.43506380  0.29072672  0.65607386
   0.05426549  0.20106952  0.21126316
   0.67889588  0.95126864  0.21128194
   0.17830693  0.62378675  0.29944149
   0.82183298  0.87630720  0.70043115
   0.94644831  0.62665542  0.70051530
   0.19625752  0.12583510  0.70035922
   0.94290974  0.46066089  0.47741014
   0.81309218  0.20844773  0.61152388
   0.18332362  0.62496353  0.43311412
   0.42800670  0.12370775  0.29940771
   0.67817194  0.12340577  0.29942578
   0.56151445  0.54130327  0.38841200
   0.81463057  0.20855822  0.34396097
   0.43976504  0.46791676  0.87592957
   0.55862747  0.88756946  0.83348978
   0.31794661  0.21056065  0.47743872
   0.19296078  0.96069791  0.47748433
   0.05854548  0.88762770  0.83353735
   0.05715332  0.53925123  0.52248046
   0.94263585  0.96058862  0.47735236
   0.06315802  0.70838531  0.61159370
   0.55741232  0.03864806  0.52236589
   0.69496749  0.29915372  0.78884621
   0.81777392  0.36183476  0.16669845
   0.43353011  0.12490701  0.43304815
   0.06783467  0.21079853  0.47746091
   0.30978349  0.04070271  0.65587624
   0.43225511  0.78925031  0.52245465
   0.18368561  0.13790910  0.83356450
   0.18558634  0.28298259  0.12425714
   0.94038439  0.45927146  0.34410080
   0.56669156  0.86257800  0.16646568
   0.30403649  0.70078990  0.21125309
   0.94129363  0.61226319  0.16651813
   0.18817685  0.45861729  0.61149837
   0.07206151  0.87662848  0.70028269
   0.05977201  0.54064911  0.65587099
   0.30820666  0.52621749  0.12396790
   0.93633430  0.79110176  0.38844491
   0.94457617  0.29896020  0.78879641
   0.18483385  0.29076688  0.65596373
   0.93782081  0.95803108  0.61134238
   0.81071560  0.71127689  0.74464665
   0.69086508  0.28766271  0.25528968
   0.05928541  0.71223886  0.74498089
   0.67891165  0.45131340  0.21124345
   0.81795945  0.21075084  0.47752410
   0.56768239  0.71061508  0.47741413
   0.06775225  0.86347835  0.16660407
   0.93231829  0.28885220  0.52248632
   0.68452591  0.79060308  0.65590806
   0.05836171  0.87467242  0.43311395
   0.06823104  0.22323432  0.87615527
   0.80988332  0.04063174  0.65599208
   0.55960687  0.02691684  0.12384708
   0.30855297  0.37483892  0.43303511
   0.31658077  0.37492069  0.56688527
   0.31769160  0.71051697  0.47735981
   0.05701717  0.03904287  0.52255383
   0.32155163  0.87648516  0.70057505
   0.06507703  0.53756310  0.25511351
   0.68361050  0.13775500  0.83352441
   0.81508539  0.03752887  0.25518958
   0.18362809  0.12495778  0.43310353
   0.69727192  0.12636387  0.70039902
   0.18241571  0.28919693  0.52249350
   0.44062254  0.78771564  0.25525738
   0.44152211  0.61060845  0.16641385
   0.06325133  0.20840137  0.61148428
   0.18606961  0.79122722  0.38837173
   0.30740486  0.53891046  0.52249860
   0.93339565  0.12489881  0.43309251
   0.68640053  0.29127758  0.38838606
   0.19157278  0.12520956  0.56689893
   0.68962614  0.96846420  0.87611690
   0.69160757  0.12504999  0.56688143
   0.44016024  0.95892767  0.34406019
   0.18376723  0.96255694  0.74482678
   0.94058084  0.78761978  0.25521625
   0.55837843  0.87501592  0.43308675
   0.30828119  0.87521072  0.43309364
   0.80738062  0.53937394  0.52252281
   0.92923250  0.45126761  0.21128418
   0.31532553  0.53779438  0.25509515
   0.56152313  0.04131377  0.38838584
   0.93790514  0.45823772  0.61153028
   0.06133698  0.04133916  0.38842893
   0.06158463  0.54125908  0.38842781
   0.43657594  0.29120454  0.38837510
   0.69298084  0.46048267  0.47747035
   0.06677702  0.37513288  0.56689110
   0.55417355  0.70089542  0.21110216
   0.94093367  0.28743380  0.25538068
   0.81902787  0.04961112  0.78918015
   0.18998235  0.95896899  0.34400016
   0.55289966  0.87386054  0.29963579
   0.05856343  0.37493080  0.43312867
   0.31510367  0.70907207  0.34399774
   0.31489782  0.20905080  0.34395041
   0.94182260  0.12498847  0.56674943
   0.43845769  0.95875118  0.61157744
   0.56549335  0.03749050  0.25502839
   0.18594651  0.78280293  0.12422595
   0.06527437  0.03719199  0.25512982
   0.69169932  0.62503556  0.56687733
   0.05696559  0.52598254  0.12411903
   0.30707035  0.03858007  0.52223360
   0.68748863  0.28198636  0.12417192
   0.81796254  0.71068395  0.47743524
   0.43345702  0.13784222  0.83355012
   0.32228246  0.37629746  0.70037030
   0.68367923  0.63791418  0.83350602
   0.55968103  0.71223839  0.74488463
   0.93682423  0.29157480  0.38847891
   0.93982421  0.96842695  0.87612640
   0.56280272  0.20824414  0.61124824
   0.81653432  0.87495662  0.56688113
   0.80333751  0.87341865  0.29944558
   0.31520463  0.03767727  0.25512832
   0.43679486  0.28362914  0.12403134
   0.31326783  0.70840781  0.61158920
   0.43350556  0.62504246  0.43311074
   0.93277983  0.62503407  0.43325129
   0.31821549  0.86280007  0.16570086
   0.07085976  0.54944666  0.78874758
   0.82215008  0.37673846  0.70025364
   0.31851415  0.36326008  0.16575606
   0.93289623  0.96181537  0.74477725
   0.81599853  0.53746103  0.25549769
Direct configuration=     2
   0.05460247  0.70108351  0.21123311
   0.31785280  0.72365446  0.87620704
   0.68807030  0.95839250  0.61135868
   0.43838624  0.45848308  0.61154422
   0.44004465  0.28731314  0.25513044
   0.05891856  0.38801723  0.83368120
   0.30891699  0.88744607  0.83365698
   0.44619263  0.62649578  0.70041172
   0.06026674  0.21264840  0.74486713
   0.17938466  0.45133801  0.21131197
   0.56731985  0.21054619  0.47752360
   0.06628276  0.87507598  0.56690261
   0.56777944  0.22338748  0.87607397
   0.80927602  0.52827636  0.12399171
   0.42964751  0.95131481  0.21132910
   0.56615573  0.37494730  0.56682929
   0.81134302  0.04173637  0.38834444
   0.68243136  0.78926779  0.52234639
   0.44221420  0.46052360  0.47752248
   0.43443568  0.96260982  0.74470376
   0.44136453  0.62508615  0.56683921
   0.57069576  0.87644519  0.70052415
   0.30943417  0.02659613  0.12391387
   0.68962951  0.95889753  0.34408079
   0.68791471  0.78166447  0.12424437
   0.05338047  0.37385397  0.29957417
   0.68960407  0.46849622  0.87603097
   0.42954350  0.45123292  0.21136224
   0.80878711  0.37509902  0.43307608
   0.56352627  0.70860189  0.61154396
   0.56045990  0.54062291  0.65589581
   0.81729911  0.86219298  0.16659883
   0.56500778  0.53743012  0.25521205
   0.68939863  0.45876175  0.34401543
   0.19126508  0.61180183  0.16634559
   0.19404124  0.79961776  0.78884641
   0.44610275  0.12591449  0.70034755
   0.92862244  0.62360631  0.29960921
   0.31730852  0.22329178  0.87605266
   0.31635390  0.87475869  0.56684106
   0.81708979  0.22327576  0.87615563
   0.81009161  0.54083565  0.65585502
   0.55910882  0.52728594  0.12391614
   0.56888840  0.04967977  0.78900307
   0.19008187  0.28733853  0.25521533
   0.80882009  0.87491957  0.43306984
   0.57138190  0.37629540  0.70041313
   0.05781171  0.02718872  0.12410685
   0.31015925  0.54073235  0.65587887
   0.56478866  0.20883213  0.34404417
   0.18804280  0.95839771  0.61148012
   0.30352874  0.37396674  0.29960532
   0.43517955  0.79067384  0.65596744
   0.19446252  0.29910397  0.78883632
   0.06699084  0.36319919  0.16655308
   0.69645985  0.62583559  0.70044968
   0.31158380  0.54121839  0.38845201
   0.06731037  0.72294475  0.87613819
   0.93407199  0.63752519  0.83405798
   0.31959169  0.54952460  0.78891633
   0.30493402  0.20050365  0.21116965
   0.06746810  0.71047168  0.47754527
   0.55483589  0.20084716  0.21108768
   0.31013468  0.21260560  0.74482582
   0.07088665  0.37643839  0.70055365
   0.18371943  0.63735672  0.83357473
   0.06893819  0.04939245  0.78901611
   0.44122158  0.12499430  0.56689933
   0.93509167  0.29090977  0.65584882
   0.80472260  0.20130292  0.21117592
   0.92973358  0.95133414  0.21128741
   0.94121485  0.62502463  0.56687663
   0.80868168  0.38765944  0.83363412
   0.19599968  0.62659115  0.70035438
   0.80901619  0.88760287  0.83364637
   0.68514605  0.29075511  0.65591872
   0.31301832  0.20816713  0.61142255
   0.43519641  0.46285286  0.74466007
   0.43638318  0.79123049  0.38843153
   0.68510337  0.96251300  0.74475069
   0.80438687  0.70101467  0.21122257
   0.81318959  0.70867269  0.61150597
   0.43725287  0.78316479  0.12399462
   0.31030146  0.71231773  0.74477369
   0.31966390  0.04944594  0.78883596
   0.81142400  0.54146309  0.38835388
   0.68303622  0.28877884  0.52226665
   0.69441206  0.79930158  0.78891053
   0.18989837  0.78773262  0.25524610
   0.69142067  0.11261394  0.16655895
   0.69216954  0.96057524  0.47752749
   0.93980628  0.95906729  0.34410907
   0.80783047  0.03943890  0.52242246
   0.68374383  0.62491217  0.43308469
   0.43967591  0.45863021  0.34403263
   0.81059473  0.21203636  0.74460968
   0.43966312  0.96869308  0.87602102
   0.56626162  0.87482254  0.56681178
   0.80953159  0.02814728  0.12404378
   0.42864730  0.62390479  0.29945710
   0.81663727  0.72331828  0.87631604
   0.68792585  0.45806475  0.61143795
   0.55882682  0.38736652  0.83357499
   0.80347034  0.37337296  0.29950435
   0.18647772  0.29119315  0.38839154
   0.81942192  0.54935998  0.78896392
   0.18298803  0.78947089  0.52248211
   0.30361192  0.87401195  0.29958980
   0.17891424  0.95138934  0.21128459
   0.18518244  0.46250930  0.74481628
   0.43303793  0.28883343  0.52228797
   0.06482275  0.70890336  0.34401840
   0.18536667  0.79059364  0.65583570
   0.44435250  0.79932065  0.78883485
   0.68372012  0.12504743  0.43299927
   0.93286297  0.78893252  0.52229466
   0.69145456  0.61261244  0.16655463
   0.81440608  0.70864199  0.34400792
   0.93496464  0.46249481  0.74487612
   0.18986443  0.45887710  0.34410045
   0.56934249  0.54976681  0.78912051
   0.56626244  0.36270991  0.16635184
   0.56443479  0.70891867  0.34400276
   0.55353391  0.37373426  0.29960363
   0.18959976  0.46847007  0.87599872
   0.19121031  0.11151043  0.16635210
   0.44422736  0.29899095  0.78879526
   0.69028321  0.78731185  0.25540488
   0.93404017  0.13763736  0.83365810
   0.44226815  0.96044479  0.47750465
   0.56721975  0.72417379  0.87616581
   0.19212916  0.46042597  0.47749935
   0.93462515  0.28136096  0.12418319
   0.31145555  0.04142088  0.38841119
   0.06042274  0.04056528  0.65594191
   0.55881513  0.37477205  0.43307090
   0.68431321  0.46270664  0.74498195
   0.56069366  0.21269354  0.74478746
   0.94598062  0.12616393  0.70041841
   0.56012573  0.04081013  0.65581452
   0.55768058  0.53941658  0.52246710
   0.17866545  0.12379776  0.29958368
   0.44140254  0.11069906  0.16629890
   0.67837627  0.62355244  0.29960313
   0.92856624  0.12348366  0.29965932
   0.81613354  0.37503513  0.56689886
   0.05368804  0.87392487  0.29955857
   0.19123714  0.62489246  0.56690188
   0.94408346  0.79973599  0.78891285
   0.30879719  0.38735487  0.83360415
   0.93952366  0.46881877  0.87606250
   0.43398645  0.63764305  0.83360357
   0.06468695  0.20875495  0.34394622
   0.18971570  0.96867937  0.87600715
   0.93504750  0.78163444  0.12418470
   0.68639190  0.79132525  0.38839862
   0.93524185  0.79075017  0.65584012
   0.94098844  0.11216285  0.16646796
   0.43541185  0.29081797  0.65603623
   0.05486072  0.20108005  0.21124248
   0.67946171  0.95127808  0.21127913
   0.17890722  0.62374679  0.29947923
   0.82111219  0.87633145  0.70041839
   0.94587674  0.62670699  0.70049234
   0.19565792  0.12596005  0.70035973
   0.94235234  0.46042109  0.47747772
   0.81309484  0.20838117  0.61150968
   0.18376024  0.62497846  0.43310319
   0.42867696  0.12365490  0.29944455
   0.67876617  0.12335868  0.29945777
   0.56150767  0.54136167  0.38842788
   0.81427397  0.20851433  0.34401468
   0.43967185  0.46845595  0.87586899
   0.55897638  0.88744739  0.83359272
   0.31736466  0.21034723  0.47749498
   0.19236130  0.96045434  0.47753655
   0.05890659  0.88751983  0.83363023
   0.05773714  0.53945839  0.52242906
   0.94212168  0.96033630  0.47742094
   0.06317542  0.70830585  0.61157173
   0.55792685  0.03898091  0.52232939
   0.69452525  0.29911257  0.78883950
   0.81729338  0.36208890  0.16660245
   0.43384658  0.12491703  0.43304502
   0.06727990  0.21049435  0.47751861
   0.31024808  0.04080524  0.65586198
   0.43279041  0.78941978  0.52240240
   0.18411669  0.13775441  0.83363858
   0.18564981  0.28241585  0.12428373
   0.93987717  0.45914462  0.34411107
   0.56653073  0.86277245  0.16637139
   0.30453900  0.70072311  0.21123205
   0.94084354  0.61241720  0.16647086
   0.18817678  0.45849307  0.61149339
   0.07142611  0.87665852  0.70028167
   0.06023906  0.54074367  0.65586627
   0.30855243  0.52686322  0.12397924
   0.93634383  0.79120906  0.38844970
   0.94414900  0.29891493  0.78880765
   0.18524306  0.29084706  0.65593749
   0.93791821  0.95805996  0.61136378
   0.81105692  0.71150831  0.74463822
   0.69020498  0.28760336  0.25530972
   0.05997737  0.71236125  0.74491075
   0.67946840  0.45130348  0.21124591
   0.81738168  0.21047824  0.47756942
   0.56714865  0.71040255  0.47747893
   0.06716608  0.86350469  0.16651875
   0.93287061  0.28909617  0.52244113
   0.68497212  0.79073954  0.65589163
   0.05870158  0.87471925  0.43309828
   0.06785833  0.22271421  0.87610629
   0.81029680  0.04075374  0.65595594
   0.55970721  0.02728442  0.12392453
   0.30887578  0.37482918  0.43303393
   0.31624900  0.37491496  0.56686904
   0.31716679  0.71032767  0.47743176
   0.05763145  0.03923649  0.52248140
   0.32091266  0.87648593  0.70054447
   0.06462549  0.53749537  0.25517554
   0.68401882  0.13767936  0.83361315
   0.81455269  0.03743069  0.25524285
   0.18400563  0.12496610  0.43309680
   0.69647992  0.12639845  0.70038479
   0.18296610  0.28939926  0.52243902
   0.44003654  0.78768138  0.25529778
   0.44111473  0.61087107  0.16635957
   0.06328217  0.20831677  0.61145591
   0.18611165  0.79126941  0.38837973
   0.30794317  0.53916118  0.52244248
   0.93376269  0.12493081  0.43308142
   0.68641304  0.29136319  0.38840032
   0.19121496  0.12514872  0.56689234
   0.68954107  0.96891805  0.87603333
   0.69124658  0.12500773  0.56686817
   0.43969599  0.95887214  0.34407232
   0.18441417  0.96261073  0.74478092
   0.94001095  0.78757230  0.25526079
   0.55876607  0.87508502  0.43307803
   0.30865139  0.87522411  0.43309379
   0.80790692  0.53952964  0.52246668
   0.92971601  0.45129500  0.21129681
   0.31478981  0.53765471  0.25517029
   0.56151099  0.04137790  0.38840339
   0.93796001  0.45817086  0.61151904
   0.06136217  0.04142475  0.38844312
   0.06157286  0.54132567  0.38843629
   0.43657780  0.29127278  0.38838490
   0.69240144  0.46030546  0.47753035
   0.06638906  0.37508344  0.56688421
   0.55465984  0.70086980  0.21111165
   0.94029662  0.28736749  0.25540574
   0.81867365  0.04954518  0.78915007
   0.18955030  0.95890066  0.34402892
   0.55357989  0.87378832  0.29963162
   0.05891507  0.37494088  0.43311106
   0.31464404  0.70893239  0.34402492
   0.31448068  0.20890938  0.34397850
   0.94141094  0.12498637  0.56675668
   0.43837502  0.95862463  0.61156248
   0.56477968  0.03743213  0.25510284
   0.18598301  0.78225820  0.12424337
   0.06483272  0.03721218  0.25519455
   0.69131127  0.62496685  0.56687102
   0.05752250  0.52644187  0.12416317
   0.30765225  0.03892781  0.52221553
   0.68749291  0.28167975  0.12424058
   0.81734842  0.71047983  0.47749499
   0.43392349  0.13766784  0.83360170
   0.32158446  0.37630908  0.70036208
   0.68414198  0.63779825  0.83359411
   0.56019918  0.71230573  0.74483362
   0.93676255  0.29161693  0.38848346
   0.93973892  0.96883593  0.87604441
   0.56286328  0.20817588  0.61126998
   0.81621093  0.87490881  0.56687551
   0.80392528  0.87339401  0.29947447
   0.31464667  0.03756131  0.25519194
   0.43682093  0.28306946  0.12406210
   0.31326035  0.70837645  0.61156827
   0.43379314  0.62504688  0.43309776
   0.93320226  0.62502091  0.43322979
   0.31777781  0.86289281  0.16567674
   0.07033882  0.54944500  0.78876004
   0.82151190  0.37669421  0.70026185
   0.31801254  0.36326626  0.16573271
   0.93356360  0.96199609  0.74476060
   0.81540719  0.53736463  0.25547769
Direct configuration=     3
   0.05629356  0.70106680  0.21114905
   0.31700022  0.72211996  0.87599083
   0.68823088  0.95832768  0.61141204
   0.43828369  0.45822504  0.61148280
   0.43835191  0.28705544  0.25532115
   0.05988655  0.38740593  0.83392749
   0.31011653  0.88707238  0.83393280
   0.44420266  0.62663989  0.70040388
   0.06185294  0.21277528  0.74470788
   0.18089869  0.45130265  0.21125985
   0.56564641  0.20974295  0.47766134
   0.06525026  0.87485608  0.56686228
   0.56676640  0.22165985  0.87589389
   0.80973140  0.52927753  0.12424020
   0.43138545  0.95133895  0.21121846
   0.56520309  0.37485216  0.56678672
   0.81155541  0.04184908  0.38842351
   0.68427275  0.79000653  0.52225091
   0.44061429  0.45982295  0.47767988
   0.43613314  0.96275320  0.74460729
   0.44015046  0.62486235  0.56684418
   0.56876623  0.87646217  0.70042566
   0.31005250  0.02871427  0.12402106
   0.68828313  0.95844530  0.34410226
   0.68782725  0.78063612  0.12444830
   0.05553332  0.37364485  0.29962269
   0.68927661  0.46994521  0.87576360
   0.43135102  0.45134081  0.21123164
   0.80993101  0.37509402  0.43306646
   0.56330864  0.70828803  0.61153795
   0.56174594  0.54095627  0.65584291
   0.81592115  0.86287998  0.16627998
   0.56292960  0.53728796  0.25535872
   0.68811948  0.45847609  0.34405149
   0.18985527  0.61226817  0.16625778
   0.19292770  0.79944290  0.78880075
   0.44433483  0.12607300  0.70036178
   0.93072660  0.62348836  0.29967020
   0.31629663  0.22169970  0.87589115
   0.31508722  0.87473959  0.56681613
   0.81622023  0.22167834  0.87594112
   0.81142927  0.54130363  0.65577656
   0.55965495  0.52840392  0.12416938
   0.56786473  0.04954862  0.78896641
   0.18838128  0.28715963  0.25535139
   0.80979842  0.87515674  0.43304293
   0.56900866  0.37637568  0.70042929
   0.05951957  0.02819371  0.12426713
   0.31146054  0.54094132  0.65585935
   0.56331648  0.20845521  0.34409640
   0.18813539  0.95813080  0.61143916
   0.30554675  0.37387426  0.29959210
   0.43651182  0.79117869  0.65587612
   0.19306223  0.29882751  0.78884146
   0.06547472  0.36332908  0.16627298
   0.69392704  0.62631561  0.70040625
   0.31160987  0.54145896  0.38847876
   0.06637401  0.72143301  0.87601033
   0.93514403  0.63711478  0.83418527
   0.31843773  0.54963887  0.78892819
   0.30618089  0.20037859  0.21111427
   0.06575370  0.70980765  0.47773041
   0.55605041  0.20087708  0.21108324
   0.31181223  0.21301695  0.74461144
   0.06922850  0.37662674  0.70043706
   0.18491376  0.63705224  0.83377263
   0.06784304  0.04935331  0.78898810
   0.44021440  0.12485475  0.56686420
   0.93654626  0.29124768  0.65578777
   0.80609735  0.20132260  0.21114011
   0.93115207  0.95149441  0.21128374
   0.94018096  0.62495276  0.56682500
   0.80984815  0.38718532  0.83393369
   0.19405999  0.62672411  0.70035489
   0.81002742  0.88709930  0.83395444
   0.68653159  0.29088998  0.65581505
   0.31320991  0.20812545  0.61147719
   0.43662879  0.46271518  0.74454909
   0.43646425  0.79142450  0.38845181
   0.68636292  0.96255201  0.74463018
   0.80589508  0.70091640  0.21118748
   0.81315858  0.70845987  0.61142706
   0.43719925  0.78132018  0.12412538
   0.31174633  0.71263577  0.74460645
   0.31840477  0.04954985  0.78890527
   0.81155457  0.54161385  0.38841949
   0.68461354  0.28996954  0.52218891
   0.69318417  0.79925196  0.78887854
   0.18836488  0.78771074  0.25538632
   0.69016086  0.11309637  0.16635886
   0.69046373  0.95983107  0.47768548
   0.93846568  0.95864558  0.34412735
   0.80944548  0.03991334  0.52225066
   0.68459088  0.62495231  0.43305939
   0.43829068  0.45862119  0.34408794
   0.81179719  0.21264755  0.74458676
   0.43937036  0.97009672  0.87576811
   0.56517624  0.87468126  0.56677284
   0.80998601  0.02900698  0.12427618
   0.43052720  0.62361306  0.29956402
   0.81591988  0.72188917  0.87610467
   0.68808422  0.45805299  0.61142028
   0.55994793  0.38717037  0.83383579
   0.80551939  0.37330091  0.29960492
   0.18657495  0.29148514  0.38842437
   0.81793298  0.54951698  0.78904934
   0.18460189  0.79009498  0.52235419
   0.30568033  0.87374336  0.29959271
   0.18079143  0.95149188  0.21126020
   0.18688497  0.46279680  0.74465989
   0.43449128  0.28986701  0.52220041
   0.06348147  0.70864878  0.34412964
   0.18668093  0.79091017  0.65576886
   0.44303672  0.79948171  0.78881290
   0.68454676  0.12499458  0.43302859
   0.93455914  0.78980715  0.52222940
   0.69016061  0.61292510  0.16632475
   0.81326592  0.70846316  0.34412484
   0.93667286  0.46258543  0.74468616
   0.18843289  0.45870874  0.34412149
   0.56828219  0.54968523  0.78907665
   0.56580901  0.36331299  0.16605212
   0.56304796  0.70871522  0.34414729
   0.55571786  0.37355728  0.29958697
   0.18922625  0.46995264  0.87578159
   0.19006707  0.11216326  0.16622552
   0.44289135  0.29893969  0.78879653
   0.68819662  0.78723792  0.25544387
   0.93543437  0.13723569  0.83391292
   0.44049954  0.95971705  0.47766251
   0.56632406  0.72220969  0.87594308
   0.19046903  0.45981316  0.47767804
   0.93544258  0.28047203  0.12440477
   0.31148602  0.04159188  0.38845314
   0.06165219  0.04083970  0.65583723
   0.55988783  0.37482594  0.43304572
   0.68590056  0.46260090  0.74477211
   0.56215767  0.21301074  0.74458743
   0.94422303  0.12642360  0.70038824
   0.56154186  0.04103287  0.65578561
   0.55945090  0.54000966  0.52226306
   0.18061700  0.12358162  0.29958826
   0.43991379  0.11148152  0.16614637
   0.68032222  0.62353410  0.29964869
   0.93056514  0.12318093  0.29967193
   0.81512244  0.37491578  0.56687876
   0.05574035  0.87359890  0.29962228
   0.19019385  0.62485689  0.56690265
   0.94265970  0.79928867  0.78894427
   0.31002864  0.38702151  0.83388508
   0.93936509  0.47016800  0.87582187
   0.43531991  0.63742200  0.83385387
   0.06326653  0.20867508  0.34408427
   0.18929731  0.96994444  0.87577098
   0.93571799  0.78062161  0.12439683
   0.68650585  0.79156312  0.38845570
   0.93659401  0.79123555  0.65579769
   0.93982704  0.11297736  0.16632343
   0.43645599  0.29109172  0.65592334
   0.05664641  0.20111161  0.21118044
   0.68115919  0.95130640  0.21127071
   0.18070810  0.62362691  0.29959244
   0.81894982  0.87640421  0.70038011
   0.94416205  0.62686168  0.70042346
   0.19385914  0.12633493  0.70036127
   0.94068016  0.45970167  0.47768048
   0.81310283  0.20818149  0.61146706
   0.18507010  0.62502326  0.43307038
   0.43068777  0.12349634  0.29955506
   0.68054886  0.12321742  0.29955375
   0.56148733  0.54153685  0.38847549
   0.81320415  0.20838269  0.34417580
   0.43939229  0.47007351  0.87568726
   0.56002313  0.88708118  0.83390152
   0.31561880  0.20970698  0.47766376
   0.19056284  0.95972363  0.47769321
   0.05998989  0.88719624  0.83390888
   0.05948859  0.54007989  0.52227487
   0.94057916  0.95957935  0.47762665
   0.06322762  0.70806746  0.61150581
   0.55947045  0.03997944  0.52221988
   0.69319853  0.29898913  0.78881937
   0.81585176  0.36285135  0.16631444
   0.43479601  0.12494708  0.43303563
   0.06561559  0.20958179  0.47769170
   0.31164186  0.04111283  0.65581919
   0.43439631  0.78992818  0.52224564
   0.18540992  0.13729034  0.83386082
   0.18584024  0.28071562  0.12436352
   0.93835548  0.45876412  0.34414190
   0.56604823  0.86335580  0.16608854
   0.30604656  0.70052275  0.21116892
   0.93949326  0.61287923  0.16632904
   0.18817655  0.45812039  0.61147845
   0.06951992  0.87674864  0.70027861
   0.06164022  0.54102734  0.65585211
   0.30958972  0.52880044  0.12401326
   0.93637242  0.79153097  0.38846409
   0.94286751  0.29877911  0.78884136
   0.18647072  0.29108758  0.65585878
   0.93821043  0.95814660  0.61142800
   0.81208088  0.71220259  0.74461294
   0.68822466  0.28742528  0.25536983
   0.06205327  0.71272840  0.74470034
   0.68113866  0.45127370  0.21125330
   0.81564837  0.20966045  0.47770539