       N       E                     dE             d eps       ncg     rms          rms(c)
DAV:   1     0.303924532185E+05    0.30392E+05   -0.91692E+05 27770   0.213E+03
DAV:   2     0.152363453715E+04   -0.28869E+05   -0.28273E+05 27600   0.616E+02
DAV:   3    -0.189736829726E+04   -0.34210E+04   -0.29737E+04 38540   0.298E+02
DAV:   4    -0.260966652664E+04   -0.71230E+03   -0.64879E+03 50660   0.104E+02
DAV:   5    -0.273935673027E+04   -0.12969E+03   -0.12132E+03 48190   0.423E+01    0.206E+02
RMM:   6    -0.563665683548E+04   -0.28973E+04   -0.11364E+04 47953   0.246E+02    0.621E+02
RMM:   7    -0.357601524536E+04    0.20606E+04   -0.40452E+03 35781   0.109E+02    0.375E+02
RMM:   8    -0.706605071779E+04   -0.34900E+04   -0.72058E+03 41760   0.213E+02    0.560E+02
RMM:   9    -0.714965044444E+04   -0.83600E+02   -0.85168E+03 47896   0.166E+02    0.575E+02
RMM:  10    -0.586047808906E+04    0.12892E+04   -0.38280E+03 45969   0.898E+01    0.484E+02
RMM:  11    -0.145501370498E+05   -0.86897E+04   -0.21814E+04 45618   0.293E+02    0.116E+03
RMM:  12    -0.160246328444E+05   -0.14745E+04   -0.17870E+04 49601   0.181E+02    0.918E+02
RMM:  13    -0.144964763363E+05    0.15282E+04   -0.96911E+03 47247   0.158E+02    0.825E+02
RMM:  14    -0.571559157836E+04    0.87809E+04   -0.45080E+03 29579   0.128E+02    0.495E+02
RMM:  15    -0.436770711745E+04    0.13479E+04   -0.42220E+03 38286   0.135E+02    0.381E+02
RMM:  16    -0.329687021157E+04    0.10708E+04   -0.30230E+03 42609   0.667E+01    0.297E+02
RMM:  17    -0.354758654184E+04   -0.25072E+03   -0.13784E+03 30192   0.744E+01    0.334E+02
RMM:  18    -0.418073264171E+04   -0.63315E+03   -0.20775E+03 32457   0.824E+01    0.358E+02
RMM:  19    -0.287095738931E+04    0.13098E+04   -0.70834E+02 30073   0.497E+01    0.269E+02
RMM:  20    -0.258027127131E+04    0.29069E+03   -0.80219E+02 35621   0.364E+01    0.221E+02
RMM:  21    -0.244762061952E+04    0.13265E+03   -0.42974E+02 29830   0.361E+01    0.166E+02
RMM:  22    -0.244837666057E+04   -0.75604E+00   -0.59408E+02 41440   0.235E+01    0.153E+02
RMM:  23    -0.238546514234E+04    0.62912E+02   -0.32012E+02 36789   0.204E+01    0.120E+02
RMM:  24    -0.237200542828E+04    0.13460E+02   -0.23176E+02 37929   0.145E+01    0.853E+01
RMM:  25    -0.236622695610E+04    0.57785E+01   -0.18133E+02 37169   0.148E+01    0.846E+01
RMM:  26    -0.235642451363E+04    0.98024E+01   -0.11199E+02 41156   0.866E+00    0.670E+01
RMM:  27    -0.235533618671E+04    0.10883E+01   -0.56991E+01 33518   0.856E+00    0.665E+01
RMM:  28    -0.234983329320E+04    0.55029E+01   -0.41343E+01 41903   0.494E+00    0.590E+01
RMM:  29    -0.234553881827E+04    0.42945E+01   -0.12969E+01 34381   0.393E+00    0.567E+01
RMM:  30    -0.234310724883E+04    0.24316E+01   -0.78953E+00 37688   0.280E+00    0.546E+01
RMM:  31    -0.234092967227E+04    0.21776E+01   -0.77469E+00 32590   0.371E+00    0.535E+01
RMM:  32    -0.234297661600E+04   -0.20469E+01   -0.19519E+01 34716   0.512E+00    0.558E+01
RMM:  33    -0.234079006157E+04    0.21866E+01   -0.91757E+00 34723   0.376E+00    0.515E+01
RMM:  34    -0.233918141040E+04    0.16087E+01   -0.46205E+00 33328   0.283E+00    0.493E+01
RMM:  35    -0.233727535215E+04    0.19061E+01   -0.31963E+00 43395   0.120E+00    0.461E+01
RMM:  36    -0.233560241073E+04    0.16729E+01   -0.11027E+00 29557   0.200E+00    0.429E+01
RMM:  37    -0.233411313533E+04    0.14893E+01   -0.19779E+00 29235   0.278E+00    0.394E+01
RMM:  38    -0.233588628560E+04   -0.17732E+01   -0.18986E+00 29500   0.259E+00    0.436E+01
RMM:  39    -0.233525417640E+04    0.63211E+00   -0.26507E+00 28070   0.341E+00    0.432E+01
RMM:  40    -0.233419245319E+04    0.10617E+01   -0.50113E+00 31922   0.343E+00    0.408E+01
RMM:  41    -0.233234711779E+04    0.18453E+01   -0.38590E+00 40750   0.202E+00    0.359E+01
RMM:  42    -0.233189477458E+04    0.45234E+00   -0.16344E+00 44298   0.654E-01    0.346E+01
RMM:  43    -0.233127426119E+04    0.62051E+00   -0.26790E-01 32297   0.553E-01    0.330E+01
RMM:  44    -0.233069817494E+04    0.57609E+00   -0.21547E-01 29731   0.863E-01    0.316E+01
RMM:  45    -0.233048844825E+04    0.20973E+00   -0.44666E-01 30395   0.113E+00    0.312E+01
RMM:  46    -0.232982522411E+04    0.66322E+00   -0.94586E-01 30212   0.165E+00    0.294E+01
RMM:  47    -0.232997499301E+04   -0.14977E+00   -0.12778E+00 30291   0.195E+00    0.301E+01
RMM:  48    -0.232901825148E+04    0.95674E+00   -0.19217E+00 33583   0.193E+00    0.268E+01
RMM:  49    -0.232858611560E+04    0.43214E+00   -0.17652E+00 34038   0.166E+00    0.253E+01
RMM:  50    -0.232834804792E+04    0.23807E+00   -0.15106E+00 41952   0.978E-01    0.241E+01
RMM:  51    -0.233120008677E+04   -0.28520E+01   -0.75197E+00 31534   0.433E+00    0.323E+01
RMM:  52    -0.232917109782E+04    0.20290E+01   -0.32759E+00 37098   0.226E+00    0.259E+01
RMM:  53    -0.232903039446E+04    0.14070E+00   -0.31054E+00 28297   0.371E+00    0.247E+01
RMM:  54    -0.232875414312E+04    0.27625E+00   -0.27054E+00 28474   0.345E+00    0.244E+01
RMM:  55    -0.232852465311E+04    0.22949E+00   -0.21643E+00 29134   0.288E+00    0.244E+01
RMM:  56    -0.234704066027E+04   -0.18516E+02   -0.10728E+01 33191   0.442E+00    0.605E+01
RMM:  57    -0.233539559658E+04    0.11645E+02   -0.33640E+00 28828   0.329E+00    0.417E+01
RMM:  58    -0.233088500690E+04    0.45106E+01   -0.29980E+00 29508   0.315E+00    0.306E+01
RMM:  59    -0.233029599619E+04    0.58901E+00   -0.26853E+00 31173   0.264E+00    0.277E+01
RMM:  60    -0.232935897295E+04    0.93702E+00   -0.19529E+00 29250   0.279E+00    0.246E+01
RMM:  61    -0.232941671809E+04   -0.57745E-01   -0.41182E+00 29583   0.372E+00    0.256E+01
RMM:  62    -0.232737800175E+04    0.20387E+01   -0.17899E+00 28778   0.273E+00    0.180E+01
RMM:  63    -0.232745936869E+04   -0.81367E-01   -0.21432E+00 31823   0.221E+00    0.183E+01
RMM:  64    -0.232694265849E+04    0.51671E+00   -0.12640E+00 33361   0.160E+00    0.155E+01
RMM:  65    -0.232660031033E+04    0.34235E+00   -0.69386E-01 31471   0.131E+00    0.130E+01
RMM:  66    -0.232726105052E+04   -0.66074E+00   -0.17708E+00 30138   0.228E+00    0.165E+01
RMM:  67    -0.232630376121E+04    0.95729E+00   -0.56243E-01 27975   0.183E+00    0.101E+01
RMM:  68    -0.232599292520E+04    0.31084E+00   -0.28207E-01 28922   0.106E+00    0.706E+00
RMM:  69    -0.232588651009E+04    0.10642E+00   -0.25611E-01 29723   0.925E-01    0.562E+00
RMM:  70    -0.232590598772E+04   -0.19478E-01   -0.19931E-01 28561   0.938E-01    0.596E+00
RMM:  71    -0.232588797737E+04    0.18010E-01   -0.24443E-01 28905   0.957E-01    0.546E+00
RMM:  72    -0.232580080472E+04    0.87173E-01   -0.14543E-01 27916   0.866E-01    0.357E+00
RMM:  73    -0.232581866025E+04   -0.17856E-01   -0.79753E-02 28920   0.568E-01    0.385E+00
RMM:  74    -0.232581814683E+04    0.51342E-03   -0.61021E-02 30098   0.433E-01    0.385E+00
RMM:  75    -0.232575889677E+04    0.59250E-01   -0.47998E-02 30749   0.366E-01    0.201E+00
RMM:  76    -0.232580130764E+04   -0.42411E-01   -0.41868E-02 28851   0.425E-01    0.352E+00
RMM:  77    -0.232577229593E+04    0.29012E-01   -0.21769E-02 28763   0.312E-01    0.254E+00
RMM:  78    -0.232574643464E+04    0.25861E-01   -0.26819E-02 33084   0.228E-01    0.122E+00
RMM:  79    -0.232574203676E+04    0.43979E-02   -0.14963E-02 31340   0.193E-01    0.768E-01
RMM:  80    -0.232574437209E+04   -0.23353E-02   -0.15398E-02 34894   0.161E-01    0.943E-01
RMM:  81    -0.232574377195E+04    0.60014E-03   -0.76351E-03 28599   0.183E-01    0.904E-01
RMM:  82    -0.232574163784E+04    0.21341E-02   -0.56589E-03 30654   0.125E-01    0.594E-01
RMM:  83    -0.232574210752E+04   -0.46968E-03   -0.40992E-03 31766   0.980E-02    0.603E-01
RMM:  84    -0.232574279161E+04   -0.68409E-03   -0.21305E-03 30610   0.789E-02    0.689E-01
RMM:  85    -0.232574151188E+04    0.12797E-02   -0.19522E-03 33802   0.593E-02    0.440E-01
RMM:  86    -0.232574281485E+04   -0.13030E-02   -0.31945E-03 29140   0.109E-01    0.656E-01
RMM:  87    -0.232574110410E+04    0.17108E-02   -0.10592E-03 28187   0.795E-02    0.315E-01
RMM:  88    -0.232574091644E+04    0.18766E-03   -0.10176E-03 34127   0.389E-02    0.207E-01
RMM:  89    -0.232574099180E+04   -0.75363E-04   -0.58791E-04 32499   0.335E-02    0.195E-01
RMM:  90    -0.232574096107E+04    0.30729E-04   -0.35765E-04 31045   0.290E-02    0.138E-01
RMM:  91    -0.232574094931E+04    0.11759E-04   -0.27492E-04 30954   0.260E-02    0.122E-01
RMM:  92    -0.232574092605E+04    0.23262E-04   -0.13200E-04 27090   0.184E-02    0.736E-02
RMM:  93    -0.232574099707E+04   -0.71016E-04   -0.10318E-04 24876   0.144E-02    0.816E-02
RMM:  94    -0.232574103322E+04   -0.36156E-04   -0.52018E-05 20286   0.124E-02    0.681E-02
RMM:  95    -0.232574104997E+04   -0.16746E-04   -0.35721E-05 18423   0.108E-02    0.438E-02
RMM:  96    -0.232574106966E+04   -0.19694E-04   -0.32416E-05 18513   0.988E-03    0.453E-02
RMM:  97    -0.232574109688E+04   -0.27219E-04   -0.24360E-05 16733   0.101E-02    0.290E-02
RMM:  98    -0.232574111734E+04   -0.20455E-04   -0.17313E-05 16409   0.696E-03    0.228E-02
RMM:  99    -0.232574115316E+04   -0.35819E-04   -0.15483E-05 16156   0.649E-03    0.215E-02
RMM: 100    -0.232574118946E+04   -0.36299E-04   -0.13943E-05 16020   0.604E-03
   1 F= -.23257412E+04 E0= -.23229661E+04  d E =-.232574E+04
       N       E                     dE             d eps       ncg     rms          rms(c)
DAV:   1    -0.232575792647E+04   -0.16773E-01   -0.45584E+00 30380   0.223E+00    0.391E-01
RMM:   2    -0.232631850323E+04   -0.56058E+00   -0.12621E-01 28494   0.678E-01    0.101E+01
RMM:   3    -0.232583760895E+04    0.48089E+00   -0.61587E-02 36382   0.328E-01    0.330E+00
RMM:   4    -0.232601166757E+04   -0.17406E+00   -0.24135E-02 27789   0.346E-01    0.673E+00
RMM:   5    -0.232579480001E+04    0.21687E+00   -0.17321E-02 34501   0.190E-01    0.222E+00
RMM:   6    -0.232578929276E+04    0.55072E-02   -0.17704E-02 28164   0.253E-01    0.215E+00
RMM:   7    -0.232587363624E+04   -0.84343E-01   -0.54380E-02 33785   0.313E-01    0.458E+00
RMM:   8    -0.232577939277E+04    0.94243E-01   -0.20509E-02 28749   0.274E-01    0.153E+00
RMM:   9    -0.232576516148E+04    0.14231E-01   -0.98207E-03 27636   0.239E-01    0.696E-01
RMM:  10    -0.232576439054E+04    0.77095E-03   -0.77040E-03 33872   0.117E-01    0.565E-01
RMM:  11    -0.232576516828E+04   -0.77774E-03   -0.61915E-03 33010   0.111E-01    0.639E-01
RMM:  12    -0.232576385906E+04    0.13092E-02   -0.22941E-03 28443   0.944E-02    0.426E-01
RMM:  13    -0.232576325837E+04    0.60069E-03   -0.14489E-03 31067   0.590E-02    0.283E-01
RMM:  14    -0.232576307971E+04    0.17866E-03   -0.11165E-03 33997   0.441E-02    0.198E-01
RMM:  15    -0.232576318041E+04   -0.10069E-03   -0.83361E-04 31591   0.447E-02    0.238E-01
RMM:  16    -0.232576297223E+04    0.20817E-03   -0.31501E-04 28050   0.369E-02    0.123E-01
RMM:  17    -0.232576294973E+04    0.22507E-04   -0.28915E-04 33661   0.194E-02    0.930E-02
RMM:  18    -0.232576295047E+04   -0.74611E-06   -0.12340E-04 28006   0.169E-02    0.878E-02
RMM:  19    -0.232576292898E+04    0.21497E-04   -0.69687E-05 23484   0.167E-02    0.487E-02
RMM:  20    -0.232576292556E+04    0.34188E-05   -0.28345E-05 18485   0.998E-03
   2 F= -.23257629E+04 E0= -.23229868E+04  d E =-.217361E-01
       N       E                     dE             d eps       ncg     rms          rms(c)
DAV:   1    -0.232576840464E+04   -0.54757E-02   -0.10974E+01 28400   0.347E+00    0.618E-01
RMM:   2    -0.232721444243E+04   -0.14460E+01   -0.31915E-01 29183   0.108E+00    0.163E+01
RMM:   3    -0.232596313124E+04    0.12513E+01   -0.15133E-01 36015   0.526E-01    0.513E+00
RMM:   4    -0.232603021896E+04   -0.67088E-01   -0.63333E-02 27615   0.587E-01    0.671E+00
RMM:   5    -0.232591693137E+04    0.11329E+00   -0.43284E-02 38179   0.237E-01    0.504E+00
RMM:   6    -0.232583682219E+04    0.80109E-01   -0.32162E-02 28343   0.333E-01    0.315E+00
RMM:   7    -0.232600053942E+04   -0.16372E+00   -0.11685E-01 33880   0.453E-01    0.634E+00
RMM:   8    -0.232581624132E+04    0.18430E+00   -0.48857E-02 28371   0.432E-01    0.228E+00
RMM:   9    -0.232578673227E+04    0.29509E-01   -0.21585E-02 27661   0.360E-01    0.114E+00
RMM:  10    -0.232578445277E+04    0.22795E-02   -0.14238E-02 32739   0.168E-01    0.918E-01
RMM:  11    -0.232578710068E+04   -0.26479E-02   -0.14290E-02 32728   0.171E-01    0.112E+00
RMM:  12    -0.232578436880E+04    0.27319E-02   -0.58825E-03 28637   0.145E-01    0.842E-01
RMM:  13    -0.232578099603E+04    0.33728E-02   -0.26878E-03 28209   0.105E-01    0.377E-01
RMM:  14    -0.232578068373E+04    0.31230E-03   -0.24880E-03 31923   0.735E-02    0.299E-01
RMM:  15    -0.232578089565E+04   -0.21192E-03   -0.24619E-03 33792   0.666E-02    0.340E-01
RMM:  16    -0.232578043612E+04    0.45953E-03   -0.71783E-04 28032   0.555E-02    0.169E-01
RMM:  17    -0.232578038226E+04    0.53862E-04   -0.68232E-04 36649   0.298E-02    0.120E-01
RMM:  18    -0.232578038946E+04   -0.72033E-05   -0.31015E-04 32523   0.244E-02    0.126E-01
RMM:  19    -0.232578033430E+04    0.55163E-04   -0.17710E-04 28909   0.234E-02    0.719E-02
RMM:  20    -0.232578032643E+04    0.78691E-05   -0.11963E-04 26711   0.134E-02    0.508E-02
RMM:  21    -0.232578033202E+04   -0.55841E-05   -0.56601E-05 21881   0.120E-02
   3 F= -.23257803E+04 E0= -.23230028E+04  d E =-.391426E-01
       N       E                     dE             d eps       ncg     rms          rms(c)
DAV:   1    -0.232578012021E+04    0.20623E-03   -0.15779E+00 29080   0.131E+00    0.238E-01
RMM:   2    -0.232614502443E+04   -0.36490E+00   -0.58453E-02 30049   0.430E-01    0.820E+00
RMM:   3    -0.232580936304E+04    0.33566E+00   -0.21167E-02 32481   0.240E-01    0.184E+00
RMM:   4    -0.232583515569E+04   -0.25793E-01   -0.95097E-03 27665   0.229E-01    0.323E+00
RMM:   5    -0.232581086801E+04    0.24288E-01   -0.89779E-03 38587   0.106E-01    0.224E+00
RMM:   6    -0.232579271456E+04    0.18153E-01   -0.62254E-03 28015   0.152E-01    0.136E+00
RMM:   7    -0.232581929695E+04   -0.26582E-01   -0.20449E-02 31821   0.203E-01    0.256E+00
RMM:   8    -0.232578823195E+04    0.31065E-01   -0.84473E-03 28044   0.187E-01    0.991E-01
RMM:   9    -0.232578344536E+04    0.47866E-02   -0.35891E-03 27721   0.144E-01    0.562E-01
RMM:  10    -0.232578272935E+04    0.71601E-03   -0.23146E-03 31908   0.688E-02    0.433E-01
RMM:  11    -0.232578282324E+04   -0.93895E-04   -0.20861E-03 32128   0.654E-02    0.437E-01
RMM:  12    -0.232578237186E+04    0.45138E-03   -0.10969E-03 29375   0.577E-02    0.305E-01
RMM:  13    -0.232578189982E+04    0.47203E-03   -0.43262E-04 27785   0.465E-02    0.149E-01
RMM:  14    -0.232578186389E+04    0.35933E-04   -0.33892E-04 30818   0.282E-02    0.124E-01
RMM:  15    -0.232578188717E+04   -0.23275E-04   -0.35444E-04 33519   0.241E-02    0.132E-01
RMM:  16    -0.232578181653E+04    0.70637E-04   -0.11368E-04 26389   0.213E-02    0.611E-02
RMM:  17    -0.232578180571E+04    0.10814E-04   -0.68178E-05 23053   0.118E-02    0.384E-02
RMM:  18    -0.232578180831E+04   -0.25918E-05   -0.31064E-05 18668   0.102E-02
   4 F= -.23257818E+04 E0= -.23230036E+04  d E =-.406189E-01
       N       E                     dE             d eps       ncg     rms          rms(c)
DAV:   1    -0.232578846073E+04   -0.66550E-02   -0.35332E+00 28060   0.198E+00    0.299E-01
RMM:   2    -0.232653195774E+04   -0.74350E+00   -0.88900E-02 28986   0.582E-01    0.115E+01
RMM:   3    -0.232583225049E+04    0.69971E+00   -0.26171E-02 29016   0.325E-01    0.215E+00
RMM:   4    -0.232580473771E+04    0.27513E-01   -0.13492E-02 27743   0.254E-01    0.152E+00
RMM:   5    -0.232581881688E+04   -0.14079E-01   -0.17582E-02 27810   0.269E-01    0.217E+00
RMM:   6    -0.232604662668E+04   -0.22781E+00   -0.33350E-02 39258   0.199E-01    0.680E+00
RMM:   7    -0.232588854266E+04    0.15808E+00   -0.19738E-02 33596   0.190E-01    0.425E+00
RMM:   8    -0.232580120379E+04    0.87339E-01   -0.14080E-02 27614   0.260E-01    0.111E+00
RMM:   9    -0.232579441069E+04    0.67931E-02   -0.10769E-02 27874   0.219E-01    0.753E-01
RMM:  10    -0.232579812022E+04   -0.37095E-02   -0.16677E-02 33393   0.184E-01    0.110E+00
RMM:  11    -0.232579519456E+04    0.29257E-02   -0.53235E-03 27887   0.146E-01    0.801E-01
RMM:  12    -0.232579203622E+04    0.31583E-02   -0.25413E-03 28610   0.954E-02    0.255E-01
RMM:  13    -0.232579193353E+04    0.10269E-03   -0.27053E-03 38975   0.486E-02    0.181E-01
RMM:  14    -0.232579192646E+04    0.70730E-05   -0.93255E-04 34920   0.387E-02    0.169E-01
RMM:  15    -0.232579182925E+04    0.97210E-04   -0.35436E-04 31444   0.300E-02    0.100E-01
RMM:  16    -0.232579180926E+04    0.19988E-04   -0.22256E-04 31739   0.177E-02    0.679E-02
RMM:  17    -0.232579181343E+04   -0.41698E-05   -0.11762E-04 27658   0.161E-02    0.675E-02
RMM:  18    -0.232579181106E+04    0.23647E-05   -0.54257E-05 22090   0.159E-02
   5 F= -.23257918E+04 E0= -.23230136E+04  d E =-.100028E-01
       N       E                     dE             d eps       ncg     rms          rms(c)
DAV:   1    -0.232578861648E+04    0.31969E-02   -0.18343E+01 27600   0.451E+00    0.716E-01
RMM:   2    -0.233121985452E+04   -0.54312E+01   -0.58453E-01 29317   0.143E+00    0.311E+01
RMM:   3    -0.232608011794E+04    0.51397E+01   -0.16644E-01 28221   0.863E-01    0.548E+00
RMM:   4    -0.232605574776E+04    0.24370E-01   -0.87445E-02 27756   0.641E-01    0.687E+00
RMM:   5    -0.232646560949E+04   -0.40986E+00   -0.11990E-01 40226   0.332E-01    0.110E+01
RMM:   6    -0.232604160442E+04    0.42401E+00   -0.13527E-01 27753   0.725E-01    0.625E+00
RMM:   7    -0.232620595026E+04   -0.16435E+00   -0.18875E-01 32277   0.631E-01    0.849E+00
RMM:   8    -0.232583795575E+04    0.36799E+00   -0.71032E-02 27601   0.632E-01    0.201E+00
RMM:   9    -0.232581089761E+04    0.27058E-01   -0.32893E-02 27920   0.400E-01    0.110E+00
RMM:  10    -0.232581901249E+04   -0.81149E-02   -0.40536E-02 32455   0.293E-01    0.159E+00
RMM:  11    -0.232581634337E+04    0.26691E-02   -0.14669E-02 28323   0.236E-01    0.142E+00
RMM:  12    -0.232580703929E+04    0.93041E-02   -0.67796E-03 28590   0.158E-01    0.492E-01
RMM:  13    -0.232580636751E+04    0.67178E-03   -0.65441E-03 35366   0.891E-02    0.313E-01
RMM:  14    -0.232580650350E+04   -0.13598E-03   -0.35047E-03 35140   0.738E-02    0.331E-01
RMM:  15    -0.232580625827E+04    0.24523E-03   -0.14974E-03 30678   0.653E-02    0.237E-01
RMM:  16    -0.232580609974E+04    0.15852E-03   -0.76917E-04 30991   0.455E-02    0.158E-01
RMM:  17    -0.232580615025E+04   -0.50503E-04   -0.82285E-04 36011   0.337E-02    0.166E-01
RMM:  18    -0.232580610747E+04    0.42772E-04   -0.38832E-04 29941   0.356E-02    0.139E-01
RMM:  19    -0.232580605146E+04    0.56015E-04   -0.23288E-04 30552   0.244E-02    0.856E-02
RMM:  20    -0.232580606551E+04   -0.14047E-04   -0.21345E-04 31622   0.178E-02    0.918E-02
RMM:  21    -0.232580604467E+04    0.20835E-04   -0.84682E-05 24627   0.166E-02    0.631E-02
RMM:  22    -0.232580602961E+04    0.15062E-04   -0.33350E-05 19361   0.113E-02    0.325E-02
RMM:  23    -0.232580603098E+04   -0.13690E-05   -0.27344E-05 18816   0.739E-03
   6 F= -.23258060E+04 E0= -.23230276E+04  d E =-.242227E-01
       N       E                     dE             d eps       ncg     rms          rms(c)
DAV:   1    -0.232572340291E+04    0.82627E-01   -0.73322E+01 27600   0.902E+00    0.149E+00
RMM:   2    -0.234503097566E+04   -0.19308E+02   -0.22174E+00 28924   0.294E+00    0.582E+01
RMM:   3    -0.232683746569E+04    0.18194E+02   -0.65561E-01 28622   0.167E+00    0.113E+01
RMM:   4    -0.232616516676E+04    0.67230E+00   -0.36656E-01 27691   0.130E+00    0.800E+00
RMM:   5    -0.232755227697E+04   -0.13871E+01   -0.43901E-01 27746   0.135E+00    0.182E+01
RMM:   6    -0.232789889553E+04   -0.34662E+00   -0.71047E-01 41693   0.667E-01    0.193E+01
RMM:   7    -0.232757266909E+04    0.32623E+00   -0.51560E-01 28472   0.130E+00    0.180E+01
RMM:   8    -0.232595808461E+04    0.16146E+01   -0.23459E-01 27651   0.106E+00    0.470E+00
RMM:   9    -0.232583267497E+04    0.12541E+00   -0.18948E-01 27706   0.921E-01    0.275E+00
RMM:  10    -0.232588566825E+04   -0.52993E-01   -0.31255E-01 33851   0.778E-01    0.405E+00
RMM:  11    -0.232583227680E+04    0.53391E-01   -0.81689E-02 27694   0.610E-01    0.260E+00
RMM:  12    -0.232580871510E+04    0.23562E-01   -0.69104E-02 34751   0.309E-01    0.138E+00
RMM:  13    -0.232580452096E+04    0.41941E-02   -0.33692E-02 38302   0.196E-01    0.990E-01
RMM:  14    -0.232580249157E+04    0.20294E-02   -0.15538E-02 33750   0.168E-01    0.785E-01
RMM:  15    -0.232580021645E+04    0.22751E-02   -0.59860E-03 30233   0.137E-01    0.488E-01
RMM:  16    -0.232579975306E+04    0.46339E-03   -0.44753E-03 34399   0.871E-02    0.356E-01
RMM:  17    -0.232580006947E+04   -0.31641E-03   -0.31439E-03 32636   0.826E-02    0.400E-01
RMM:  18    -0.232579955707E+04    0.51239E-03   -0.11534E-03 28411   0.737E-02    0.260E-01
RMM:  19    -0.232579949240E+04    0.64670E-04   -0.89249E-04 30722   0.500E-02    0.222E-01
RMM:  20    -0.232579961979E+04   -0.12739E-03   -0.10653E-03 30943   0.522E-02    0.251E-01
RMM:  21    -0.232579936765E+04    0.25214E-03   -0.37714E-04 28399   0.430E-02    0.127E-01
RMM:  22    -0.232579934825E+04    0.19396E-04   -0.34964E-04 32560   0.219E-02    0.948E-02
RMM:  23    -0.232579935725E+04   -0.89998E-05   -0.21665E-04 30840   0.179E-02    0.928E-02
RMM:  24    -0.232579932793E+04    0.29323E-04   -0.81446E-05 24121   0.161E-02    0.483E-02
RMM:  25    -0.232579932333E+04    0.45968E-05   -0.41250E-05 20057   0.101E-02
   7 F= -.23257993E+04 E0= -.23230209E+04  d E =-.175150E-01
       N       E                     dE             d eps       ncg     rms          rms(c)
DAV:   1    -0.232577874377E+04    0.20584E-01   -0.31287E+01 27600   0.589E+00    0.936E-01
RMM:   2    -0.233392823192E+04   -0.81495E+01   -0.10308E+00 29785   0.187E+00    0.382E+01
RMM:   3    -0.232618441658E+04    0.77438E+01   -0.26321E-01 28759   0.104E+00    0.668E+00
RMM:   4    -0.232600614361E+04    0.17827E+00   -0.13711E-01 27815   0.803E-01    0.606E+00
RMM:   5    -0.232864145467E+04   -0.26353E+01   -0.23383E-01 36544   0.564E-01    0.229E+01
RMM:   6    -0.232608924442E+04    0.25522E+01   -0.18991E-01 28493   0.801E-01    0.582E+00
RMM:   7    -0.232663587267E+04   -0.54663E+00   -0.21414E-01 28111   0.915E-01    0.127E+01
RMM:   8    -0.232593121907E+04    0.70465E+00   -0.98774E-02 27665   0.687E-01    0.410E+00
RMM:   9    -0.232583811761E+04    0.93101E-01   -0.67119E-02 27654   0.619E-01    0.222E+00
RMM:  10    -0.232584515250E+04   -0.70349E-02   -0.62879E-02 28623   0.478E-01    0.257E+00
RMM:  11    -0.232583545694E+04    0.96956E-02   -0.33006E-02 28172   0.376E-01    0.223E+00
RMM:  12    -0.232581179750E+04    0.23659E-01   -0.11882E-02 27657   0.250E-01    0.763E-01
RMM:  13    -0.232580928943E+04    0.25081E-02   -0.99967E-03 32343   0.129E-01    0.410E-01
RMM:  14    -0.232580950754E+04   -0.21811E-03   -0.66378E-03 37777   0.867E-02    0.389E-01
RMM:  15    -0.232580929161E+04    0.21593E-03   -0.23940E-03 31890   0.730E-02    0.290E-01
RMM:  16    -0.232580906263E+04    0.22898E-03   -0.13537E-03 31537   0.573E-02    0.190E-01
RMM:  17    -0.232580920395E+04   -0.14132E-03   -0.15261E-03 34993   0.494E-02    0.226E-01
RMM:  18    -0.232580913139E+04    0.72562E-04   -0.57630E-04 29710   0.437E-02    0.186E-01
RMM:  19    -0.232580904854E+04    0.82855E-04   -0.34026E-04 30370   0.315E-02    0.128E-01
RMM:  20    -0.232580911070E+04   -0.62166E-04   -0.44248E-04 34204   0.280E-02    0.160E-01
RMM:  21    -0.232580905244E+04    0.58265E-04   -0.17723E-04 28408   0.245E-02    0.120E-01
RMM:  22    -0.232580903315E+04    0.19293E-04   -0.13583E-04 27272   0.145E-02    0.947E-02
RMM:  23    -0.232580902364E+04    0.95094E-05   -0.72343E-05 23486   0.115E-02
   8 F= -.23258090E+04 E0= -.23230307E+04  d E =-.272153E-01
       N       E                     dE             d eps       ncg     rms          rms(c)
DAV:   1    -0.232581001344E+04   -0.98030E-03   -0.10147E+01 27600   0.335E+00    0.519E-01
RMM:   2    -0.232917812262E+04   -0.33681E+01   -0.33123E-01 29615   0.107E+00    0.245E+01
RMM:   3    -0.232593478027E+04    0.32433E+01   -0.91492E-02 28194   0.653E-01    0.284E+00
RMM:   4    -0.232656757819E+04   -0.63280E+00   -0.61553E-02 28850   0.464E-01    0.118E+01
RMM:   5    -0.232594900403E+04    0.61857E+00   -0.58506E-02 31067   0.372E-01    0.448E+00
RMM:   6    -0.232593425701E+04    0.14747E-01   -0.85549E-02 28294   0.557E-01    0.449E+00
RMM:   7    -0.232598656624E+04   -0.52309E-01   -0.56619E-02 27661   0.522E-01    0.563E+00
RMM:   8    -0.232584323872E+04    0.14333E+00   -0.21095E-02 27788   0.318E-01    0.193E+00
RMM:   9    -0.232582122656E+04    0.22012E-01   -0.13905E-02 27630   0.294E-01    0.613E-01
RMM:  10    -0.232582740232E+04   -0.61758E-02   -0.13782E-02 29064   0.215E-01    0.128E+00
RMM:  11    -0.232582367728E+04    0.37250E-02   -0.76142E-03 29135   0.161E-01    0.928E-01
RMM:  12    -0.232581910133E+04    0.45760E-02   -0.29658E-03 27760   0.132E-01    0.261E-01
RMM:  13    -0.232581896773E+04    0.13360E-03   -0.24321E-03 35775   0.543E-02    0.190E-01
RMM:  14    -0.232581916926E+04   -0.20153E-03   -0.15615E-03 34591   0.515E-02    0.241E-01
RMM:  15    -0.232581902683E+04    0.14243E-03   -0.66651E-04 30153   0.447E-02    0.170E-01
RMM:  16    -0.232581897563E+04    0.51199E-04   -0.49697E-04 33409   0.307E-02    0.130E-01
RMM:  17    -0.232581898607E+04   -0.10433E-04   -0.35173E-04 32909   0.258E-02    0.130E-01
RMM:  18    -0.232581895850E+04    0.27562E-04   -0.19437E-04 29181   0.255E-02    0.105E-01
RMM:  19    -0.232581892123E+04    0.37276E-04   -0.10140E-04 26399   0.184E-02    0.629E-02
RMM:  20    -0.232581892611E+04   -0.48868E-05   -0.80132E-05 23612   0.113E-02
   9 F= -.23258189E+04 E0= -.23230410E+04  d E =-.990248E-02
       N       E                     dE             d eps       ncg     rms          rms(c)
DAV:   1    -0.232581503253E+04    0.38887E-02   -0.91061E+00 27600   0.317E+00    0.482E-01
RMM:   2    -0.232815221520E+04   -0.23372E+01   -0.24490E-01 29095   0.967E-01    0.203E+01
RMM:   3    -0.232592633788E+04    0.22259E+01   -0.72430E-02 28855   0.549E-01    0.313E+00
RMM:   4    -0.232636404976E+04   -0.43771E+00   -0.41936E-02 28883   0.380E-01    0.100E+01
RMM:   5    -0.232590829476E+04    0.45575E+00   -0.36864E-02 29166   0.339E-01    0.358E+00
RMM:   6    -0.232589057661E+04    0.17718E-01   -0.58669E-02 27897   0.483E-01    0.342E+00
RMM:   7    -0.232604801304E+04   -0.15744E+00   -0.64297E-02 28833   0.458E-01    0.657E+00
RMM:   8    -0.232584326912E+04    0.20474E+00   -0.21937E-02 27666   0.342E-01    0.158E+00
RMM:   9    -0.232582456452E+04    0.18705E-01   -0.11743E-02 27714   0.273E-01    0.491E-01
RMM:  10    -0.232582727546E+04   -0.27109E-02   -0.10798E-02 29459   0.184E-01    0.885E-01
RMM:  11    -0.232582749748E+04   -0.22202E-03   -0.52305E-03 28673   0.135E-01    0.907E-01
RMM:  12    -0.232582347588E+04    0.40216E-02   -0.21866E-03 27799   0.108E-01    0.287E-01
RMM:  13    -0.232582327831E+04    0.19757E-03   -0.20367E-03 35886   0.502E-02    0.204E-01
RMM:  14    -0.232582327402E+04    0.42891E-05   -0.11656E-03 33025   0.475E-02    0.184E-01
RMM:  15    -0.232582323758E+04    0.36441E-04   -0.57585E-04 30286   0.419E-02    0.161E-01
RMM:  16    -0.232582318119E+04    0.56391E-04   -0.30608E-04 30745   0.279E-02    0.119E-01
RMM:  17    -0.232582319253E+04   -0.11336E-04   -0.30319E-04 34042   0.211E-02    0.118E-01
RMM:  18    -0.232582317497E+04    0.17554E-04   -0.12764E-04 27181   0.202E-02    0.987E-02
RMM:  19    -0.232582314799E+04    0.26984E-04   -0.63607E-05 22568   0.151E-02    0.716E-02
RMM:  20    -0.232582314875E+04   -0.75810E-06   -0.48001E-05 20881   0.104E-02
  10 F= -.23258231E+04 E0= -.23230459E+04  d E =-.141251E-01
       N       E                     dE             d eps       ncg     rms          rms(c)
DAV:   1    -0.232582272594E+04    0.42204E-03   -0.72686E-01 28080   0.896E-01    0.140E-01
RMM:   2    -0.232603766148E+04   -0.21494E+00   -0.19822E-02 29023   0.276E-01    0.625E+00
RMM:   3    -0.232584316876E+04    0.19449E+00   -0.63374E-03 29389   0.156E-01    0.161E+00
RMM:   4    -0.232584464370E+04   -0.14749E-02   -0.37903E-03 29574   0.109E-01    0.199E+00
RMM:   5    -0.232583353616E+04    0.11108E-01   -0.31802E-03 27924   0.116E-01    0.140E+00
RMM:   6    -0.232583047984E+04    0.30563E-02   -0.55326E-03 28683   0.137E-01    0.112E+00
RMM:   7    -0.232583936246E+04   -0.88826E-02   -0.92621E-03 32272   0.142E-01    0.168E+00
RMM:   8    -0.232582479791E+04    0.14565E-01   -0.31189E-03 27613   0.133E-01    0.444E-01
RMM:   9    -0.232582375349E+04    0.10444E-02   -0.12176E-03 28701   0.713E-02    0.260E-01
RMM:  10    -0.232582374016E+04    0.13330E-04   -0.94178E-04 33422   0.401E-02    0.257E-01
RMM:  11    -0.232582363175E+04    0.10842E-03   -0.66375E-04 30297   0.427E-02    0.205E-01
RMM:  12    -0.232582343428E+04    0.19747E-03   -0.23982E-04 27726   0.349E-02    0.912E-02
RMM:  13    -0.232582341788E+04    0.16400E-04   -0.19213E-04 28723   0.139E-02    0.638E-02
RMM:  14    -0.232582341712E+04    0.75856E-06   -0.76008E-05 23524   0.141E-02
  11 F= -.23258234E+04 E0= -.23230464E+04  d E =-.143935E-01
       N       E                     dE             d eps       ncg     rms          rms(c)
DAV:   1    -0.232582138775E+04    0.20301E-02   -0.11611E+01 27600   0.358E+00    0.588E-01
RMM:   2    -0.233127170473E+04   -0.54503E+01   -0.53790E-01 30379   0.126E+00    0.316E+01
RMM:   3    -0.232600012169E+04    0.52716E+01   -0.13690E-01 27881   0.824E-01    0.317E+00
RMM:   4    -0.232707080704E+04   -0.10707E+01   -0.90309E-02 29062   0.569E-01    0.152E+01
RMM:   5    -0.232596329718E+04    0.11075E+01   -0.80862E-02 30484   0.458E-01    0.424E+00
RMM:   6    -0.232617620941E+04   -0.21291E+00   -0.18508E-01 29018   0.745E-01    0.768E+00
RMM:   7    -0.232589623347E+04    0.27998E+00   -0.69588E-02 27648   0.595E-01    0.323E+00
RMM:   8    -0.232591826859E+04   -0.22035E-01   -0.37475E-02 28728   0.379E-01    0.411E+00
RMM:   9    -0.232583845035E+04    0.79818E-01   -0.19031E-02 27753   0.302E-01    0.102E+00
RMM:  10    -0.232583811768E+04    0.33267E-03   -0.23678E-02 29017   0.287E-01    0.114E+00
RMM:  11    -0.232583300930E+04    0.51084E-02   -0.80550E-03 27917   0.205E-01    0.662E-01
RMM:  12    -0.232583175150E+04    0.12578E-02   -0.45076E-03 30326   0.106E-01    0.455E-01
RMM:  13    -0.232583108084E+04    0.67066E-03   -0.28608E-03 34222   0.642E-02    0.257E-01
RMM:  14    -0.232583123799E+04   -0.15715E-03   -0.20393E-03 33058   0.607E-02    0.278E-01
RMM:  15    -0.232583123763E+04    0.35996E-06   -0.12291E-03 31218   0.572E-02    0.260E-01
RMM:  16    -0.232583108743E+04    0.15020E-03   -0.58899E-04 29931   0.455E-02    0.194E-01
RMM:  17    -0.232583105966E+04    0.27771E-04   -0.61440E-04 34167   0.319E-02    0.172E-01
RMM:  18    -0.232583102610E+04    0.33559E-04   -0.28216E-04 29195   0.311E-02    0.149E-01
RMM:  19    -0.232583097955E+04    0.46548E-04   -0.14222E-04 27907   0.238E-02    0.115E-01
RMM:  20    -0.232583098551E+04   -0.59595E-05   -0.17018E-04 29123   0.168E-02    0.110E-01
RMM:  21    -0.232583095005E+04    0.35463E-04   -0.78491E-05 23567   0.151E-02    0.669E-02
RMM:  22    -0.232583093351E+04    0.16542E-04   -0.32320E-05 19110   0.112E-02    0.340E-02
RMM:  23    -0.232583093450E+04   -0.98930E-06   -0.26388E-05 18737   0.723E-03
  12 F= -.23258309E+04 E0= -.23230541E+04  d E =-.751737E-02
       N       E                     dE             d eps       ncg     rms          rms(c)
DAV:   1    -0.232582813124E+04    0.28023E-02   -0.64373E+00 27600   0.266E+00    0.430E-01
RMM:   2    -0.232860807923E+04   -0.27799E+01   -0.26748E-01 30107   0.903E-01    0.226E+01
RMM:   3    -0.232591854493E+04    0.26895E+01   -0.71073E-02 27954   0.590E-01    0.214E+00
RMM:   4    -0.232593543541E+04   -0.16890E-01   -0.45584E-02 27950   0.477E-01    0.434E+00
RMM:   5    -0.232608793646E+04   -0.15250E+00   -0.53048E-02 41205   0.207E-01    0.685E+00
RMM:   6    -0.232598973493E+04    0.98202E-01   -0.85994E-02 29282   0.489E-01    0.504E+00
RMM:   7    -0.232585694075E+04    0.13279E+00   -0.32510E-02 27634   0.406E-01    0.190E+00
RMM:   8    -0.232586471999E+04   -0.77792E-02   -0.19119E-02 28325   0.295E-01    0.248E+00
RMM:   9    -0.232583930627E+04    0.25414E-01   -0.99652E-03 31134   0.163E-01    0.990E-01
RMM:  10    -0.232583780484E+04    0.15014E-02   -0.12115E-02 28523   0.213E-01    0.874E-01
RMM:  11    -0.232583542576E+04    0.23791E-02   -0.51289E-03 28112   0.157E-01    0.612E-01
RMM:  12    -0.232583404390E+04    0.13819E-02   -0.23062E-03 29418   0.823E-02    0.359E-01
RMM:  13    -0.232583350234E+04    0.54156E-03   -0.15313E-03 31780   0.547E-02    0.164E-01
RMM:  14    -0.232583356763E+04   -0.65295E-04   -0.12462E-03 35779   0.406E-02    0.170E-01
RMM:  15    -0.232583362106E+04   -0.53421E-04   -0.55403E-04 31203   0.380E-02    0.186E-01
RMM:  16    -0.232583356501E+04    0.56048E-04   -0.28067E-04 29665   0.307E-02    0.151E-01
RMM:  17    -0.232583355308E+04    0.11926E-04   -0.30005E-04 31709   0.259E-02    0.136E-01
RMM:  18    -0.232583351749E+04    0.35594E-04   -0.15603E-04 27802   0.249E-02    0.106E-01
RMM:  19    -0.232583349586E+04    0.21622E-04   -0.93861E-05 25024   0.168E-02    0.822E-02
RMM:  20    -0.232583349553E+04    0.33877E-06   -0.55664E-05 21724   0.105E-02
  13 F= -.23258335E+04 E0= -.23230567E+04  d E =-.100784E-01
       N       E                     dE             d eps       ncg     rms          rms(c)
DAV:   1    -0.232583292062E+04    0.57524E-03   -0.97173E-01 27820   0.103E+00    0.164E-01
RMM:   2    -0.232611106369E+04   -0.27814E+00   -0.26666E-02 29062   0.323E-01    0.716E+00
RMM:   3    -0.232585455452E+04    0.25651E+00   -0.83127E-03 28998   0.182E-01    0.161E+00
RMM:   4    -0.232587418035E+04   -0.19626E-01   -0.53668E-03 30201   0.124E-01    0.273E+00
RMM:   5    -0.232584280834E+04    0.31372E-01   -0.40267E-03 27662   0.139E-01    0.125E+00
RMM:   6    -0.232585001119E+04   -0.72029E-02   -0.86026E-03 31694   0.137E-01    0.176E+00
RMM:   7    -0.232583872040E+04    0.11291E-01   -0.63415E-03 27668   0.165E-01    0.867E-01
RMM:   8    -0.232583682592E+04    0.18945E-02   -0.24547E-03 27606   0.123E-01    0.724E-01
RMM:   9    -0.232583424771E+04    0.25782E-02   -0.84439E-04 27761   0.671E-02    0.302E-01
RMM:  10    -0.232583418968E+04    0.58030E-04   -0.71883E-04 29724   0.453E-02    0.281E-01
RMM:  11    -0.232583415556E+04    0.34119E-04   -0.73564E-04 30911   0.437E-02    0.269E-01
RMM:  12    -0.232583382198E+04    0.33358E-03   -0.28538E-04 27546   0.382E-02    0.110E-01
RMM:  13    -0.232583377064E+04    0.51342E-04   -0.15600E-04 27848   0.213E-02    0.612E-02
RMM:  14    -0.232583377049E+04    0.14890E-06   -0.10919E-04 25732   0.143E-02    0.539E-02
RMM:  15    -0.232583378092E+04   -0.10431E-04   -0.79067E-05 24793   0.151E-02    0.632E-02
RMM:  16    -0.232583376629E+04    0.14631E-04   -0.29604E-05 17791   0.127E-02    0.367E-02
RMM:  17    -0.232583376436E+04    0.19328E-05   -0.16394E-05 16464   0.807E-03
  14 F= -.23258338E+04 E0= -.23230571E+04  d E =-.103472E-01
       N       E                     dE             d eps       ncg     rms          rms(c)
DAV:   1    -0.232583178773E+04    0.19786E-02   -0.13652E+01 27600   0.386E+00    0.708E-01
RMM:   2    -0.233226451878E+04   -0.64327E+01   -0.75945E-01 30426   0.150E+00    0.347E+01
RMM:   3    -0.232615161529E+04    0.61129E+01   -0.19537E-01 28111   0.943E-01    0.559E+00
RMM:   4    -0.232686180374E+04   -0.71019E+00   -0.11403E-01 28448   0.707E-01    0.137E+01
RMM:   5    -0.232602860198E+04    0.83320E+00   -0.85554E-02 33384   0.403E-01    0.537E+00
RMM:   6    -0.232611147402E+04   -0.82872E-01   -0.17123E-01 28653   0.739E-01    0.688E+00
RMM:   7    -0.232616845541E+04   -0.56981E-01   -0.10667E-01 27702   0.685E-01    0.787E+00
RMM:   8    -0.232590044662E+04    0.26801E+00   -0.39638E-02 27658   0.444E-01    0.295E+00
RMM:   9    -0.232584568426E+04    0.54762E-01   -0.18927E-02 27631   0.340E-01    0.819E-01
RMM:  10    -0.232584758388E+04   -0.18996E-02   -0.20459E-02 28792   0.272E-01    0.106E+00
RMM:  11    -0.232585041141E+04   -0.28275E-02   -0.12867E-02 29352   0.198E-01    0.130E+00
RMM:  12    -0.232584270060E+04    0.77108E-02   -0.45200E-03 28491   0.136E-01    0.469E-01
RMM:  13    -0.232584213952E+04    0.56107E-03   -0.44669E-03 33086   0.815E-02    0.347E-01
RMM:  14    -0.232584228305E+04   -0.14353E-03   -0.27270E-03 34491   0.673E-02    0.350E-01
RMM:  15    -0.232584180102E+04    0.48203E-03   -0.80596E-04 29408   0.537E-02    0.176E-01
RMM:  16    -0.232584178199E+04    0.19029E-04   -0.72370E-04 34449   0.332E-02    0.143E-01
RMM:  17    -0.232584182075E+04   -0.38760E-04   -0.52819E-04 31940   0.338E-02    0.147E-01
RMM:  18    -0.232584178401E+04    0.36746E-04   -0.22140E-04 29019   0.283E-02    0.114E-01
RMM:  19    -0.232584175028E+04    0.33725E-04   -0.14436E-04 27829   0.191E-02    0.814E-02
RMM:  20    -0.232584175756E+04   -0.72807E-05   -0.11947E-04 26337   0.140E-02    0.818E-02
RMM:  21    -0.232584174731E+04    0.10249E-04   -0.59550E-05 22767   0.145E-02    0.634E-02
RMM:  22    -0.232584173647E+04    0.10842E-04   -0.25996E-05 17985   0.100E-02    0.445E-02
RMM:  23    -0.232584173601E+04    0.45868E-06   -0.21283E-05 17565   0.773E-03
  15 F= -.23258417E+04 E0= -.23230661E+04  d E =-.797166E-02
       N       E                     dE             d eps       ncg     rms          rms(c)
DAV:   1    -0.232583311635E+04    0.86201E-02   -0.21611E+01 27600   0.486E+00    0.887E-01
RMM:   2    -0.233549928197E+04   -0.96662E+01   -0.11995E+00 30449   0.188E+00    0.424E+01
RMM:   3    -0.232629314236E+04    0.92061E+01   -0.30053E-01 28188   0.116E+00    0.668E+00
RMM:   4    -0.232611377912E+04    0.17936E+00   -0.16537E-01 28067   0.921E-01    0.680E+00
RMM:   5    -0.232707570438E+04   -0.96193E+00   -0.17741E-01 39935   0.418E-01    0.151E+01
RMM:   6    -0.232622909502E+04    0.84661E+00   -0.23097E-01 29290   0.802E-01    0.789E+00
RMM:   7    -0.232617826837E+04    0.50827E-01   -0.14975E-01 27703   0.823E-01    0.779E+00
RMM:   8    -0.232595343820E+04    0.22483E+00   -0.54452E-02 27814   0.492E-01    0.416E+00
RMM:   9    -0.232585911861E+04    0.94320E-01   -0.32535E-02 27621   0.427E-01    0.130E+00
RMM:  10    -0.232586333081E+04   -0.42122E-02   -0.40635E-02 28394   0.396E-01    0.160E+00
RMM:  11    -0.232586653455E+04   -0.32037E-02   -0.26095E-02 29244   0.289E-01    0.183E+00
RMM:  12    -0.232585158640E+04    0.14948E-01   -0.81266E-03 28226   0.189E-01    0.699E-01
RMM:  13    -0.232585033853E+04    0.12479E-02   -0.82172E-03 33036   0.109E-01    0.526E-01
RMM:  14    -0.232585011229E+04    0.22624E-03   -0.45344E-03 35475   0.831E-02    0.438E-01
RMM:  15    -0.232584935736E+04    0.75493E-03   -0.12897E-03 29824   0.645E-02    0.228E-01
RMM:  16    -0.232584932696E+04    0.30403E-04   -0.11385E-03 35335   0.406E-02    0.188E-01
RMM:  17    -0.232584935291E+04   -0.25956E-04   -0.78926E-04 32502   0.401E-02    0.175E-01
RMM:  18    -0.232584930625E+04    0.46661E-04   -0.32229E-04 29571   0.341E-02    0.143E-01
RMM:  19    -0.232584927077E+04    0.35485E-04   -0.22748E-04 30164   0.248E-02    0.113E-01
RMM:  20    -0.232584930149E+04   -0.30727E-04   -0.27317E-04 32064   0.240E-02    0.127E-01
RMM:  21    -0.232584925625E+04    0.45245E-04   -0.11322E-04 26249   0.203E-02    0.846E-02
RMM:  22    -0.232584925014E+04    0.61111E-05   -0.89357E-05 24010   0.102E-02
  16 F= -.23258493E+04 E0= -.23230748E+04  d E =-.154858E-01
       N       E                     dE             d eps       ncg     rms          rms(c)
DAV:   1    -0.232578314236E+04    0.66114E-01   -0.86389E+01 27600   0.973E+00    0.185E+00
RMM:   2    -0.236472859703E+04   -0.38945E+02   -0.64257E+00 30996   0.411E+00    0.850E+01
RMM:   3    -0.232755647455E+04    0.37172E+02   -0.13024E+00 28293   0.234E+00    0.142E+01
RMM:   4    -0.233057460459E+04   -0.30181E+01   -0.80966E-01 28845   0.174E+00    0.293E+01
RMM:   5    -0.232719926880E+04    0.33753E+01   -0.60104E-01 36429   0.897E-01    0.150E+01
RMM:   6    -0.232743467668E+04   -0.23541E+00   -0.98980E-01 28341   0.180E+00    0.167E+01
RMM:   7    -0.232775408023E+04   -0.31940E+00   -0.64898E-01 27741   0.168E+00    0.189E+01
RMM:   8    -0.232632133238E+04    0.14327E+01   -0.24831E-01 27763   0.107E+00    0.848E+00
RMM:   9    -0.232595042751E+04    0.37090E+00   -0.13679E-01 27614   0.899E-01    0.