<?xml version="1.0" encoding="ISO-8859-1"?>
<modeling>
 <generator>
  <i name="program" type="string">vasp </i>
  <i name="version" type="string">5.4.4.18Apr17-6-g9f103f2a35  </i>
  <i name="subversion" type="string">(build May 29 2019 08:40:53) complex            parallel </i>
  <i name="platform" type="string">LinuxPGI </i>
  <i name="date" type="string">2021 11 22 </i>
  <i name="time" type="string">14:28:36 </i>
 </generator>
 <incar>
  <i type="int" name="ISTART">     2</i>
  <i type="string" name="PREC">accurate</i>
  <i type="string" name="ALGO"> Fast</i>
  <i type="int" name="ICHARG">     2</i>
  <i type="int" name="INIWAV">     1</i>
  <i type="int" name="NELM">   100</i>
  <i type="int" name="NELMIN">     4</i>
  <i type="int" name="IBRION">     2</i>
  <i name="EDIFF">      0.00001000</i>
  <i type="int" name="NSW">   500</i>
  <i type="int" name="ISIF">     2</i>
  <i type="int" name="ISYM">     2</i>
  <i name="ENCUT">    500.00000000</i>
  <i name="POTIM">      0.25000000</i>
  <i type="string" name="LREAL"> Auto</i>
  <i type="int" name="ISMEAR">     0</i>
  <i name="SIGMA">      0.15000000</i>
  <i type="logical" name="LWAVE"> F  </i>
  <i type="logical" name="LCHARG"> F  </i>
  <v type="int" name="KPOINT_BSE">    -1     0     0     0</v>
  <i type="int" name="NELM">   100</i>
 </incar>
 <structure name="primitive_cell" >
  <crystal>
   <varray name="basis" >
    <v>       9.72667800       0.00000000       0.00000000 </v>
    <v>       0.00000000       8.42355000       0.00000000 </v>
    <v>       0.00000000       0.00000000      45.00000000 </v>
   </varray>
   <i name="volume">   3686.99213101 </i>
   <varray name="rec_basis" >
    <v>       0.10281002       0.00000000       0.00000000 </v>
    <v>       0.00000000       0.11871479       0.00000000 </v>
    <v>       0.00000000       0.00000000       0.02222222 </v>
   </varray>
  </crystal>
  <varray name="positions" >
   <v>       0.18719808      -0.03988536      -0.30081174 </v>
   <v>       0.31231418       0.20972747      -0.30061971 </v>
   <v>      -0.06268175      -0.03992957      -0.30064650 </v>
   <v>       0.06257325       0.21032676      -0.30049608 </v>
   <v>       0.18796425      -0.20552207      -0.25654476 </v>
   <v>       0.43725534      -0.04043328      -0.30074389 </v>
   <v>       0.31247117      -0.28993926      -0.30063550 </v>
   <v>       0.06204491      -0.29005322      -0.30069448 </v>
   <v>       0.18796535       0.12479839      -0.34528949 </v>
   <v>       0.06271418       0.04484630      -0.25649193 </v>
   <v>       0.31300189       0.04439274      -0.25650126 </v>
   <v>       0.06272431      -0.12501078      -0.34537846 </v>
   <v>       0.31263426      -0.12542018      -0.34524466 </v>
   <v>      -0.06227422      -0.20538670      -0.25649804 </v>
   <v>      -0.06250897       0.12479602      -0.34531283 </v>
   <v>       0.43767725       0.12441790      -0.34524876 </v>
   <v>       0.43757271      -0.20552100      -0.25648689 </v>
   <v>       0.18751479       0.29429580      -0.25639141 </v>
   <v>       0.18768952      -0.37517380      -0.34528432 </v>
   <v>       0.06274237       0.37494109      -0.34523169 </v>
   <v>       0.31288107       0.37462175      -0.34537564 </v>
   <v>       0.06255281      -0.45558617      -0.25649604 </v>
   <v>       0.18736745       0.46046820      -0.30059390 </v>
   <v>      -0.43782336       0.20951762      -0.30058409 </v>
   <v>       0.31302091      -0.45524393      -0.25640843 </v>
   <v>      -0.18780014      -0.28993796      -0.30067148 </v>
   <v>      -0.18821946       0.20959083      -0.30067933 </v>
   <v>      -0.43775195      -0.29040293      -0.30066183 </v>
   <v>      -0.18743499       0.04494504      -0.25648891 </v>
   <v>      -0.18723408      -0.12533494      -0.34528762 </v>
   <v>       0.31214274      -0.12016436      -0.21228303 </v>
   <v>       0.43775516       0.29420922      -0.25656536 </v>
   <v>      -0.43729190       0.04477062      -0.25650280 </v>
   <v>       0.06224011      -0.12047889      -0.21222478 </v>
   <v>       0.06253436       0.04157393      -0.38942059 </v>
   <v>      -0.06243936       0.29516354      -0.25646778 </v>
   <v>       0.31261443       0.04113874      -0.38943974 </v>
   <v>      -0.06215315      -0.37532275      -0.34522579 </v>
   <v>      -0.43687399      -0.12580407      -0.34528903 </v>
   <v>       0.18716139       0.12968264      -0.21223238 </v>
   <v>       0.43773064      -0.37557553      -0.34526906 </v>
   <v>       0.18746813      -0.20873987      -0.38949102 </v>
   <v>       0.18740780      -0.37063274      -0.21235746 </v>
   <v>      -0.06286895       0.46044686      -0.30085063 </v>
   <v>      -0.31290026      -0.04060662      -0.30076142 </v>
   <v>       0.43736439       0.46014642      -0.30060279 </v>
   <v>       0.18721689       0.29134881      -0.38939530 </v>
   <v>      -0.06311678       0.13014763      -0.21259633 </v>
   <v>      -0.06277023      -0.20840895      -0.38944534 </v>
   <v>       0.43720641       0.12992584      -0.21220814 </v>
   <v>       0.43736838      -0.20910418      -0.38948361 </v>
   <v>      -0.18718185       0.37466332      -0.34524873 </v>
   <v>      -0.18714631      -0.45486364      -0.25641976 </v>
   <v>      -0.06323267      -0.36983208      -0.21237743 </v>
   <v>      -0.31209291       0.12435715      -0.34526606 </v>
   <v>      -0.43706949       0.37461388      -0.34513024 </v>
   <v>      -0.31241732      -0.20540858      -0.25653380 </v>
   <v>       0.43718964      -0.37029185      -0.21223051 </v>
   <v>       0.43738624       0.29136824      -0.38928843 </v>
   <v>      -0.06236988       0.29138858      -0.38939705 </v>
   <v>      -0.43703909      -0.45502111      -0.25645019 </v>
   <v>      -0.43791717      -0.11972848      -0.21227459 </v>
   <v>      -0.18801057      -0.11983099      -0.21226481 </v>
   <v>      -0.43778416       0.04122308      -0.38942834 </v>
   <v>      -0.18787745       0.04135423      -0.38946439 </v>
   <v>       0.06239888      -0.45840080      -0.38944281 </v>
   <v>       0.31222345      -0.45893812      -0.38938726 </v>
   <v>       0.06258093       0.37984052      -0.21231691 </v>
   <v>       0.31206740       0.38032031      -0.21210485 </v>
   <v>      -0.31231245       0.29473655      -0.25650304 </v>
   <v>      -0.31212331      -0.37530235      -0.34531613 </v>
   <v>       0.18829552      -0.03911009      -0.16736371 </v>
   <v>       0.18758808      -0.04281049      -0.43435977 </v>
   <v>      -0.31285742       0.45980738      -0.30057601 </v>
   <v>      -0.31247372      -0.20911647      -0.38929468 </v>
   <v>      -0.31296880       0.13021133      -0.21230125 </v>
   <v>      -0.18749772      -0.45855936      -0.38942649 </v>
   <v>      -0.43755505      -0.45888658      -0.38935944 </v>
   <v>      -0.18836526       0.38052880      -0.21228017 </v>
   <v>      -0.43779728       0.38054940      -0.21215068 </v>
   <v>       0.06235128      -0.28888238      -0.16747310 </v>
   <v>      -0.06215895      -0.03828275      -0.16748960 </v>
   <v>       0.43764419      -0.04237551      -0.43408392 </v>
   <v>       0.43776964      -0.03825278      -0.16748207 </v>
   <v>       0.06230126       0.20764884      -0.43439298 </v>
   <v>      -0.06250481      -0.04267617      -0.43428598 </v>
   <v>       0.31309509      -0.28868502      -0.16726722 </v>
   <v>       0.31293887       0.21088274      -0.16731026 </v>
   <v>       0.06278930       0.21098254      -0.16719021 </v>
   <v>       0.06235571      -0.29261195      -0.43435255 </v>
   <v>       0.31271439       0.20744462      -0.43472081 </v>
   <v>       0.31271194      -0.29259796      -0.43445882 </v>
   <v>      -0.31304399      -0.36979580      -0.21238183 </v>
   <v>      -0.31251860       0.29107148      -0.38943744 </v>
   <v>       0.18736357       0.45769064      -0.43423122 </v>
   <v>      -0.18695674       0.20762398      -0.43426185 </v>
   <v>      -0.18681595      -0.28872453      -0.16739143 </v>
   <v>      -0.43753409       0.20781237      -0.43419349 </v>
   <v>       0.18766342       0.46061940      -0.16736511 </v>
   <v>      -0.43737510      -0.28852499      -0.16737557 </v>
   <v>      -0.18725462       0.21101361      -0.16731973 </v>
   <v>      -0.43739122       0.21118448      -0.16729806 </v>
   <v>      -0.18725362      -0.29303209      -0.43436589 </v>
   <v>      -0.43730684      -0.29286319      -0.43424248 </v>
   <v>       0.43774195       0.45758377      -0.43425169 </v>
   <v>      -0.06211598       0.45761800      -0.43438552 </v>
   <v>       0.43766590       0.46142262      -0.16734662 </v>
   <v>      -0.31275142      -0.03855719      -0.16739045 </v>
   <v>      -0.31237399      -0.04281264      -0.43461994 </v>
   <v>      -0.06215732       0.46114123      -0.16685829 </v>
   <v>       0.18730709      -0.20318631      -0.12542374 </v>
   <v>       0.06263581       0.04559199      -0.12529098 </v>
   <v>       0.31250920       0.04590998      -0.12520862 </v>
   <v>       0.18648033       0.12285901      -0.47866768 </v>
   <v>       0.31229620      -0.12762406      -0.47853629 </v>
   <v>       0.06264743      -0.12765567      -0.47859831 </v>
   <v>      -0.06264064      -0.20444841      -0.12538720 </v>
   <v>       0.43707927      -0.20345229      -0.12533256 </v>
   <v>       0.18753319       0.29658470      -0.12524369 </v>
   <v>      -0.06248971       0.12236075      -0.47860956 </v>
   <v>       0.43855474       0.12236547      -0.47862479 </v>
   <v>       0.18723919      -0.37706184      -0.47856061 </v>
   <v>       0.31298820      -0.45378340      -0.12526536 </v>
   <v>       0.06189505      -0.45432345      -0.12506721 </v>
   <v>      -0.18796515       0.04568119      -0.12528656 </v>
   <v>      -0.43796870       0.04627651      -0.12523229 </v>
   <v>       0.43731226       0.29662243      -0.12522735 </v>
   <v>      -0.06253861       0.29642719      -0.12514755 </v>
   <v>      -0.31215547       0.46109582      -0.16747155 </v>
   <v>      -0.31256975       0.45725976      -0.43440178 </v>
   <v>       0.06275934       0.37222010      -0.47854296 </v>
   <v>       0.31271669       0.37316587      -0.47858571 </v>
   <v>      -0.18632239      -0.12766244      -0.47858724 </v>
   <v>      -0.43863086      -0.12776944      -0.47864653 </v>
   <v>      -0.06226725      -0.37804640      -0.47852545 </v>
   <v>       0.43731408      -0.37775613      -0.47852956 </v>
   <v>      -0.31254647      -0.20320273      -0.12548346 </v>
   <v>      -0.43843370      -0.45367426      -0.12525015 </v>
   <v>      -0.18723635      -0.45396329      -0.12513391 </v>
   <v>      -0.43735492       0.37210880      -0.47848803 </v>
   <v>      -0.18805436       0.37299187      -0.47854772 </v>
   <v>      -0.31265698       0.12349184      -0.47852679 </v>
   <v>      -0.31328757       0.29664783      -0.12534222 </v>
   <v>      -0.31220767      -0.37826678      -0.47859164 </v>
   <v>       0.18787807      -0.04523196       0.47851017 </v>
   <v>       0.31261050       0.20542725       0.47865801 </v>
   <v>       0.06223616       0.20552475       0.47851991 </v>
   <v>      -0.06260394      -0.04400461       0.47852569 </v>
   <v>       0.43726404      -0.04479094       0.47847526 </v>
   <v>       0.06242115      -0.29420088       0.47856291 </v>
   <v>       0.31263620      -0.29431005       0.47853957 </v>
   <v>      -0.18631578       0.20520463       0.47857851 </v>
   <v>       0.18709878       0.45514574       0.47847181 </v>
   <v>      -0.43844749       0.20588722       0.47858505 </v>
   <v>      -0.18804041      -0.29486907       0.47855156 </v>
   <v>      -0.43693669      -0.29426187       0.47855855 </v>
   <v>      -0.06224817       0.45569490       0.47857492 </v>
   <v>       0.43742883       0.45545825       0.47849709 </v>
   <v>      -0.31261122      -0.04530599       0.47848378 </v>
   <v>      -0.31219526       0.45593151       0.47866030 </v>
   <v>       0.18727951       0.12051249       0.43443021 </v>
   <v>       0.31272146      -0.12950052       0.43451611 </v>
   <v>       0.06252702      -0.12930981       0.43439958 </v>
   <v>      -0.06245024       0.12033016       0.43425619 </v>
   <v>       0.43826004       0.12034089       0.43427581 </v>
   <v>       0.18749045      -0.37924721       0.43441004 </v>
   <v>       0.06277542       0.37058801       0.43442048 </v>
   <v>       0.31270524       0.37054974       0.43441639 </v>
   <v>       0.43756865      -0.37923901       0.43449768 </v>
   <v>      -0.06211584      -0.37932717       0.43444727 </v>
   <v>      -0.18693933      -0.12994762       0.43422241 </v>
   <v>      -0.43788535      -0.12987412       0.43425492 </v>
   <v>      -0.31247146       0.12027871       0.43468272 </v>
   <v>      -0.18734373       0.37092431       0.43434976 </v>
   <v>      -0.43759616       0.37081113       0.43432939 </v>
   <v>      -0.31241597      -0.37905042       0.43446693 </v>
   <v>       0.31246861       0.03718901       0.38946764 </v>
   <v>       0.06251795       0.03703572       0.38941704 </v>
   <v>       0.18738122      -0.21325478       0.38936626 </v>
   <v>       0.18755134       0.28671165       0.38946718 </v>
   <v>      -0.06231079      -0.21316189       0.38935898 </v>
   <v>       0.43717151      -0.21326736       0.38936010 </v>
   <v>       0.43767175       0.28676397       0.38941039 </v>
   <v>      -0.06305948       0.28692047       0.38932859 </v>
   <v>      -0.43740066       0.03658856       0.38934322 </v>
   <v>      -0.18779988       0.03675577       0.38931279 </v>
   <v>       0.06267362      -0.46295972       0.38938106 </v>
   <v>       0.31216001      -0.46311764       0.38927349 </v>
   <v>      -0.31257655      -0.21305524       0.38945152 </v>
   <v>      -0.18752678      -0.46310772       0.38947866 </v>
   <v>      -0.43748930      -0.46302895       0.38941476 </v>
   <v>      -0.31231460       0.28718287       0.38923925 </v>
   <v>       0.18787116      -0.04671822       0.34511780 </v>
   <v>       0.31278076       0.20317142       0.34530418 </v>
   <v>       0.06259190       0.20288764       0.34518445 </v>
   <v>      -0.06207413      -0.04700616       0.34519070 </v>
   <v>       0.43764792      -0.04668611       0.34520071 </v>
   <v>       0.31271331      -0.29675045       0.34536262 </v>
   <v>       0.06259524      -0.29657677       0.34531489 </v>
   <v>       0.18798254       0.45323482       0.34526863 </v>
   <v>      -0.18701490       0.20331171       0.34522289 </v>
   <v>      -0.43699670       0.20314803       0.34515263 </v>
   <v>      -0.18731499      -0.29711546       0.34524469 </v>
   <v>      -0.43704275      -0.29701852       0.34518488 </v>
   <v>      -0.06198645       0.45342218       0.34534758 </v>
   <v>       0.43727577       0.45351395       0.34528140 </v>
   <v>      -0.31228879      -0.04710396       0.34522972 </v>
   <v>      -0.31214571       0.45340634       0.34542814 </v>
   <v>       0.18718556       0.11737796       0.30062099 </v>
   <v>       0.31215535      -0.13210914       0.30076110 </v>
   <v>       0.06208790      -0.13252565       0.30076138 </v>
   <v>      -0.06277415       0.11773495       0.30068630 </v>
   <v>       0.43718524       0.11724900       0.30060830 </v>
   <v>       0.18723714      -0.38241756       0.30062058 </v>
   <v>       0.31216397       0.36740602       0.30065307 </v>
   <v>       0.06243124       0.36741979       0.30063391 </v>
   <v>      -0.43768112      -0.13205646       0.30070756 </v>
   <v>      -0.18745289      -0.13203543       0.30068564 </v>
   <v>       0.43764827      -0.38189907       0.30069911 </v>
   <v>      -0.06323495      -0.38206820       0.30066011 </v>
   <v>      -0.43791864       0.36707622       0.30067730 </v>
   <v>      -0.18765566       0.36750582       0.30057023 </v>
   <v>      -0.31264279       0.11788516       0.30059264 </v>
   <v>      -0.31289361      -0.38198721       0.30063757 </v>
   <v>       0.31210426       0.03237334       0.12533760 </v>
   <v>       0.18621431      -0.21675843       0.12515871 </v>
   <v>       0.06250913       0.03125682       0.12540901 </v>
   <v>       0.18795347       0.28206458       0.12516471 </v>
   <v>      -0.06227561      -0.21750724       0.12528312 </v>
   <v>       0.43742633      -0.21893087       0.12552098 </v>
   <v>       0.43738041       0.28114261       0.12505876 </v>
   <v>      -0.06396056       0.28155364       0.12520322 </v>
   <v>      -0.43803768       0.03177925       0.12534111 </v>
   <v>      -0.18818317       0.03135627       0.12535681 </v>
   <v>       0.06228987      -0.46879278       0.12533211 </v>
   <v>       0.31181409      -0.47044152       0.12534540 </v>
   <v>      -0.31211433      -0.21845381       0.12523314 </v>
   <v>      -0.43666720      -0.46877650       0.12530365 </v>
   <v>      -0.18834220      -0.47038730       0.12531387 </v>
   <v>      -0.31234872       0.28096169       0.12504289 </v>
   <v>       0.31281236       0.03306590       0.25647912 </v>
   <v>       0.06286997       0.03304864       0.25635284 </v>
   <v>       0.18760128      -0.21738499       0.25646784 </v>
   <v>       0.18793145       0.28333642       0.25642415 </v>
   <v>      -0.06198549      -0.21730234       0.25650060 </v>
   <v>       0.43784982      -0.21702660       0.25639436 </v>
   <v>      -0.06214384       0.28306174       0.25645528 </v>
   <v>       0.43760526       0.28297127       0.25634581 </v>
   <v>      -0.18724844       0.03333386       0.25642504 </v>
   <v>      -0.43724629       0.03298743       0.25642460 </v>
   <v>       0.06256836      -0.46672525       0.25652356 </v>
   <v>       0.31275556      -0.46648534       0.25647275 </v>
   <v>      -0.31202648      -0.21698969       0.25644558 </v>
   <v>      -0.18727289      -0.46692811       0.25655384 </v>
   <v>      -0.43712336      -0.46662782       0.25645576 </v>
   <v>      -0.31218140       0.28320737       0.25646714 </v>
   <v>       0.18746767       0.11631374       0.16742827 </v>
   <v>       0.06274705      -0.13419180       0.16733977 </v>
   <v>       0.31315679      -0.13362013       0.16738912 </v>
   <v>       0.43798503       0.11686976       0.16718833 </v>
   <v>      -0.06234481       0.11658167       0.16741410 </v>
   <v>       0.18796661      -0.38346164       0.16706453 </v>
   <v>       0.06303097       0.36735300       0.16722039 </v>
   <v>       0.31202682       0.36645500       0.16731945 </v>
   <v>      -0.43708859      -0.13392556       0.16727107 </v>
   <v>      -0.06172359      -0.38394082       0.16722370 </v>
   <v>       0.43842901      -0.38249042       0.16722153 </v>
   <v>      -0.18719243      -0.13320239       0.16752555 </v>
   <v>      -0.18672460       0.36665277       0.16726049 </v>
   <v>      -0.31207482       0.11700053       0.16728129 </v>
   <v>      -0.43708115       0.36591470       0.16747913 </v>
   <v>      -0.31309909      -0.38276559       0.16724018 </v>
   <v>       0.18683064      -0.05162540       0.21245457 </v>
   <v>       0.31175070       0.19799268       0.21245248 </v>
   <v>       0.06191158       0.19797727       0.21242651 </v>
   <v>       0.31223549      -0.30114360       0.21255337 </v>
   <v>      -0.06327631      -0.05218008       0.21227945 </v>
   <v>       0.06223625      -0.30173572       0.21242093 </v>
   <v>       0.43731675      -0.05206045       0.21217842 </v>
   <v>       0.18724844       0.44729588       0.21243934 </v>
   <v>      -0.18765403       0.19799901       0.21230205 </v>
   <v>      -0.43779468       0.19810474       0.21226420 </v>
   <v>      -0.43793392      -0.30164933       0.21265453 </v>
   <v>      -0.18784853      -0.30130860       0.21254682 </v>
   <v>       0.43731320       0.44670651       0.21249874 </v>
   <v>      -0.06345199       0.44765125       0.21218255 </v>
   <v>      -0.31275248      -0.05182879       0.21237365 </v>
   <v>      -0.31310518       0.44739932       0.21216629 </v>
  </varray>
 </structure>
 <varray name="primitive_index" >
  <v type="int" >        1 </v>
  <v type="int" >        5 </v>
  <v type="int" >      260 </v>
  <v type="int" >      275 </v>
  <v type="int" >      194 </v>
  <v type="int" >      235 </v>
  <v type="int" >       91 </v>
  <v type="int" >      155 </v>
  <v type="int" >      111 </v>
  <v type="int" >       75 </v>
  <v type="int" >      283 </v>
  <v type="int" >      117 </v>
  <v type="int" >      218 </v>
  <v type="int" >      114 </v>
  <v type="int" >      224 </v>
  <v type="int" >       93 </v>
  <v type="int" >       84 </v>
  <v type="int" >       34 </v>
  <v type="int" >      249 </v>
  <v type="int" >      222 </v>
  <v type="int" >      221 </v>
  <v type="int" >      278 </v>
  <v type="int" >      219 </v>
  <v type="int" >      166 </v>
  <v type="int" >      188 </v>
  <v type="int" >       49 </v>
  <v type="int" >       70 </v>
  <v type="int" >      105 </v>
  <v type="int" >      201 </v>
  <v type="int" >       44 </v>
  <v type="int" >       60 </v>
  <v type="int" >      125 </v>
  <v type="int" >      193 </v>
  <v type="int" >      157 </v>
  <v type="int" >       18 </v>
  <v type="int" >      262 </v>
  <v type="int" >      176 </v>
  <v type="int" >      180 </v>
  <v type="int" >        4 </v>
  <v type="int" >       77 </v>
  <v type="int" >      116 </v>
  <v type="int" >      272 </v>
  <v type="int" >       68 </v>
  <v type="int" >      215 </v>
  <v type="int" >      104 </v>
  <v type="int" >      264 </v>
  <v type="int" >        6 </v>
  <v type="int" >      288 </v>
  <v type="int" >      136 </v>
  <v type="int" >      233 </v>
  <v type="int" >       92 </v>
  <v type="int" >       67 </v>
  <v type="int" >      103 </v>
  <v type="int" >      177 </v>
  <v type="int" >      163 </v>
  <v type="int" >       98 </v>
  <v type="int" >      196 </v>
  <v type="int" >      261 </v>
  <v type="int" >       37 </v>
  <v type="int" >        8 </v>
  <v type="int" >      253 </v>
  <v type="int" >       53 </v>
  <v type="int" >        9 </v>
  <v type="int" >       36 </v>
  <v type="int" >       78 </v>
  <v type="int" >      273 </v>
  <v type="int" >       96 </v>
  <v type="int" >       74 </v>
  <v type="int" >       48 </v>
  <v type="int" >      172 </v>
  <v type="int" >      210 </v>
  <v type="int" >       16 </v>
  <v type="int" >      226 </v>
  <v type="int" >      122 </v>
  <v type="int" >       29 </v>
  <v type="int" >      130 </v>
  <v type="int" >      182 </v>
  <v type="int" >      151 </v>
  <v type="int" >      137 </v>
  <v type="int" >      250 </v>
  <v type="int" >      203 </v>
  <v type="int" >      143 </v>
  <v type="int" >      214 </v>
  <v type="int" >      173 </v>
  <v type="int" >      195 </v>
  <v type="int" >      101 </v>
  <v type="int" >       38 </v>
  <v type="int" >      174 </v>
  <v type="int" >      265 </v>
  <v type="int" >      209 </v>
  <v type="int" >      281 </v>
  <v type="int" >       81 </v>
  <v type="int" >      246 </v>
  <v type="int" >       31 </v>
  <v type="int" >      259 </v>
  <v type="int" >       90 </v>
  <v type="int" >      256 </v>
  <v type="int" >       62 </v>
  <v type="int" >      154 </v>
  <v type="int" >      202 </v>
  <v type="int" >      142 </v>
  <v type="int" >       64 </v>
  <v type="int" >      185 </v>
  <v type="int" >      197 </v>
  <v type="int" >       95 </v>
  <v type="int" >      133 </v>
  <v type="int" >      228 </v>
  <v type="int" >       46 </v>
  <v type="int" >       28 </v>
  <v type="int" >      282 </v>
  <v type="int" >       76 </v>
  <v type="int" >       11 </v>
  <v type="int" >      237 </v>
  <v type="int" >      179 </v>
  <v type="int" >      217 </v>
  <v type="int" >      146 </v>
  <v type="int" >      204 </v>
  <v type="int" >      115 </v>
  <v type="int" >       86 </v>
  <v type="int" >      153 </v>
  <v type="int" >      160 </v>
  <v type="int" >       57 </v>
  <v type="int" >      128 </v>
  <v type="int" >       66 </v>
  <v type="int" >       89 </v>
  <v type="int" >      184 </v>
  <v type="int" >      171 </v>
  <v type="int" >      254 </v>
  <v type="int" >       99 </v>
  <v type="int" >       73 </v>
  <v type="int" >      183 </v>
  <v type="int" >      255 </v>
  <v type="int" >      126 </v>
  <v type="int" >      212 </v>
  <v type="int" >      271 </v>
  <v type="int" >       85 </v>
  <v type="int" >       40 </v>
  <v type="int" >       87 </v>
  <v type="int" >      165 </v>
  <v type="int" >      231 </v>
  <v type="int" >      189 </v>
  <v type="int" >      276 </v>
  <v type="int" >      132 </v>
  <v type="int" >      118 </v>
  <v type="int" >       39 </v>
  <v type="int" >      286 </v>
  <v type="int" >      208 </v>
  <v type="int" >      161 </v>
  <v type="int" >       82 </v>
  <v type="int" >       33 </v>
  <v type="int" >       52 </v>
  <v type="int" >        7 </v>
  <v type="int" >       58 </v>
  <v type="int" >       88 </v>
  <v type="int" >       61 </v>
  <v type="int" >      252 </v>
  <v type="int" >       51 </v>
  <v type="int" >      169 </v>
  <v type="int" >      279 </v>
  <v type="int" >       72 </v>
  <v type="int" >      107 </v>
  <v type="int" >      108 </v>
  <v type="int" >      229 </v>
  <v type="int" >       55 </v>
  <v type="int" >      191 </v>
  <v type="int" >      240 </v>
  <v type="int" >      199 </v>
  <v type="int" >       47 </v>
  <v type="int" >      150 </v>
  <v type="int" >      251 </v>
  <v type="int" >       63 </v>
  <v type="int" >      162 </v>
  <v type="int" >      190 </v>
  <v type="int" >      129 </v>
  <v type="int" >      206 </v>
  <v type="int" >       45 </v>
  <v type="int" >      230 </v>
  <v type="int" >      200 </v>
  <v type="int" >       22 </v>
  <v type="int" >      100 </v>
  <v type="int" >       94 </v>
  <v type="int" >      159 </v>
  <v type="int" >       35 </v>
  <v type="int" >      141 </v>
  <v type="int" >       69 </v>
  <v type="int" >      112 </v>
  <v type="int" >       17 </v>
  <v type="int" >        2 </v>
  <v type="int" >       50 </v>
  <v type="int" >      266 </v>
  <v type="int" >      121 </v>
  <v type="int" >      227 </v>
  <v type="int" >       41 </v>
  <v type="int" >      287 </v>
  <v type="int" >       30 </v>
  <v type="int" >      164 </v>
  <v type="int" >      257 </v>
  <v type="int" >      109 </v>
  <v type="int" >      131 </v>
  <v type="int" >      244 </v>
  <v type="int" >       56 </v>
  <v type="int" >      127 </v>
  <v type="int" >       59 </v>
  <v type="int" >      187 </v>
  <v type="int" >       27 </v>
  <v type="int" >      119 </v>
  <v type="int" >      135 </v>
  <v type="int" >      274 </v>
  <v type="int" >      248 </v>
  <v type="int" >      241 </v>
  <v type="int" >       23 </v>
  <v type="int" >       65 </v>
  <v type="int" >      238 </v>
  <v type="int" >      148 </v>
  <v type="int" >      167 </v>
  <v type="int" >       80 </v>
  <v type="int" >      138 </v>
  <v type="int" >      186 </v>
  <v type="int" >      113 </v>
  <v type="int" >       12 </v>
  <v type="int" >      120 </v>
  <v type="int" >      181 </v>
  <v type="int" >      170 </v>
  <v type="int" >      207 </v>
  <v type="int" >      213 </v>
  <v type="int" >       71 </v>
  <v type="int" >      178 </v>
  <v type="int" >       20 </v>
  <v type="int" >       26 </v>
  <v type="int" >      285 </v>
  <v type="int" >       83 </v>
  <v type="int" >      220 </v>
  <v type="int" >      102 </v>
  <v type="int" >       24 </v>
  <v type="int" >      277 </v>
  <v type="int" >      147 </v>
  <v type="int" >      258 </v>
  <v type="int" >       25 </v>
  <v type="int" >      247 </v>
  <v type="int" >      225 </v>
  <v type="int" >      156 </v>
  <v type="int" >      175 </v>
  <v type="int" >      205 </v>
  <v type="int" >       42 </v>
  <v type="int" >      144 </v>
  <v type="int" >      140 </v>
  <v type="int" >      234 </v>
  <v type="int" >      134 </v>
  <v type="int" >       10 </v>
  <v type="int" >      242 </v>
  <v type="int" >      124 </v>
  <v type="int" >      232 </v>
  <v type="int" >      211 </v>
  <v type="int" >      263 </v>
  <v type="int" >      158 </v>
  <v type="int" >      110 </v>
  <v type="int" >      243 </v>
  <v type="int" >       43 </v>
  <v type="int" >       32 </v>
  <v type="int" >       54 </v>
  <v type="int" >       14 </v>
  <v type="int" >      269 </v>
  <v type="int" >        3 </v>
  <v type="int" >      245 </v>
  <v type="int" >       19 </v>
  <v type="int" >      236 </v>
  <v type="int" >       21 </v>
  <v type="int" >      168 </v>
  <v type="int" >       97 </v>
  <v type="int" >      268 </v>
  <v type="int" >      216 </v>
  <v type="int" >       13 </v>
  <v type="int" >       15 </v>
  <v type="int" >      192 </v>
  <v type="int" >      223 </v>
  <v type="int" >      145 </v>
  <v type="int" >      152 </v>
  <v type="int" >      106 </v>
  <v type="int" >      139 </v>
  <v type="int" >      284 </v>
  <v type="int" >      267 </v>
  <v type="int" >      270 </v>
  <v type="int" >      280 </v>
  <v type="int" >       79 </v>
  <v type="int" >      149 </v>
  <v type="int" >      123 </v>
  <v type="int" >      198 </v>
  <v type="int" >      239 </v>
 </varray>
 <kpoints>
  <generation param="Gamma">
   <v type="int" name="divisions">       4        4        1 </v>
   <v name="usershift">      0.00000000       0.00000000       0.00000000 </v>
   <v name="genvec1">      0.25000000       0.00000000       0.00000000 </v>
   <v name="genvec2">      0.00000000       0.25000000       0.00000000 </v>
   <v name="genvec3">      0.00000000       0.00000000       1.00000000 </v>
   <v name="shift">      0.00000000       0.00000000       0.00000000 </v>
  </generation>
  <varray name="kpointlist" >
   <v>       0.00000000       0.00000000       0.00000000 </v>
   <v>       0.25000000       0.00000000       0.00000000 </v>
   <v>       0.50000000       0.00000000       0.00000000 </v>
   <v>       0.00000000       0.25000000       0.00000000 </v>
   <v>       0.25000000       0.25000000       0.00000000 </v>
   <v>       0.50000000       0.25000000       0.00000000 </v>
   <v>      -0.25000000       0.25000000       0.00000000 </v>
   <v>       0.00000000       0.50000000       0.00000000 </v>
   <v>       0.25000000       0.50000000       0.00000000 </v>
   <v>       0.50000000       0.50000000       0.00000000 </v>
  </varray>
  <varray name="weights" >
   <v>       0.06250000 </v>
   <v>       0.12500000 </v>
   <v>       0.06250000 </v>
   <v>       0.12500000 </v>
   <v>       0.12500000 </v>
   <v>       0.12500000 </v>
   <v>       0.12500000 </v>
   <v>       0.06250000 </v>
   <v>       0.12500000 </v>
   <v>       0.06250000 </v>
  </varray>
 </kpoints>
 <parameters>
  <separator name="general" >
   <i type="string" name="SYSTEM">unknown system</i>
   <i type="logical" name="LCOMPAT"> F  </i>
  </separator>
  <separator name="electronic" >
   <i type="string" name="PREC">accura</i>
   <i name="ENMAX">    500.00000000</i>
   <i name="ENAUG">    838.43500000</i>
   <i name="EDIFF">      0.00001000</i>
   <i type="int" name="IALGO">    68</i>
   <i type="int" name="IWAVPR">    11</i>
   <i type="int" name="NBANDS">  1380</i>
   <i name="NELECT">   2289.00000000</i>
   <i type="int" name="TURBO">     0</i>
   <i type="int" name="IRESTART">     0</i>
   <i type="int" name="NREBOOT">     0</i>
   <i type="int" name="NMIN">     0</i>
   <i name="EREF">      0.00000000</i>
   <separator name="electronic smearing" >
    <i type="int" name="ISMEAR">     0</i>
    <i name="SIGMA">      0.15000000</i>
    <i name="KSPACING">      0.50000000</i>
    <i type="logical" name="KGAMMA"> T  </i>
   </separator>
   <separator name="electronic projectors" >
    <i type="logical" name="LREAL"> T  </i>
    <v name="ROPT">     -0.00025000     -0.00025000</v>
    <i type="int" name="LMAXPAW">  -100</i>
    <i type="int" name="LMAXMIX">     2</i>
    <i type="logical" name="NLSPLINE"> F  </i>
   </separator>
   <separator name="electronic startup" >
    <i type="int" name="ISTART">     0</i>
    <i type="int" name="ICHARG">     2</i>
    <i type="int" name="INIWAV">     1</i>
   </separator>
   <separator name="electronic spin" >
    <i type="int" name="ISPIN">     1</i>
    <i type="logical" name="LNONCOLLINEAR"> F  </i>
    <v name="MAGMOM">      1.00000000      1.00000000      1.00000000      1.00000000      1.00000000      1.00000000      1.00000000      1.00000000      1.00000000      1.00000000      1.00000000      1.00000000      1.00000000      1.00000000      1.00000000      1.00000000      1.00000000      1.00000000      1.00000000      1.00000000
      1.00000000      1.00000000      1.00000000      1.00000000      1.00000000      1.00000000      1.00000000      1.00000000      1.00000000      1.00000000      1.00000000      1.00000000      1.00000000      1.00000000      1.00000000      1.00000000      1.00000000      1.00000000      1.00000000      1.00000000
      1.00000000      1.00000000      1.00000000      1.00000000      1.00000000      1.00000000      1.00000000      1.00000000      1.00000000      1.00000000      1.00000000      1.00000000      1.00000000      1.00000000      1.00000000      1.00000000      1.00000000      1.00000000      1.00000000      1.00000000
      1.00000000      1.00000000      1.00000000      1.00000000      1.00000000      1.00000000      1.00000000      1.00000000      1.00000000      1.00000000      1.00000000      1.00000000      1.00000000      1.00000000      1.00000000      1.00000000      1.00000000      1.00000000      1.00000000      1.00000000
      1.00000000      1.00000000      1.00000000      1.00000000      1.00000000      1.00000000      1.00000000      1.00000000      1.00000000      1.00000000      1.00000000      1.00000000      1.00000000      1.00000000      1.00000000      1.00000000      1.00000000      1.00000000      1.00000000      1.00000000
      1.00000000      1.00000000      1.00000000      1.00000000      1.00000000      1.00000000      1.00000000      1.00000000      1.00000000      1.00000000      1.00000000      1.00000000      1.00000000      1.00000000      1.00000000      1.00000000      1.00000000      1.00000000      1.00000000      1.00000000
      1.00000000      1.00000000      1.00000000      1.00000000      1.00000000      1.00000000      1.00000000      1.00000000      1.00000000      1.00000000      1.00000000      1.00000000      1.00000000      1.00000000      1.00000000      1.00000000      1.00000000      1.00000000      1.00000000      1.00000000
      1.00000000      1.00000000      1.00000000      1.00000000      1.00000000      1.00000000      1.00000000      1.00000000      1.00000000      1.00000000      1.00000000      1.00000000      1.00000000      1.00000000      1.00000000      1.00000000      1.00000000      1.00000000      1.00000000      1.00000000
      1.00000000      1.00000000      1.00000000      1.00000000      1.00000000      1.00000000      1.00000000      1.00000000      1.00000000      1.00000000      1.00000000      1.00000000      1.00000000      1.00000000      1.00000000      1.00000000      1.00000000      1.00000000      1.00000000      1.00000000
      1.00000000      1.00000000      1.00000000      1.00000000      1.00000000      1.00000000      1.00000000      1.00000000      1.00000000      1.00000000      1.00000000      1.00000000      1.00000000      1.00000000      1.00000000      1.00000000      1.00000000      1.00000000      1.00000000      1.00000000
      1.00000000      1.00000000      1.00000000      1.00000000      1.00000000      1.00000000      1.00000000      1.00000000      1.00000000      1.00000000      1.00000000      1.00000000      1.00000000      1.00000000      1.00000000      1.00000000      1.00000000      1.00000000      1.00000000      1.00000000
      1.00000000      1.00000000      1.00000000      1.00000000      1.00000000      1.00000000      1.00000000      1.00000000      1.00000000      1.00000000      1.00000000      1.00000000      1.00000000      1.00000000      1.00000000      1.00000000      1.00000000      1.00000000      1.00000000      1.00000000
      1.00000000      1.00000000      1.00000000      1.00000000      1.00000000      1.00000000      1.00000000      1.00000000      1.00000000      1.00000000      1.00000000      1.00000000      1.00000000      1.00000000      1.00000000      1.00000000      1.00000000      1.00000000      1.00000000      1.00000000
      1.00000000      1.00000000      1.00000000      1.00000000      1.00000000      1.00000000      1.00000000      1.00000000      1.00000000      1.00000000      1.00000000      1.00000000      1.00000000      1.00000000      1.00000000      1.00000000      1.00000000      1.00000000      1.00000000      1.00000000
      1.00000000      1.00000000      1.00000000      1.00000000      1.00000000      1.00000000      1.00000000      1.00000000</v>
    <i name="NUPDOWN">     -1.00000000</i>
    <i type="logical" name="LSORBIT"> F  </i>
    <v name="SAXIS">      0.00000000      0.00000000      1.00000000</v>
    <i type="logical" name="LSPIRAL"> F  </i>
    <v name="QSPIRAL">      0.00000000      0.00000000      0.00000000</v>
    <i type="logical" name="LZEROZ"> F  </i>
   </separator>
   <separator name="electronic exchange-correlation" >
    <i type="logical" name="LASPH"> F  </i>
    <i type="logical" name="LMETAGGA"> F  </i>
   </separator>
   <separator name="electronic convergence" >
    <i type="int" name="NELM">   100</i>
    <i type="int" name="NELMDL">     0</i>
    <i type="int" name="NELMIN">     4</i>
    <i name="ENINI">    500.00000000</i>
    <separator name="electronic convergence detail" >
     <i type="logical" name="LDIAG"> T  </i>
     <i type="logical" name="LSUBROT"> F  </i>
     <i name="WEIMIN">      0.00100000</i>
     <i name="EBREAK">      0.00000000</i>
     <i name="DEPER">      0.30000000</i>
     <i type="int" name="NRMM">     4</i>
     <i name="TIME">      0.40000000</i>
    </separator>
   </separator>
   <separator name="electronic mixer" >
    <i name="AMIX">      0.40000000</i>
    <i name="BMIX">      1.00000000</i>
    <i name="AMIN">      0.10000000</i>
    <i name="AMIX_MAG">      1.60000000</i>
    <i name="BMIX_MAG">      1.00000000</i>
    <separator name="electronic mixer details" >
     <i type="int" name="IMIX">     4</i>
     <i type="logical" name="MIXFIRST"> F  </i>
     <i type="int" name="MAXMIX">   -45</i>
     <i name="WC">    100.00000000</i>
     <i type="int" name="INIMIX">     1</i>
     <i type="int" name="MIXPRE">     1</i>
     <i type="int" name="MREMOVE">     5</i>
    </separator>
   </separator>
   <separator name="electronic dipolcorrection" >
    <i type="logical" name="LDIPOL"> F  </i>
    <i type="logical" name="LMONO"> F  </i>
    <i type="int" name="IDIPOL">     0</i>
    <i name="EPSILON">      1.00000000</i>
    <v name="DIPOL">   -100.00000000   -100.00000000   -100.00000000</v>
    <i name="EFIELD">      0.00000000</i>
   </separator>
  </separator>
  <separator name="grids" >
   <i type="int" name="NGX">    72</i>
   <i type="int" name="NGY">    64</i>
   <i type="int" name="NGZ">   336</i>
   <i type="int" name="NGXF">   144</i>
   <i type="int" name="NGYF">   128</i>
   <i type="int" name="NGZF">   672</i>
   <i type="logical" name="ADDGRID"> F  </i>
  </separator>
  <separator name="ionic" >
   <i type="int" name="NSW">   500</i>
   <i type="int" name="IBRION">     2</i>
   <i type="int" name="MDALGO">     0</i>
   <i type="int" name="ISIF">     2</i>
   <i name="PSTRESS">      0.00000000</i>
   <i name="EDIFFG">      0.00010000</i>
   <i type="int" name="NFREE">     1</i>
   <i name="POTIM">      0.25000000</i>
   <i name="SMASS">     -3.00000000</i>
   <i name="SCALEE">      1.00000000</i>
  </separator>
  <separator name="ionic md" >
   <i name="TEBEG">      0.00010000</i>
   <i name="TEEND">      0.00010000</i>
   <i type="int" name="NBLOCK">     1</i>
   <i type="int" name="KBLOCK">   500</i>
   <i type="int" name="NPACO">   256</i>
   <i name="APACO">     16.00000000</i>
  </separator>
  <separator name="symmetry" >
   <i type="int" name="ISYM">     2</i>
   <i name="SYMPREC">      0.00001000</i>
  </separator>
  <separator name="dos" >
   <i type="int" name="LORBIT">     0</i>
   <v name="RWIGS">     -1.00000000     -1.00000000</v>
   <i type="int" name="NEDOS">   301</i>
   <i name="EMIN">     10.00000000</i>
   <i name="EMAX">    -10.00000000</i>
   <i name="EFERMI">      0.00000000</i>
  </separator>
  <separator name="writing" >
   <i type="int" name="NWRITE">     2</i>
   <i type="logical" name="LWAVE"> F  </i>
   <i type="logical" name="LDOWNSAMPLE"> F  </i>
   <i type="logical" name="LCHARG"> F  </i>
   <i type="logical" name="LPARD"> F  </i>
   <i type="logical" name="LVTOT"> F  </i>
   <i type="logical" name="LVHAR"> F  </i>
   <i type="logical" name="LELF"> F  </i>
   <i type="logical" name="LOPTICS"> F  </i>
   <v name="STM">      0.00000000      0.00000000      0.00000000      0.00000000      0.00000000      0.00000000      0.00000000</v>
  </separator>
  <separator name="performance" >
   <i type="int" name="NPAR">    10</i>
   <i type="int" name="NSIM">     4</i>
   <i type="int" name="NBLK">    -1</i>
   <i type="logical" name="LPLANE"> T  </i>
   <i type="logical" name="LSCALAPACK"> F  </i>
   <i type="logical" name="LSCAAWARE"> F  </i>
   <i type="logical" name="LSCALU"> F  </i>
   <i type="logical" name="LASYNC"> F  </i>
   <i type="logical" name="LORBITALREAL"> F  </i>
  </separator>
  <separator name="miscellaneous" >
   <i type="int" name="IDIOT">     3</i>
   <i type="int" name="ISPECIAL">     0</i>
   <i type="logical" name="LMUSIC"> F  </i>
   <v name="POMASS">     55.84700000     54.93800000</v>
   <v name="DARWINR">      0.00000000      0.00000000</v>
   <v name="DARWINV">      1.00000000      1.00000000</v>
   <i type="logical" name="LCORR"> T  </i>
  </separator>
  <i type="logical" name="GGA_COMPAT"> T  </i>
  <i type="logical" name="LBERRY"> F  </i>
  <i type="int" name="ICORELEVEL">     0</i>
  <i type="logical" name="LDAU"> F  </i>
  <i type="int" name="I_CONSTRAINED_M">     0</i>
  <separator name="electronic exchange-correlation" >
   <i type="string" name="GGA">--</i>
   <i type="int" name="VOSKOWN">     0</i>
   <i type="logical" name="LHFCALC"> F  </i>
   <i type="string" name="PRECFOCK"></i>
   <i type="logical" name="LSYMGRAD"> F  </i>
   <i type="logical" name="LHFONE"> F  </i>
   <i type="logical" name="LRHFCALC"> F  </i>
   <i type="logical" name="LTHOMAS"> F  </i>
   <i type="logical" name="LMODELHF"> F  </i>
   <i name="ENCUT4O">     -1.00000000</i>
   <i type="int" name="EXXOEP">     0</i>
   <i type="int" name="FOURORBIT">     0</i>
   <i name="AEXX">      0.00000000</i>
   <i name="HFALPHA">      0.00000000</i>
   <i name="MCALPHA">      0.00000000</i>
   <i name="ALDAX">      1.00000000</i>
   <i name="AGGAX">      1.00000000</i>
   <i name="ALDAC">      1.00000000</i>
   <i name="AGGAC">      1.00000000</i>
   <i type="int" name="NKREDX">     1</i>
   <i type="int" name="NKREDY">     1</i>
   <i type="int" name="NKREDZ">     1</i>
   <i type="logical" name="SHIFTRED"> F  </i>
   <i type="logical" name="ODDONLY"> F  </i>
   <i type="logical" name="EVENONLY"> F  </i>
   <i type="int" name="LMAXFOCK">     0</i>
   <i type="int" name="NMAXFOCKAE">     0</i>
   <i type="logical" name="LFOCKAEDFT"> F  </i>
   <i name="HFSCREEN">      0.00000000</i>
   <i name="HFSCREENC">      0.00000000</i>
   <i type="int" name="NBANDSGWLOW">     0</i>
  </separator>
  <separator name="vdW DFT" >
   <i type="logical" name="LUSE_VDW"> F  </i>
   <i name="Zab_VDW">     -0.84910000</i>
   <i name="PARAM1">      0.12340000</i>
   <i name="PARAM2">      1.00000000</i>
   <i name="PARAM3">      0.00000000</i>
  </separator>
  <separator name="model GW" >
   <i type="int" name="MODEL_GW">     0</i>
   <i name="MODEL_EPS0">      7.68123361</i>
   <i name="MODEL_ALPHA">      1.00000000</i>
  </separator>
  <separator name="linear response parameters" >
   <i type="logical" name="LEPSILON"> F  </i>
   <i type="logical" name="LRPA"> F  </i>
   <i type="logical" name="LNABLA"> F  </i>
   <i type="logical" name="LVEL"> F  </i>
   <i type="int" name="KINTER">     0</i>
   <i name="CSHIFT">      0.10000000</i>
   <i name="OMEGAMAX">     -1.00000000</i>
   <i name="DEG_THRESHOLD">      0.00200000</i>
   <i name="RTIME">     -0.10000000</i>
   <i name="WPLASMAI">      0.00000000</i>
   <v name="DFIELD">      0.00000000      0.00000000      0.00000000</v>
   <v name="WPLASMA">      0.00000000      0.00000000      0.00000000      0.00000000      0.00000000      0.00000000      0.00000000      0.00000000      0.00000000</v>
  </separator>
  <separator name="orbital magnetization" >
   <i type="logical" name="NUCIND"> F  </i>
   <v name="MAGPOS">      0.00000000      0.00000000      0.00000000</v>
   <i type="logical" name="LNICSALL"> T  </i>
   <i type="logical" name="ORBITALMAG"> F  </i>
   <i type="logical" name="LMAGBLOCH"> F  </i>
   <i type="logical" name="LCHIMAG"> F  </i>
   <i type="logical" name="LGAUGE"> T  </i>
   <i type="int" name="MAGATOM">     0</i>
   <v name="MAGDIPOL">      0.00000000      0.00000000      0.00000000</v>
   <v name="AVECCONST">      0.00000000      0.00000000      0.00000000</v>
  </separator>
  <separator name="response functions" >
   <i type="logical" name="LADDER"> F  </i>
   <i type="logical" name="LRPAFORCE"> F  </i>
   <i type="logical" name="LFXC"> F  </i>
   <i type="logical" name="LHARTREE"> T  </i>
   <i type="int" name="IBSE">     0</i>
   <v type="int" name="KPOINT">    -1     0     0     0</v>
   <i type="logical" name="LTCTE"> F  </i>
   <i type="logical" name="LTETE"> F  </i>
   <i type="logical" name="LTRIPLET"> F  </i>
   <i type="logical" name="LFXCEPS"> F  </i>
   <i type="logical" name="LFXHEG"> F  </i>
   <i type="int" name="NATURALO">     2</i>
   <i type="logical" name="L2ORDER"> F  </i>
   <i type="logical" name="LMP2LT"> F  </i>
   <i type="logical" name="LUSEW"> F  </i>
   <i name="ENCUTGW">     -2.00000000</i>
   <i name="ENCUTGWSOFT">     -2.00000000</i>
   <i name="ENCUTLF">     -1.00000000</i>
   <i type="int" name="LMAXMP2">    -1</i>
   <i name="SCISSOR">      0.00000000</i>
   <i type="int" name="NOMEGA">     0</i>
   <i type="int" name="NOMEGAR">     0</i>
   <i type="int" name="NBANDSGW">    -1</i>
   <i type="int" name="NBANDSO">    -1</i>
   <i type="int" name="NBANDSV">    -1</i>
   <i type="int" name="NELM">   100</i>
   <i type="int" name="NELMHF">     1</i>
   <i type="int" name="DIM">     3</i>
   <i type="int" name="ANTIRES">     0</i>
   <i name="OMEGAMAX">    -30.00000000</i>
   <i name="OMEGAMIN">    -30.00000000</i>
   <i name="OMEGATL">   -200.00000000</i>
   <i type="int" name="OMEGAGRID">   140</i>
   <i name="CSHIFT">     -0.10000000</i>
   <i type="logical" name="SELFENERGY"> F  </i>
   <i type="logical" name="LSPECTRAL"> F  </i>
   <i type="logical" name="LSPECTRALGW"> F  </i>
   <i type="logical" name="LSINGLES"> F  </i>
   <i type="logical" name="LFERMIGW"> F  </i>
   <i type="logical" name="ODDONLYGW"> F  </i>
   <i type="logical" name="EVENONLYGW"> F  </i>
   <i type="int" name="NKREDLFX">     1</i>
   <i type="int" name="NKREDLFY">     1</i>
   <i type="int" name="NKREDLFZ">     1</i>
   <i type="int" name="MAXMEM">  2800</i>
   <i type="int" name="TELESCOPE">     0</i>
   <i type="int" name="TAUPAR">     1</i>
   <i type="int" name="OMEGAPAR">    -1</i>
   <i name="LAMBDA">      1.00000000</i>
  </separator>
  <separator name="External order field" >
   <i name="OFIELD_KAPPA">      0.00000000</i>
   <v name="OFIELD_K">      0.00000000      0.00000000      0.00000000</v>
   <i name="OFIELD_Q6_NEAR">      0.00000000</i>
   <i name="OFIELD_Q6_FAR">      0.00000000</i>
   <i name="OFIELD_A">      0.00000000</i>
  </separator>
 </parameters>
 <atominfo>
  <atoms>     288 </atoms>
  <types>       2 </types>
  <array name="atoms" >
   <dimension dim="1">ion</dimension>
   <field type="string">element</field>
   <field type="int">atomtype</field>
   <set>
    <rc><c>Fe</c><c>   1</c></rc>
    <rc><c>Fe</c><c>   1</c></rc>
    <rc><c>Fe</c><c>   1</c></rc>
    <rc><c>Fe</c><c>   1</c></rc>
    <rc><c>Fe</c><c>   1</c></rc>
    <rc><c>Fe</c><c>   1</c></rc>
    <rc><c>Fe</c><c>   1</c></rc>
    <rc><c>Fe</c><c>   1</c></rc>
    <rc><c>Fe</c><c>   1</c></rc>
    <rc><c>Fe</c><c>   1</c></rc>
    <rc><c>Fe</c><c>   1</c></rc>
    <rc><c>Fe</c><c>   1</c></rc>
    <rc><c>Fe</c><c>   1</c></rc>
    <rc><c>Fe</c><c>   1</c></rc>
    <rc><c>Fe</c><c>   1</c></rc>
    <rc><c>Fe</c><c>   1</c></rc>
    <rc><c>Fe</c><c>   1</c></rc>
    <rc><c>Fe</c><c>   1</c></rc>
    <rc><c>Fe</c><c>   1</c></rc>
    <rc><c>Fe</c><c>   1</c></rc>
    <rc><c>Fe</c><c>   1</c></rc>
    <rc><c>Fe</c><c>   1</c></rc>
    <rc><c>Fe</c><c>   1</c></rc>
    <rc><c>Fe</c><c>   1</c></rc>
    <rc><c>Fe</c><c>   1</c></rc>
    <rc><c>Fe</c><c>   1</c></rc>
    <rc><c>Fe</c><c>   1</c></rc>
    <rc><c>Fe</c><c>   1</c></rc>
    <rc><c>Fe</c><c>   1</c></rc>
    <rc><c>Fe</c><c>   1</c></rc>
    <rc><c>Fe</c><c>   1</c></rc>
    <rc><c>Fe</c><c>   1</c></rc>
    <rc><c>Fe</c><c>   1</c></rc>
    <rc><c>Fe</c><c>   1</c></rc>
    <rc><c>Fe</c><c>   1</c></rc>
    <rc><c>Fe</c><c>   1</c></rc>
    <rc><c>Fe</c><c>   1</c></rc>
    <rc><c>Fe</c><c>   1</c></rc>
    <rc><c>Fe</c><c>   1</c></rc>
    <rc><c>Fe</c><c>   1</c></rc>
    <rc><c>Fe</c><c>   1</c></rc>
    <rc><c>Fe</c><c>   1</c></rc>
    <rc><c>Fe</c><c>   1</c></rc>
    <rc><c>Fe</c><c>   1</c></rc>
    <rc><c>Fe</c><c>   1</c></rc>
    <rc><c>Fe</c><c>   1</c></rc>
    <rc><c>Fe</c><c>   1</c></rc>
    <rc><c>Fe</c><c>   1</c></rc>
    <rc><c>Fe</c><c>   1</c></rc>
    <rc><c>Fe</c><c>   1</c></rc>
    <rc><c>Fe</c><c>   1</c></rc>
    <rc><c>Fe</c><c>   1</c></rc>
    <rc><c>Fe</c><c>   1</c></rc>
    <rc><c>Fe</c><c>   1</c></rc>
    <rc><c>Fe</c><c>   1</c></rc>
    <rc><c>Fe</c><c>   1</c></rc>
    <rc><c>Fe</c><c>   1</c></rc>
    <rc><c>Fe</c><c>   1</c></rc>
    <rc><c>Fe</c><c>   1</c></rc>
    <rc><c>Fe</c><c>   1</c></rc>
    <rc><c>Fe</c><c>   1</c></rc>
    <rc><c>Fe</c><c>   1</c></rc>
    <rc><c>Fe</c><c>   1</c></rc>
    <rc><c>Fe</c><c>   1</c></rc>
    <rc><c>Fe</c><c>   1</c></rc>
    <rc><c>Fe</c><c>   1</c></rc>
    <rc><c>Fe</c><c>   1</c></rc>
    <rc><c>Fe</c><c>   1</c></rc>
    <rc><c>Fe</c><c>   1</c></rc>
    <rc><c>Fe</c><c>   1</c></rc>
    <rc><c>Fe</c><c>   1</c></rc>
    <rc><c>Fe</c><c>   1</c></rc>
    <rc><c>Fe</c><c>   1</c></rc>
    <rc><c>Fe</c><c>   1</c></rc>
    <rc><c>Fe</c><c>   1</c></rc>
    <rc><c>Fe</c><c>   1</c></rc>
    <rc><c>Fe</c><c>   1</c></rc>
    <rc><c>Fe</c><c>   1</c></rc>
    <rc><c>Fe</c><c>   1</c></rc>
    <rc><c>Fe</c><c>   1</c></rc>
    <rc><c>Fe</c><c>   1</c></rc>
    <rc><c>Fe</c><c>   1</c></rc>
    <rc><c>Fe</c><c>   1</c></rc>
    <rc><c>Fe</c><c>   1</c></rc>
    <rc><c>Fe</c><c>   1</c></rc>
    <rc><c>Fe</c><c>   1</c></rc>
    <rc><c>Fe</c><c>   1</c></rc>
    <rc><c>Fe</c><c>   1</c></rc>
    <rc><c>Fe</c><c>   1</c></rc>
    <rc><c>Fe</c><c>   1</c></rc>
    <rc><c>Fe</c><c>   1</c></rc>
    <rc><c>Fe</c><c>   1</c></rc>
    <rc><c>Fe</c><c>   1</c></rc>
    <rc><c>Fe</c><c>   1</c></rc>
    <rc><c>Fe</c><c>   1</c></rc>
    <rc><c>Fe</c><c>   1</c></rc>
    <rc><c>Fe</c><c>   1</c></rc>
    <rc><c>Fe</c><c>   1</c></rc>
    <rc><c>Fe</c><c>   1</c></rc>
    <rc><c>Fe</c><c>   1</c></rc>
    <rc><c>Fe</c><c>   1</c></rc>
    <rc><c>Fe</c><c>   1</c></rc>
    <rc><c>Fe</c><c>   1</c></rc>
    <rc><c>Fe</c><c>   1</c></rc>
    <rc><c>Fe</c><c>   1</c></rc>
    <rc><c>Fe</c><c>   1</c></rc>
    <rc><c>Fe</c><c>   1</c></rc>
    <rc><c>Fe</c><c>   1</c></rc>
    <rc><c>Fe</c><c>   1</c></rc>
    <rc><c>Fe</c><c>   1</c></rc>
    <rc><c>Fe</c><c>   1</c></rc>
    <rc><c>Fe</c><c>   1</c></rc>
    <rc><c>Fe</c><c>   1</c></rc>
    <rc><c>Fe</c><c>   1</c></rc>
    <rc><c>Fe</c><c>   1</c></rc>
    <rc><c>Fe</c><c>   1</c></rc>
    <rc><c>Fe</c><c>   1</c></rc>
    <rc><c>Fe</c><c>   1</c></rc>
    <rc><c>Fe</c><c>   1</c></rc>
    <rc><c>Fe</c><c>   1</c></rc>
    <rc><c>Fe</c><c>   1</c></rc>
    <rc><c>Fe</c><c>   1</c></rc>
    <rc><c>Fe</c><c>   1</c></rc>
    <rc><c>Fe</c><c>   1</c></rc>
    <rc><c>Fe</c><c>   1</c></rc>
    <rc><c>Fe</c><c>   1</c></rc>
    <rc><c>Fe</c><c>   1</c></rc>
    <rc><c>Fe</c><c>   1</c></rc>
    <rc><c>Fe</c><c>   1</c></rc>
    <rc><c>Fe</c><c>   1</c></rc>
    <rc><c>Fe</c><c>   1</c></rc>
    <rc><c>Fe</c><c>   1</c></rc>
    <rc><c>Fe</c><c>   1</c></rc>
    <rc><c>Fe</c><c>   1</c></rc>
    <rc><c>Fe</c><c>   1</c></rc>
    <rc><c>Fe</c><c>   1</c></rc>
    <rc><c>Fe</c><c>   1</c></rc>
    <rc><c>Fe</c><c>   1</c></rc>
    <rc><c>Fe</c><c>   1</c></rc>
    <rc><c>Fe</c><c>   1</c></rc>
    <rc><c>Fe</c><c>   1</c></rc>
    <rc><c>Fe</c><c>   1</c></rc>
    <rc><c>Fe</c><c>   1</c></rc>
    <rc><c>Fe</c><c>   1</c></rc>
    <rc><c>Fe</c><c>   1</c></rc>
    <rc><c>Fe</c><c>   1</c></rc>
    <rc><c>Fe</c><c>   1</c></rc>
    <rc><c>Fe</c><c>   1</c></rc>
    <rc><c>Fe</c><c>   1</c></rc>
    <rc><c>Fe</c><c>   1</c></rc>
    <rc><c>Fe</c><c>   1</c></rc>
    <rc><c>Fe</c><c>   1</c></rc>
    <rc><c>Fe</c><c>   1</c></rc>
    <rc><c>Fe</c><c>   1</c></rc>
    <rc><c>Fe</c><c>   1</c></rc>
    <rc><c>Fe</c><c>   1</c></rc>
    <rc><c>Fe</c><c>   1</c></rc>
    <rc><c>Fe</c><c>   1</c></rc>
    <rc><c>Fe</c><c>   1</c></rc>
    <rc><c>Fe</c><c>   1</c></rc>
    <rc><c>Fe</c><c>   1</c></rc>
    <rc><c>Fe</c><c>   1</c></rc>
    <rc><c>Fe</c><c>   1</c></rc>
    <rc><c>Fe</c><c>   1</c></rc>
    <rc><c>Fe</c><c>   1</c></rc>
    <rc><c>Fe</c><c>   1</c></rc>
    <rc><c>Fe</c><c>   1</c></rc>
    <rc><c>Fe</c><c>   1</c></rc>
    <rc><c>Fe</c><c>   1</c></rc>
    <rc><c>Fe</c><c>   1</c></rc>
    <rc><c>Fe</c><c>   1</c></rc>
    <rc><c>Fe</c><c>   1</c></rc>
    <rc><c>Fe</c><c>   1</c></rc>
    <rc><c>Fe</c><c>   1</c></rc>
    <rc><c>Fe</c><c>   1</c></rc>
    <rc><c>Fe</c><c>   1</c></rc>
    <rc><c>Fe</c><c>   1</c></rc>
    <rc><c>Fe</c><c>   1</c></rc>
    <rc><c>Fe</c><c>   1</c></rc>
    <rc><c>Fe</c><c>   1</c></rc>
    <rc><c>Fe</c><c>   1</c></rc>
    <rc><c>Fe</c><c>   1</c></rc>
    <rc><c>Fe</c><c>   1</c></rc>
    <rc><c>Fe</c><c>   1</c></rc>
    <rc><c>Fe</c><c>   1</c></rc>
    <rc><c>Fe</c><c>   1</c></rc>
    <rc><c>Fe</c><c>   1</c></rc>
    <rc><c>Fe</c><c>   1</c></rc>
    <rc><c>Fe</c><c>   1</c></rc>
    <rc><c>Fe</c><c>   1</c></rc>
    <rc><c>Fe</c><c>   1</c></rc>
    <rc><c>Fe</c><c>   1</c></rc>
    <rc><c>Fe</c><c>   1</c></rc>
    <rc><c>Fe</c><c>   1</c></rc>
    <rc><c>Fe</c><c>   1</c></rc>
    <rc><c>Fe</c><c>   1</c></rc>
    <rc><c>Fe</c><c>   1</c></rc>
    <rc><c>Fe</c><c>   1</c></rc>
    <rc><c>Fe</c><c>   1</c></rc>
    <rc><c>Fe</c><c>   1</c></rc>
    <rc><c>Fe</c><c>   1</c></rc>
    <rc><c>Fe</c><c>   1</c></rc>
    <rc><c>Fe</c><c>   1</c></rc>
    <rc><c>Fe</c><c>   1</c></rc>
    <rc><c>Fe</c><c>   1</c></rc>
    <rc><c>Fe</c><c>   1</c></rc>
    <rc><c>Fe</c><c>   1</c></rc>
    <rc><c>Fe</c><c>   1</c></rc>
    <rc><c>Fe</c><c>   1</c></rc>
    <rc><c>Fe</c><c>   1</c></rc>
    <rc><c>Fe</c><c>   1</c></rc>
    <rc><c>Fe</c><c>   1</c></rc>
    <rc><c>Fe</c><c>   1</c></rc>
    <rc><c>Fe</c><c>   1</c></rc>
    <rc><c>Fe</c><c>   1</c></rc>
    <rc><c>Fe</c><c>   1</c></rc>
    <rc><c>Fe</c><c>   1</c></rc>
    <rc><c>Fe</c><c>   1</c></rc>
    <rc><c>Fe</c><c>   1</c></rc>
    <rc><c>Fe</c><c>   1</c></rc>
    <rc><c>Fe</c><c>   1</c></rc>
    <rc><c>Fe</c><c>   1</c></rc>
    <rc><c>Fe</c><c>   1</c></rc>
    <rc><c>Fe</c><c>   1</c></rc>
    <rc><c>Fe</c><c>   1</c></rc>
    <rc><c>Fe</c><c>   1</c></rc>
    <rc><c>Fe</c><c>   1</c></rc>
    <rc><c>Fe</c><c>   1</c></rc>
    <rc><c>Fe</c><c>   1</c></rc>
    <rc><c>Fe</c><c>   1</c></rc>
    <rc><c>Fe</c><c>   1</c></rc>
    <rc><c>Fe</c><c>   1</c></rc>
    <rc><c>Fe</c><c>   1</c></rc>
    <rc><c>Fe</c><c>   1</c></rc>
    <rc><c>Fe</c><c>   1</c></rc>
    <rc><c>Fe</c><c>   1</c></rc>
    <rc><c>Fe</c><c>   1</c></rc>
    <rc><c>Fe</c><c>   1</c></rc>
    <rc><c>Fe</c><c>   1</c></rc>
    <rc><c>Fe</c><c>   1</c></rc>
    <rc><c>Fe</c><c>   1</c></rc>
    <rc><c>Fe</c><c>   1</c></rc>
    <rc><c>Fe</c><c>   1</c></rc>
    <rc><c>Fe</c><c>   1</c></rc>
    <rc><c>Fe</c><c>   1</c></rc>
    <rc><c>Fe</c><c>   1</c></rc>
    <rc><c>Fe</c><c>   1</c></rc>
    <rc><c>Fe</c><c>   1</c></rc>
    <rc><c>Fe</c><c>   1</c></rc>
    <rc><c>Fe</c><c>   1</c></rc>
    <rc><c>Fe</c><c>   1</c></rc>
    <rc><c>Fe</c><c>   1</c></rc>
    <rc><c>Fe</c><c>   1</c></rc>
    <rc><c>Fe</c><c>   1</c></rc>
    <rc><c>Fe</c><c>   1</c></rc>
    <rc><c>Fe</c><c>   1</c></rc>
    <rc><c>Fe</c><c>   1</c></rc>
    <rc><c>Fe</c><c>   1</c></rc>
    <rc><c>Fe</c><c>   1</c></rc>
    <rc><c>Fe</c><c>   1</c></rc>
    <rc><c>Fe</c><c>   1</c></rc>
    <rc><c>Fe</c><c>   1</c></rc>
    <rc><c>Fe</c><c>   1</c></rc>
    <rc><c>Fe</c><c>   1</c></rc>
    <rc><c>Fe</c><c>   1</c></rc>
    <rc><c>Fe</c><c>   1</c></rc>
    <rc><c>Fe</c><c>   1</c></rc>
    <rc><c>Fe</c><c>   1</c></rc>
    <rc><c>Fe</c><c>   1</c></rc>
    <rc><c>Fe</c><c>   1</c></rc>
    <rc><c>Fe</c><c>   1</c></rc>
    <rc><c>Fe</c><c>   1</c></rc>
    <rc><c>Fe</c><c>   1</c></rc>
    <rc><c>Mn</c><c>   2</c></rc>
    <rc><c>Mn</c><c>   2</c></rc>
    <rc><c>Mn</c><c>   2</c></rc>
    <rc><c>Mn</c><c>   2</c></rc>
    <rc><c>Mn</c><c>   2</c></rc>
    <rc><c>Mn</c><c>   2</c></rc>
    <rc><c>Mn</c><c>   2</c></rc>
    <rc><c>Mn</c><c>   2</c></rc>
    <rc><c>Mn</c><c>   2</c></rc>
    <rc><c>Mn</c><c>   2</c></rc>
    <rc><c>Mn</c><c>   2</c></rc>
    <rc><c>Mn</c><c>   2</c></rc>
    <rc><c>Mn</c><c>   2</c></rc>
    <rc><c>Mn</c><c>   2</c></rc>
    <rc><c>Mn</c><c>   2</c></rc>
   </set>
  </array>
  <array name="atomtypes" >
   <dimension dim="1">type</dimension>
   <field type="int">atomspertype</field>
   <field type="string">element</field>
   <field>mass</field>
   <field>valence</field>
   <field type="string">pseudopotential</field>
   <set>
    <rc><c> 273</c><c>Fe</c><c>     55.84700000</c><c>      8.00000000</c><c>  PAW_PBE Fe_GW 31Mar2010               </c></rc>
    <rc><c>  15</c><c>Mn</c><c>     54.93800000</c><c>      7.00000000</c><c>  PAW_PBE Mn_GW 31Mar2010               </c></rc>
   </set>
  </array>
 </atominfo>
 <structure name="initialpos" >
  <crystal>
   <varray name="basis" >
    <v>       9.72667800       0.00000000       0.00000000 </v>
    <v>       0.00000000       8.42355000       0.00000000 </v>
    <v>       0.00000000       0.00000000      45.00000000 </v>
   </varray>
   <i name="volume">   3686.99213101 </i>
   <varray name="rec_basis" >
    <v>       0.10281002       0.00000000       0.00000000 </v>
    <v>       0.00000000       0.11871479       0.00000000 </v>
    <v>       0.00000000       0.00000000       0.02222222 </v>
   </varray>
  </crystal>
  <varray name="positions" >
   <v>       0.18719808       0.96011464       0.69918826 </v>
   <v>       0.31216001       0.53688236       0.38927349 </v>
   <v>       0.06303097       0.36735300       0.16722039 </v>
   <v>       0.56312601       0.87419593       0.65471097 </v>
   <v>       0.31231418       0.20972747       0.69938029 </v>
   <v>       0.18721689       0.29134881       0.61060470 </v>
   <v>       0.81368422       0.20520463       0.47857851 </v>
   <v>       0.93763012       0.29138858       0.61060295 </v>
   <v>       0.81198943       0.88016901       0.78773519 </v>
   <v>       0.81275156       0.03333386       0.25642504 </v>
   <v>       0.06263581       0.04559199       0.87470902 </v>
   <v>       0.93676505       0.61793180       0.30066011 </v>
   <v>       0.68690091       0.61723441       0.16724018 </v>
   <v>       0.93765519       0.11658167       0.16741410 </v>
   <v>       0.18683064       0.94837460       0.21245457 </v>
   <v>       0.18829552       0.96088991       0.83263629 </v>
   <v>       0.06267362       0.53704028       0.38938106 </v>
   <v>       0.06253436       0.04157393       0.61057941 </v>
   <v>       0.56291141       0.86607444       0.16727107 </v>
   <v>       0.18795347       0.28206458       0.12516471 </v>
   <v>       0.43842901       0.61750958       0.16722153 </v>
   <v>       0.18738122       0.78674522       0.38936626 </v>
   <v>       0.06208790       0.86747435       0.30076138 </v>
   <v>       0.81181683       0.03135627       0.12535681 </v>
   <v>       0.56333280       0.53122350       0.12530365 </v>
   <v>       0.93772439       0.78249276       0.12528312 </v>
   <v>       0.93801355       0.45342218       0.34534758 </v>
   <v>       0.68762601       0.95718736       0.56538006 </v>
   <v>       0.68752628       0.79088353       0.61070532 </v>
   <v>       0.06259190       0.20288764       0.34518445 </v>
   <v>       0.68748140       0.29107148       0.61056256 </v>
   <v>       0.31315679       0.86637987       0.16738912 </v>
   <v>       0.06242115       0.70579912       0.47856291 </v>
   <v>       0.18751479       0.29429580       0.74360859 </v>
   <v>       0.43767175       0.28676397       0.38941039 </v>
   <v>       0.56221584       0.04122308       0.61057166 </v>
   <v>       0.43738624       0.29136824       0.61071157 </v>
   <v>       0.31309509       0.71131498       0.83273278 </v>
   <v>       0.18787807       0.95476804       0.47851017 </v>
   <v>       0.68745353       0.79679727       0.87451654 </v>
   <v>       0.18787116       0.95328178       0.34511780 </v>
   <v>       0.18793145       0.28333642       0.25642415 </v>
   <v>       0.06274705       0.86580820       0.16733977 </v>
   <v>       0.81276592       0.87466506       0.65471238 </v>
   <v>       0.68758403       0.62094958       0.43446693 </v>
   <v>       0.68724858       0.96144281       0.83260955 </v>
   <v>       0.31270524       0.37054974       0.43441639 </v>
   <v>       0.31206740       0.38032031       0.78789515 </v>
   <v>       0.81219986       0.71006204       0.69932852 </v>
   <v>       0.68742345       0.78694476       0.38945152 </v>
   <v>       0.93775183       0.45569490       0.47857492 </v>
   <v>       0.31263620       0.70568995       0.47853957 </v>
   <v>       0.56208283       0.88027152       0.78772541 </v>
   <v>       0.43798503       0.11686976       0.16718833 </v>
   <v>       0.93754976       0.12033016       0.43425619 </v>
   <v>       0.81298510       0.20331171       0.34522289 </v>
   <v>       0.18723919       0.62293816       0.52143939 </v>
   <v>       0.18709878       0.45514574       0.47847181 </v>
   <v>       0.81268501       0.70288454       0.34524469 </v>
   <v>       0.31214274       0.87983564       0.78771697 </v>
   <v>       0.81195959       0.70513093       0.47855156 </v>
   <v>       0.56246591       0.20781237       0.56580651 </v>
   <v>       0.81306067       0.87005238       0.43422241 </v>
   <v>       0.56260878       0.21118448       0.83270194 </v>
   <v>       0.93722585       0.11773495       0.30068630 </v>
   <v>       0.06189505       0.54567655       0.87493279 </v>
   <v>       0.81281815       0.37466332       0.65475127 </v>
   <v>       0.18740780       0.62936726       0.78764254 </v>
   <v>       0.56259934       0.03658856       0.38934322 </v>
   <v>       0.81178054       0.20959083       0.69932067 </v>
   <v>       0.18621431       0.78324157       0.12515871 </v>
   <v>       0.68780474       0.45593151       0.47866030 </v>
   <v>       0.68743025       0.45725976       0.56559822 </v>
   <v>       0.06258093       0.37984052       0.78768309 </v>
   <v>       0.06271418       0.04484630       0.74350807 </v>
   <v>       0.18730709       0.79681369       0.87457626 </v>
   <v>       0.18716139       0.12968264       0.78776762 </v>
   <v>       0.81212255       0.04135423       0.61053561 </v>
   <v>       0.81215147       0.69869140       0.21254682 </v>
   <v>       0.06243124       0.36741979       0.30063391 </v>
   <v>       0.31271194       0.70740204       0.56554118 </v>
   <v>       0.43726404       0.95520906       0.47847526 </v>
   <v>       0.43738041       0.28114261       0.12505876 </v>
   <v>       0.43757271       0.79447900       0.74351311 </v>
   <v>       0.43731408       0.62224387       0.52147044 </v>
   <v>       0.18753319       0.29658470       0.87475631 </v>
   <v>       0.56156630       0.54632574       0.87474985 </v>
   <v>       0.56155251       0.20588722       0.47858505 </v>
   <v>       0.81203485       0.04568119       0.87471344 </v>
   <v>       0.81304326       0.20762398       0.56573815 </v>
   <v>       0.31247117       0.71006074       0.69936450 </v>
   <v>       0.43736838       0.79089582       0.61051639 </v>
   <v>       0.43767725       0.12441790       0.65475124 </v>
   <v>       0.93768921       0.78683811       0.38935898 </v>
   <v>       0.43774195       0.45758377       0.56574831 </v>
   <v>       0.31222345       0.54106188       0.61061274 </v>
   <v>       0.81327540       0.36665277       0.16726049 </v>
   <v>       0.56293051       0.37461388       0.65486976 </v>
   <v>       0.68784453       0.46109582       0.83252845 </v>
   <v>       0.18755134       0.28671165       0.38946718 </v>
   <v>       0.93749519       0.95732383       0.56571402 </v>
   <v>       0.56196232       0.03177925       0.12534111 </v>
   <v>       0.81285369       0.54513636       0.74358024 </v>
   <v>       0.68709974       0.95939338       0.69923858 </v>
   <v>       0.56224805       0.70959707       0.69933817 </v>
   <v>       0.06223625       0.69826428       0.21242093 </v>
   <v>       0.18727951       0.12051249       0.43443021 </v>
   <v>       0.31272146       0.87049948       0.43451611 </v>
   <v>       0.31271331       0.70324955       0.34536262 </v>
   <v>       0.68781860       0.28320737       0.25646714 </v>
   <v>       0.18796535       0.12479839       0.65471051 </v>
   <v>       0.81220012       0.03675577       0.38931279 </v>
   <v>       0.43764827       0.61810093       0.30069911 </v>
   <v>       0.93772578       0.79461330       0.74350196 </v>
   <v>       0.43707927       0.79654771       0.87466744 </v>
   <v>       0.43773064       0.62442447       0.65473094 </v>
   <v>       0.06272431       0.87498922       0.65462154 </v>
   <v>       0.68779233       0.62173322       0.52140836 </v>
   <v>       0.43727577       0.45351395       0.34528140 </v>
   <v>       0.56208136       0.36707622       0.30067730 </v>
   <v>       0.56251070       0.53697105       0.38941476 </v>
   <v>       0.68714258       0.45980738       0.69942399 </v>
   <v>       0.93654801       0.44765125       0.21218255 </v>
   <v>       0.06256836       0.53327475       0.25652356 </v>
   <v>       0.43775516       0.29420922       0.74343464 </v>
   <v>       0.81367761       0.87233756       0.52141276 </v>
   <v>       0.56300330       0.20314803       0.34515263 </v>
   <v>       0.31298820       0.54621660       0.87473464 </v>
   <v>       0.81265627       0.37092431       0.43434976 </v>
   <v>       0.68703120       0.13021133       0.78769875 </v>
   <v>       0.06259524       0.70342323       0.34531489 </v>
   <v>       0.68671243       0.29664783       0.87465778 </v>
   <v>       0.93788402       0.45761800       0.56561448 </v>
   <v>       0.43760526       0.28297127       0.25634581 </v>
   <v>       0.68771121       0.95289604       0.34522972 </v>
   <v>       0.93722977       0.79159105       0.61055466 </v>
   <v>       0.81163474       0.38052880       0.78771983 </v>
   <v>       0.56231888       0.86794354       0.30070756 </v>
   <v>       0.43731675       0.94793955       0.21217842 </v>
   <v>       0.43784982       0.78297340       0.25639436 </v>
   <v>       0.93694052       0.28692047       0.38932859 </v>
   <v>       0.81274538       0.21101361       0.83268027 </v>
   <v>       0.93784105       0.96171725       0.83251040 </v>
   <v>       0.93801451       0.78269766       0.25650060 </v>
   <v>       0.31223549       0.69885640       0.21255337 </v>
   <v>       0.06264743       0.87234433       0.52140169 </v>
   <v>       0.31181409       0.52955848       0.12534540 </v>
   <v>       0.18723714       0.61758244       0.30062058 </v>
   <v>       0.43731320       0.44670651       0.21249874 </v>
   <v>       0.43756865       0.62076099       0.43449768 </v>
   <v>       0.56244495       0.54111342       0.61064056 </v>
   <v>       0.93672369       0.94781992       0.21227945 </v>
   <v>       0.93751029       0.12236075       0.52139044 </v>
   <v>       0.18766342       0.46061940       0.83263489 </v>
   <v>       0.06204491       0.70994678       0.69930552 </v>
   <v>       0.31281236       0.03306590       0.25647912 </v>
   <v>       0.06224011       0.87952111       0.78777522 </v>
   <v>       0.56287664       0.53337218       0.25645576 </v>
   <v>       0.43717151       0.78673264       0.38936010 </v>
   <v>       0.43855474       0.12236547       0.52137521 </v>
   <v>       0.93739606       0.95599539       0.47852569 </v>
   <v>       0.56211465       0.87012588       0.43425492 </v>
   <v>       0.68790709       0.12435715       0.65473394 </v>
   <v>       0.93792587       0.95299384       0.34519070 </v>
   <v>       0.81276365       0.54603671       0.87486609 </v>
   <v>       0.56217664       0.20951762       0.69941591 </v>
   <v>       0.31216397       0.36740602       0.30065307 </v>
   <v>       0.81280757       0.86679761       0.16752555 </v>
   <v>       0.43742883       0.45545825       0.47849709 </v>
   <v>       0.68735721       0.11788516       0.30059264 </v>
   <v>       0.43731226       0.29662243       0.87477265 </v>
   <v>       0.68768755       0.29473655       0.74349696 </v>
   <v>       0.43776964       0.96174722       0.83251793 </v>
   <v>       0.31293887       0.21088274       0.83268974 </v>
   <v>       0.06286997       0.03304864       0.25635284 </v>
   <v>       0.31261443       0.04113874       0.61056026 </v>
   <v>       0.93676733       0.63016792       0.78762257 </v>
   <v>       0.06250913       0.03125682       0.12540901 </v>
   <v>       0.18648033       0.12285901       0.52133232 </v>
   <v>       0.93784685       0.62467725       0.65477421 </v>
   <v>       0.81234434       0.36750582       0.30057023 </v>
   <v>       0.81250228       0.54144064       0.61057351 </v>
   <v>       0.06275934       0.37222010       0.52145704 </v>
   <v>       0.56203130       0.04627651       0.87476771 </v>
   <v>       0.81274638       0.70696791       0.56563411 </v>
   <v>       0.81254711       0.86796457       0.30068564 </v>
   <v>       0.56295725       0.70298148       0.34518488 </v>
   <v>       0.31302091       0.54475607       0.74359157 </v>
   <v>       0.81194564       0.37299187       0.52145228 </v>
   <v>       0.68752854       0.12027871       0.43468272 </v>
   <v>       0.43826004       0.12034089       0.43427581 </v>
   <v>       0.31175070       0.19799268       0.21245248 </v>
   <v>       0.56270810       0.04477062       0.74349720 </v>
   <v>       0.18796425       0.79447793       0.74345524 </v>
   <v>       0.06230126       0.20764884       0.56560702 </v>
   <v>       0.68758268       0.79459142       0.74346620 </v>
   <v>       0.56269316       0.70713681       0.56575752 </v>
   <v>       0.68724752       0.94817121       0.21237365 </v>
   <v>       0.06277542       0.37058801       0.43442048 </v>
   <v>       0.06251795       0.03703572       0.38941704 </v>
   <v>       0.81256501       0.04494504       0.74351109 </v>
   <v>       0.56262490       0.71147501       0.83262443 </v>
   <v>       0.06235128       0.71111762       0.83252690 </v>
   <v>       0.93735936       0.79555159       0.87461280 </v>
   <v>       0.18760128       0.78261501       0.25646784 </v>
   <v>       0.56240384       0.37081113       0.43432939 </v>
   <v>       0.68710639       0.61801279       0.30063757 </v>
   <v>       0.06223616       0.20552475       0.47851991 </v>
   <v>       0.06235571       0.70738805       0.56564745 </v>
   <v>       0.68787669       0.62469765       0.65468387 </v>
   <v>       0.68797352       0.78301031       0.25644558 </v>
   <v>       0.56136914       0.87223056       0.52135347 </v>
   <v>       0.31210426       0.03237334       0.12533760 </v>
   <v>       0.43764419       0.95762449       0.56591608 </v>
   <v>       0.93713105       0.46044686       0.69914937 </v>
   <v>       0.56291885       0.36591470       0.16747913 </v>
   <v>       0.31229620       0.87237594       0.52146371 </v>
   <v>       0.31263426       0.87457982       0.65475534 </v>
   <v>       0.18736745       0.46046820       0.69940610 </v>
   <v>       0.93603944       0.28155364       0.12520322 </v>
   <v>       0.31288107       0.37462175       0.65462436 </v>
   <v>       0.06274237       0.37494109       0.65476831 </v>
   <v>       0.06191158       0.19797727       0.21242651 </v>
   <v>       0.93749103       0.12479602       0.65468717 </v>
   <v>       0.68765128       0.28096169       0.12504289 </v>
   <v>       0.18758808       0.95718951       0.56564023 </v>
   <v>       0.68768540       0.28718287       0.38923925 </v>
   <v>       0.43766590       0.46142262       0.83265338 </v>
   <v>       0.06252702       0.87069019       0.43439958 </v>
   <v>       0.31246861       0.03718901       0.38946764 </v>
   <v>       0.56264508       0.37210880       0.52151197 </v>
   <v>       0.31275556       0.53351466       0.25647275 </v>
   <v>       0.43720641       0.12992584       0.78779186 </v>
   <v>       0.93785616       0.28306174       0.25645528 </v>
   <v>       0.43725534       0.95956672       0.69925611 </v>
   <v>       0.93827641       0.61605918       0.16722370 </v>
   <v>       0.31250920       0.04590998       0.87479138 </v>
   <v>       0.43718524       0.11724900       0.30060830 </v>
   <v>       0.68689482       0.44739932       0.21216629 </v>
   <v>       0.18749045       0.62075279       0.43441004 </v>
   <v>       0.31215535       0.86789086       0.30076110 </v>
   <v>       0.56275371       0.03298743       0.25642460 </v>
   <v>       0.18746767       0.11631374       0.16742827 </v>
   <v>       0.18798254       0.45323482       0.34526863 </v>
   <v>       0.31202682       0.36645500       0.16731945 </v>
   <v>       0.68695601       0.63020420       0.78761817 </v>
   <v>       0.81165780       0.52961270       0.12531387 </v>
   <v>       0.18718556       0.11737796       0.30062099 </v>
   <v>       0.18768952       0.62482620       0.65471568 </v>
   <v>       0.56220272       0.38054940       0.78784932 </v>
   <v>       0.93788416       0.62067283       0.43444727 </v>
   <v>       0.56306331       0.70573813       0.47855855 </v>
   <v>       0.56296091       0.54497889       0.74354981 </v>
   <v>       0.93746139       0.29642719       0.87485245 </v>
   <v>       0.31271669       0.37316587       0.52141429 </v>
   <v>       0.81318405       0.71127547       0.83260857 </v>
   <v>       0.43764792       0.95331389       0.34520071 </v>
   <v>       0.68788567       0.78154619       0.12523314 </v>
   <v>       0.18736357       0.45769064       0.56576878 </v>
   <v>       0.93731825       0.96007043       0.69935350 </v>
   <v>       0.43718964       0.62970815       0.78776949 </v>
   <v>       0.93756064       0.29516354       0.74353222 </v>
   <v>       0.81272711       0.53307189       0.25655384 </v>
   <v>       0.43736439       0.46014642       0.69939721 </v>
   <v>       0.06278930       0.21098254       0.83280979 </v>
   <v>       0.81247322       0.53689228       0.38947866 </v>
   <v>       0.81234597       0.19799901       0.21230205 </v>
   <v>       0.68792518       0.11700053       0.16728129 </v>
   <v>       0.18796661       0.61653836       0.16706453 </v>
   <v>       0.56220532       0.19810474       0.21226420 </v>
   <v>       0.93773275       0.62195360       0.52147455 </v>
   <v>       0.18746813       0.79126013       0.61050898 </v>
   <v>       0.06239888       0.54159920       0.61055719 </v>
   <v>       0.68785429       0.45340634       0.34542814 </v>
   <v>       0.06257325       0.21032676       0.69950392 </v>
   <v>       0.68734302       0.12349184       0.52147321 </v>
   <v>       0.06228987       0.53120722       0.12533211 </v>
   <v>       0.06255281       0.54441383       0.74350396 </v>
   <v>       0.68738878       0.95469401       0.47848378 </v>
   <v>       0.56206608       0.69835067       0.21265453 </v>
   <v>       0.31271439       0.20744462       0.56527919 </v>
   <v>       0.93784268       0.46114123       0.83314171 </v>
   <v>       0.31300189       0.04439274       0.74349874 </v>
   <v>       0.18724844       0.44729588       0.21243934 </v>
   <v>       0.43742633       0.78106913       0.12552098 </v>
   <v>       0.31261050       0.20542725       0.47865801 </v>
   <v>       0.31278076       0.20317142       0.34530418 </v>
   <v>       0.93688322       0.13014763       0.78740367 </v>
  </varray>
 </structure>
 <calculation>
  <scstep>
   <time name="dav">  146.74  146.73</time>
   <time name="total">  147.18  147.17</time>
   <energy>
    <i name="alphaZ">  16277.55763135 </i>
    <i name="ewald"> 740573.80344354 </i>
    <i name="hartreedc">-930876.27802223 </i>
    <i name="XCdc">  -6527.78902121 </i>
    <i name="pawpsdc"> 162148.49262465 </i>
    <i name="pawaedc">-159453.03229289 </i>
    <i name="eentropy">     -0.95893993 </i>
    <i name="bandstr">  39753.47653221 </i>
    <i name="atom"> 168497.18126305 </i>
    <i name="e_fr_energy">  30392.45321854 </i>
    <i name="e_wo_entrp">  30393.41215847 </i>
    <i name="e_0_energy">  30392.93268851 </i>
   </energy>
  </scstep>
  <scstep>
   <time name="dav">  145.16  145.15</time>
   <time name="total">  145.16  145.16</time>
   <energy>
    <i name="e_fr_energy">   1523.63453715 </i>
    <i name="e_wo_entrp">   1525.00047933 </i>
    <i name="e_0_energy">   1524.31750824 </i>
   </energy>
  </scstep>
  <scstep>
   <time name="dav">  176.11  176.10</time>
   <time name="total">  176.12  176.11</time>
   <energy>
    <i name="e_fr_energy">  -1897.36829726 </i>
    <i name="e_wo_entrp">  -1893.82645852 </i>
    <i name="e_0_energy">  -1895.59737789 </i>
   </energy>
  </scstep>
  <scstep>
   <time name="dav">  215.75  215.74</time>
   <time name="total">  215.76  215.75</time>
   <energy>
    <i name="e_fr_energy">  -2609.66652664 </i>
    <i name="e_wo_entrp">  -2606.18823649 </i>
    <i name="e_0_energy">  -2607.92738156 </i>
   </energy>
  </scstep>
  <scstep>
   <time name="dav">  206.87  206.86</time>
   <time name="total">  211.47  211.46</time>
   <energy>
    <i name="e_fr_energy">  -2739.35673027 </i>
    <i name="e_wo_entrp">  -2735.78291451 </i>
    <i name="e_0_energy">  -2737.56982239 </i>
   </energy>
  </scstep>
  <scstep>
   <time name="diag">   30.74   30.74</time>
   <time name="diis">   74.46   74.45</time>
   <time name="orth">    8.80    8.80</time>
   <time name="total">  119.02  119.02</time>
   <energy>
    <i name="e_fr_energy">  -5636.65683548 </i>
    <i name="e_wo_entrp">  -5633.12419872 </i>
    <i name="e_0_energy">  -5634.89051710 </i>
   </energy>
  </scstep>
  <scstep>
   <time name="diag">   30.32   30.32</time>
   <time name="diis">   56.36   56.36</time>
   <time name="orth">    8.65    8.65</time>
   <time name="total">  101.32  101.31</time>
   <energy>
    <i name="e_fr_energy">  -3576.01524536 </i>
    <i name="e_wo_entrp">  -3572.46137794 </i>
    <i name="e_0_energy">  -3574.23831165 </i>
   </energy>
  </scstep>
  <scstep>
[...]
   <v>       0.00397181       0.00535931      -0.00230910 </v>
   <v>      -0.00230178      -0.00321340       0.00082166 </v>
   <v>      -0.00015905      -0.00457059      -0.00678948 </v>
   <v>       0.00077130       0.00397383      -0.00151139 </v>
   <v>      -0.00547307      -0.01867270      -0.00184122 </v>
   <v>      -0.00034971       0.00367556       0.00583307 </v>
   <v>      -0.00526314       0.00084422      -0.01507799 </v>
   <v>       0.00116915      -0.00318134       0.01923383 </v>
   <v>      -0.00238406       0.00434439      -0.03908321 </v>
   <v>       0.00117615      -0.00128377      -0.00109309 </v>
   <v>       0.00809274       0.00258288       0.00709128 </v>
   <v>       0.00494831       0.01562650      -0.00788868 </v>
   <v>      -0.00066385      -0.00745907       0.01481304 </v>
   <v>      -0.00217733      -0.02062411       0.00172079 </v>
   <v>      -0.00244516       0.00174373       0.00554746 </v>
   <v>      -0.00178568      -0.00432438       0.00091339 </v>
   <v>       0.00600995       0.02894778       0.00045992 </v>
   <v>       0.00049562      -0.01215555       0.04677309 </v>
   <v>       0.00512090      -0.00501633       0.01987910 </v>
   <v>      -0.00256378       0.00134316      -0.00540235 </v>
   <v>       0.00193753       0.00187826      -0.01285502 </v>
   <v>       0.00506037       0.01903071       0.02690598 </v>
   <v>      -0.00261481       0.01806819       0.03766756 </v>
   <v>      -0.00914081      -0.01091811       0.03534110 </v>
   <v>       0.00430229       0.00563047      -0.00606571 </v>
   <v>       0.00225181       0.00057969       0.00398803 </v>
   <v>      -0.00323230      -0.00160362      -0.00101815 </v>
   <v>      -0.00180532       0.00564646       0.00469453 </v>
   <v>       0.00123216       0.00496459       0.00771990 </v>
   <v>       0.00659342       0.02757183       0.00413279 </v>
   <v>      -0.00032841      -0.03337366       0.00885875 </v>
   <v>      -0.00244152       0.00790009      -0.01025260 </v>
   <v>      -0.00170740       0.00669287      -0.00277956 </v>
   <v>       0.00197296      -0.00373205       0.00402273 </v>
   <v>      -0.00483485      -0.00178994       0.00508057 </v>
   <v>      -0.00369008      -0.00403151      -0.00305173 </v>
   <v>      -0.00999629      -0.01292692      -0.00046636 </v>
   <v>       0.00311281      -0.00641862      -0.02445495 </v>
   <v>      -0.00139777       0.00115153       0.01014091 </v>
   <v>       0.00290983       0.01109053       0.01350817 </v>
   <v>       0.00216026       0.01748226      -0.00437869 </v>
   <v>       0.00560530      -0.00444550       0.00251723 </v>
   <v>       0.00486011      -0.00581144      -0.01818084 </v>
   <v>       0.00766903      -0.02006946       0.00329011 </v>
   <v>      -0.00136987      -0.00409969      -0.01357166 </v>
   <v>      -0.00557146       0.00624615      -0.01133585 </v>
   <v>      -0.00582958       0.00309411       0.00420070 </v>
   <v>      -0.00149286      -0.00218085      -0.00626696 </v>
   <v>       0.00607471      -0.01298315       0.00387384 </v>
   <v>       0.01063671      -0.01261867       0.00657763 </v>
   <v>      -0.00371727      -0.00048798      -0.01823252 </v>
   <v>      -0.00000460       0.00743137      -0.00048384 </v>
   <v>       0.00087161      -0.00168273      -0.01192524 </v>
   <v>       0.00487547       0.00222182      -0.00000612 </v>
   <v>      -0.01156962       0.02199898      -0.00332812 </v>
   <v>      -0.02619633      -0.02407930       0.00069708 </v>
   <v>       0.00533610       0.01835059      -0.00310028 </v>
   <v>      -0.00964207      -0.00089253      -0.01800602 </v>
   <v>       0.02046484      -0.03113780      -0.00287527 </v>
   <v>       0.00597928       0.00026742       0.00794018 </v>
   <v>      -0.00289685       0.00369474      -0.00962095 </v>
   <v>       0.00130980      -0.01616455       0.00528608 </v>
   <v>      -0.00403987       0.00079886      -0.00215189 </v>
   <v>       0.00017821       0.00655537      -0.02169835 </v>
   <v>       0.00474785      -0.00752397      -0.00602867 </v>
   <v>      -0.00379753       0.02012815      -0.00910084 </v>
   <v>      -0.00039769       0.00103259      -0.00055568 </v>
   <v>      -0.00212893      -0.00344386      -0.00173932 </v>
   <v>       0.00634077      -0.01275380       0.03331773 </v>
   <v>       0.00468957      -0.02078763      -0.01143640 </v>
   <v>       0.00338889       0.00319657       0.01453082 </v>
   <v>      -0.00365653       0.00052172      -0.01459316 </v>
   <v>      -0.00258768      -0.00941942      -0.00993982 </v>
   <v>      -0.00378732      -0.00648748      -0.02468830 </v>
   <v>      -0.00383801       0.01328774      -0.00886150 </v>
   <v>       0.00182987      -0.00482257      -0.00299746 </v>
   <v>       0.00103204      -0.01226906       0.00128894 </v>
   <v>      -0.00250990       0.00472905       0.00486259 </v>
   <v>      -0.00292423       0.00247268       0.01257683 </v>
   <v>       0.01169937      -0.02364337      -0.00481490 </v>
   <v>       0.00346516      -0.00939623       0.04019120 </v>
   <v>       0.00641361      -0.00005756      -0.01450584 </v>
   <v>       0.00776553       0.02381854      -0.00737033 </v>
   <v>      -0.00219821      -0.01466934      -0.02615193 </v>
   <v>       0.00371684       0.00037202      -0.02962090 </v>
   <v>       0.00241828      -0.01193987      -0.01129274 </v>
   <v>       0.00347312       0.00522141      -0.03911308 </v>
   <v>      -0.00354498       0.00012066       0.01051623 </v>
   <v>      -0.00171218       0.00034661       0.00509102 </v>
   <v>      -0.00016321      -0.00116213      -0.00287349 </v>
   <v>       0.00298613      -0.01071487       0.00089564 </v>
   <v>      -0.00384758       0.00111497      -0.00100169 </v>
   <v>       0.00444027      -0.00005454       0.00577853 </v>
   <v>      -0.00063964      -0.00000276       0.00253557 </v>
   <v>       0.00178483       0.00682521      -0.01490519 </v>
   <v>       0.00012857      -0.00443808      -0.00092834 </v>
   <v>      -0.00540035      -0.01441654      -0.00046691 </v>
   <v>       0.00017999       0.00578933      -0.00360272 </v>
   <v>      -0.00056122       0.00286724       0.00141732 </v>
   <v>      -0.00256065       0.01675024       0.02281186 </v>
   <v>       0.00137947      -0.00508708      -0.01372038 </v>
   <v>       0.00102706      -0.00897296      -0.00831292 </v>
   <v>      -0.00401561      -0.00141258       0.00067333 </v>
   <v>      -0.00389095      -0.01708359       0.00270161 </v>
   <v>       0.00390468       0.00240380      -0.00860374 </v>
   <v>      -0.00242485       0.00599781      -0.00919544 </v>
   <v>       0.00202895       0.00718728      -0.00076116 </v>
   <v>       0.00032895       0.00345814       0.00754749 </v>
   <v>       0.00114227      -0.01041911       0.00285328 </v>
   <v>       0.00071597       0.00259587       0.00223851 </v>
   <v>      -0.00505770      -0.00230384       0.00378295 </v>
   <v>      -0.00030929      -0.00467333      -0.01132602 </v>
   <v>      -0.00215360      -0.00801392      -0.02299692 </v>
   <v>       0.00354980      -0.00890487       0.00193882 </v>
   <v>       0.00358396      -0.00778361       0.00052863 </v>
   <v>       0.00220311       0.02472906       0.00659972 </v>
   <v>       0.00390854       0.00931265      -0.00127092 </v>
   <v>       0.00062925       0.01020880       0.00708570 </v>
   <v>      -0.00502393       0.00534206       0.00345153 </v>
   <v>       0.00136611      -0.00233043      -0.00948116 </v>
   <v>      -0.00505640      -0.00467125       0.01570947 </v>
   <v>       0.00819012      -0.00532495       0.00758728 </v>
   <v>       0.00436311       0.00390506      -0.00335281 </v>
   <v>      -0.00614046       0.03202228       0.00506410 </v>
   <v>       0.00199310       0.00362873      -0.00066554 </v>
   <v>      -0.00653766       0.00125262      -0.03036462 </v>
   <v>      -0.00521032      -0.00473148      -0.01072677 </v>
   <v>      -0.00728835       0.01413267      -0.00329223 </v>
   <v>       0.00199591       0.00891755       0.00232737 </v>
   <v>      -0.00288509      -0.00852319      -0.02333669 </v>
   <v>      -0.00522565       0.00168884       0.00425438 </v>
   <v>       0.00161059       0.00613320       0.01343941 </v>
   <v>       0.00400489       0.00764656       0.00490228 </v>
   <v>      -0.00113815      -0.00481217       0.00202178 </v>
   <v>       0.00022334       0.00493194      -0.01429815 </v>
   <v>       0.00116598       0.00260474       0.00306897 </v>
   <v>      -0.00609252       0.00089225       0.01903588 </v>
   <v>      -0.00228003       0.00815681       0.01761076 </v>
   <v>       0.00104894       0.00532424       0.00093206 </v>
   <v>       0.00204528      -0.01649118      -0.02120494 </v>
   <v>       0.00397115      -0.01560840       0.00589297 </v>
   <v>       0.00444549       0.00292031       0.02192548 </v>
   <v>      -0.00888393      -0.01735607       0.00263724 </v>
   <v>       0.00059678       0.01783297       0.00258726 </v>
   <v>      -0.01132278       0.01776266       0.02478299 </v>
   <v>      -0.00146569       0.00135521       0.00295302 </v>
   <v>      -0.00341460       0.00144956       0.01139322 </v>
   <v>       0.00322977      -0.00445943      -0.00979691 </v>
   <v>      -0.00299425      -0.00133026       0.00224606 </v>
   <v>       0.00050373      -0.00140924       0.00987743 </v>
   <v>      -0.01740569      -0.00612498       0.00419715 </v>
   <v>       0.01291545      -0.01368986      -0.00665774 </v>
   <v>       0.00203803       0.00261575      -0.00107347 </v>
   <v>       0.00126940      -0.00097200       0.00809050 </v>
   <v>       0.00309727       0.00651083      -0.01339301 </v>
   <v>       0.00290012      -0.00513736       0.00982576 </v>
   <v>       0.00260488       0.00110888      -0.00363110 </v>
   <v>      -0.00225163       0.01655284       0.00995625 </v>
   <v>      -0.00049350      -0.00496493       0.00316095 </v>
   <v>       0.00440286       0.00311552      -0.00563482 </v>
   <v>      -0.00450699      -0.00623971      -0.00111588 </v>
   <v>      -0.00174316       0.00848503       0.00853309 </v>
   <v>      -0.00474474       0.00868847      -0.02578672 </v>
   <v>      -0.00045078      -0.00042736       0.00048596 </v>
   <v>      -0.00208152       0.00845051      -0.00114521 </v>
   <v>       0.00185849       0.02043074      -0.01262766 </v>
   <v>       0.01340284      -0.02570332       0.00348010 </v>
   <v>      -0.00395898      -0.00622161      -0.00685617 </v>
   <v>      -0.00162203      -0.01293285      -0.03078638 </v>
   <v>       0.00774144       0.00364646      -0.00962475 </v>
   <v>       0.00316283      -0.01230654       0.00542829 </v>
   <v>       0.00460556      -0.01757920       0.00429344 </v>
   <v>       0.00825295       0.00228321       0.00981856 </v>
   <v>      -0.00578854      -0.00076728       0.00221665 </v>
   <v>       0.00120037       0.02203115      -0.01502739 </v>
   <v>      -0.00833442       0.02175554       0.02443178 </v>
   <v>       0.00782156       0.00729795       0.00038441 </v>
   <v>       0.00285821      -0.00855101      -0.00542510 </v>
   <v>      -0.00128634       0.00786166       0.00817668 </v>
   <v>      -0.00089554      -0.00412478       0.00854449 </v>
   <v>       0.00149744       0.02545147      -0.01127522 </v>
   <v>       0.00238535       0.00839247      -0.03644379 </v>
   <v>      -0.00449984       0.00025360       0.01355737 </v>
   <v>      -0.00554352       0.00330301       0.00361924 </v>
   <v>      -0.00292209       0.01410605       0.00103819 </v>
   <v>       0.00372949      -0.00180387      -0.01478725 </v>
   <v>       0.01774356       0.01589326       0.00105584 </v>
   <v>       0.00058397      -0.00065671      -0.00567553 </v>
   <v>      -0.00723513       0.00179141      -0.01304776 </v>
   <v>       0.00294113      -0.01366240       0.00877312 </v>
   <v>       0.00816902      -0.01039171      -0.02236350 </v>
   <v>       0.00016300      -0.00368271      -0.01613430 </v>
   <v>       0.00059549       0.00248827       0.01885901 </v>
   <v>       0.00663155      -0.00146159      -0.01345404 </v>
   <v>       0.00464353      -0.00058870       0.01285330 </v>
   <v>      -0.00369085      -0.00193484       0.01830742 </v>
   <v>       0.00275517      -0.00615257      -0.00120989 </v>
   <v>       0.00044584      -0.00084643      -0.00207374 </v>
   <v>       0.00708681      -0.00707415      -0.01739162 </v>
   <v>       0.00682503      -0.00420547      -0.00446427 </v>
   <v>       0.00971319       0.00126528      -0.01585491 </v>
   <v>      -0.00185914      -0.00740379      -0.02977816 </v>
   <v>       0.00848370       0.00543980       0.02405561 </v>
   <v>       0.00387530      -0.00432057      -0.00479320 </v>
   <v>      -0.00086136      -0.00030833      -0.00373843 </v>
   <v>       0.01120945      -0.00286302      -0.01409151 </v>
   <v>       0.00289871       0.00113952       0.00651471 </v>
   <v>       0.00142491      -0.01173588       0.00435585 </v>
   <v>       0.00252956      -0.00094482       0.01922017 </v>
   <v>      -0.00030804       0.02125389      -0.00095883 </v>
   <v>      -0.00620466       0.01909617       0.02836106 </v>
   <v>       0.00136027      -0.00123478       0.00816423 </v>
   <v>      -0.00039364      -0.00264098      -0.00353986 </v>
   <v>       0.00386197       0.01589853      -0.01582711 </v>
   <v>       0.00074354       0.01343081       0.00133619 </v>
   <v>       0.00328222      -0.00386207      -0.00023551 </v>
   <v>      -0.00556937      -0.00681054      -0.00426857 </v>
   <v>      -0.00137343      -0.01513019       0.04654878 </v>
   <v>       0.00048815      -0.00513285       0.00263249 </v>
   <v>       0.00365319      -0.00521529      -0.00152625 </v>
   <v>      -0.00857760      -0.01103618       0.01173496 </v>
   <v>       0.00502227      -0.00935705       0.00782509 </v>
   <v>      -0.00808813      -0.02020196       0.05116186 </v>
   <v>      -0.00329757       0.00134973       0.01099281 </v>
   <v>       0.00000784       0.00019743       0.00325692 </v>
   <v>       0.00188030      -0.01874569       0.00572282 </v>
   <v>       0.00197068       0.00224691      -0.00999417 </v>
   <v>      -0.00235244      -0.00261277      -0.00105811 </v>
   <v>      -0.03443819       0.01551633       0.00234541 </v>
   <v>      -0.00015822      -0.00092798       0.00531720 </v>
   <v>      -0.00737702       0.02085114      -0.00842844 </v>
   <v>       0.00239886       0.01217810       0.01661691 </v>
   <v>      -0.00620937      -0.00903268       0.00052376 </v>
   <v>      -0.00112855       0.01701015       0.01015935 </v>
   <v>      -0.00798451       0.00515778      -0.03662357 </v>
   <v>      -0.00274351       0.00058035      -0.00466308 </v>
   <v>       0.00411477       0.00971354       0.02773800 </v>
   <v>       0.00111436      -0.00625804      -0.01695410 </v>
   <v>      -0.00204369      -0.00043875      -0.00274422 </v>
   <v>       0.00001160       0.00361113       0.01646624 </v>
   <v>       0.00148285       0.01145788       0.00408291 </v>
   <v>      -0.00026688       0.00404744      -0.00120577 </v>
   <v>       0.00454721       0.01279620      -0.00553468 </v>
   <v>      -0.00055442       0.01826332      -0.00584948 </v>
   <v>      -0.00068005       0.02107359       0.02946490 </v>
   <v>      -0.00219085       0.00256843      -0.00222825 </v>
   <v>       0.00069741      -0.01039417       0.00441412 </v>
   <v>      -0.00613909       0.00411875      -0.01826185 </v>
   <v>      -0.00624084      -0.00135634      -0.00274817 </v>
   <v>      -0.03366777      -0.02223929       0.00232495 </v>
   <v>       0.00858997      -0.00561941      -0.01919309 </v>
   <v>      -0.00041372      -0.02211573      -0.00278190 </v>
   <v>       0.01220314      -0.00183198      -0.00004277 </v>
   <v>      -0.00014857       0.00086107      -0.01133609 </v>
   <v>       0.00725828       0.00243597       0.00801065 </v>
   <v>      -0.00039474      -0.01639174       0.03559130 </v>
   <v>      -0.00109430      -0.00027371       0.00894355 </v>
   <v>      -0.00777980      -0.00603141      -0.00959604 </v>
   <v>      -0.00640069       0.01543663      -0.01107827 </v>
   <v>       0.00206284       0.00305820      -0.01093151 </v>
   <v>       0.00070613      -0.00046752       0.00714592 </v>
   <v>      -0.00254552      -0.00649483      -0.00586260 </v>
   <v>       0.00867983      -0.01653414      -0.01537226 </v>
   <v>      -0.00044225       0.00284467       0.00477619 </v>
   <v>      -0.00343153      -0.01055240       0.00128482 </v>
   <v>       0.00415025       0.01205341      -0.00366784 </v>
   <v>       0.00935299       0.01551656       0.01488560 </v>
   <v>      -0.00641004      -0.01619871       0.00495079 </v>
   <v>      -0.00138483       0.01471284      -0.01063653 </v>
   <v>       0.00098421       0.00007089       0.00394080 </v>
   <v>      -0.00010361      -0.00077494       0.00548929 </v>
   <v>       0.00034719       0.00802855      -0.00339759 </v>
   <v>      -0.00401095       0.00079181      -0.00147157 </v>
   <v>       0.00870978      -0.00653292      -0.00034111 </v>
   <v>       0.00125090       0.01403955       0.01984040 </v>
   <v>      -0.00122421      -0.00300309      -0.01371031 </v>
   <v>      -0.00329730       0.00067313       0.00311130 </v>
   <v>      -0.00248793      -0.02249580       0.00282987 </v>
   <v>      -0.00118961       0.00714387       0.00618658 </v>
   <v>       0.00397331      -0.01731511      -0.01815560 </v>
   <v>       0.00070719      -0.00626265      -0.01325083 </v>
   <v>      -0.00883694      -0.00429086       0.01744618 </v>
   <v>      -0.00398871      -0.01548217       0.01638216 </v>
   <v>      -0.00708203      -0.00030893       0.00132872 </v>
   <v>       0.00237945       0.00835528       0.00025617 </v>
   <v>       0.00228595       0.01782148      -0.00480307 </v>
  </varray>
  <varray name="stress" >
   <v>      -5.01761261      -0.00960735       0.03600484 </v>
   <v>      -0.00960705      -2.44569028      -3.39568911 </v>
   <v>       0.03600484      -3.39568867     -18.21036729 </v>
  </varray>
  <energy>
   <i name="e_fr_energy">  -2325.84925014 </i>
   <i name="e_wo_entrp">  -2323.07477706 </i>
   <i name="e_0_energy">     -5.54894616 </i>
  </energy>
  <time name="totalsc"> 2212.70 2212.61</time>
 </calculation>
 <calculation>
  <scstep>
   <time name="dav">  136.53  136.52</time>
   <time name="total">  141.87  141.87</time>
   <energy>
    <i name="alphaZ">  16277.55763135 </i>
    <i name="ewald"> 754870.36877166 </i>
    <i name="hartreedc">-942006.76902441 </i>
    <i name="XCdc">  -6674.39263649 </i>
    <i name="pawpsdc"> 201106.51158876 </i>
    <i name="pawaedc">-198661.51166222 </i>
    <i name="eentropy">     -5.54029308 </i>
    <i name="bandstr">   4270.81121902 </i>
    <i name="atom"> 168497.18126305 </i>
    <i name="e_fr_energy">  -2325.78314236 </i>
    <i name="e_wo_entrp">  -2320.24284928 </i>
    <i name="e_0_energy">  -2323.01299582 </i>
   </energy>
  </scstep>
  <scstep>
   <time name="diag">   29.08   29.08</time>
   <time name="diis">   49.52   49.52</time>
   <time name="orth">    8.93    8.93</time>
   <time name="total">   93.36   93.35</time>
   <energy>
    <i name="e_fr_energy">  -2364.72859703 </i>
    <i name="e_wo_entrp">  -2359.03811874 </i>
    <i name="e_0_energy">  -2361.88335789 </i>
   </energy>
  </scstep>
  <scstep>
   <time name="diag">   29.86   29.85</time>
   <time name="diis">   45.33   45.33</time>
   <time name="orth">    8.63    8.63</time>
   <time name="total">   90.25   90.24</time>
   <energy>
    <i name="e_fr_energy">  -2327.55647455 </i>
    <i name="e_wo_entrp">  -2321.99736629 </i>
    <i name="e_0_energy">  -2324.77692042 </i>
   </energy>
  </scstep>
  <scstep>
   <time name="diag">   29.76   29.76</time>
   <time name="diis">   46.48   4