unknown system                          
            1
     9.726678    0.000000    0.000000
     0.000000    8.423550    0.000000
     0.000000    0.000000   45.000000
   Fe   Mn
 273  15
Direct configuration=     1
   0.18719808  0.96011464  0.69918826
   0.31216001  0.53688236  0.38927349
   0.06303097  0.36735300  0.16722039
   0.56312601  0.87419593  0.65471097
   0.31231418  0.20972747  0.69938029
   0.18721689  0.29134881  0.61060470
   0.81368422  0.20520463  0.47857851
   0.93763012  0.29138858  0.61060295
   0.81198943  0.88016901  0.78773519
   0.81275156  0.03333386  0.25642504
   0.06263581  0.04559199  0.87470902
   0.93676505  0.61793180  0.30066011
   0.68690091  0.61723441  0.16724018
   0.93765519  0.11658167  0.16741410
   0.18683064  0.94837460  0.21245457
   0.18829552  0.96088991  0.83263629
   0.06267362  0.53704028  0.38938106
   0.06253436  0.04157393  0.61057941
   0.56291141  0.86607444  0.16727107
   0.18795347  0.28206458  0.12516471
   0.43842901  0.61750958  0.16722153
   0.18738122  0.78674522  0.38936626
   0.06208790  0.86747435  0.30076138
   0.81181683  0.03135627  0.12535681
   0.56333280  0.53122350  0.12530365
   0.93772439  0.78249276  0.12528312
   0.93801355  0.45342218  0.34534758
   0.68762601  0.95718736  0.56538006
   0.68752628  0.79088353  0.61070532
   0.06259190  0.20288764  0.34518445
   0.68748140  0.29107148  0.61056256
   0.31315679  0.86637987  0.16738912
   0.06242115  0.70579912  0.47856291
   0.18751479  0.29429580  0.74360859
   0.43767175  0.28676397  0.38941039
   0.56221584  0.04122308  0.61057166
   0.43738624  0.29136824  0.61071157
   0.31309509  0.71131498  0.83273278
   0.18787807  0.95476804  0.47851017
   0.68745353  0.79679727  0.87451654
   0.18787116  0.95328178  0.34511780
   0.18793145  0.28333642  0.25642415
   0.06274705  0.86580820  0.16733977
   0.81276592  0.87466506  0.65471238
   0.68758403  0.62094958  0.43446693
   0.68724858  0.96144281  0.83260955
   0.31270524  0.37054974  0.43441639
   0.31206740  0.38032031  0.78789515
   0.81219986  0.71006204  0.69932852
   0.68742345  0.78694476  0.38945152
   0.93775183  0.45569490  0.47857492
   0.31263620  0.70568995  0.47853957
   0.56208283  0.88027152  0.78772541
   0.43798503  0.11686976  0.16718833
   0.93754976  0.12033016  0.43425619
   0.81298510  0.20331171  0.34522289
   0.18723919  0.62293816  0.52143939
   0.18709878  0.45514574  0.47847181
   0.81268501  0.70288454  0.34524469
   0.31214274  0.87983564  0.78771697
   0.81195959  0.70513093  0.47855156
   0.56246591  0.20781237  0.56580651
   0.81306067  0.87005238  0.43422241
   0.56260878  0.21118448  0.83270194
   0.93722585  0.11773495  0.30068630
   0.06189505  0.54567655  0.87493279
   0.81281815  0.37466332  0.65475127
   0.18740780  0.62936726  0.78764254
   0.56259934  0.03658856  0.38934322
   0.81178054  0.20959083  0.69932067
   0.18621431  0.78324157  0.12515871
   0.68780474  0.45593151  0.47866030
   0.68743025  0.45725976  0.56559822
   0.06258093  0.37984052  0.78768309
   0.06271418  0.04484630  0.74350807
   0.18730709  0.79681369  0.87457626
   0.18716139  0.12968264  0.78776762
   0.81212255  0.04135423  0.61053561
   0.81215147  0.69869140  0.21254682
   0.06243124  0.36741979  0.30063391
   0.31271194  0.70740204  0.56554118
   0.43726404  0.95520906  0.47847526
   0.43738041  0.28114261  0.12505876
   0.43757271  0.79447900  0.74351311
   0.43731408  0.62224387  0.52147044
   0.18753319  0.29658470  0.87475631
   0.56156630  0.54632574  0.87474985
   0.56155251  0.20588722  0.47858505
   0.81203485  0.04568119  0.87471344
   0.81304326  0.20762398  0.56573815
   0.31247117  0.71006074  0.69936450
   0.43736838  0.79089582  0.61051639
   0.43767725  0.12441790  0.65475124
   0.93768921  0.78683811  0.38935898
   0.43774195  0.45758377  0.56574831
   0.31222345  0.54106188  0.61061274
   0.81327540  0.36665277  0.16726049
   0.56293051  0.37461388  0.65486976
   0.68784453  0.46109582  0.83252845
   0.18755134  0.28671165  0.38946718
   0.93749519  0.95732383  0.56571402
   0.56196232  0.03177925  0.12534111
   0.81285369  0.54513636  0.74358024
   0.68709974  0.95939338  0.69923858
   0.56224805  0.70959707  0.69933817
   0.06223625  0.69826428  0.21242093
   0.18727951  0.12051249  0.43443021
   0.31272146  0.87049948  0.43451611
   0.31271331  0.70324955  0.34536262
   0.68781860  0.28320737  0.25646714
   0.18796535  0.12479839  0.65471051
   0.81220012  0.03675577  0.38931279
   0.43764827  0.61810093  0.30069911
   0.93772578  0.79461330  0.74350196
   0.43707927  0.79654771  0.87466744
   0.43773064  0.62442447  0.65473094
   0.06272431  0.87498922  0.65462154
   0.68779233  0.62173322  0.52140836
   0.43727577  0.45351395  0.34528140
   0.56208136  0.36707622  0.30067730
   0.56251070  0.53697105  0.38941476
   0.68714258  0.45980738  0.69942399
   0.93654801  0.44765125  0.21218255
   0.06256836  0.53327475  0.25652356
   0.43775516  0.29420922  0.74343464
   0.81367761  0.87233756  0.52141276
   0.56300330  0.20314803  0.34515263
   0.31298820  0.54621660  0.87473464
   0.81265627  0.37092431  0.43434976
   0.68703120  0.13021133  0.78769875
   0.06259524  0.70342323  0.34531489
   0.68671243  0.29664783  0.87465778
   0.93788402  0.45761800  0.56561448
   0.43760526  0.28297127  0.25634581
   0.68771121  0.95289604  0.34522972
   0.93722977  0.79159105  0.61055466
   0.81163474  0.38052880  0.78771983
   0.56231888  0.86794354  0.30070756
   0.43731675  0.94793955  0.21217842
   0.43784982  0.78297340  0.25639436
   0.93694052  0.28692047  0.38932859
   0.81274538  0.21101361  0.83268027
   0.93784105  0.96171725  0.83251040
   0.93801451  0.78269766  0.25650060
   0.31223549  0.69885640  0.21255337
   0.06264743  0.87234433  0.52140169
   0.31181409  0.52955848  0.12534540
   0.18723714  0.61758244  0.30062058
   0.43731320  0.44670651  0.21249874
   0.43756865  0.62076099  0.43449768
   0.56244495  0.54111342  0.61064056
   0.93672369  0.94781992  0.21227945
   0.93751029  0.12236075  0.52139044
   0.18766342  0.46061940  0.83263489
   0.06204491  0.70994678  0.69930552
   0.31281236  0.03306590  0.25647912
   0.06224011  0.87952111  0.78777522
   0.56287664  0.53337218  0.25645576
   0.43717151  0.78673264  0.38936010
   0.43855474  0.12236547  0.52137521
   0.93739606  0.95599539  0.47852569
   0.56211465  0.87012588  0.43425492
   0.68790709  0.12435715  0.65473394
   0.93792587  0.95299384  0.34519070
   0.81276365  0.54603671  0.87486609
   0.56217664  0.20951762  0.69941591
   0.31216397  0.36740602  0.30065307
   0.81280757  0.86679761  0.16752555
   0.43742883  0.45545825  0.47849709
   0.68735721  0.11788516  0.30059264
   0.43731226  0.29662243  0.87477265
   0.68768755  0.29473655  0.74349696
   0.43776964  0.96174722  0.83251793
   0.31293887  0.21088274  0.83268974
   0.06286997  0.03304864  0.25635284
   0.31261443  0.04113874  0.61056026
   0.93676733  0.63016792  0.78762257
   0.06250913  0.03125682  0.12540901
   0.18648033  0.12285901  0.52133232
   0.93784685  0.62467725  0.65477421
   0.81234434  0.36750582  0.30057023
   0.81250228  0.54144064  0.61057351
   0.06275934  0.37222010  0.52145704
   0.56203130  0.04627651  0.87476771
   0.81274638  0.70696791  0.56563411
   0.81254711  0.86796457  0.30068564
   0.56295725  0.70298148  0.34518488
   0.31302091  0.54475607  0.74359157
   0.81194564  0.37299187  0.52145228
   0.68752854  0.12027871  0.43468272
   0.43826004  0.12034089  0.43427581
   0.31175070  0.19799268  0.21245248
   0.56270810  0.04477062  0.74349720
   0.18796425  0.79447793  0.74345524
   0.06230126  0.20764884  0.56560702
   0.68758268  0.79459142  0.74346620
   0.56269316  0.70713681  0.56575752
   0.68724752  0.94817121  0.21237365
   0.06277542  0.37058801  0.43442048
   0.06251795  0.03703572  0.38941704
   0.81256501  0.04494504  0.74351109
   0.56262490  0.71147501  0.83262443
   0.06235128  0.71111762  0.83252690
   0.93735936  0.79555159  0.87461280
   0.18760128  0.78261501  0.25646784
   0.56240384  0.37081113  0.43432939
   0.68710639  0.61801279  0.30063757
   0.06223616  0.20552475  0.47851991
   0.06235571  0.70738805  0.56564745
   0.68787669  0.62469765  0.65468387
   0.68797352  0.78301031  0.25644558
   0.56136914  0.87223056  0.52135347
   0.31210426  0.03237334  0.12533760
   0.43764419  0.95762449  0.56591608
   0.93713105  0.46044686  0.69914937
   0.56291885  0.36591470  0.16747913
   0.31229620  0.87237594  0.52146371
   0.31263426  0.87457982  0.65475534
   0.18736745  0.46046820  0.69940610
   0.93603944  0.28155364  0.12520322
   0.31288107  0.37462175  0.65462436
   0.06274237  0.37494109  0.65476831
   0.06191158  0.19797727  0.21242651
   0.93749103  0.12479602  0.65468717
   0.68765128  0.28096169  0.12504289
   0.18758808  0.95718951  0.56564023
   0.68768540  0.28718287  0.38923925
   0.43766590  0.46142262  0.83265338
   0.06252702  0.87069019  0.43439958
   0.31246861  0.03718901  0.38946764
   0.56264508  0.37210880  0.52151197
   0.31275556  0.53351466  0.25647275
   0.43720641  0.12992584  0.78779186
   0.93785616  0.28306174  0.25645528
   0.43725534  0.95956672  0.69925611
   0.93827641  0.61605918  0.16722370
   0.31250920  0.04590998  0.87479138
   0.43718524  0.11724900  0.30060830
   0.68689482  0.44739932  0.21216629
   0.18749045  0.62075279  0.43441004
   0.31215535  0.86789086  0.30076110
   0.56275371  0.03298743  0.25642460
   0.18746767  0.11631374  0.16742827
   0.18798254  0.45323482  0.34526863
   0.31202682  0.36645500  0.16731945
   0.68695601  0.63020420  0.78761817
   0.81165780  0.52961270  0.12531387
   0.18718556  0.11737796  0.30062099
   0.18768952  0.62482620  0.65471568
   0.56220272  0.38054940  0.78784932
   0.93788416  0.62067283  0.43444727
   0.56306331  0.70573813  0.47855855
   0.56296091  0.54497889  0.74354981
   0.93746139  0.29642719  0.87485245
   0.31271669  0.37316587  0.52141429
   0.81318405  0.71127547  0.83260857
   0.43764792  0.95331389  0.34520071
   0.68788567  0.78154619  0.12523314
   0.18736357  0.45769064  0.56576878
   0.93731825  0.96007043  0.69935350
   0.43718964  0.62970815  0.78776949
   0.93756064  0.29516354  0.74353222
   0.81272711  0.53307189  0.25655384
   0.43736439  0.46014642  0.69939721
   0.06278930  0.21098254  0.83280979
   0.81247322  0.53689228  0.38947866
   0.81234597  0.19799901  0.21230205
   0.68792518  0.11700053  0.16728129
   0.18796661  0.61653836  0.16706453
   0.56220532  0.19810474  0.21226420
   0.93773275  0.62195360  0.52147455
   0.18746813  0.79126013  0.61050898
   0.06239888  0.54159920  0.61055719
   0.68785429  0.45340634  0.34542814
   0.06257325  0.21032676  0.69950392
   0.68734302  0.12349184  0.52147321
   0.06228987  0.53120722  0.12533211
   0.06255281  0.54441383  0.74350396
   0.68738878  0.95469401  0.47848378
   0.56206608  0.69835067  0.21265453
   0.31271439  0.20744462  0.56527919
   0.93784268  0.46114123  0.83314171
   0.31300189  0.04439274  0.74349874
   0.18724844  0.44729588  0.21243934
   0.43742633  0.78106913  0.12552098
   0.31261050  0.20542725  0.47865801
   0.31278076  0.20317142  0.34530418
   0.93688322  0.13014763  0.78740367
Direct configuration=     2
   0.18726153  0.96007594  0.69916933
   0.31219528  0.53689385  0.38930066
   0.06302262  0.36733502  0.16723914
   0.56307311  0.87429912  0.65469190
   0.31236641  0.20980703  0.69935497
   0.18725977  0.29130830  0.61057917
   0.81340466  0.20535080  0.47853939
   0.93764947  0.29137053  0.61059079
   0.81199707  0.88000474  0.78773376
   0.81273599  0.03333161  0.25642437
   0.06261475  0.04562825  0.87471857
   0.93680266  0.61790725  0.30069846
   0.68688684  0.61712797  0.16727779
   0.93765593  0.11643159  0.16744813
   0.18686469  0.94849369  0.21245135
   0.18828531  0.96098504  0.83261074
   0.06266220  0.53701792  0.38940969
   0.06254540  0.04154187  0.61055866
   0.56277522  0.86597644  0.16729471
   0.18799000  0.28201532  0.12515545
   0.43834108  0.61745898  0.16725211
   0.18739257  0.78676927  0.38938475
   0.06212103  0.86749169  0.30077214
   0.81188634  0.03148453  0.12532578
   0.56334036  0.53140143  0.12527211
   0.93769281  0.78250825  0.12527201
   0.93797755  0.45333854  0.34535134
   0.68760544  0.95710115  0.56535086
   0.68752684  0.79089224  0.61068875
   0.06257348  0.20281384  0.34520913
   0.68747804  0.29105463  0.61055503
   0.31324135  0.86623482  0.16740432
   0.06230029  0.70559905  0.47852298
   0.18753608  0.29431172  0.74359885
   0.43768046  0.28677532  0.38942918
   0.56225610  0.04122252  0.61055415
   0.43737687  0.29132817  0.61069985
   0.31307590  0.71143244  0.83271059
   0.18779174  0.95479423  0.47848117
   0.68746783  0.79669510  0.87454476
   0.18783851  0.95322754  0.34514502
   0.18789179  0.28337009  0.25642254
   0.06272516  0.86574385  0.16736518
   0.81274866  0.87473783  0.65469228
   0.68758238  0.62097192  0.43446096
   0.68721133  0.96151973  0.83258296
   0.31268436  0.37065560  0.43442202
   0.31209502  0.38017234  0.78788687
   0.81219580  0.71008930  0.69930628
   0.68744017  0.78694153  0.38946542
   0.93781946  0.45550636  0.47853333
   0.31262247  0.70547435  0.47850112
   0.56210635  0.88009291  0.78772054
   0.43791721  0.11666714  0.16722681
   0.93756802  0.12041216  0.43425721
   0.81295593  0.20325292  0.34524181
   0.18731982  0.62284282  0.52146621
   0.18709663  0.45518286  0.47844928
   0.81269590  0.70281100  0.34525957
   0.31216911  0.87968880  0.78771519
   0.81223501  0.70505151  0.47852380
   0.56250616  0.20773132  0.56581503
   0.81304684  0.87011562  0.43423089
   0.56263568  0.21127682  0.83267004
   0.93727276  0.11772380  0.30070619
   0.06187028  0.54565209  0.87492533
   0.81277809  0.37471571  0.65472234
   0.18741450  0.62930203  0.78765658
   0.56261896  0.03658440  0.38935877
   0.81180865  0.20965015  0.69929605
   0.18627620  0.78312319  0.12516773
   0.68760375  0.45555012  0.47859100
   0.68742338  0.45721070  0.56560787
   0.06259902  0.37968051  0.78768982
   0.06265522  0.04478320  0.74350494
   0.18733847  0.79669496  0.87460644
   0.18721803  0.12962033  0.78776632
   0.81213443  0.04131818  0.61051095
   0.81217607  0.69873628  0.21253150
   0.06244275  0.36747345  0.30066783
   0.31268947  0.70736059  0.56553464
   0.43721562  0.95520701  0.47845658
   0.43743312  0.28116051  0.12505944
   0.43760730  0.79452812  0.74351209
   0.43735275  0.62241335  0.52149503
   0.18751318  0.29651669  0.87477695
   0.56161845  0.54626666  0.87475512
   0.56193643  0.20596605  0.47851455
   0.81207105  0.04568825  0.87471963
   0.81302373  0.20757801  0.56573470
   0.31250972  0.71007626  0.69934408
   0.43741118  0.79091248  0.61049807
   0.43765333  0.12450639  0.65472659
   0.93770412  0.78683988  0.38937349
   0.43773839  0.45751387  0.56573675
   0.31225264  0.54102264  0.61059101
   0.81324017  0.36658747  0.16728677
   0.56289853  0.37470088  0.65485074
   0.68782925  0.46118232  0.83251960
   0.18756492  0.28671677  0.38948167
   0.93752615  0.95726656  0.56570137
   0.56200186  0.03194468  0.12530423
   0.81279460  0.54505354  0.74356861
   0.68711142  0.95938352  0.69921516
   0.56226704  0.70963314  0.69931487
   0.06224433  0.69829271  0.21239971
   0.18727851  0.12054554  0.43442609
   0.31271008  0.87054678  0.43451706
   0.31270844  0.70321189  0.34538332
   0.68778602  0.28320199  0.25645834
   0.18791611  0.12486329  0.65469129
   0.81221263  0.03674890  0.38933681
   0.43767806  0.61807063  0.30073488
   0.93769213  0.79462631  0.74349820
   0.43711125  0.79639427  0.87468328
   0.43772866  0.62450685  0.65471653
   0.06269058  0.87505342  0.65459833
   0.68767554  0.62221962  0.52145728
   0.43730662  0.45338015  0.34529606
   0.56211421  0.36713984  0.30071418
   0.56251713  0.53697528  0.38943442
   0.68718555  0.45980848  0.69938554
   0.93660566  0.44779438  0.21218458
   0.06260142  0.53324157  0.25651233
   0.43772059  0.29423243  0.74344374
   0.81343317  0.87236937  0.52145367
   0.56296013  0.20309928  0.34517175
   0.31298293  0.54619638  0.87473621
   0.81264071  0.37095813  0.43436330
   0.68703730  0.13014426  0.78770653
   0.06253260  0.70335744  0.34533404
   0.68675407  0.29659196  0.87467712
   0.93786768  0.45754100  0.56559898
   0.43756155  0.28299698  0.25634692
   0.68767876  0.95285611  0.34525995
   0.93723898  0.79158285  0.61053643
   0.81167290  0.38033800  0.78772715
   0.56234012  0.86794718  0.30073455
   0.43736583  0.94805262  0.21218322
   0.43783087  0.78303395  0.25640297
   0.93696936  0.28692569  0.38935177
   0.81276062  0.21122412  0.83265771
   0.93779361  0.96180527  0.83250545
   0.93794963  0.78280936  0.25650342
   0.31226011  0.69885107  0.21252978
   0.06248706  0.87252106  0.52143493
   0.31178724  0.52980355  0.12530983
   0.18724445  0.61758787  0.30065294
   0.43733276  0.44691013  0.21248986
   0.43752533  0.62081754  0.43451289
   0.56245870  0.54107627  0.61062467
   0.93673769  0.94796871  0.21228961
   0.93759944  0.12233312  0.52143876
   0.18759845  0.46073575  0.83262433
   0.06208625  0.71001303  0.69928034
   0.31276897  0.03307307  0.25647899
   0.06230167  0.87936538  0.78777612
   0.56284378  0.53335758  0.25644849
   0.43718601  0.78674048  0.38937128
   0.43822858  0.12213234  0.52142316
   0.93756535  0.95583889  0.47849416
   0.56213661  0.87020635  0.43425680
   0.68786011  0.12446367  0.65470709
   0.93794563  0.95293490  0.34521712
   0.81280846  0.54599519  0.87486070
   0.56221735  0.20957731  0.69939172
   0.31220916  0.36742910  0.30068124
   0.81275252  0.86668197  0.16754779
   0.43757825  0.45536369  0.47846593
   0.68736494  0.11786076  0.30061796
   0.43734847  0.29653424  0.87478894
   0.68766786  0.29472092  0.74349964
   0.43774124  0.96175380  0.83249169
   0.31288063  0.21097595  0.83266001
   0.06281454  0.03305007  0.25635552
   0.31262127  0.04114243  0.61054118
   0.93684390  0.63008398  0.78763382
   0.06250945  0.03144508  0.12537667
   0.18671633  0.12266644  0.52137696
   0.93780376  0.62473727  0.65475114
   0.81234340  0.36756926  0.30061337
   0.81250284  0.54138975  0.61056190
   0.06273997  0.37233005  0.52148359
   0.56207722  0.04622973  0.87477105
   0.81271815  0.70692611  0.56562047
   0.81257319  0.86799375  0.30070745
   0.56293791  0.70292453  0.34520186
   0.31300947  0.54465166  0.74358165
   0.81222830  0.37294919  0.52148303
   0.68751691  0.12038232  0.43471221
   0.43821069  0.12039930  0.43427307
   0.31180663  0.19806328  0.21244124
   0.56270135  0.04471005  0.74348957
   0.18789636  0.79449326  0.74345485
   0.06226466  0.20757136  0.56560639
   0.68757156  0.79461189  0.74346673
   0.56273908  0.70706941  0.56573647
   0.68731980  0.94829940  0.21238582
   0.06272743  0.37064752  0.43443682
   0.06251911  0.03700599  0.38942692
   0.81253160  0.04491048  0.74350697
   0.56259572  0.71158365  0.83259333
   0.06232445  0.71119457  0.83250576
   0.93734982  0.79543378  0.87463284
   0.18757816  0.78270374  0.25647912
   0.56245936  0.37088403  0.43435937
   0.68714656  0.61796732  0.30066345
   0.06209506  0.20561837  0.47846924
   0.06232901  0.70733477  0.56563957
   0.68783641  0.62474493  0.65466665
   0.68793110  0.78304664  0.25644270
   0.56160841  0.87236268  0.52140126
   0.31211579  0.03248588  0.12531085
   0.43763412  0.95756355  0.56589569
   0.93714256  0.46041204  0.69912859
   0.56283182  0.36587040  0.16749053
   0.31248490  0.87261876  0.52150355
   0.31261753  0.87465276  0.65474196
   0.18740211  0.46041370  0.69938091
   0.93606699  0.28150144  0.12518849
   0.31286631  0.37468556  0.65460416
   0.06270351  0.37498819  0.65474394
   0.06192007  0.19802763  0.21242393
   0.93749569  0.12487309  0.65467091
   0.68760367  0.28098054  0.12504325
   0.18756773  0.95717739  0.56563591
   0.68767384  0.28717844  0.38926011
   0.43765286  0.46149571  0.83262373
   0.06251690  0.87075317  0.43441181
   0.31247919  0.03715913  0.38947751
   0.56246574  0.37239446  0.52152552
   0.31272058  0.53348440  0.25646312
   0.43721610  0.12985458  0.78778773
   0.93783688  0.28306455  0.25645159
   0.43726980  0.95954710  0.69924387
   0.93829254  0.61597149  0.16725934
   0.31251429  0.04589249  0.87479560
   0.43718083  0.11727667  0.30064108
   0.68697564  0.44763616  0.21219332
   0.18750546  0.62079334  0.43442292
   0.31215255  0.86789922  0.30078499
   0.56275001  0.03300396  0.25642733
   0.18743536  0.11614113  0.16746557
   0.18791773  0.45313647  0.34527864
   0.31201073  0.36639372  0.16732699
   0.68697229  0.63010586  0.78763688
   0.81167507  0.52984732  0.12527452
   0.18721891  0.11737856  0.30065210
   0.18766852  0.62488481  0.65470102
   0.56225342  0.38038646  0.78783537
   0.93788557  0.62075403  0.43446707
   0.56293605  0.70538812  0.47853700
   0.56294568  0.54489651  0.74354594
   0.93747561  0.29635008  0.87486597
   0.31263974  0.37324512  0.52144062
   0.81313661  0.71135898  0.83258885
   0.43759836  0.95326085  0.34522655
   0.68789271  0.78146802  0.12522930
   0.18736767  0.45762455  0.56574745
   0.93731491  0.96005554  0.69932595
   0.43721659  0.62962527  0.78777097
   0.93751293  0.29514870  0.74352645
   0.81266693  0.53307789  0.25654038
   0.43735573  0.46014328  0.69937136
   0.06270901  0.21120353  0.83279464
   0.81248686  0.53690407  0.38949495
   0.81239844  0.19806430  0.21229660
   0.68791726  0.11683987  0.16733395
   0.18789275  0.61639531  0.16709169
   0.56222953  0.19815596  0.21225813
   0.93773548  0.62225124  0.52149927
   0.18747947  0.79127099  0.61049385
   0.06241513  0.54156020  0.61053811
   0.68782671  0.45331156  0.34544264
   0.06259116  0.21035235  0.69947685
   0.68737453  0.12314696  0.52147157
   0.06236990  0.53130508  0.12532190
   0.06250499  0.54437350  0.74349712
   0.68737843  0.95490884  0.47849316
   0.56208064  0.69841582  0.21263238
   0.31270063  0.20738727  0.56526372
   0.93781953  0.46119951  0.83314511
   0.31296048  0.04440504  0.74350003
   0.18725727  0.44747155  0.21244801
   0.43745547  0.78115539  0.12552113
   0.31266861  0.20545416  0.47864701
   0.31276288  0.20306538  0.34532550
   0.93693651  0.13010976  0.78742395
Direct configuration=     3
   0.18735998  0.96001589  0.69913995
   0.31225000  0.53691167  0.38934282
   0.06300967  0.36730711  0.16726824
   0.56299101  0.87445925  0.65466229
   0.31244746  0.20993049  0.69931568
   0.18732631  0.29124544  0.61053956
   0.81297086  0.20557763  0.47847867
   0.93767949  0.29134250  0.61057191
   0.81200893  0.87974983  0.78773154
   0.81271183  0.03332812  0.25642331
   0.06258207  0.04568452  0.87473339
   0.93686101  0.61786914  0.30075797
   0.68686500  0.61696281  0.16733614
   0.93765707  0.11619871  0.16750094
   0.18691753  0.94867850  0.21244635
   0.18826947  0.96113268  0.83257109
   0.06264447  0.53698322  0.38945411
   0.06256253  0.04149212  0.61052648
   0.56256390  0.86582437  0.16733139
   0.18804669  0.28193887  0.12514106
   0.43820462  0.61738046  0.16729957
   0.18741019  0.78680659  0.38941345
   0.06217244  0.86751861  0.30078885
   0.81199420  0.03168357  0.12527763
   0.56335210  0.53167753  0.12522317
   0.93764380  0.78253228  0.12525477
   0.93792168  0.45320875  0.34535718
   0.68757353  0.95696736  0.56530555
   0.68752772  0.79090575  0.61066304
   0.06254488  0.20269931  0.34524744
   0.68747284  0.29102848  0.61054334
   0.31337255  0.86600975  0.16742792
   0.06211276  0.70528858  0.47846103
   0.18756911  0.29433643  0.74358374
   0.43769398  0.28679293  0.38945835
   0.56231858  0.04122164  0.61052697
   0.43736233  0.29126599  0.61068166
   0.31304613  0.71161471  0.83267615
   0.18765777  0.95483488  0.47843616
   0.68749002  0.79653656  0.87458854
   0.18778785  0.95314338  0.34518725
   0.18783026  0.28342234  0.25642005
   0.06269118  0.86564400  0.16740461
   0.81272186  0.87485076  0.65466110
   0.68757981  0.62100658  0.43445170
   0.68715354  0.96163910  0.83254169
   0.31265195  0.37081986  0.43443076
   0.31213788  0.37994274  0.78787402
   0.81218951  0.71013160  0.69927176
   0.68746611  0.78693650  0.38948698
   0.93792439  0.45521381  0.47846879
   0.31260118  0.70513979  0.47844145
   0.56214283  0.87981576  0.78771298
   0.43781197  0.11635271  0.16728653
   0.93759637  0.12053939  0.43425880
   0.81291067  0.20316169  0.34527116
   0.18744494  0.62269487  0.52150782
   0.18709328  0.45524046  0.47841432
   0.81271281  0.70269688  0.34528266
   0.31221002  0.87946093  0.78771243
   0.81266240  0.70492827  0.47848072
   0.56256863  0.20760555  0.56582826
   0.81302538  0.87021375  0.43424405
   0.56267743  0.21142012  0.83262053
   0.93734556  0.11770650  0.30073704
   0.06183185  0.54561412  0.87491376
   0.81271593  0.37479701  0.65467746
   0.18742489  0.62920079  0.78767837
   0.56264940  0.03657795  0.38938290
   0.81185227  0.20974221  0.69925784
   0.18637223  0.78293950  0.12518174
   0.68729187  0.45495829  0.47848344
   0.68741273  0.45713458  0.56562285
   0.06262709  0.37943221  0.78770025
   0.06256372  0.04468529  0.74350009
   0.18738715  0.79651072  0.87465327
   0.18730592  0.12952363  0.78776430
   0.81215286  0.04126224  0.61047267
   0.81221425  0.69880591  0.21250771
   0.06246060  0.36755672  0.30072046
   0.31265462  0.70729626  0.56552450
   0.43714049  0.95520383  0.47842759
   0.43751490  0.28118829  0.12506050
   0.43766097  0.79460435  0.74351052
   0.43741277  0.62267635  0.52153319
   0.18748212  0.29641114  0.87480898
   0.56169939  0.54617498  0.87476329
   0.56253217  0.20608838  0.47840516
   0.81212722  0.04569920  0.87472923
   0.81299341  0.20750667  0.56572935
   0.31256954  0.71010035  0.69931239
   0.43747760  0.79093833  0.61046965
   0.43761622  0.12464371  0.65468835
   0.93772726  0.78684263  0.38939601
   0.43773286  0.45740541  0.56571881
   0.31229794  0.54096176  0.61055730
   0.81318549  0.36648614  0.16732754
   0.56284889  0.37483588  0.65482124
   0.68780554  0.46131655  0.83250587
   0.18758599  0.28672471  0.38950415
   0.93757419  0.95717768  0.56568176
   0.56206322  0.03220139  0.12524699
   0.81270292  0.54492504  0.74355057
   0.68712954  0.95936824  0.69917882
   0.56229651  0.70968911  0.69927871
   0.06225687  0.69833682  0.21236679
   0.18727695  0.12059684  0.43441969
   0.31269243  0.87062017  0.43451852
   0.31270088  0.70315344  0.34541544
   0.68773547  0.28319365  0.25644467
   0.18783970  0.12496399  0.65466146
   0.81223206  0.03673823  0.38937409
   0.43772429  0.61802361  0.30079038
   0.93763991  0.79464650  0.74349235
   0.43716088  0.79615616  0.87470786
   0.43772559  0.62463469  0.65469417
   0.06263825  0.87515303  0.65456230
   0.68749430  0.62297439  0.52153318
   0.43735450  0.45317253  0.34531881
   0.56216517  0.36723858  0.30077140
   0.56252709  0.53698186  0.38946493
   0.68725224  0.45981020  0.69932587
   0.93669513  0.44801648  0.21218773
   0.06265273  0.53319007  0.25649489
   0.43766695  0.29426846  0.74345786
   0.81305385  0.87241873  0.52151714
   0.56289315  0.20302363  0.34520140
   0.31297476  0.54616500  0.87473865
   0.81261657  0.37101061  0.43438430
   0.68704677  0.13004018  0.78771859
   0.06243539  0.70325536  0.34536375
   0.68681869  0.29650528  0.87470714
   0.93784233  0.45742151  0.56557492
   0.43749373  0.28303689  0.25634864
   0.68762839  0.95279416  0.34530687
   0.93725328  0.79157011  0.61050813
   0.81173211  0.38004192  0.78773849
   0.56237307  0.86795283  0.30077642
   0.43744199  0.94822806  0.21219065
   0.43780147  0.78312792  0.25641633
   0.93701411  0.28693380  0.38938774
   0.81278426  0.21155078  0.83262271
   0.93771999  0.96194185  0.83249777
   0.93784894  0.78298268  0.25650780
   0.31229830  0.69884280  0.21249316
   0.06223819  0.87279530  0.52148651
   0.31174558  0.53018384  0.12525465
   0.18725578  0.61759629  0.30070316
   0.43736311  0.44722610  0.21247609
   0.43745812  0.62090529  0.43453649
   0.56248003  0.54101861  0.61060002
   0.93675940  0.94819960  0.21230538
   0.93773778  0.12229024  0.52151374
   0.18749762  0.46091631  0.83260796
   0.06215038  0.71011584  0.69924127
   0.31270164  0.03308421  0.25647879
   0.06239721  0.87912373  0.78777752
   0.56279279  0.53333492  0.25643720
   0.43720851  0.78675263  0.38938863
   0.43772247  0.12177057  0.52149757
   0.93782804  0.95559603  0.47844524
   0.56217070  0.87033122  0.43425972
   0.68778722  0.12462896  0.65466542
   0.93797629  0.95284344  0.34525811
   0.81287800  0.54593075  0.87485235
   0.56228052  0.20966995  0.69935418
   0.31227929  0.36746492  0.30072496
   0.81266710  0.86650251  0.16758230
   0.43781012  0.45521697  0.47841758
   0.68737692  0.11782290  0.30065727
   0.43740466  0.29639740  0.87481422
   0.68763730  0.29469665  0.74350380
   0.43769717  0.96176401  0.83245098
   0.31279026  0.21112059  0.83261389
   0.06272852  0.03305229  0.25635969
   0.31263189  0.04114816  0.61051158
   0.93696272  0.62995373  0.78765128
   0.06250996  0.03173721  0.12532650
   0.18708255  0.12236763  0.52144624
   0.93773690  0.62483042  0.65471535
   0.81234194  0.36766769  0.30068030
   0.81250372  0.54131077  0.61054390
   0.06270993  0.37250067  0.52152478
   0.56214847  0.04615714  0.87477623
   0.81267434  0.70686125  0.56559929
   0.81261366  0.86803903  0.30074129
   0.56290789  0.70283617  0.34522821
   0.31299172  0.54448965  0.74356626
   0.81266691  0.37288295  0.52153074
   0.68749887  0.12054310  0.43475797
   0.43813411  0.12048994  0.43426882
   0.31189342  0.19817284  0.21242379
   0.56269086  0.04461606  0.74347772
   0.18779102  0.79451706  0.74345424
   0.06220787  0.20745115  0.56560541
   0.68755430  0.79464365  0.74346755
   0.56281034  0.70696482  0.56570380
   0.68743197  0.94849832  0.21240471
   0.06265295  0.37073988  0.43446217
   0.06252090  0.03695987  0.38944224
   0.81247976  0.04485685  0.74350057
   0.56255042  0.71175223  0.83254509
   0.06228280  0.71131399  0.83247297
   0.93733501  0.79525097  0.87466392
   0.18754229  0.78284142  0.25649662
   0.56254553  0.37099716  0.43440590