       N       E                     dE             d eps       ncg     rms          rms(c)
DAV:   1     0.290750176931E+05    0.29075E+05   -0.86151E+05 27930   0.196E+03
DAV:   2     0.118740023095E+04   -0.27888E+05   -0.27268E+05 27720   0.601E+02
DAV:   3    -0.194977958699E+04   -0.31372E+04   -0.27188E+04 38976   0.279E+02
DAV:   4    -0.261957316370E+04   -0.66979E+03   -0.60960E+03 50960   0.974E+01
DAV:   5    -0.273902613094E+04   -0.11945E+03   -0.11182E+03 48314   0.397E+01    0.204E+02
RMM:   6    -0.563469934979E+04   -0.28957E+04   -0.10664E+04 47906   0.234E+02    0.603E+02
RMM:   7    -0.349706336969E+04    0.21376E+04   -0.36791E+03 31105   0.115E+02    0.362E+02
RMM:   8    -0.112057414775E+05   -0.77087E+04   -0.17855E+04 44136   0.359E+02    0.110E+03
RMM:   9    -0.147311940396E+05   -0.35255E+04   -0.17013E+04 50031   0.178E+02    0.778E+02
RMM:  10    -0.801419838001E+04    0.67170E+04   -0.45303E+03 41162   0.132E+02    0.484E+02
RMM:  11    -0.787091088859E+04    0.14329E+03   -0.14667E+04 45765   0.276E+02    0.833E+02
RMM:  12    -0.847780496722E+04   -0.60689E+03   -0.12694E+04 49349   0.146E+02    0.825E+02
RMM:  13    -0.876869790319E+04   -0.29089E+03   -0.59393E+03 48139   0.140E+02    0.660E+02
RMM:  14    -0.803479004810E+04    0.73391E+03   -0.86457E+03 37072   0.233E+02    0.677E+02
RMM:  15    -0.714802602464E+04    0.88676E+03   -0.49799E+03 45795   0.129E+02    0.531E+02
RMM:  16    -0.563419330769E+04    0.15138E+04   -0.40344E+03 36611   0.111E+02    0.435E+02
RMM:  17    -0.521771444536E+04    0.41648E+03   -0.27999E+03 27921   0.114E+02    0.437E+02
RMM:  18    -0.282567891957E+04    0.23920E+04   -0.12124E+03 29718   0.682E+01    0.271E+02
RMM:  19    -0.265586072642E+04    0.16982E+03   -0.14573E+03 41418   0.342E+01    0.222E+02
RMM:  20    -0.241532955451E+04    0.24053E+03   -0.88467E+02 35393   0.389E+01    0.158E+02
RMM:  21    -0.249282790271E+04   -0.77498E+02   -0.11982E+03 46064   0.322E+01    0.145E+02
RMM:  22    -0.252848527602E+04   -0.35657E+02   -0.61992E+02 41994   0.261E+01    0.147E+02
RMM:  23    -0.250476694759E+04    0.23718E+02   -0.45562E+02 44378   0.160E+01    0.132E+02
RMM:  24    -0.246747998655E+04    0.37287E+02   -0.29492E+02 34684   0.204E+01    0.114E+02
RMM:  25    -0.244368576344E+04    0.23794E+02   -0.25949E+02 39569   0.163E+01    0.116E+02
RMM:  26    -0.241396947874E+04    0.29716E+02   -0.14849E+02 40392   0.104E+01    0.106E+02
RMM:  27    -0.239445292639E+04    0.19517E+02   -0.68644E+01 34515   0.912E+00    0.961E+01
RMM:  28    -0.236811944994E+04    0.26333E+02   -0.55330E+01 42536   0.584E+00    0.792E+01
RMM:  29    -0.233836916578E+04    0.29750E+02   -0.17321E+01 30791   0.616E+00    0.534E+01
RMM:  30    -0.233416863546E+04    0.42005E+01   -0.20450E+01 31801   0.663E+00    0.479E+01
RMM:  31    -0.233327830812E+04    0.89033E+00   -0.15722E+01 41658   0.319E+00    0.463E+01
RMM:  32    -0.233270510350E+04    0.57320E+00   -0.58275E+00 31307   0.364E+00    0.440E+01
RMM:  33    -0.233328479922E+04   -0.57970E+00   -0.54987E+00 33442   0.310E+00    0.416E+01
RMM:  34    -0.233273755143E+04    0.54725E+00   -0.32816E+00 39818   0.171E+00    0.406E+01
RMM:  35    -0.233368835538E+04   -0.95080E+00   -0.15206E+00 30469   0.197E+00    0.423E+01
RMM:  36    -0.233586659101E+04   -0.21782E+01   -0.29692E+00 32059   0.246E+00    0.452E+01
RMM:  37    -0.233334327711E+04    0.25233E+01   -0.19691E+00 32676   0.209E+00    0.412E+01
RMM:  38    -0.233175464506E+04    0.15886E+01   -0.16616E+00 28741   0.263E+00    0.390E+01
RMM:  39    -0.232946250626E+04    0.22921E+01   -0.31276E+00 30901   0.288E+00    0.364E+01
RMM:  40    -0.232830502584E+04    0.11575E+01   -0.45119E+00 29520   0.389E+00    0.386E+01
RMM:  41    -0.232763046674E+04    0.67456E+00   -0.46928E+00 40307   0.232E+00    0.368E+01
RMM:  42    -0.232673156495E+04    0.89890E+00   -0.21089E+00 41457   0.979E-01    0.337E+01
RMM:  43    -0.232626099962E+04    0.47057E+00   -0.77858E-01 31804   0.121E+00    0.313E+01
RMM:  44    -0.232651503552E+04   -0.25404E+00   -0.12814E+00 33423   0.156E+00    0.307E+01
RMM:  45    -0.232650234285E+04    0.12693E-01   -0.55065E-01 30753   0.124E+00    0.304E+01
RMM:  46    -0.232621221985E+04    0.29012E+00   -0.45534E-01 31886   0.103E+00    0.299E+01
RMM:  47    -0.232587681452E+04    0.33541E+00   -0.48757E-01 35406   0.905E-01    0.296E+01
RMM:  48    -0.232611468602E+04   -0.23787E+00   -0.34718E-01 29223   0.116E+00    0.319E+01
RMM:  49    -0.232572326747E+04    0.39142E+00   -0.33905E-01 35632   0.747E-01    0.298E+01
RMM:  50    -0.232575909260E+04   -0.35825E-01   -0.44259E-01 30831   0.108E+00    0.284E+01
RMM:  51    -0.240110643372E+04   -0.75347E+02   -0.33613E+01 30457   0.101E+01    0.106E+02
RMM:  52    -0.244629445871E+04   -0.45188E+02   -0.59004E+01 40904   0.710E+00    0.131E+02
RMM:  53    -0.245062646846E+04   -0.43320E+01   -0.36107E+01 44753   0.267E+00    0.136E+02
RMM:  54    -0.245485908992E+04   -0.42326E+01   -0.18933E+01 44318   0.127E+00    0.141E+02
RMM:  55    -0.245888916582E+04   -0.40301E+01   -0.18932E+01 37982   0.297E+00    0.144E+02
RMM:  56    -0.245703943078E+04    0.18497E+01   -0.80548E+01 30379   0.146E+01    0.146E+02
RMM:  57    -0.245106843991E+04    0.59710E+01   -0.78505E+01 32534   0.126E+01    0.141E+02
RMM:  58    -0.244486855871E+04    0.61999E+01   -0.59918E+01 32977   0.109E+01    0.139E+02
RMM:  59    -0.244632474370E+04   -0.14562E+01   -0.53687E+01 37822   0.762E+00    0.142E+02
RMM:  60    -0.245286097216E+04   -0.65362E+01   -0.52452E+01 44776   0.356E+00    0.148E+02
RMM:  61    -0.239161908215E+04    0.61242E+02   -0.21061E+01 30011   0.785E+00    0.128E+02
RMM:  62    -0.237459479707E+04    0.17024E+02   -0.35187E+01 30394   0.982E+00    0.113E+02
RMM:  63    -0.234960371296E+04    0.24991E+02   -0.22764E+01 29865   0.818E+00    0.818E+01
RMM:  64    -0.235653210651E+04   -0.69284E+01   -0.18064E+01 28308   0.838E+00    0.941E+01
RMM:  65    -0.236500484928E+04   -0.84727E+01   -0.11059E+01 28289   0.672E+00    0.102E+02
RMM:  66    -0.238751043812E+04   -0.22506E+02   -0.17427E+01 29307   0.760E+00    0.122E+02
RMM:  67    -0.239609606127E+04   -0.85856E+01   -0.85277E+00 29283   0.584E+00    0.128E+02
RMM:  68    -0.239825967788E+04   -0.21636E+01   -0.95511E+00 33954   0.380E+00    0.130E+02
RMM:  69    -0.240237571825E+04   -0.41160E+01   -0.54857E+00 33054   0.306E+00    0.133E+02
RMM:  70    -0.240256174745E+04   -0.18603E+00   -0.38008E+00 36377   0.207E+00    0.135E+02
RMM:  71    -0.249710481148E+04   -0.94543E+02   -0.56666E+01 32697   0.899E+00    0.172E+02
RMM:  72    -0.241706510011E+04    0.80040E+02   -0.15460E+01 27908   0.884E+00    0.143E+02
RMM:  73    -0.239743346273E+04    0.19632E+02   -0.59419E+00 29609   0.460E+00    0.133E+02
RMM:  74    -0.238801218805E+04    0.94213E+01   -0.49429E+00 34579   0.268E+00    0.128E+02
RMM:  75    -0.237164273586E+04    0.16369E+02   -0.49292E+00 31826   0.325E+00    0.115E+02
RMM:  76    -0.235324004763E+04    0.18403E+02   -0.28798E+01 31269   0.795E+00    0.855E+01
RMM:  77    -0.234373386478E+04    0.95062E+01   -0.10251E+01 28382   0.664E+00    0.727E+01
RMM:  78    -0.233652046921E+04    0.72134E+01   -0.11810E+01 34714   0.441E+00    0.582E+01
RMM:  79    -0.233374503931E+04    0.27754E+01   -0.53209E+00 32303   0.332E+00    0.512E+01
RMM:  80    -0.233253200216E+04    0.12130E+01   -0.47112E+00 39163   0.218E+00    0.474E+01
RMM:  81    -0.233609990026E+04   -0.35679E+01   -0.49067E+00 29765   0.403E+00    0.553E+01
RMM:  82    -0.233139768639E+04    0.47022E+01   -0.22549E+00 28180   0.363E+00    0.447E+01
RMM:  83    -0.233114245107E+04    0.25524E+00   -0.25155E+00 31805   0.234E+00    0.435E+01
RMM:  84    -0.233208733931E+04   -0.94489E+00   -0.21144E+00 29860   0.261E+00    0.457E+01
RMM:  85    -0.233044099035E+04    0.16463E+01   -0.22547E+00 29944   0.273E+00    0.402E+01
RMM:  86    -0.232970798741E+04    0.73300E+00   -0.59409E+00 30370   0.404E+00    0.358E+01
RMM:  87    -0.232612240100E+04    0.35856E+01   -0.23173E+00 27905   0.354E+00    0.249E+01
RMM:  88    -0.232553715021E+04    0.58525E+00   -0.29256E+00 37572   0.170E+00    0.216E+01
RMM:  89    -0.232535211655E+04    0.18503E+00   -0.22328E+00 40912   0.133E+00    0.194E+01
RMM:  90    -0.232507669462E+04    0.27542E+00   -0.87078E-01 32662   0.127E+00    0.174E+01
RMM:  91    -0.232586104033E+04   -0.78435E+00   -0.27483E+00 30202   0.284E+00    0.203E+01
RMM:  92    -0.232449681428E+04    0.13642E+01   -0.11020E+00 27849   0.255E+00    0.124E+01
RMM:  93    -0.232445348647E+04    0.43328E-01   -0.13962E+00 36949   0.126E+00    0.104E+01
RMM:  94    -0.232470604287E+04   -0.25256E+00   -0.88029E-01 38519   0.100E+00    0.113E+01
RMM:  95    -0.232475446924E+04   -0.48426E-01   -0.50564E-01 45756   0.265E-01    0.114E+01
RMM:  96    -0.232651099505E+04   -0.17565E+01   -0.26756E+00 28160   0.320E+00    0.220E+01
RMM:  97    -0.232479680874E+04    0.17142E+01   -0.10173E+00 27720   0.282E+00    0.130E+01
RMM:  98    -0.232461285736E+04    0.18395E+00   -0.30223E-01 28360   0.118E+00    0.116E+01
RMM:  99    -0.232448273653E+04    0.13012E+00   -0.24436E-01 28603   0.994E-01    0.988E+00
RMM: 100    -0.232453716944E+04   -0.54433E-01   -0.27701E-01 28222   0.116E+00
   1 F= -.23245372E+04 E0= -.23217729E+04  d E =-.232454E+04
       N       E                     dE             d eps       ncg     rms          rms(c)
DAV:   1    -0.232503130721E+04   -0.54857E+00   -0.56447E+01 30548   0.910E+00    0.137E+01
RMM:   2    -0.430756163038E+04   -0.19825E+04   -0.11615E+03 44328   0.591E+01    0.282E+02
RMM:   3    -0.256680325050E+04    0.17408E+04   -0.14599E+02 27726   0.281E+01    0.176E+02
RMM:   4    -0.253509944056E+04    0.31704E+02   -0.73197E+01 35541   0.134E+01    0.181E+02
RMM:   5    -0.235663698315E+04    0.17846E+03   -0.48750E+01 40106   0.617E+00    0.747E+01
RMM:   6    -0.236773955234E+04   -0.11103E+02   -0.14447E+01 27799   0.782E+00    0.907E+01
RMM:   7    -0.235413265021E+04    0.13607E+02   -0.33967E+01 34817   0.803E+00    0.756E+01
RMM:   8    -0.234135938670E+04    0.12773E+02   -0.28237E+01 36609   0.658E+00    0.545E+01
RMM:   9    -0.232948100152E+04    0.11878E+02   -0.83802E+00 28018   0.568E+00    0.319E+01
RMM:  10    -0.233087037250E+04   -0.13894E+01   -0.11667E+01 31483   0.508E+00    0.348E+01
RMM:  11    -0.232896968117E+04    0.19007E+01   -0.33672E+00 27796   0.387E+00    0.299E+01
RMM:  12    -0.232777633841E+04    0.11933E+01   -0.32454E+00 33930   0.213E+00    0.246E+01
RMM:  13    -0.232669748226E+04    0.10789E+01   -0.17434E+00 31127   0.203E+00    0.208E+01
RMM:  14    -0.232539216739E+04    0.13053E+01   -0.16087E+00 30707   0.213E+00    0.149E+01
RMM:  15    -0.232477831661E+04    0.61385E+00   -0.94618E-01 29048   0.190E+00    0.115E+01
RMM:  16    -0.232480419096E+04   -0.25874E-01   -0.11246E+00 40209   0.881E-01    0.111E+01
RMM:  17    -0.232473599712E+04    0.68194E-01   -0.36635E-01 42725   0.415E-01    0.102E+01
RMM:  18    -0.232470423909E+04    0.31758E-01   -0.11998E-01 38564   0.264E-01    0.990E+00
RMM:  19    -0.232472192563E+04   -0.17687E-01   -0.82766E-02 30289   0.495E-01    0.984E+00
RMM:  20    -0.232471593100E+04    0.59946E-02   -0.66080E-02 28341   0.572E-01    0.964E+00
RMM:  21    -0.232457016668E+04    0.14576E+00   -0.11878E-01 28662   0.680E-01    0.797E+00
RMM:  22    -0.232432999015E+04    0.24018E+00   -0.10550E-01 28181   0.663E-01    0.431E+00
RMM:  23    -0.232428317479E+04    0.46815E-01   -0.62912E-02 28942   0.497E-01    0.331E+00
RMM:  24    -0.232428783818E+04   -0.46634E-02   -0.85689E-02 36022   0.348E-01    0.334E+00
RMM:  25    -0.232428477777E+04    0.30604E-02   -0.29380E-02 31119   0.269E-01    0.325E+00
RMM:  26    -0.232428470844E+04    0.69336E-04   -0.38020E-02 36578   0.224E-01    0.318E+00
RMM:  27    -0.232431248885E+04   -0.27780E-01   -0.24343E-02 32786   0.215E-01    0.388E+00
RMM:  28    -0.232432843834E+04   -0.15949E-01   -0.22734E-02 37725   0.165E-01    0.421E+00
RMM:  29    -0.232433705526E+04   -0.86169E-02   -0.12178E-02 32035   0.164E-01    0.441E+00
RMM:  30    -0.232432375197E+04    0.13303E-01   -0.75260E-03 32234   0.125E-01    0.412E+00
RMM:  31    -0.232430246245E+04    0.21290E-01   -0.91432E-03 33586   0.130E-01    0.364E+00
RMM:  32    -0.232427430026E+04    0.28162E-01   -0.66428E-03 30561   0.134E-01    0.287E+00
RMM:  33    -0.232426650365E+04    0.77966E-02   -0.65570E-03 36040   0.942E-02    0.261E+00
RMM:  34    -0.232425263968E+04    0.13864E-01   -0.60437E-03 30446   0.131E-01    0.207E+00
RMM:  35    -0.232424178267E+04    0.10857E-01   -0.43607E-03 29420   0.123E-01    0.153E+00
RMM:  36    -0.232423889140E+04    0.28913E-02   -0.53684E-03 41741   0.665E-02    0.132E+00
RMM:  37    -0.232423526792E+04    0.36235E-02   -0.25485E-03 33299   0.669E-02    0.101E+00
RMM:  38    -0.232423398616E+04    0.12818E-02   -0.14429E-03 30298   0.674E-02    0.883E-01
RMM:  39    -0.232423439543E+04   -0.40927E-03   -0.16625E-03 36463   0.474E-02    0.904E-01
RMM:  40    -0.232423376672E+04    0.62871E-03   -0.72995E-04 32928   0.388E-02    0.821E-01
RMM:  41    -0.232423336536E+04    0.40136E-03   -0.34511E-04 31611   0.288E-02    0.769E-01
RMM:  42    -0.232423278664E+04    0.57872E-03   -0.41549E-04 42132   0.167E-02    0.685E-01
RMM:  43    -0.232423141539E+04    0.13713E-02   -0.33857E-04 34145   0.227E-02    0.446E-01
RMM:  44    -0.232423116600E+04    0.24939E-03   -0.29998E-04 36180   0.203E-02    0.385E-01
RMM:  45    -0.232423099190E+04    0.17410E-03   -0.28613E-04 40289   0.171E-02    0.324E-01
RMM:  46    -0.232423076181E+04    0.23009E-03   -0.15773E-04 35039   0.142E-02    0.229E-01
RMM:  47    -0.232423064801E+04    0.11381E-03   -0.35726E-04 39069   0.184E-02    0.120E-01
RMM:  48    -0.232423063656E+04    0.11445E-04   -0.10121E-04 34298   0.140E-02    0.940E-02
RMM:  49    -0.232423063009E+04    0.64656E-05   -0.52292E-05 31871   0.108E-02    0.751E-02
RMM:  50    -0.232423062734E+04    0.27524E-05   -0.64590E-05 37621   0.930E-03    0.551E-02
RMM:  51    -0.232423062518E+04    0.21629E-05   -0.24420E-05 30152   0.802E-03    0.286E-02
RMM:  52    -0.232423063105E+04   -0.58665E-05   -0.24590E-05 33243   0.527E-03    0.271E-02
RMM:  53    -0.232423063777E+04   -0.67287E-05   -0.97230E-06 25783   0.520E-03    0.192E-02
RMM:  54    -0.232423064160E+04   -0.38218E-05   -0.53510E-06 20932   0.402E-03    0.140E-02
RMM:  55    -0.232423064771E+04   -0.61130E-05   -0.35735E-06 19070   0.318E-03    0.147E-02
RMM:  56    -0.232423065485E+04   -0.71361E-05   -0.24648E-06 17033   0.330E-03    0.867E-03
RMM:  57    -0.232423065894E+04   -0.40993E-05   -0.21563E-06 17433   0.262E-03    0.140E-02
RMM:  58    -0.232423066466E+04   -0.57190E-05   -0.17419E-06 15840   0.261E-03    0.943E-03
RMM:  59    -0.232423066703E+04   -0.23631E-05   -0.11984E-06 15692   0.166E-03    0.828E-03
RMM:  60    -0.232423067148E+04   -0.44485E-05   -0.11429E-06 15671   0.174E-03    0.640E-03
RMM:  61    -0.232423067368E+04   -0.22094E-05   -0.93456E-07 15628   0.133E-03    0.590E-03
RMM:  62    -0.232423067582E+04   -0.21339E-05   -0.92524E-07 15543   0.147E-03    0.598E-03
RMM:  63    -0.232423067946E+04   -0.36384E-05   -0.87514E-07 15565   0.167E-03    0.353E-03
RMM:  64    -0.232423068125E+04   -0.17966E-05   -0.66235E-07 15221   0.831E-04    0.316E-03
RMM:  65    -0.232423068450E+04   -0.32436E-05   -0.66771E-07 15415   0.104E-03    0.260E-03
RMM:  66    -0.232423068747E+04   -0.29746E-05   -0.70030E-07 15428   0.892E-04    0.276E-03
RMM:  67    -0.232423068779E+04   -0.31345E-06   -0.51486E-07 15354   0.109E-03
   2 F= -.23242307E+04 E0= -.23214624E+04  d E =0.306482E+00
       N       E                     dE             d eps       ncg     rms          rms(c)
DAV:   1    -0.232431467624E+04   -0.83989E-01   -0.80848E+01 27720   0.941E+00    0.182E+00
RMM:   2    -0.233264085899E+04   -0.83262E+01   -0.25219E+00 28916   0.315E+00    0.394E+01
RMM:   3    -0.232934840020E+04    0.32925E+01   -0.12932E+00 34741   0.162E+00    0.287E+01
RMM:   4    -0.232764541952E+04    0.17030E+01   -0.39067E-01 27997   0.126E+00    0.242E+01
RMM:   5    -0.232660677879E+04    0.10386E+01   -0.47896E-01 33088   0.969E-01    0.198E+01
RMM:   6    -0.232463986600E+04    0.19669E+01   -0.32671E-01 27775   0.118E+00    0.608E+00
RMM:   7    -0.232568326192E+04   -0.10434E+01   -0.10929E+00 32970   0.143E+00    0.155E+01
RMM:   8    -0.232482865580E+04    0.85461E+00   -0.42573E-01 28148   0.129E+00    0.864E+00
RMM:   9    -0.232448706563E+04    0.34159E+00   -0.16438E-01 27759   0.886E-01    0.405E+00
RMM:  10    -0.232442052794E+04    0.66538E-01   -0.94893E-02 28559   0.580E-01    0.220E+00
RMM:  11    -0.232443471551E+04   -0.14188E-01   -0.14323E-01 34075   0.493E-01    0.266E+00
RMM:  12    -0.232441485365E+04    0.19862E-01   -0.50170E-02 29066   0.407E-01    0.180E+00
RMM:  13    -0.232440433046E+04    0.10523E-01   -0.26922E-02 29659   0.293E-01    0.124E+00
RMM:  14    -0.232440452281E+04   -0.19236E-03   -0.27243E-02 37271   0.174E-01    0.115E+00
RMM:  15    -0.232440148256E+04    0.30403E-02   -0.10209E-02 31338   0.159E-01    0.843E-01
RMM:  16    -0.232439935635E+04    0.21262E-02   -0.41392E-03 29269   0.123E-01    0.569E-01
RMM:  17    -0.232439907621E+04    0.28014E-03   -0.53802E-03 35788   0.887E-02    0.487E-01
RMM:  18    -0.232439862150E+04    0.45471E-03   -0.21889E-03 30483   0.789E-02    0.371E-01
RMM:  19    -0.232439832610E+04    0.29540E-03   -0.97437E-04 29779   0.588E-02    0.302E-01
RMM:  20    -0.232439827056E+04    0.55538E-04   -0.11626E-03 38349   0.345E-02    0.260E-01
RMM:  21    -0.232439807277E+04    0.19780E-03   -0.47565E-04 31952   0.332E-02    0.161E-01
RMM:  22    -0.232439802357E+04    0.49198E-04   -0.22254E-04 30355   0.266E-02    0.124E-01
RMM:  23    -0.232439803922E+04   -0.15656E-04   -0.29397E-04 35002   0.210E-02    0.127E-01
RMM:  24    -0.232439800107E+04    0.38154E-04   -0.12962E-04 31197   0.182E-02    0.897E-02
RMM:  25    -0.232439798694E+04    0.14133E-04   -0.84139E-05 32981   0.123E-02    0.701E-02
RMM:  26    -0.232439798543E+04    0.15100E-05   -0.72508E-05 39220   0.719E-03    0.613E-02
RMM:  27    -0.232439797046E+04    0.14970E-04   -0.26088E-05 31746   0.701E-03    0.266E-02
RMM:  28    -0.232439796840E+04    0.20578E-05   -0.14501E-05 27577   0.448E-03    0.147E-02
RMM:  29    -0.232439796917E+04   -0.77099E-06   -0.77196E-06 23677   0.375E-03
   3 F= -.23243980E+04 E0= -.23216209E+04  d E =0.139200E+00
       N       E                     dE             d eps       ncg     rms          rms(c)
DAV:   1    -0.232406668663E+04    0.33128E+00   -0.32287E+02 27720   0.189E+01    0.397E+00
RMM:   2    -0.235542163643E+04   -0.31355E+02   -0.11476E+01 28409   0.702E+00    0.746E+01
RMM:   3    -0.234828867838E+04    0.71330E+01   -0.58116E+00 34904   0.348E+00    0.625E+01
RMM:   4    -0.234006432337E+04    0.82244E+01   -0.18274E+00 27983   0.271E+00    0.511E+01
RMM:   5    -0.233541426562E+04    0.46501E+01   -0.22862E+00 33305   0.209E+00    0.438E+01
RMM:   6    -0.232572057203E+04    0.96937E+01   -0.15221E+00 27772   0.253E+00    0.137E+01
RMM:   7    -0.232999786743E+04   -0.42773E+01   -0.43544E+00 33073   0.287E+00    0.324E+01
RMM:   8    -0.232617701043E+04    0.38209E+01   -0.18226E+00 28080   0.271E+00    0.170E+01
RMM:   9    -0.232501039993E+04    0.11666E+01   -0.72672E-01 27746   0.195E+00    0.100E+01
RMM:  10    -0.232470048357E+04    0.30992E+00   -0.42563E-01 27836   0.141E+00    0.645E+00
RMM:  11    -0.232468820229E+04    0.12281E-01   -0.52328E-01 30247   0.118E+00    0.619E+00
RMM:  12    -0.232453396673E+04    0.15424E+00   -0.19147E-01 28112   0.880E-01    0.334E+00
RMM:  13    -0.232450877691E+04    0.25190E-01   -0.15380E-01 31934   0.550E-01    0.263E+00
RMM:  14    -0.232450866872E+04    0.10820E-03   -0.11589E-01 37243   0.382E-01    0.238E+00
RMM:  15    -0.232452193547E+04   -0.13267E-01   -0.34523E-02 31158   0.294E-01    0.284E+00
RMM:  16    -0.232451874500E+04    0.31905E-02   -0.21911E-02 31149   0.238E-01    0.266E+00
RMM:  17    -0.232449932773E+04    0.19417E-01   -0.21938E-02 31123   0.235E-01    0.186E+00
RMM:  18    -0.232449227372E+04    0.70540E-02   -0.10296E-02 28135   0.216E-01    0.145E+00
RMM:  19    -0.232448845783E+04    0.38159E-02   -0.85172E-03 30195   0.158E-01    0.122E+00
RMM:  20    -0.232448381796E+04    0.46399E-02   -0.80246E-03 32037   0.133E-01    0.791E-01
RMM:  21    -0.232448220803E+04    0.16099E-02   -0.31071E-03 29629   0.105E-01    0.590E-01
RMM:  22    -0.232448200720E+04    0.20084E-03   -0.36865E-03 37987   0.615E-02    0.516E-01
RMM:  23    -0.232448137255E+04    0.63465E-03   -0.17068E-03 33324   0.546E-02    0.347E-01
RMM:  24    -0.232448100307E+04    0.36948E-03   -0.70780E-04 30749   0.453E-02    0.221E-01
RMM:  25    -0.232448105099E+04   -0.47926E-04   -0.80934E-04 32403   0.419E-02    0.226E-01
RMM:  26    -0.232448099465E+04    0.56347E-04   -0.41130E-04 29536   0.373E-02    0.196E-01
RMM:  27    -0.232448093829E+04    0.56360E-04   -0.28633E-04 31554   0.259E-02    0.164E-01
RMM:  28    -0.232448093786E+04    0.42998E-06   -0.32474E-04 37127   0.202E-02    0.155E-01
RMM:  29    -0.232448085248E+04    0.85382E-04   -0.10467E-04 30874   0.167E-02    0.884E-02
RMM:  30    -0.232448084233E+04    0.10143E-04   -0.90248E-05 37355   0.966E-03    0.716E-02
RMM:  31    -0.232448083645E+04    0.58812E-05   -0.47657E-05 36080   0.772E-03    0.603E-02
RMM:  32    -0.232448082306E+04    0.13390E-04   -0.18189E-05 29503   0.693E-03    0.324E-02
RMM:  33    -0.232448082155E+04    0.15079E-05   -0.15003E-05 28207   0.409E-03    0.254E-02
RMM:  34    -0.232448082150E+04    0.54250E-07   -0.82588E-06 25188   0.422E-03
   4 F= -.23244808E+04 E0= -.23216877E+04  d E =0.563479E-01
       N       E                     dE             d eps       ncg     rms          rms(c)
DAV:   1    -0.232447195733E+04    0.88642E-02   -0.20379E+01 27748   0.472E+00    0.873E-01
RMM:   2    -0.232628702704E+04   -0.18151E+01   -0.65538E-01 29797   0.151E+00    0.182E+01
RMM:   3    -0.232556274584E+04    0.72428E+00   -0.29292E-01 35017   0.762E-01    0.136E+01
RMM:   4    -0.232501218819E+04    0.55056E+00   -0.85625E-02 27878   0.601E-01    0.995E+00
RMM:   5    -0.232514340493E+04   -0.13122E+00   -0.11994E-01 35774   0.424E-01    0.108E+01
RMM:   6    -0.232454672504E+04    0.59668E+00   -0.66506E-02 27789   0.526E-01    0.277E+00
RMM:   7    -0.232467780629E+04   -0.13108E+00   -0.20892E-01 31033   0.700E-01    0.591E+00
RMM:   8    -0.232455396337E+04    0.12384E+00   -0.76995E-02 27845   0.569E-01    0.327E+00
RMM:   9    -0.232451583207E+04    0.38131E-01   -0.33624E-02 28166   0.347E-01    0.213E+00
RMM:  10    -0.232449696801E+04    0.18864E-01   -0.27473E-02 32188   0.233E-01    0.104E+00
RMM:  11    -0.232449883063E+04   -0.18626E-02   -0.23321E-02 32370   0.220E-01    0.119E+00
RMM:  12    -0.232449606408E+04    0.27666E-02   -0.11174E-02 29009   0.195E-01    0.907E-01
RMM:  13    -0.232449155632E+04    0.45078E-02   -0.40530E-03 28061   0.140E-01    0.326E-01
RMM:  14    -0.232449168293E+04   -0.12661E-03   -0.40991E-03 33069   0.850E-02    0.316E-01
RMM:  15    -0.232449207553E+04   -0.39260E-03   -0.30886E-03 32233   0.827E-02    0.400E-01
RMM:  16    -0.232449150629E+04    0.56924E-03   -0.10325E-03 28505   0.668E-02    0.225E-01
RMM:  17    -0.232449148539E+04    0.20898E-04   -0.11737E-03 37248   0.368E-02    0.200E-01
RMM:  18    -0.232449141669E+04    0.68700E-04   -0.52211E-04 32095   0.333E-02    0.156E-01
RMM:  19    -0.232449131132E+04    0.10537E-03   -0.22398E-04 29813   0.275E-02    0.757E-02
RMM:  20    -0.232449131241E+04   -0.10873E-05   -0.24759E-04 37696   0.159E-02    0.558E-02
RMM:  21    -0.232449133448E+04   -0.22074E-04   -0.12265E-04 33277   0.150E-02    0.785E-02
RMM:  22    -0.232449131854E+04    0.15942E-04   -0.44996E-05 30101   0.120E-02    0.541E-02
RMM:  23    -0.232449131829E+04    0.25381E-06   -0.53034E-05 37252   0.678E-03    0.476E-02
RMM:  24    -0.232449131328E+04    0.50127E-05   -0.25508E-05 31915   0.677E-03    0.325E-02
RMM:  25    -0.232449130883E+04    0.44450E-05   -0.11706E-05 26750   0.549E-03    0.138E-02
RMM:  26    -0.232449130899E+04   -0.15856E-06   -0.82142E-06 23286   0.274E-03
   5 F= -.23244913E+04 E0= -.23217019E+04  d E =0.458605E-01
