<?xml version="1.0" encoding="ISO-8859-1"?>
<modeling>
 <generator>
  <i name="program" type="string">vasp </i>
  <i name="version" type="string">5.4.4.18Apr17-6-g9f103f2a35  </i>
  <i name="subversion" type="string">(build Sep 27 2018 12:46:37) complex + VL-xray_ parallel </i>
  <i name="platform" type="string">LLNL_Quartz_ifc </i>
  <i name="date" type="string">2021 09 27 </i>
  <i name="time" type="string">00:55:36 </i>
 </generator>
 <incar>
  <i type="int" name="ISTART">     2</i>
  <i type="string" name="PREC">accurate</i>
  <i type="string" name="ALGO"> Fast</i>
  <i type="int" name="ICHARG">     2</i>
  <i type="int" name="INIWAV">     1</i>
  <i type="int" name="NELM">   100</i>
  <i type="int" name="NELMIN">     4</i>
  <i type="int" name="IBRION">     2</i>
  <i name="EDIFF">      0.00000100</i>
  <i type="int" name="NSW">     5</i>
  <i type="int" name="ISIF">     2</i>
  <i type="int" name="ISYM">     2</i>
  <i name="ENCUT">    450.00000000</i>
  <i name="POTIM">      0.25000000</i>
  <i type="string" name="LREAL"> Auto</i>
  <i type="int" name="ISMEAR">     0</i>
  <i name="SIGMA">      0.15000000</i>
  <i type="logical" name="LWAVE"> F  </i>
  <i type="logical" name="LCHARG"> F  </i>
  <i type="int" name="ICORELEVEL">     0</i>
  <i type="int" name="CLNT">     1</i>
  <i type="int" name="CLN">     1</i>
  <i type="int" name="INCAR     ">     0</i>
  <i name="CLZ">      0.00000000</i>
  <v type="int" name="KPOINT_BSE">    -1     0     0     0</v>
  <i type="int" name="NELM">   100</i>
 </incar>
 <structure name="primitive_cell" >
  <crystal>
   <varray name="basis" >
    <v>       9.72667804       0.00000000       0.00000000 </v>
    <v>       0.00000000       8.42355028       0.00000000 </v>
    <v>       0.00000000       0.00000000      45.00000000 </v>
   </varray>
   <i name="volume">   3686.99226691 </i>
   <varray name="rec_basis" >
    <v>       0.10281002       0.00000000       0.00000000 </v>
    <v>       0.00000000       0.11871479       0.00000000 </v>
    <v>       0.00000000       0.00000000       0.02222222 </v>
   </varray>
  </crystal>
  <varray name="positions" >
   <v>       0.06190054       0.02916378       0.12409523 </v>
   <v>       0.18347365       0.11214698       0.16645909 </v>
   <v>       0.05597850      -0.13472416       0.16661596 </v>
   <v>       0.18606021      -0.21180909       0.12405444 </v>
   <v>      -0.06587443      -0.21160672       0.12441190 </v>
   <v>      -0.18579704       0.03062723       0.12403011 </v>
   <v>      -0.06913356       0.11444554       0.16688437 </v>
   <v>       0.31146356       0.03068494       0.12411548 </v>
   <v>       0.18502932       0.28647912       0.12415507 </v>
   <v>      -0.06581101       0.28679299       0.12386685 </v>
   <v>       0.30585071      -0.13536165       0.16582063 </v>
   <v>       0.05529648       0.36548551       0.16663358 </v>
   <v>      -0.19284006      -0.13646669       0.16683279 </v>
   <v>       0.43244868       0.11196941       0.16656198 </v>
   <v>      -0.05924593      -0.04604647       0.21125205 </v>
   <v>       0.18213422      -0.38646545       0.16662580 </v>
   <v>       0.30710928       0.36421452       0.16661259 </v>
   <v>       0.43499580      -0.21298722       0.12413042 </v>
   <v>       0.06501501       0.20379533       0.21107645 </v>
   <v>       0.19014286      -0.04538066       0.21169335 </v>
   <v>      -0.06757305      -0.38695420       0.16666052 </v>
   <v>      -0.31543521      -0.21194463       0.12435292 </v>
   <v>       0.06179439      -0.47033078       0.12404684 </v>
   <v>      -0.19448375       0.36555522       0.16593772 </v>
   <v>      -0.31752769       0.11394689       0.16687014 </v>
   <v>       0.43454782       0.28664769       0.12412518 </v>
   <v>      -0.31353114       0.28575907       0.12391697 </v>
   <v>       0.06726494      -0.29633993       0.21127839 </v>
   <v>      -0.18422658       0.20353028       0.21110009 </v>
   <v>      -0.18663080      -0.47101582       0.12400038 </v>
   <v>      -0.43724799       0.03219795       0.12425356 </v>
   <v>       0.31549767       0.20418373       0.21117103 </v>
   <v>       0.31269127      -0.47020579       0.12392174 </v>
   <v>      -0.18399385      -0.29655002       0.21135364 </v>
   <v>      -0.44364519      -0.13758548       0.16631508 </v>
   <v>       0.43168955      -0.38708631       0.16608001 </v>
   <v>      -0.31051704      -0.04537615       0.21176200 </v>
   <v>       0.31450856      -0.29689605       0.21224321 </v>
   <v>      -0.31758924      -0.38781447       0.16628874 </v>
   <v>       0.18951636       0.45308776       0.21109668 </v>
   <v>       0.44091890      -0.04445789       0.21204243 </v>
   <v>      -0.06013653       0.45333333       0.21160070 </v>
   <v>      -0.44361840       0.36527857       0.16659640 </v>
   <v>       0.05883778       0.03727804       0.25582420 </v>
   <v>       0.18364833      -0.21271104       0.25546395 </v>
   <v>      -0.06654267      -0.21275252       0.25557466 </v>
   <v>       0.30917664       0.03719599       0.25551061 </v>
   <v>      -0.43339719       0.20307990       0.21141311 </v>
   <v>      -0.19032624       0.03777455       0.25596333 </v>
   <v>       0.18385574       0.28730232       0.25584058 </v>
   <v>      -0.43764399      -0.47118288       0.12448461 </v>
   <v>      -0.06589095       0.28770833       0.25591774 </v>
   <v>      -0.31090822       0.45404433       0.21171544 </v>
   <v>       0.43974949       0.45384630       0.21132236 </v>
   <v>      -0.43307613      -0.29674784       0.21200997 </v>
   <v>       0.43318872      -0.21251834       0.25559209 </v>
   <v>       0.05930557      -0.46288035       0.25572913 </v>
   <v>      -0.31640255      -0.21240588       0.25580898 </v>
   <v>       0.43358660       0.28784250       0.25581075 </v>
   <v>      -0.31576340       0.28794297       0.25603692 </v>
   <v>       0.30837774      -0.46276022       0.25557006 </v>
   <v>      -0.19125922      -0.46301525       0.25590205 </v>
   <v>      -0.43988466       0.03744711       0.25546567 </v>
   <v>       0.07056069      -0.12670976       0.30028515 </v>
   <v>      -0.05446431       0.12278681       0.30010626 </v>
   <v>       0.19544312       0.12300876       0.30024373 </v>
   <v>      -0.17885974      -0.12635506       0.30018483 </v>
   <v>       0.31935331      -0.12626105       0.30014831 </v>
   <v>       0.06975454       0.37448826       0.30003853 </v>
   <v>      -0.44209069      -0.46215831       0.25562393 </v>
   <v>      -0.05495942      -0.37670951       0.29985629 </v>
   <v>      -0.30446189       0.12286341       0.30027163 </v>
   <v>       0.19519358      -0.37701065       0.30025285 </v>
   <v>      -0.17926412       0.37299265       0.30005121 </v>
   <v>       0.32037119       0.37244582       0.30009422 </v>
   <v>       0.44459141       0.12299136       0.30044609 </v>
   <v>      -0.30493714      -0.37589994       0.30012310 </v>
   <v>      -0.42945070      -0.12688288       0.30028756 </v>
   <v>       0.44601853      -0.37667077       0.30015213 </v>
   <v>      -0.42998359       0.37178444       0.30013561 </v>
   <v>       0.18370894      -0.04767476       0.34492035 </v>
   <v>      -0.06603151      -0.04894604       0.34476833 </v>
   <v>       0.05867379       0.20279741       0.34496200 </v>
   <v>       0.05850590      -0.29795207       0.34487026 </v>
   <v>       0.30880871       0.20272981       0.34468691 </v>
   <v>      -0.19098389       0.20268090       0.34501701 </v>
   <v>       0.30910930      -0.29804251       0.34483314 </v>
   <v>       0.43344560      -0.04748546       0.34492300 </v>
   <v>      -0.19131795      -0.29747103       0.34491592 </v>
   <v>      -0.31705496      -0.04820337       0.34474266 </v>
   <v>       0.18364268       0.45271882       0.34492207 </v>
   <v>      -0.06651381       0.45246490       0.34490769 </v>
   <v>      -0.44103622       0.20274685       0.34481081 </v>
   <v>       0.43375621       0.45248218       0.34500349 </v>
   <v>       0.06325088       0.04051684      -0.12411234 </v>
   <v>      -0.31622036       0.45243053       0.34499593 </v>
   <v>      -0.44108446      -0.29774952       0.34488748 </v>
   <v>       0.18761199      -0.20222691      -0.12392126 </v>
   <v>      -0.06336763      -0.20294825      -0.12434994 </v>
   <v>       0.31286568       0.04068594      -0.12399214 </v>
   <v>      -0.18767840       0.04032292      -0.12415689 </v>
   <v>       0.18791252       0.29744722      -0.12390374 </v>
   <v>      -0.06376349       0.29691561      -0.12445532 </v>
   <v>       0.43632938      -0.20225706      -0.12366431 </v>
   <v>       0.06275274      -0.45925817      -0.12410671 </v>
   <v>      -0.31443374      -0.20237392      -0.12386178 </v>
   <v>       0.06662106       0.03810018       0.38914647 </v>
   <v>       0.43647847       0.29748972      -0.12382190 </v>
   <v>      -0.31438218       0.29772946      -0.12401311 </v>
   <v>      -0.05871098      -0.21243564       0.38888327 </v>
   <v>       0.31264401      -0.45909507      -0.12401536 </v>
   <v>      -0.18763920      -0.45983791      -0.12413023 </v>
   <v>       0.19315558      -0.21245333       0.38887822 </v>
   <v>      -0.18227114       0.03936652       0.38924097 </v>
   <v>      -0.05895568       0.28645507       0.38893816 </v>
   <v>       0.31618070       0.03709103       0.38894176 </v>
   <v>      -0.43747846       0.04083462      -0.12406761 </v>
   <v>       0.19101953       0.28764145       0.38896310 </v>
   <v>       0.06755883      -0.46152248       0.38905848 </v>
   <v>      -0.30846877      -0.21224714       0.38906407 </v>
   <v>      -0.30871173       0.28735915       0.38904365 </v>
   <v>       0.44156098      -0.21223478       0.38909652 </v>
   <v>       0.44152555       0.28763590       0.38909729 </v>
   <v>      -0.18367831      -0.46241950       0.38901634 </v>
   <v>      -0.43738714      -0.45890081      -0.12399765 </v>
   <v>       0.31587392      -0.46171249       0.38889392 </v>
   <v>      -0.43354616       0.03784613       0.38905030 </v>
   <v>      -0.05803923      -0.03630388      -0.16627020 </v>
   <v>       0.19153007      -0.03730951      -0.16650391 </v>
   <v>       0.06697298       0.21546210      -0.16632686 </v>
   <v>       0.06661137      -0.28423823      -0.16628383 </v>
   <v>      -0.18222575       0.21555051      -0.16635366 </v>
   <v>       0.31777137       0.21378461      -0.16662718 </v>
   <v>      -0.43357263      -0.46232574       0.38902966 </v>
   <v>      -0.18255337      -0.28465505      -0.16634005 </v>
   <v>      -0.30827870      -0.03747375      -0.16647428 </v>
   <v>       0.31788695      -0.28619102      -0.16661933 </v>
   <v>       0.44224544      -0.03697603      -0.16661052 </v>
   <v>      -0.05827243       0.46369633      -0.16634915 </v>
   <v>       0.19166646       0.46266035      -0.16653628 </v>
   <v>       0.06210442      -0.12892740       0.43441689 </v>
   <v>      -0.43362422       0.21372172      -0.16668780 </v>
   <v>       0.18722509       0.12038192       0.43426436 </v>
   <v>      -0.06311744       0.11970203       0.43460435 </v>
   <v>      -0.30798749       0.46210295      -0.16657703 </v>
   <v>       0.44170489       0.46257891      -0.16651149 </v>
   <v>      -0.43372800      -0.28712724      -0.16648916 </v>
   <v>      -0.18836384      -0.12859009       0.43425049 </v>
   <v>       0.31176555      -0.12957698       0.43446278 </v>
   <v>       0.06292430       0.37163556       0.43432633 </v>
   <v>      -0.06250837      -0.37953762       0.43444880 </v>
   <v>       0.18735736      -0.38001575       0.43447051 </v>
   <v>      -0.31178237       0.12005386       0.43426524 </v>
   <v>       0.43691878       0.12074276       0.43432906 </v>
   <v>      -0.18815770       0.37172438       0.43420119 </v>
   <v>       0.31239121       0.37036630       0.43448729 </v>
   <v>       0.43666997      -0.37886268       0.43441200 </v>
   <v>      -0.31198621      -0.37958646       0.43448432 </v>
   <v>      -0.43740181      -0.12947947       0.43443351 </v>
   <v>      -0.43815459       0.37106253       0.43441228 </v>
   <v>       0.05912205      -0.12629394      -0.21151604 </v>
   <v>       0.18401418       0.12365039      -0.21149653 </v>
   <v>      -0.06633531       0.12475044      -0.21151858 </v>
   <v>       0.31000174      -0.12699079      -0.21142301 </v>
   <v>      -0.19066230      -0.12597691      -0.21148164 </v>
   <v>       0.05954144       0.37378072      -0.21145325 </v>
   <v>       0.18400525      -0.37674592      -0.21128791 </v>
   <v>       0.43354155       0.12318045      -0.21093640 </v>
   <v>      -0.06693566      -0.37513041      -0.21133822 </v>
   <v>      -0.31734216       0.12303079      -0.21132658 </v>
   <v>       0.30954137       0.37368923      -0.21135665 </v>
   <v>      -0.19069212       0.37394047      -0.21146696 </v>
   <v>       0.43341533      -0.37633025      -0.21096062 </v>
   <v>      -0.31705559      -0.37682926      -0.21118599 </v>
   <v>      -0.44069364      -0.12647217      -0.21140241 </v>
   <v>      -0.06254995      -0.04469934       0.47869809 </v>
   <v>       0.18745942      -0.04406030       0.47872619 </v>
   <v>       0.06264029       0.20592192       0.47863923 </v>
   <v>      -0.44047738       0.37289455      -0.21143127 </v>
   <v>       0.06233644      -0.29410265       0.47854071 </v>
   <v>      -0.18778231       0.20586073       0.47869274 </v>
   <v>       0.31253180       0.20580929       0.47871260 </v>
   <v>      -0.18738181      -0.29416185       0.47864386 </v>
   <v>       0.31226703      -0.29419450       0.47865560 </v>
   <v>      -0.31254303      -0.04411519       0.47869131 </v>
   <v>       0.43735963      -0.04425022       0.47867303 </v>
   <v>      -0.06271899       0.45570411       0.47866764 </v>
   <v>       0.18740959       0.45576096       0.47868044 </v>
   <v>      -0.43768928       0.20568091       0.47865769 </v>
   <v>       0.43745783       0.45593963       0.47857527 </v>
   <v>      -0.31276187       0.45567101       0.47863084 </v>
   <v>      -0.43757293      -0.29428616       0.47866673 </v>
   <v>       0.06570783       0.04124452      -0.25561886 </v>
   <v>      -0.06008427      -0.20905451      -0.25551366 </v>
   <v>       0.19003512      -0.20848363      -0.25573699 </v>
   <v>      -0.18488887       0.04100331      -0.25575186 </v>
   <v>      -0.06050557       0.29167992      -0.25551673 </v>
   <v>       0.31494829       0.04151829      -0.25579890 </v>
   <v>       0.18981875       0.29156470      -0.25567039 </v>
   <v>       0.06484250      -0.45849698      -0.25579885 </v>
   <v>      -0.31023059      -0.20814297      -0.25582205 </v>
   <v>       0.44024341      -0.20825440      -0.25573851 </v>
   <v>      -0.31055609       0.29108468      -0.25580260 </v>
   <v>       0.43985613       0.29160112      -0.25567498 </v>
   <v>      -0.18464689      -0.45902471      -0.25571048 </v>
   <v>       0.31501470      -0.45872275      -0.25581610 </v>
   <v>      -0.43394860       0.04131616      -0.25577416 </v>
   <v>       0.06170013      -0.12839133      -0.47861799 </v>
   <v>       0.18697216       0.12188703      -0.47863866 </v>
   <v>      -0.06352372       0.12177494      -0.47847908 </v>
   <v>      -0.18833319      -0.12861920      -0.47863075 </v>
   <v>       0.31180604      -0.12818109      -0.47859636 </v>
   <v>       0.06158089       0.37238797      -0.47860635 </v>
   <v>      -0.43488443      -0.45857787      -0.25579322 </v>
   <v>      -0.06327168      -0.37798002      -0.47855987 </v>
   <v>       0.18692572      -0.37848999      -0.47855158 </v>
   <v>      -0.31330608       0.12170539      -0.47861663 </v>
   <v>       0.43683266       0.12169458      -0.47854993 </v>
   <v>       0.31174790       0.37206526      -0.47862750 </v>
   <v>      -0.18803978       0.37207652      -0.47862191 </v>
   <v>      -0.31344192      -0.37846932      -0.47865434 </v>
   <v>       0.43678769      -0.37808848      -0.47860705 </v>
   <v>      -0.43799342      -0.12803182      -0.47854968 </v>
   <v>      -0.43822324       0.37191125      -0.47861303 </v>
   <v>       0.18514779      -0.04258144      -0.30012672 </v>
   <v>      -0.06436409      -0.04222681      -0.30027858 </v>
   <v>       0.06054497       0.20758362      -0.30025806 </v>
   <v>       0.06089125      -0.29231691      -0.30028553 </v>
   <v>       0.31075076       0.20729337      -0.30020290 </v>
   <v>      -0.18908034       0.20768967      -0.30022140 </v>
   <v>       0.31063119      -0.29276285      -0.30022836 </v>
   <v>      -0.18926424      -0.29215509      -0.30028620 </v>
   <v>       0.43529091      -0.04201100      -0.30030659 </v>
   <v>      -0.31448470      -0.04226235      -0.30026466 </v>
   <v>       0.18538960       0.45800427      -0.30025042 </v>
   <v>      -0.06480454       0.45814038      -0.30028784 </v>
   <v>      -0.43922841       0.20727668      -0.30023274 </v>
   <v>       0.43579241       0.45760120      -0.30022347 </v>
   <v>      -0.31470308       0.45814873      -0.30028208 </v>
   <v>      -0.43913767      -0.29235064      -0.30025238 </v>
   <v>      -0.06312987      -0.04273980      -0.43448891 </v>
   <v>       0.18674121      -0.04292293      -0.43447406 </v>
   <v>       0.06213265       0.20690735      -0.43459550 </v>
   <v>       0.06229430      -0.29324917      -0.43448543 </v>
   <v>      -0.18877674       0.20724027      -0.43451572 </v>
   <v>       0.31143710       0.20674215      -0.43447326 </v>
   <v>       0.31142972      -0.29328006      -0.43447356 </v>
   <v>      -0.18871647      -0.29325299      -0.43449423 </v>
   <v>       0.43680590      -0.04266095      -0.43459923 </v>
   <v>      -0.31276369      -0.04302878      -0.43450279 </v>
   <v>       0.18717358       0.45707228      -0.43450070 </v>
   <v>      -0.06355265       0.45660041      -0.43442566 </v>
   <v>      -0.43782054       0.20701572      -0.43448155 </v>
   <v>      -0.31334141       0.45678690      -0.43460852 </v>
   <v>       0.43662831       0.45684586      -0.43445689 </v>
   <v>      -0.43776123      -0.29287000      -0.43449822 </v>
   <v>       0.06603456      -0.12592681      -0.34499696 </v>
   <v>       0.19120555       0.12502755      -0.34489231 </v>
   <v>      -0.05872904       0.12475371      -0.34505282 </v>
   <v>      -0.18365034      -0.12504607      -0.34498879 </v>
   <v>       0.31620996      -0.12528882      -0.34506829 </v>
   <v>       0.06619373       0.37456726      -0.34509028 </v>
   <v>       0.19143138      -0.37475454      -0.34484773 </v>
   <v>      -0.05847108      -0.37516660      -0.34503872 </v>
   <v>      -0.30879003       0.12484600      -0.34502366 </v>
   <v>      -0.18372743       0.37504591      -0.34498262 </v>
   <v>       0.44124430       0.12451613      -0.34505416 </v>
   <v>       0.31625632       0.37424213      -0.34505405 </v>
   <v>      -0.30851351      -0.37487350      -0.34508614 </v>
   <v>      -0.43398354      -0.12489463      -0.34495910 </v>
   <v>       0.44116754      -0.37517317      -0.34510719 </v>
   <v>      -0.43362745       0.37491485      -0.34509551 </v>
   <v>       0.05874997       0.03788772      -0.38909939 </v>
   <v>       0.18396960      -0.21177928      -0.38902829 </v>
   <v>      -0.06623120      -0.21218918      -0.38900870 </v>
   <v>       0.30874252       0.03821922      -0.38900057 </v>
   <v>      -0.19098796       0.03836302      -0.38904216 </v>
   <v>      -0.06623178       0.28794727      -0.38909703 </v>
   <v>       0.18414856       0.28859570      -0.38893448 </v>
   <v>       0.05869076      -0.46204621      -0.38908209 </v>
   <v>       0.43391329      -0.21172496      -0.38903067 </v>
   <v>      -0.31607303      -0.21187796      -0.38911788 </v>
   <v>       0.43382488       0.28843193      -0.38906558 </v>
   <v>      -0.31593624       0.28848343      -0.38904821 </v>
   <v>       0.30911766      -0.46170484      -0.38897484 </v>
   <v>      -0.19070500      -0.46158027      -0.38893029 </v>
   <v>      -0.44099018       0.03859877      -0.38894477 </v>
   <v>      -0.44098178      -0.46152989      -0.38895322 </v>
  </varray>
 </structure>
 <varray name="primitive_index" >
  <v type="int" >        1 </v>
  <v type="int" >      125 </v>
  <v type="int" >       60 </v>
  <v type="int" >       83 </v>
  <v type="int" >       44 </v>
  <v type="int" >      202 </v>
  <v type="int" >       26 </v>
  <v type="int" >      256 </v>
  <v type="int" >      111 </v>
  <v type="int" >      155 </v>
  <v type="int" >      277 </v>
  <v type="int" >       51 </v>
  <v type="int" >      102 </v>
  <v type="int" >      182 </v>
  <v type="int" >      212 </v>
  <v type="int" >       20 </v>
  <v type="int" >      108 </v>
  <v type="int" >      170 </v>
  <v type="int" >       50 </v>
  <v type="int" >      146 </v>
  <v type="int" >      104 </v>
  <v type="int" >      163 </v>
  <v type="int" >      176 </v>
  <v type="int" >      284 </v>
  <v type="int" >      166 </v>
  <v type="int" >      117 </v>
  <v type="int" >      145 </v>
  <v type="int" >      250 </v>
  <v type="int" >      167 </v>
  <v type="int" >      205 </v>
  <v type="int" >      114 </v>
  <v type="int" >      249 </v>
  <v type="int" >       91 </v>
  <v type="int" >      213 </v>
  <v type="int" >      192 </v>
  <v type="int" >      174 </v>
  <v type="int" >       92 </v>
  <v type="int" >      276 </v>
  <v type="int" >       97 </v>
  <v type="int" >      189 </v>
  <v type="int" >      229 </v>
  <v type="int" >      175 </v>
  <v type="int" >       30 </v>
  <v type="int" >      185 </v>
  <v type="int" >      200 </v>
  <v type="int" >       52 </v>
  <v type="int" >      179 </v>
  <v type="int" >      103 </v>
  <v type="int" >       24 </v>
  <v type="int" >      112 </v>
  <v type="int" >      283 </v>
  <v type="int" >      127 </v>
  <v type="int" >      261 </v>
  <v type="int" >      139 </v>
  <v type="int" >      288 </v>
  <v type="int" >      137 </v>
  <v type="int" >      168 </v>
  <v type="int" >      118 </v>
  <v type="int" >      265 </v>
  <v type="int" >       58 </v>
  <v type="int" >      275 </v>
  <v type="int" >       81 </v>
  <v type="int" >      221 </v>
  <v type="int" >      214 </v>
  <v type="int" >      135 </v>
  <v type="int" >      215 </v>
  <v type="int" >       72 </v>
  <v type="int" >       98 </v>
  <v type="int" >      226 </v>
  <v type="int" >       28 </v>
  <v type="int" >      178 </v>
  <v type="int" >      109 </v>
  <v type="int" >      263 </v>
  <v type="int" >      220 </v>
  <v type="int" >      242 </v>
  <v type="int" >      159 </v>
  <v type="int" >      130 </v>
  <v type="int" >      210 </v>
  <v type="int" >      101 </v>
  <v type="int" >      171 </v>
  <v type="int" >      258 </v>
  <v type="int" >      194 </v>
  <v type="int" >       47 </v>
  <v type="int" >      216 </v>
  <v type="int" >       86 </v>
  <v type="int" >      207 </v>
  <v type="int" >      208 </v>
  <v type="int" >      172 </v>
  <v type="int" >       73 </v>
  <v type="int" >       25 </v>
  <v type="int" >      116 </v>
  <v type="int" >       12 </v>
  <v type="int" >      219 </v>
  <v type="int" >      206 </v>
  <v type="int" >      267 </v>
  <v type="int" >       48 </v>
  <v type="int" >      164 </v>
  <v type="int" >      268 </v>
  <v type="int" >      281 </v>
  <v type="int" >      245 </v>
  <v type="int" >       14 </v>
  <v type="int" >      120 </v>
  <v type="int" >      280 </v>
  <v type="int" >      150 </v>
  <v type="int" >      266 </v>
  <v type="int" >       29 </v>
  <v type="int" >      124 </v>
  <v type="int" >      255 </v>
  <v type="int" >      191 </v>
  <v type="int" >      190 </v>
  <v type="int" >       18 </v>
  <v type="int" >      231 </v>
  <v type="int" >      287 </v>
  <v type="int" >      279 </v>
  <v type="int" >       13 </v>
  <v type="int" >      165 </v>
  <v type="int" >      161 </v>
  <v type="int" >      248 </v>
  <v type="int" >      273 </v>
  <v type="int" >       45 </v>
  <v type="int" >       84 </v>
  <v type="int" >      264 </v>
  <v type="int" >        4 </v>
  <v type="int" >      123 </v>
  <v type="int" >       64 </v>
  <v type="int" >       67 </v>
  <v type="int" >       16 </v>
  <v type="int" >       17 </v>
  <v type="int" >        7 </v>
  <v type="int" >      259 </v>
  <v type="int" >      134 </v>
  <v type="int" >        6 </v>
  <v type="int" >       39 </v>
  <v type="int" >      222 </v>
  <v type="int" >      253 </v>
  <v type="int" >       88 </v>
  <v type="int" >        5 </v>
  <v type="int" >      110 </v>
  <v type="int" >       36 </v>
  <v type="int" >      181 </v>
  <v type="int" >      285 </v>
  <v type="int" >      143 </v>
  <v type="int" >      160 </v>
  <v type="int" >      158 </v>
  <v type="int" >       82 </v>
  <v type="int" >       74 </v>
  <v type="int" >      241 </v>
  <v type="int" >      235 </v>
  <v type="int" >       23 </v>
  <v type="int" >      218 </v>
  <v type="int" >      131 </v>
  <v type="int" >      238 </v>
  <v type="int" >      257 </v>
  <v type="int" >      201 </v>
  <v type="int" >       80 </v>
  <v type="int" >      113 </v>
  <v type="int" >      278 </v>
  <v type="int" >      232 </v>
  <v type="int" >       69 </v>
  <v type="int" >      251 </v>
  <v type="int" >      197 </v>
  <v type="int" >        3 </v>
  <v type="int" >      149 </v>
  <v type="int" >      224 </v>
  <v type="int" >       55 </v>
  <v type="int" >      254 </v>
  <v type="int" >      272 </v>
  <v type="int" >       49 </v>
  <v type="int" >      132 </v>
  <v type="int" >      188 </v>
  <v type="int" >      138 </v>
  <v type="int" >       57 </v>
  <v type="int" >      184 </v>
  <v type="int" >       66 </v>
  <v type="int" >       33 </v>
  <v type="int" >      236 </v>
  <v type="int" >       94 </v>
  <v type="int" >      223 </v>
  <v type="int" >      106 </v>
  <v type="int" >      157 </v>
  <v type="int" >       21 </v>
  <v type="int" >      230 </v>
  <v type="int" >      234 </v>
  <v type="int" >       99 </v>
  <v type="int" >       75 </v>
  <v type="int" >      105 </v>
  <v type="int" >      269 </v>
  <v type="int" >      244 </v>
  <v type="int" >      237 </v>
  <v type="int" >      156 </v>
  <v type="int" >      199 </v>
  <v type="int" >      169 </v>
  <v type="int" >        9 </v>
  <v type="int" >       46 </v>
  <v type="int" >      262 </v>
  <v type="int" >      151 </v>
  <v type="int" >      187 </v>
  <v type="int" >      239 </v>
  <v type="int" >       11 </v>
  <v type="int" >      211 </v>
  <v type="int" >       43 </v>
  <v type="int" >       31 </v>
  <v type="int" >       19 </v>
  <v type="int" >       71 </v>
  <v type="int" >       87 </v>
  <v type="int" >      243 </v>
  <v type="int" >      282 </v>
  <v type="int" >       27 </v>
  <v type="int" >      140 </v>
  <v type="int" >      286 </v>
  <v type="int" >       10 </v>
  <v type="int" >      144 </v>
  <v type="int" >      107 </v>
  <v type="int" >      270 </v>
  <v type="int" >      203 </v>
  <v type="int" >       68 </v>
  <v type="int" >       34 </v>
  <v type="int" >      119 </v>
  <v type="int" >      183 </v>
  <v type="int" >      177 </v>
  <v type="int" >      195 </v>
  <v type="int" >      252 </v>
  <v type="int" >       77 </v>
  <v type="int" >      247 </v>
  <v type="int" >      173 </v>
  <v type="int" >      225 </v>
  <v type="int" >       37 </v>
  <v type="int" >      274 </v>
  <v type="int" >       63 </v>
  <v type="int" >      233 </v>
  <v type="int" >      154 </v>
  <v type="int" >      141 </v>
  <v type="int" >       38 </v>
  <v type="int" >       54 </v>
  <v type="int" >      246 </v>
  <v type="int" >      152 </v>
  <v type="int" >       53 </v>
  <v type="int" >      193 </v>
  <v type="int" >       76 </v>
  <v type="int" >      133 </v>
  <v type="int" >      129 </v>
  <v type="int" >      162 </v>
  <v type="int" >       62 </v>
  <v type="int" >       65 </v>
  <v type="int" >      271 </v>
  <v type="int" >       93 </v>
  <v type="int" >       90 </v>
  <v type="int" >       32 </v>
  <v type="int" >       56 </v>
  <v type="int" >       95 </v>
  <v type="int" >       59 </v>
  <v type="int" >       42 </v>
  <v type="int" >        8 </v>
  <v type="int" >      228 </v>
  <v type="int" >       70 </v>
  <v type="int" >      186 </v>
  <v type="int" >      196 </v>
  <v type="int" >      121 </v>
  <v type="int" >      122 </v>
  <v type="int" >       79 </v>
  <v type="int" >        2 </v>
  <v type="int" >      198 </v>
  <v type="int" >      153 </v>
  <v type="int" >      240 </v>
  <v type="int" >      209 </v>
  <v type="int" >       35 </v>
  <v type="int" >      204 </v>
  <v type="int" >       85 </v>
  <v type="int" >      227 </v>
  <v type="int" >       89 </v>
  <v type="int" >       40 </v>
  <v type="int" >       78 </v>
  <v type="int" >      142 </v>
  <v type="int" >       15 </v>
  <v type="int" >      136 </v>
  <v type="int" >      148 </v>
  <v type="int" >      217 </v>
  <v type="int" >      100 </v>
  <v type="int" >       61 </v>
  <v type="int" >      126 </v>
  <v type="int" >       96 </v>
  <v type="int" >      180 </v>
  <v type="int" >      115 </v>
  <v type="int" >      147 </v>
  <v type="int" >       41 </v>
  <v type="int" >       22 </v>
  <v type="int" >      260 </v>
  <v type="int" >      128 </v>
 </varray>
 <kpoints>
  <generation param="Gamma">
   <v type="int" name="divisions">       4        4        1 </v>
   <v name="usershift">      0.00000000       0.00000000       0.00000000 </v>
   <v name="genvec1">      0.25000000       0.00000000       0.00000000 </v>
   <v name="genvec2">      0.00000000       0.25000000       0.00000000 </v>
   <v name="genvec3">      0.00000000       0.00000000       1.00000000 </v>
   <v name="shift">      0.00000000       0.00000000       0.00000000 </v>
  </generation>
  <varray name="kpointlist" >
   <v>       0.00000000       0.00000000       0.00000000 </v>
   <v>       0.25000000       0.00000000       0.00000000 </v>
   <v>       0.50000000       0.00000000       0.00000000 </v>
   <v>       0.00000000       0.25000000       0.00000000 </v>
   <v>       0.25000000       0.25000000       0.00000000 </v>
   <v>       0.50000000       0.25000000       0.00000000 </v>
   <v>      -0.25000000       0.25000000       0.00000000 </v>
   <v>       0.00000000       0.50000000       0.00000000 </v>
   <v>       0.25000000       0.50000000       0.00000000 </v>
   <v>       0.50000000       0.50000000       0.00000000 </v>
  </varray>
  <varray name="weights" >
   <v>       0.06250000 </v>
   <v>       0.12500000 </v>
   <v>       0.06250000 </v>
   <v>       0.12500000 </v>
   <v>       0.12500000 </v>
   <v>       0.12500000 </v>
   <v>       0.12500000 </v>
   <v>       0.06250000 </v>
   <v>       0.12500000 </v>
   <v>       0.06250000 </v>
  </varray>
 </kpoints>
 <parameters>
  <separator name="general" >
   <i type="string" name="SYSTEM">unknown system</i>
   <i type="logical" name="LCOMPAT"> F  </i>
  </separator>
  <separator name="electronic" >
   <i type="string" name="PREC">accura</i>
   <i name="ENMAX">    450.00000000</i>
   <i name="ENAUG">    838.43500000</i>
   <i name="EDIFF">      0.00000100</i>
   <i type="int" name="IALGO">    68</i>
   <i type="int" name="IWAVPR">    11</i>
   <i type="int" name="NBANDS">  1386</i>
   <i name="NELECT">   2290.00000000</i>
   <i type="int" name="TURBO">     0</i>
   <i type="int" name="IRESTART">     0</i>
   <i type="int" name="NREBOOT">     0</i>
   <i type="int" name="NMIN">     0</i>
   <i name="EREF">      0.00000000</i>
   <separator name="electronic smearing" >
    <i type="int" name="ISMEAR">     0</i>
    <i name="SIGMA">      0.15000000</i>
    <i name="KSPACING">      0.50000000</i>
    <i type="logical" name="KGAMMA"> T  </i>
   </separator>
   <separator name="electronic projectors" >
    <i type="logical" name="LREAL"> T  </i>
    <v name="ROPT">     -0.00025000     -0.00025000</v>
    <i type="int" name="LMAXPAW">  -100</i>
    <i type="int" name="LMAXMIX">     2</i>
    <i type="logical" name="NLSPLINE"> F  </i>
   </separator>
   <separator name="electronic startup" >
    <i type="int" name="ISTART">     0</i>
    <i type="int" name="ICHARG">     2</i>
    <i type="int" name="INIWAV">     1</i>
   </separator>
   <separator name="electronic spin" >
    <i type="int" name="ISPIN">     1</i>
    <i type="logical" name="LNONCOLLINEAR"> F  </i>
    <v name="MAGMOM">      1.00000000      1.00000000      1.00000000      1.00000000      1.00000000      1.00000000      1.00000000      1.00000000      1.00000000      1.00000000      1.00000000      1.00000000      1.00000000      1.00000000      1.00000000      1.00000000      1.00000000      1.00000000      1.00000000      1.00000000
      1.00000000      1.00000000      1.00000000      1.00000000      1.00000000      1.00000000      1.00000000      1.00000000      1.00000000      1.00000000      1.00000000      1.00000000      1.00000000      1.00000000      1.00000000      1.00000000      1.00000000      1.00000000      1.00000000      1.00000000
      1.00000000      1.00000000      1.00000000      1.00000000      1.00000000      1.00000000      1.00000000      1.00000000      1.00000000      1.00000000      1.00000000      1.00000000      1.00000000      1.00000000      1.00000000      1.00000000      1.00000000      1.00000000      1.00000000      1.00000000
      1.00000000      1.00000000      1.00000000      1.00000000      1.00000000      1.00000000      1.00000000      1.00000000      1.00000000      1.00000000      1.00000000      1.00000000      1.00000000      1.00000000      1.00000000      1.00000000      1.00000000      1.00000000      1.00000000      1.00000000
      1.00000000      1.00000000      1.00000000      1.00000000      1.00000000      1.00000000      1.00000000      1.00000000      1.00000000      1.00000000      1.00000000      1.00000000      1.00000000      1.00000000      1.00000000      1.00000000      1.00000000      1.00000000      1.00000000      1.00000000
      1.00000000      1.00000000      1.00000000      1.00000000      1.00000000      1.00000000      1.00000000      1.00000000      1.00000000      1.00000000      1.00000000      1.00000000      1.00000000      1.00000000      1.00000000      1.00000000      1.00000000      1.00000000      1.00000000      1.00000000
      1.00000000      1.00000000      1.00000000      1.00000000      1.00000000      1.00000000      1.00000000      1.00000000      1.00000000      1.00000000      1.00000000      1.00000000      1.00000000      1.00000000      1.00000000      1.00000000      1.00000000      1.00000000      1.00000000      1.00000000
      1.00000000      1.00000000      1.00000000      1.00000000      1.00000000      1.00000000      1.00000000      1.00000000      1.00000000      1.00000000      1.00000000      1.00000000      1.00000000      1.00000000      1.00000000      1.00000000      1.00000000      1.00000000      1.00000000      1.00000000
      1.00000000      1.00000000      1.00000000      1.00000000      1.00000000      1.00000000      1.00000000      1.00000000      1.00000000      1.00000000      1.00000000      1.00000000      1.00000000      1.00000000      1.00000000      1.00000000      1.00000000      1.00000000      1.00000000      1.00000000
      1.00000000      1.00000000      1.00000000      1.00000000      1.00000000      1.00000000      1.00000000      1.00000000      1.00000000      1.00000000      1.00000000      1.00000000      1.00000000      1.00000000      1.00000000      1.00000000      1.00000000      1.00000000      1.00000000      1.00000000
      1.00000000      1.00000000      1.00000000      1.00000000      1.00000000      1.00000000      1.00000000      1.00000000      1.00000000      1.00000000      1.00000000      1.00000000      1.00000000      1.00000000      1.00000000      1.00000000      1.00000000      1.00000000      1.00000000      1.00000000
      1.00000000      1.00000000      1.00000000      1.00000000      1.00000000      1.00000000      1.00000000      1.00000000      1.00000000      1.00000000      1.00000000      1.00000000      1.00000000      1.00000000      1.00000000      1.00000000      1.00000000      1.00000000      1.00000000      1.00000000
      1.00000000      1.00000000      1.00000000      1.00000000      1.00000000      1.00000000      1.00000000      1.00000000      1.00000000      1.00000000      1.00000000      1.00000000      1.00000000      1.00000000      1.00000000      1.00000000      1.00000000      1.00000000      1.00000000      1.00000000
      1.00000000      1.00000000      1.00000000      1.00000000      1.00000000      1.00000000      1.00000000      1.00000000      1.00000000      1.00000000      1.00000000      1.00000000      1.00000000      1.00000000      1.00000000      1.00000000      1.00000000      1.00000000      1.00000000      1.00000000
      1.00000000      1.00000000      1.00000000      1.00000000      1.00000000      1.00000000      1.00000000      1.00000000</v>
    <i name="NUPDOWN">     -1.00000000</i>
    <i type="logical" name="LSORBIT"> F  </i>
    <v name="SAXIS">      0.00000000      0.00000000      1.00000000</v>
    <i type="logical" name="LSPIRAL"> F  </i>
    <v name="QSPIRAL">      0.00000000      0.00000000      0.00000000</v>
    <i type="logical" name="LZEROZ"> F  </i>
   </separator>
   <separator name="electronic exchange-correlation" >
    <i type="logical" name="LASPH"> F  </i>
    <i type="logical" name="LMETAGGA"> F  </i>
   </separator>
   <separator name="electronic convergence" >
    <i type="int" name="NELM">   100</i>
    <i type="int" name="NELMDL">     0</i>
    <i type="int" name="NELMIN">     4</i>
    <i name="ENINI">    450.00000000</i>
    <separator name="electronic convergence detail" >
     <i type="logical" name="LDIAG"> T  </i>
     <i type="logical" name="LSUBROT"> F  </i>
     <i name="WEIMIN">      0.00100000</i>
     <i name="EBREAK">      0.00000000</i>
     <i name="DEPER">      0.30000000</i>
     <i type="int" name="NRMM">     4</i>
     <i name="TIME">      0.40000000</i>
    </separator>
   </separator>
   <separator name="electronic mixer" >
    <i name="AMIX">      0.40000000</i>
    <i name="BMIX">      1.00000000</i>
    <i name="AMIN">      0.10000000</i>
    <i name="AMIX_MAG">      1.60000000</i>
    <i name="BMIX_MAG">      1.00000000</i>
    <separator name="electronic mixer details" >
     <i type="int" name="IMIX">     4</i>
     <i type="logical" name="MIXFIRST"> F  </i>
     <i type="int" name="MAXMIX">   -45</i>
     <i name="WC">    100.00000000</i>
     <i type="int" name="INIMIX">     1</i>
     <i type="int" name="MIXPRE">     1</i>
     <i type="int" name="MREMOVE">     5</i>
    </separator>
   </separator>
   <separator name="electronic dipolcorrection" >
    <i type="logical" name="LDIPOL"> F  </i>
    <i type="logical" name="LMONO"> F  </i>
    <i type="int" name="IDIPOL">     0</i>
    <i name="EPSILON">      1.00000000</i>
    <v name="DIPOL">   -100.00000000   -100.00000000   -100.00000000</v>
    <i name="EFIELD">      0.00000000</i>
   </separator>
  </separator>
  <separator name="grids" >
   <i type="int" name="NGX">    70</i>
   <i type="int" name="NGY">    60</i>
   <i type="int" name="NGZ">   320</i>
   <i type="int" name="NGXF">   140</i>
   <i type="int" name="NGYF">   120</i>
   <i type="int" name="NGZF">   640</i>
   <i type="logical" name="ADDGRID"> F  </i>
  </separator>
  <separator name="ionic" >
   <i type="int" name="NSW">     5</i>
   <i type="int" name="IBRION">     2</i>
   <i type="int" name="MDALGO">     0</i>
   <i type="int" name="ISIF">     2</i>
   <i name="PSTRESS">      0.00000000</i>
   <i name="EDIFFG">      0.00001000</i>
   <i type="int" name="NFREE">     1</i>
   <i name="POTIM">      0.25000000</i>
   <i name="SMASS">     -3.00000000</i>
   <i name="SCALEE">      1.00000000</i>
  </separator>
  <separator name="ionic md" >
   <i name="TEBEG">      0.00010000</i>
   <i name="TEEND">      0.00010000</i>
   <i type="int" name="NBLOCK">     1</i>
   <i type="int" name="KBLOCK">     5</i>
   <i type="int" name="NPACO">   256</i>
   <i name="APACO">     16.00000000</i>
  </separator>
  <separator name="symmetry" >
   <i type="int" name="ISYM">     2</i>
   <i name="SYMPREC">      0.00001000</i>
  </separator>
  <separator name="dos" >
   <i type="int" name="LORBIT">     0</i>
   <v name="RWIGS">     -1.00000000     -1.00000000</v>
   <i type="int" name="NEDOS">   301</i>
   <i name="EMIN">     10.00000000</i>
   <i name="EMAX">    -10.00000000</i>
   <i name="EFERMI">      0.00000000</i>
  </separator>
  <separator name="writing" >
   <i type="int" name="NWRITE">     2</i>
   <i type="logical" name="LWAVE"> F  </i>
   <i type="logical" name="LDOWNSAMPLE"> F  </i>
   <i type="logical" name="LCHARG"> F  </i>
   <i type="logical" name="LPARD"> F  </i>
   <i type="logical" name="LVTOT"> F  </i>
   <i type="logical" name="LVHAR"> F  </i>
   <i type="logical" name="LELF"> F  </i>
   <i type="logical" name="LOPTICS"> F  </i>
   <v name="STM">      0.00000000      0.00000000      0.00000000      0.00000000      0.00000000      0.00000000      0.00000000</v>
  </separator>
  <separator name="performance" >
   <i type="int" name="NPAR">    14</i>
   <i type="int" name="NSIM">     4</i>
   <i type="int" name="NBLK">    -1</i>
   <i type="logical" name="LPLANE"> T  </i>
   <i type="logical" name="LSCALAPACK"> T  </i>
   <i type="logical" name="LSCAAWARE"> T  </i>
   <i type="logical" name="LSCALU"> F  </i>
   <i type="logical" name="LASYNC"> F  </i>
   <i type="logical" name="LORBITALREAL"> F  </i>
  </separator>
  <separator name="miscellaneous" >
   <i type="int" name="IDIOT">     3</i>
   <i type="int" name="ISPECIAL">     0</i>
   <i type="logical" name="LMUSIC"> F  </i>
   <v name="POMASS">     55.84700000     54.93800000</v>
   <v name="DARWINR">      0.00000000      0.00000000</v>
   <v name="DARWINV">      1.00000000      1.00000000</v>
   <i type="logical" name="LCORR"> T  </i>
  </separator>
  <i type="logical" name="GGA_COMPAT"> T  </i>
  <i type="logical" name="LBERRY"> F  </i>
  <i type="int" name="ICORELEVEL">     0</i>
  <i type="logical" name="LDAU"> F  </i>
  <i type="int" name="I_CONSTRAINED_M">     0</i>
  <separator name="electronic exchange-correlation" >
   <i type="string" name="GGA">--</i>
   <i type="int" name="VOSKOWN">     0</i>
   <i type="logical" name="LHFCALC"> F  </i>
   <i type="string" name="PRECFOCK"></i>
   <i type="logical" name="LSYMGRAD"> F  </i>
   <i type="logical" name="LHFONE"> F  </i>
   <i type="logical" name="LRHFCALC"> F  </i>
   <i type="logical" name="LTHOMAS"> F  </i>
   <i type="logical" name="LMODELHF"> F  </i>
   <i name="ENCUT4O">     -1.00000000</i>
   <i type="int" name="EXXOEP">     0</i>
   <i type="int" name="FOURORBIT">     0</i>
   <i name="AEXX">      0.00000000</i>
   <i name="HFALPHA">      0.00000000</i>
   <i name="MCALPHA">      0.00000000</i>
   <i name="ALDAX">      1.00000000</i>
   <i name="AGGAX">      1.00000000</i>
   <i name="ALDAC">      1.00000000</i>
   <i name="AGGAC">      1.00000000</i>
   <i type="int" name="NKREDX">     1</i>
   <i type="int" name="NKREDY">     1</i>
   <i type="int" name="NKREDZ">     1</i>
   <i type="logical" name="SHIFTRED"> F  </i>
   <i type="logical" name="ODDONLY"> F  </i>
   <i type="logical" name="EVENONLY"> F  </i>
   <i type="int" name="LMAXFOCK">     0</i>
   <i type="int" name="NMAXFOCKAE">     0</i>
   <i type="logical" name="LFOCKAEDFT"> F  </i>
   <i name="HFSCREEN">      0.00000000</i>
   <i name="HFSCREENC">      0.00000000</i>
   <i type="int" name="NBANDSGWLOW">     0</i>
  </separator>
  <separator name="vdW DFT" >
   <i type="logical" name="LUSE_VDW"> F  </i>
   <i name="Zab_VDW">     -0.84910000</i>
   <i name="PARAM1">      0.12340000</i>
   <i name="PARAM2">      1.00000000</i>
   <i name="PARAM3">      0.00000000</i>
  </separator>
  <separator name="model GW" >
   <i type="int" name="MODEL_GW">     0</i>
   <i name="MODEL_EPS0">      7.68123389</i>
   <i name="MODEL_ALPHA">      1.00000000</i>
  </separator>
  <separator name="linear response parameters" >
   <i type="logical" name="LEPSILON"> F  </i>
   <i type="logical" name="LRPA"> F  </i>
   <i type="logical" name="LNABLA"> F  </i>
   <i type="logical" name="LVEL"> F  </i>
   <i type="int" name="KINTER">     0</i>
   <i name="CSHIFT">      0.10000000</i>
   <i name="OMEGAMAX">     -1.00000000</i>
   <i name="DEG_THRESHOLD">      0.00200000</i>
   <i name="RTIME">     -0.10000000</i>
   <i name="WPLASMAI">      0.00000000</i>
   <v name="DFIELD">      0.00000000      0.00000000      0.00000000</v>
   <v name="WPLASMA">      0.00000000      0.00000000      0.00000000      0.00000000      0.00000000      0.00000000      0.00000000      0.00000000      0.00000000</v>
  </separator>
  <separator name="orbital magnetization" >
   <i type="logical" name="NUCIND"> F  </i>
   <v name="MAGPOS">      0.00000000      0.00000000      0.00000000</v>
   <i type="logical" name="LNICSALL"> T  </i>
   <i type="logical" name="ORBITALMAG"> F  </i>
   <i type="logical" name="LMAGBLOCH"> F  </i>
   <i type="logical" name="LCHIMAG"> F  </i>
   <i type="logical" name="LGAUGE"> T  </i>
   <i type="int" name="MAGATOM">     0</i>
   <v name="MAGDIPOL">      0.00000000      0.00000000      0.00000000</v>
   <v name="AVECCONST">      0.00000000      0.00000000      0.00000000</v>
  </separator>
  <separator name="response functions" >
   <i type="logical" name="LADDER"> F  </i>
   <i type="logical" name="LRPAFORCE"> F  </i>
   <i type="logical" name="LFXC"> F  </i>
   <i type="logical" name="LHARTREE"> T  </i>
   <i type="int" name="IBSE">     0</i>
   <v type="int" name="KPOINT">    -1     0     0     0</v>
   <i type="logical" name="LTCTE"> F  </i>
   <i type="logical" name="LTETE"> F  </i>
   <i type="logical" name="LTRIPLET"> F  </i>
   <i type="logical" name="LFXCEPS"> F  </i>
   <i type="logical" name="LFXHEG"> F  </i>
   <i type="int" name="NATURALO">     2</i>
   <i type="logical" name="L2ORDER"> F  </i>
   <i type="logical" name="LMP2LT"> F  </i>
   <i type="logical" name="LUSEW"> F  </i>
   <i name="ENCUTGW">     -2.00000000</i>
   <i name="ENCUTGWSOFT">     -2.00000000</i>
   <i name="ENCUTLF">     -1.00000000</i>
   <i type="int" name="LMAXMP2">    -1</i>
   <i name="SCISSOR">      0.00000000</i>
   <i type="int" name="NOMEGA">     0</i>
   <i type="int" name="NOMEGAR">     0</i>
   <i type="int" name="NBANDSGW">    -1</i>
   <i type="int" name="NBANDSO">    -1</i>
   <i type="int" name="NBANDSV">    -1</i>
   <i type="int" name="NELM">   100</i>
   <i type="int" name="NELMHF">     1</i>
   <i type="int" name="DIM">     3</i>
   <i type="int" name="ANTIRES">     0</i>
   <i name="OMEGAMAX">    -30.00000000</i>
   <i name="OMEGAMIN">    -30.00000000</i>
   <i name="OMEGATL">   -200.00000000</i>
   <i type="int" name="OMEGAGRID">   140</i>
   <i name="CSHIFT">     -0.10000000</i>
   <i type="logical" name="SELFENERGY"> F  </i>
   <i type="logical" name="LSPECTRAL"> F  </i>
   <i type="logical" name="LSPECTRALGW"> F  </i>
   <i type="logical" name="LSINGLES"> F  </i>
   <i type="logical" name="LFERMIGW"> F  </i>
   <i type="logical" name="ODDONLYGW"> F  </i>
   <i type="logical" name="EVENONLYGW"> F  </i>
   <i type="int" name="NKREDLFX">     1</i>
   <i type="int" name="NKREDLFY">     1</i>
   <i type="int" name="NKREDLFZ">     1</i>
   <i type="int" name="MAXMEM">  2800</i>
   <i type="int" name="TELESCOPE">     0</i>
   <i type="int" name="TAUPAR">     1</i>
   <i type="int" name="OMEGAPAR">    -1</i>
   <i name="LAMBDA">      1.00000000</i>
  </separator>
  <separator name="External order field" >
   <i name="OFIELD_KAPPA">      0.00000000</i>
   <v name="OFIELD_K">      0.00000000      0.00000000      0.00000000</v>
   <i name="OFIELD_Q6_NEAR">      0.00000000</i>
   <i name="OFIELD_Q6_FAR">      0.00000000</i>
   <i name="OFIELD_A">      0.00000000</i>
  </separator>
 </parameters>
 <atominfo>
  <atoms>     288 </atoms>
  <types>       2 </types>
  <array name="atoms" >
   <dimension dim="1">ion</dimension>
   <field type="string">element</field>
   <field type="int">atomtype</field>
   <set>
    <rc><c>Fe</c><c>   1</c></rc>
    <rc><c>Fe</c><c>   1</c></rc>
    <rc><c>Fe</c><c>   1</c></rc>
    <rc><c>Fe</c><c>   1</c></rc>
    <rc><c>Fe</c><c>   1</c></rc>
    <rc><c>Fe</c><c>   1</c></rc>
    <rc><c>Fe</c><c>   1</c></rc>
    <rc><c>Fe</c><c>   1</c></rc>
    <rc><c>Fe</c><c>   1</c></rc>
    <rc><c>Fe</c><c>   1</c></rc>
    <rc><c>Fe</c><c>   1</c></rc>
    <rc><c>Fe</c><c>   1</c></rc>
    <rc><c>Fe</c><c>   1</c></rc>
    <rc><c>Fe</c><c>   1</c></rc>
    <rc><c>Fe</c><c>   1</c></rc>
    <rc><c>Fe</c><c>   1</c></rc>
    <rc><c>Fe</c><c>   1</c></rc>
    <rc><c>Fe</c><c>   1</c></rc>
    <rc><c>Fe</c><c>   1</c></rc>
    <rc><c>Fe</c><c>   1</c></rc>
    <rc><c>Fe</c><c>   1</c></rc>
    <rc><c>Fe</c><c>   1</c></rc>
    <rc><c>Fe</c><c>   1</c></rc>
    <rc><c>Fe</c><c>   1</c></rc>
    <rc><c>Fe</c><c>   1</c></rc>
    <rc><c>Fe</c><c>   1</c></rc>
    <rc><c>Fe</c><c>   1</c></rc>
    <rc><c>Fe</c><c>   1</c></rc>
    <rc><c>Fe</c><c>   1</c></rc>
    <rc><c>Fe</c><c>   1</c></rc>
    <rc><c>Fe</c><c>   1</c></rc>
    <rc><c>Fe</c><c>   1</c></rc>
    <rc><c>Fe</c><c>   1</c></rc>
    <rc><c>Fe</c><c>   1</c></rc>
    <rc><c>Fe</c><c>   1</c></rc>
    <rc><c>Fe</c><c>   1</c></rc>
    <rc><c>Fe</c><c>   1</c></rc>
    <rc><c>Fe</c><c>   1</c></rc>
    <rc><c>Fe</c><c>   1</c></rc>
    <rc><c>Fe</c><c>   1</c></rc>
    <rc><c>Fe</c><c>   1</c></rc>
    <rc><c>Fe</c><c>   1</c></rc>
    <rc><c>Fe</c><c>   1</c></rc>
    <rc><c>Fe</c><c>   1</c></rc>
    <rc><c>Fe</c><c>   1</c></rc>
    <rc><c>Fe</c><c>   1</c></rc>
    <rc><c>Fe</c><c>   1</c></rc>
    <rc><c>Fe</c><c>   1</c></rc>
    <rc><c>Fe</c><c>   1</c></rc>
    <rc><c>Fe</c><c>   1</c></rc>
    <rc><c>Fe</c><c>   1</c></rc>
    <rc><c>Fe</c><c>   1</c></rc>
    <rc><c>Fe</c><c>   1</c></rc>
    <rc><c>Fe</c><c>   1</c></rc>
    <rc><c>Fe</c><c>   1</c></rc>
    <rc><c>Fe</c><c>   1</c></rc>
    <rc><c>Fe</c><c>   1</c></rc>
    <rc><c>Fe</c><c>   1</c></rc>
    <rc><c>Fe</c><c>   1</c></rc>
    <rc><c>Fe</c><c>   1</c></rc>
    <rc><c>Fe</c><c>   1</c></rc>
    <rc><c>Fe</c><c>   1</c></rc>
    <rc><c>Fe</c><c>   1</c></rc>
    <rc><c>Fe</c><c>   1</c></rc>
    <rc><c>Fe</c><c>   1</c></rc>
    <rc><c>Fe</c><c>   1</c></rc>
    <rc><c>Fe</c><c>   1</c></rc>
    <rc><c>Fe</c><c>   1</c></rc>
    <rc><c>Fe</c><c>   1</c></rc>
    <rc><c>Fe</c><c>   1</c></rc>
    <rc><c>Fe</c><c>   1</c></rc>
    <rc><c>Fe</c><c>   1</c></rc>
    <rc><c>Fe</c><c>   1</c></rc>
    <rc><c>Fe</c><c>   1</c></rc>
    <rc><c>Fe</c><c>   1</c></rc>
    <rc><c>Fe</c><c>   1</c></rc>
    <rc><c>Fe</c><c>   1</c></rc>
    <rc><c>Fe</c><c>   1</c></rc>
    <rc><c>Fe</c><c>   1</c></rc>
    <rc><c>Fe</c><c>   1</c></rc>
    <rc><c>Fe</c><c>   1</c></rc>
    <rc><c>Fe</c><c>   1</c></rc>
    <rc><c>Fe</c><c>   1</c></rc>
    <rc><c>Fe</c><c>   1</c></rc>
    <rc><c>Fe</c><c>   1</c></rc>
    <rc><c>Fe</c><c>   1</c></rc>
    <rc><c>Fe</c><c>   1</c></rc>
    <rc><c>Fe</c><c>   1</c></rc>
    <rc><c>Fe</c><c>   1</c></rc>
    <rc><c>Fe</c><c>   1</c></rc>
    <rc><c>Fe</c><c>   1</c></rc>
    <rc><c>Fe</c><c>   1</c></rc>
    <rc><c>Fe</c><c>   1</c></rc>
    <rc><c>Fe</c><c>   1</c></rc>
    <rc><c>Fe</c><c>   1</c></rc>
    <rc><c>Fe</c><c>   1</c></rc>
    <rc><c>Fe</c><c>   1</c></rc>
    <rc><c>Fe</c><c>   1</c></rc>
    <rc><c>Fe</c><c>   1</c></rc>
    <rc><c>Fe</c><c>   1</c></rc>
    <rc><c>Fe</c><c>   1</c></rc>
    <rc><c>Fe</c><c>   1</c></rc>
    <rc><c>Fe</c><c>   1</c></rc>
    <rc><c>Fe</c><c>   1</c></rc>
    <rc><c>Fe</c><c>   1</c></rc>
    <rc><c>Fe</c><c>   1</c></rc>
    <rc><c>Fe</c><c>   1</c></rc>
    <rc><c>Fe</c><c>   1</c></rc>
    <rc><c>Fe</c><c>   1</c></rc>
    <rc><c>Fe</c><c>   1</c></rc>
    <rc><c>Fe</c><c>   1</c></rc>
    <rc><c>Fe</c><c>   1</c></rc>
    <rc><c>Fe</c><c>   1</c></rc>
    <rc><c>Fe</c><c>   1</c></rc>
    <rc><c>Fe</c><c>   1</c></rc>
    <rc><c>Fe</c><c>   1</c></rc>
    <rc><c>Fe</c><c>   1</c></rc>
    <rc><c>Fe</c><c>   1</c></rc>
    <rc><c>Fe</c><c>   1</c></rc>
    <rc><c>Fe</c><c>   1</c></rc>
    <rc><c>Fe</c><c>   1</c></rc>
    <rc><c>Fe</c><c>   1</c></rc>
    <rc><c>Fe</c><c>   1</c></rc>
    <rc><c>Fe</c><c>   1</c></rc>
    <rc><c>Fe</c><c>   1</c></rc>
    <rc><c>Fe</c><c>   1</c></rc>
    <rc><c>Fe</c><c>   1</c></rc>
    <rc><c>Fe</c><c>   1</c></rc>
    <rc><c>Fe</c><c>   1</c></rc>
    <rc><c>Fe</c><c>   1</c></rc>
    <rc><c>Fe</c><c>   1</c></rc>
    <rc><c>Fe</c><c>   1</c></rc>
    <rc><c>Fe</c><c>   1</c></rc>
    <rc><c>Fe</c><c>   1</c></rc>
    <rc><c>Fe</c><c>   1</c></rc>
    <rc><c>Fe</c><c>   1</c></rc>
    <rc><c>Fe</c><c>   1</c></rc>
    <rc><c>Fe</c><c>   1</c></rc>
    <rc><c>Fe</c><c>   1</c></rc>
    <rc><c>Fe</c><c>   1</c></rc>
    <rc><c>Fe</c><c>   1</c></rc>
    <rc><c>Fe</c><c>   1</c></rc>
    <rc><c>Fe</c><c>   1</c></rc>
    <rc><c>Fe</c><c>   1</c></rc>
    <rc><c>Fe</c><c>   1</c></rc>
    <rc><c>Fe</c><c>   1</c></rc>
    <rc><c>Fe</c><c>   1</c></rc>
    <rc><c>Fe</c><c>   1</c></rc>
    <rc><c>Fe</c><c>   1</c></rc>
    <rc><c>Fe</c><c>   1</c></rc>
    <rc><c>Fe</c><c>   1</c></rc>
    <rc><c>Fe</c><c>   1</c></rc>
    <rc><c>Fe</c><c>   1</c></rc>
    <rc><c>Fe</c><c>   1</c></rc>
    <rc><c>Fe</c><c>   1</c></rc>
    <rc><c>Fe</c><c>   1</c></rc>
    <rc><c>Fe</c><c>   1</c></rc>
    <rc><c>Fe</c><c>   1</c></rc>
    <rc><c>Fe</c><c>   1</c></rc>
    <rc><c>Fe</c><c>   1</c></rc>
    <rc><c>Fe</c><c>   1</c></rc>
    <rc><c>Fe</c><c>   1</c></rc>
    <rc><c>Fe</c><c>   1</c></rc>
    <rc><c>Fe</c><c>   1</c></rc>
    <rc><c>Fe</c><c>   1</c></rc>
    <rc><c>Fe</c><c>   1</c></rc>
    <rc><c>Fe</c><c>   1</c></rc>
    <rc><c>Fe</c><c>   1</c></rc>
    <rc><c>Fe</c><c>   1</c></rc>
    <rc><c>Fe</c><c>   1</c></rc>
    <rc><c>Fe</c><c>   1</c></rc>
    <rc><c>Fe</c><c>   1</c></rc>
    <rc><c>Fe</c><c>   1</c></rc>
    <rc><c>Fe</c><c>   1</c></rc>
    <rc><c>Fe</c><c>   1</c></rc>
    <rc><c>Fe</c><c>   1</c></rc>
    <rc><c>Fe</c><c>   1</c></rc>
    <rc><c>Fe</c><c>   1</c></rc>
    <rc><c>Fe</c><c>   1</c></rc>
    <rc><c>Fe</c><c>   1</c></rc>
    <rc><c>Fe</c><c>   1</c></rc>
    <rc><c>Fe</c><c>   1</c></rc>
    <rc><c>Fe</c><c>   1</c></rc>
    <rc><c>Fe</c><c>   1</c></rc>
    <rc><c>Fe</c><c>   1</c></rc>
    <rc><c>Fe</c><c>   1</c></rc>
    <rc><c>Fe</c><c>   1</c></rc>
    <rc><c>Fe</c><c>   1</c></rc>
    <rc><c>Fe</c><c>   1</c></rc>
    <rc><c>Fe</c><c>   1</c></rc>
    <rc><c>Fe</c><c>   1</c></rc>
    <rc><c>Fe</c><c>   1</c></rc>
    <rc><c>Fe</c><c>   1</c></rc>
    <rc><c>Fe</c><c>   1</c></rc>
    <rc><c>Fe</c><c>   1</c></rc>
    <rc><c>Fe</c><c>   1</c></rc>
    <rc><c>Fe</c><c>   1</c></rc>
    <rc><c>Fe</c><c>   1</c></rc>
    <rc><c>Fe</c><c>   1</c></rc>
    <rc><c>Fe</c><c>   1</c></rc>
    <rc><c>Fe</c><c>   1</c></rc>
    <rc><c>Fe</c><c>   1</c></rc>
    <rc><c>Fe</c><c>   1</c></rc>
    <rc><c>Fe</c><c>   1</c></rc>
    <rc><c>Fe</c><c>   1</c></rc>
    <rc><c>Fe</c><c>   1</c></rc>
    <rc><c>Fe</c><c>   1</c></rc>
    <rc><c>Fe</c><c>   1</c></rc>
    <rc><c>Fe</c><c>   1</c></rc>
    <rc><c>Fe</c><c>   1</c></rc>
    <rc><c>Fe</c><c>   1</c></rc>
    <rc><c>Fe</c><c>   1</c></rc>
    <rc><c>Fe</c><c>   1</c></rc>
    <rc><c>Fe</c><c>   1</c></rc>
    <rc><c>Fe</c><c>   1</c></rc>
    <rc><c>Fe</c><c>   1</c></rc>
    <rc><c>Fe</c><c>   1</c></rc>
    <rc><c>Fe</c><c>   1</c></rc>
    <rc><c>Fe</c><c>   1</c></rc>
    <rc><c>Fe</c><c>   1</c></rc>
    <rc><c>Fe</c><c>   1</c></rc>
    <rc><c>Fe</c><c>   1</c></rc>
    <rc><c>Fe</c><c>   1</c></rc>
    <rc><c>Fe</c><c>   1</c></rc>
    <rc><c>Fe</c><c>   1</c></rc>
    <rc><c>Fe</c><c>   1</c></rc>
    <rc><c>Fe</c><c>   1</c></rc>
    <rc><c>Fe</c><c>   1</c></rc>
    <rc><c>Fe</c><c>   1</c></rc>
    <rc><c>Fe</c><c>   1</c></rc>
    <rc><c>Fe</c><c>   1</c></rc>
    <rc><c>Fe</c><c>   1</c></rc>
    <rc><c>Fe</c><c>   1</c></rc>
    <rc><c>Fe</c><c>   1</c></rc>
    <rc><c>Fe</c><c>   1</c></rc>
    <rc><c>Fe</c><c>   1</c></rc>
    <rc><c>Fe</c><c>   1</c></rc>
    <rc><c>Fe</c><c>   1</c></rc>
    <rc><c>Fe</c><c>   1</c></rc>
    <rc><c>Fe</c><c>   1</c></rc>
    <rc><c>Fe</c><c>   1</c></rc>
    <rc><c>Fe</c><c>   1</c></rc>
    <rc><c>Fe</c><c>   1</c></rc>
    <rc><c>Fe</c><c>   1</c></rc>
    <rc><c>Fe</c><c>   1</c></rc>
    <rc><c>Fe</c><c>   1</c></rc>
    <rc><c>Fe</c><c>   1</c></rc>
    <rc><c>Fe</c><c>   1</c></rc>
    <rc><c>Fe</c><c>   1</c></rc>
    <rc><c>Fe</c><c>   1</c></rc>
    <rc><c>Fe</c><c>   1</c></rc>
    <rc><c>Fe</c><c>   1</c></rc>
    <rc><c>Fe</c><c>   1</c></rc>
    <rc><c>Fe</c><c>   1</c></rc>
    <rc><c>Fe</c><c>   1</c></rc>
    <rc><c>Fe</c><c>   1</c></rc>
    <rc><c>Fe</c><c>   1</c></rc>
    <rc><c>Fe</c><c>   1</c></rc>
    <rc><c>Fe</c><c>   1</c></rc>
    <rc><c>Fe</c><c>   1</c></rc>
    <rc><c>Fe</c><c>   1</c></rc>
    <rc><c>Fe</c><c>   1</c></rc>
    <rc><c>Fe</c><c>   1</c></rc>
    <rc><c>Fe</c><c>   1</c></rc>
    <rc><c>Fe</c><c>   1</c></rc>
    <rc><c>Fe</c><c>   1</c></rc>
    <rc><c>Fe</c><c>   1</c></rc>
    <rc><c>Fe</c><c>   1</c></rc>
    <rc><c>Fe</c><c>   1</c></rc>
    <rc><c>Fe</c><c>   1</c></rc>
    <rc><c>Fe</c><c>   1</c></rc>
    <rc><c>Fe</c><c>   1</c></rc>
    <rc><c>Fe</c><c>   1</c></rc>
    <rc><c>Fe</c><c>   1</c></rc>
    <rc><c>Mn</c><c>   2</c></rc>
    <rc><c>Mn</c><c>   2</c></rc>
    <rc><c>Mn</c><c>   2</c></rc>
    <rc><c>Mn</c><c>   2</c></rc>
    <rc><c>Mn</c><c>   2</c></rc>
    <rc><c>Mn</c><c>   2</c></rc>
    <rc><c>Mn</c><c>   2</c></rc>
    <rc><c>Mn</c><c>   2</c></rc>
    <rc><c>Mn</c><c>   2</c></rc>
    <rc><c>Mn</c><c>   2</c></rc>
    <rc><c>Mn</c><c>   2</c></rc>
    <rc><c>Mn</c><c>   2</c></rc>
    <rc><c>Mn</c><c>   2</c></rc>
    <rc><c>Mn</c><c>   2</c></rc>
   </set>
  </array>
  <array name="atomtypes" >
   <dimension dim="1">type</dimension>
   <field type="int">atomspertype</field>
   <field type="string">element</field>
   <field>mass</field>
   <field>valence</field>
   <field type="string">pseudopotential</field>
   <set>
    <rc><c> 274</c><c>Fe</c><c>     55.84700000</c><c>      8.00000000</c><c>  PAW_PBE Fe_GW 31Mar2010               </c></rc>
    <rc><c>  14</c><c>Mn</c><c>     54.93800000</c><c>      7.00000000</c><c>  PAW_PBE Mn_GW 31Mar2010               </c></rc>
   </set>
  </array>
 </atominfo>
 <structure name="initialpos" >
  <crystal>
   <varray name="basis" >
    <v>       9.72667804       0.00000000       0.00000000 </v>
    <v>       0.00000000       8.42355028       0.00000000 </v>
    <v>       0.00000000       0.00000000      45.00000000 </v>
   </varray>
   <i name="volume">   3686.99226691 </i>
   <varray name="rec_basis" >
    <v>       0.10281002       0.00000000       0.00000000 </v>
    <v>       0.00000000       0.11871479       0.00000000 </v>
    <v>       0.00000000       0.00000000       0.02222222 </v>
   </varray>
  </crystal>
  <varray name="positions" >
   <v>       0.06190054       0.02916378       0.12409523 </v>
   <v>       0.31620996       0.87471118       0.65493171 </v>
   <v>       0.18401418       0.12365039       0.78850347 </v>
   <v>       0.44152555       0.28763590       0.38909729 </v>
   <v>       0.31788695       0.71380898       0.83338067 </v>
   <v>       0.81777425       0.21555051       0.83364634 </v>
   <v>       0.19153007       0.96269049       0.83349609 </v>
   <v>       0.56217946       0.20701572       0.56551845 </v>
   <v>       0.06570783       0.04124452       0.74438114 </v>
   <v>       0.81166681       0.87138080       0.52136925 </v>
   <v>       0.18981875       0.29156470       0.74432961 </v>
   <v>       0.93348619       0.45246490       0.34490769 </v>
   <v>       0.94104432       0.28645507       0.38893816 </v>
   <v>       0.81232160       0.04032292       0.87584311 </v>
   <v>       0.18396960       0.78822072       0.61097171 </v>
   <v>       0.56645384       0.03784613       0.38905030 </v>
   <v>       0.94196077       0.96369612       0.83372980 </v>
   <v>       0.31264401       0.54090493       0.87598464 </v>
   <v>       0.68944391       0.29108468       0.74419740 </v>
   <v>       0.18213422       0.61353455       0.16662580 </v>
   <v>       0.81221769       0.20586073       0.47869274 </v>
   <v>       0.80929500       0.53841973       0.61106971 </v>
   <v>       0.31176555       0.87042302       0.43446278 </v>
   <v>       0.80967376       0.03777455       0.25596333 </v>
   <v>       0.68294504       0.95179663       0.34474266 </v>
   <v>       0.93086644       0.11444554       0.16688437 </v>
   <v>       0.06170013       0.87160867       0.52138201 </v>
   <v>       0.55790931       0.53784169       0.25562393 </v>
   <v>       0.68556626       0.79762608       0.87613822 </v>
   <v>       0.55638160       0.36527857       0.16659640 </v>
   <v>       0.44024341       0.79174560       0.74426149 </v>
   <v>       0.81128353       0.70674701       0.56550577 </v>
   <v>       0.55930636       0.87352783       0.78859759 </v>
   <v>       0.68669392       0.12170539       0.52138337 </v>
   <v>       0.81627257       0.37504591       0.65501738 </v>
   <v>       0.94172757       0.46369633       0.83365085 </v>
   <v>       0.06054497       0.20758362       0.69974194 </v>
   <v>       0.43529091       0.95798900       0.69969341 </v>
   <v>       0.31777137       0.21378461       0.83337282 </v>
   <v>       0.44116754       0.62482683       0.65489281 </v>
   <v>       0.30911766       0.53829516       0.61102516 </v>
   <v>       0.93644735       0.45660041       0.56557434 </v>
   <v>       0.68976941       0.79185703       0.74417795 </v>
   <v>       0.93412557       0.78839328       0.12441190 </v>
   <v>       0.69153123       0.78775286       0.38906407 </v>
   <v>       0.93991573       0.79094549       0.74448634 </v>
   <v>       0.05867379       0.20279741       0.34496200 </v>
   <v>       0.68377964       0.45243053       0.34499593 </v>
   <v>       0.43354155       0.12318045       0.78906360 </v>
   <v>       0.06501501       0.20379533       0.21107645 </v>
   <v>       0.05529648       0.36548551       0.16663358 </v>
   <v>       0.93345733       0.78724748       0.25557466 </v>
   <v>       0.56077159       0.20727668       0.69976726 </v>
   <v>       0.68551530       0.95773765       0.69973534 </v>
   <v>       0.80933770       0.87402309       0.78851836 </v>
   <v>       0.43680590       0.95733905       0.56540077 </v>
   <v>       0.80930788       0.37394047       0.78853304 </v>
   <v>       0.68423660       0.28794297       0.25603692 </v>
   <v>       0.18717358       0.45707228       0.56549930 </v>
   <v>       0.05597850       0.86527584       0.16661596 </v>
   <v>       0.18414856       0.28859570       0.61106552 </v>
   <v>       0.06213265       0.20690735       0.56540450 </v>
   <v>       0.31075076       0.20729337       0.69979710 </v>
   <v>       0.56261286       0.54109919       0.87600235 </v>
   <v>       0.06229430       0.70675083       0.56551457 </v>
   <v>       0.68294441       0.62317074       0.78881401 </v>
   <v>       0.31587392       0.53828751       0.38889392 </v>
   <v>       0.18692572       0.62151001       0.52144842 </v>
   <v>       0.56259819       0.87052053       0.43443351 </v>
   <v>       0.43662831       0.45684586       0.56554311 </v>
   <v>       0.43985613       0.29160112       0.74432502 </v>
   <v>       0.82114026       0.87364494       0.30018483 </v>
   <v>       0.80868205       0.70252897       0.34491592 </v>
   <v>       0.44170489       0.46257891       0.83348851 </v>
   <v>       0.68745697       0.95588481       0.47869131 </v>
   <v>       0.68529692       0.45814873       0.69971792 </v>
   <v>       0.56200658       0.87196818       0.52145032 </v>
   <v>       0.56637255       0.37491485       0.65490449 </v>
   <v>       0.81634966       0.87495393       0.65501121 </v>
   <v>       0.81184230       0.37172438       0.43420119 </v>
   <v>       0.80874078       0.53698475       0.25590205 </v>
   <v>       0.69201251       0.46210295       0.83342297 </v>
   <v>       0.18606021       0.78819091       0.12405444 </v>
   <v>       0.69128827       0.28735915       0.38904365 </v>
   <v>       0.31625632       0.37424213       0.65494595 </v>
   <v>       0.30880871       0.20272981       0.34468691 </v>
   <v>       0.81535311       0.54097529       0.74428952 </v>
   <v>       0.69172130       0.96252625       0.83352572 </v>
   <v>       0.56601646       0.87510537       0.65504090 </v>
   <v>       0.31142972       0.70671994       0.56552644 </v>
   <v>       0.31269127       0.52979421       0.12392174 </v>
   <v>       0.68948296       0.95462385       0.21176200 </v>
   <v>       0.31143710       0.20674215       0.56552674 </v>
   <v>       0.18745942       0.95593970       0.47872619 </v>
   <v>       0.68723631       0.95697122       0.56549721 </v>
   <v>       0.43391329       0.78827504       0.61096933 </v>
   <v>       0.68241076       0.61218553       0.16628874 </v>
   <v>       0.31935331       0.87373895       0.30014831 </v>
   <v>       0.31226703       0.70580550       0.47865560 </v>
   <v>       0.93376822       0.28794727       0.61090297 </v>
   <v>       0.44601853       0.62332923       0.30015213 </v>
   <v>       0.80715994       0.86353331       0.16683279 </v>
   <v>       0.56660281       0.20307990       0.21141311 </v>
   <v>       0.93242695       0.61304580       0.16666052 </v>
   <v>       0.43735963       0.95574978       0.47867303 </v>
   <v>       0.55952262       0.37289455       0.78856873 </v>
   <v>       0.06158089       0.37238797       0.52139365 </v>
   <v>       0.30710928       0.36421452       0.16661259 </v>
   <v>       0.69553811       0.12286341       0.30027163 </v>
   <v>       0.44224544       0.96302397       0.83338948 </v>
   <v>       0.18502932       0.28647912       0.12415507 </v>
   <v>       0.18385574       0.28730232       0.25584058 </v>
   <v>       0.31239121       0.37036630       0.43448729 </v>
   <v>       0.56275201       0.03219795       0.12425356 </v>
   <v>       0.43382488       0.28843193       0.61093442 </v>
   <v>       0.18364268       0.45271882       0.34492207 </v>
   <v>       0.43454782       0.28664769       0.12412518 </v>
   <v>       0.68359745       0.78759412       0.25580898 </v>
   <v>       0.43683266       0.12169458       0.52145007 </v>
   <v>       0.18791252       0.29744722       0.87609626 </v>
   <v>       0.19120555       0.12502755       0.65510769 </v>
   <v>       0.94127096       0.12475371       0.65494718 </v>
   <v>       0.81632169       0.53758050       0.38901634 </v>
   <v>       0.06662106       0.03810018       0.38914647 </v>
   <v>       0.18347365       0.11214698       0.16645909 </v>
   <v>       0.05869076       0.53795379       0.61091791 </v>
   <v>       0.93410905       0.28770833       0.25591774 </v>
   <v>       0.55901822       0.53847011       0.61104678 </v>
   <v>       0.93687013       0.95726020       0.56551109 </v>
   <v>       0.69506286       0.62410006       0.30012310 </v>
   <v>       0.93749163       0.62046238       0.43444880 </v>
   <v>       0.93306434       0.62486959       0.78866178 </v>
   <v>       0.56086233       0.70764936       0.69974762 </v>
   <v>       0.06661137       0.71576177       0.83371617 </v>
   <v>       0.94553569       0.12278681       0.30010626 </v>
   <v>       0.93376880       0.78781082       0.61099130 </v>
   <v>       0.43318872       0.78748166       0.25559209 </v>
   <v>       0.30954137       0.37368923       0.78864335 </v>
   <v>       0.43974949       0.45384630       0.21132236 </v>
   <v>       0.18697216       0.12188703       0.52136134 </v>
   <v>       0.81073576       0.70784491       0.69971380 </v>
   <v>       0.05874997       0.03788772       0.61090061 </v>
   <v>       0.56637578       0.21372172       0.83331220 </v>
   <v>       0.31180604       0.87181891       0.52140364 </v>
   <v>       0.68646886       0.28575907       0.12391697 </v>
   <v>       0.19014286       0.95461934       0.21169335 </v>
   <v>       0.68406376       0.28848343       0.61095179 </v>
   <v>       0.30874252       0.03821922       0.61099943 </v>
   <v>       0.93366469       0.12475044       0.78848142 </v>
   <v>       0.43632938       0.79774294       0.87633569 </v>
   <v>       0.81511113       0.04100331       0.74424814 </v>
   <v>       0.93519546       0.45814038       0.69971216 </v>
   <v>       0.19143138       0.62524546       0.65515227 </v>
   <v>       0.31063119       0.70723715       0.69977164 </v>
   <v>       0.93418899       0.28679299       0.12386685 </v>
   <v>       0.43745783       0.45593963       0.47857527 </v>
   <v>       0.06233644       0.70589735       0.47854071 </v>
   <v>       0.93688256       0.11970203       0.43460435 </v>
   <v>       0.44459141       0.12299136       0.30044609 </v>
   <v>       0.18722509       0.12038192       0.43426436 </v>
   <v>       0.56252154       0.04083462       0.87593239 </v>
   <v>       0.18674121       0.95707707       0.56552594 </v>
   <v>       0.68456479       0.78805537       0.12435292 </v>
   <v>       0.55891554       0.70225048       0.34488748 </v>
   <v>       0.31618070       0.03709103       0.38894176 </v>
   <v>       0.68247231       0.11394689       0.16687014 </v>
   <v>       0.81577342       0.20353028       0.21110009 </v>
   <v>       0.05930557       0.53711965       0.25572913 </v>
   <v>       0.56242707       0.70571384       0.47866673 </v>
   <v>       0.43499580       0.78701278       0.12413042 </v>
   <v>       0.57001641       0.37178444       0.30013561 </v>
   <v>       0.43344560       0.95251454       0.34492300 </v>
   <v>       0.18514779       0.95741856       0.69987328 </v>
   <v>       0.43168955       0.61291369       0.16608001 </v>
   <v>       0.93986347       0.45333333       0.21160070 </v>
   <v>       0.06179439       0.52966922       0.12404684 </v>
   <v>       0.81196022       0.37207652       0.52137809 </v>
   <v>       0.94504058       0.62329049       0.29985629 </v>
   <v>       0.30917664       0.03719599       0.25551061 </v>
   <v>       0.68392697       0.78812204       0.61088212 </v>
   <v>       0.19166646       0.46266035       0.83346372 </v>
   <v>       0.43244868       0.11196941       0.16656198 </v>
   <v>       0.31174790       0.37206526       0.52137250 </v>
   <v>       0.43341533       0.62366975       0.78903938 </v>
   <v>       0.05883778       0.03727804       0.25582420 </v>
   <v>       0.56223877       0.70713000       0.56550178 </v>
   <v>       0.93949443       0.29167992       0.74448327 </v>
   <v>       0.68265784       0.12303079       0.78867342 </v>
   <v>       0.18951636       0.45308776       0.21109668 </v>
   <v>       0.94128902       0.78756436       0.38888327 </v>
   <v>       0.68561782       0.29772946       0.87598689 </v>
   <v>       0.55635481       0.86241452       0.16631508 </v>
   <v>       0.43579241       0.45760120       0.69977653 </v>
   <v>       0.93396849       0.95105396       0.34476833 </v>
   <v>       0.68655808       0.62153068       0.52134566 </v>
   <v>       0.06603456       0.87407319       0.65500304 </v>
   <v>       0.05912205       0.87370606       0.78848396 </v>
   <v>       0.06619373       0.37456726       0.65490972 </v>
   <v>       0.68723813       0.45567101       0.47863084 </v>
   <v>       0.18364833       0.78728896       0.25546395 </v>
   <v>       0.43691878       0.12074276       0.43432906 </v>
   <v>       0.81420296       0.03062723       0.12403011 </v>
   <v>       0.93672832       0.62201998       0.52144013 </v>
   <v>       0.44124430       0.12451613       0.65494584 </v>
   <v>       0.81336920       0.52898418       0.12400038 </v>
   <v>       0.43375621       0.45248218       0.34500349 </v>
   <v>       0.80901611       0.20268090       0.34501701 </v>
   <v>       0.30910930       0.70195749       0.34483314 </v>
   <v>       0.69120997       0.12484600       0.65497634 </v>
   <v>       0.57054930       0.87311712       0.30028756 </v>
   <v>       0.06484250       0.54150302       0.74420115 </v>
   <v>       0.94075407       0.95395353       0.21125205 </v>
   <v>       0.81600615       0.70344998       0.21135364 </v>
   <v>       0.07056069       0.87329024       0.30028515 </v>
   <v>       0.19544312       0.12300876       0.30024373 </v>
   <v>       0.05850590       0.70204793       0.34487026 </v>
   <v>       0.80901204       0.03836302       0.61095784 </v>
   <v>       0.06292430       0.37163556       0.43432633 </v>
   <v>       0.55896378       0.20274685       0.34481081 </v>
   <v>       0.82073588       0.37299265       0.30005121 </v>
   <v>       0.56011534       0.03744711       0.25546567 </v>
   <v>       0.56642737       0.53767426       0.38902966 </v>
   <v>       0.06264029       0.20592192       0.47863923 </v>
   <v>       0.31000174       0.87300921       0.78857699 </v>
   <v>       0.93563591       0.95777319       0.69972142 </v>
   <v>       0.06975454       0.37448826       0.30003853 </v>
   <v>       0.69148649       0.62512650       0.65491386 </v>
   <v>       0.68665859       0.45678690       0.56539148 </v>
   <v>       0.44091890       0.95554211       0.21204243 </v>
   <v>       0.31253180       0.20580929       0.47871260 </v>
   <v>       0.81236080       0.54016209       0.87586977 </v>
   <v>       0.68801379       0.62041354       0.43448432 </v>
   <v>       0.81091966       0.20768967       0.69977860 </v>
   <v>       0.81261819       0.70583815       0.47864386 </v>
   <v>       0.81163616       0.87140991       0.43425049 </v>
   <v>       0.93745005       0.95530066       0.47869809 </v>
   <v>       0.56231072       0.20568091       0.47865769 </v>
   <v>       0.18735736       0.61998425       0.43447051 </v>
   <v>       0.31494829       0.04151829       0.74420110 </v>
   <v>       0.94152892       0.62483340       0.65496128 </v>
   <v>       0.56627200       0.71287276       0.83351084 </v>
   <v>       0.32037119       0.37244582       0.30009422 </v>
   <v>       0.31501470       0.54127725       0.74418390 </v>
   <v>       0.18740959       0.45576096       0.47868044 </v>
   <v>       0.31286568       0.04068594       0.87600786 </v>
   <v>       0.18538960       0.45800427       0.69974958 </v>
   <v>       0.56177676       0.37191125       0.52138697 </v>
   <v>       0.19101953       0.28764145       0.38896310 </v>
   <v>       0.31549767       0.20418373       0.21117103 </v>
   <v>       0.06726494       0.70366007       0.21127839 </v>
   <v>       0.56184541       0.37106253       0.43441228 </v>
   <v>       0.43678769       0.62191152       0.52139295 </v>
   <v>       0.81744663       0.71534495       0.83365995 </v>
   <v>       0.05954144       0.37378072       0.78854675 </v>
   <v>       0.43647847       0.29748972       0.87617810 </v>
   <v>       0.31146356       0.03068494       0.12411548 </v>
   <v>       0.68821763       0.12005386       0.43426524 </v>
   <v>       0.18370894       0.95232524       0.34492035 </v>
   <v>       0.06697298       0.21546210       0.83367314 </v>
   <v>       0.55900982       0.03859877       0.61105523 </v>
   <v>       0.68909178       0.45404433       0.21171544 </v>
   <v>       0.19003512       0.79151637       0.74426301 </v>
   <v>       0.19519358       0.62298935       0.30025285 </v>
   <v>       0.44156098       0.78776522       0.38909652 </v>
   <v>       0.43358660       0.28784250       0.25581075 </v>
   <v>       0.06275274       0.54074183       0.87589329 </v>
   <v>       0.06325088       0.04051684       0.87588766 </v>
   <v>       0.18761199       0.79777309       0.87607874 </v>
   <v>       0.93728101       0.45570411       0.47866764 </v>
   <v>       0.56511557       0.54142213       0.74420678 </v>
   <v>       0.81122326       0.20724027       0.56548428 </v>
   <v>       0.18400525       0.62325408       0.78871209 </v>
   <v>       0.06755883       0.53847752       0.38905848 </v>
   <v>       0.06089125       0.70768309       0.69971447 </v>
   <v>       0.30837774       0.53723978       0.25557006 </v>
   <v>       0.31450856       0.70310395       0.21224321 </v>
   <v>       0.30585071       0.86463835       0.16582063 </v>
   <v>       0.43666997       0.62113732       0.43441200 </v>
   <v>       0.81772886       0.03936652       0.38924097 </v>
   <v>       0.93623651       0.29691561       0.87554468 </v>
   <v>       0.93663237       0.79705175       0.87565006 </v>
   <v>       0.56605140       0.04131616       0.74422584 </v>
   <v>       0.56235601       0.52881712       0.12448461 </v>
   <v>       0.80551625       0.36555522       0.16593772 </v>
   <v>       0.06210442       0.87107260       0.43441689 </v>
   <v>       0.93647628       0.12177494       0.52152092 </v>
   <v>       0.19315558       0.78754667       0.38887822 </v>
   <v>       0.56692387       0.70325216       0.21200997 </v>
  </varray>
 </structure>
 <calculation>
  <scstep>
   <time name="dav">   54.05   54.06</time>
   <time name="total">   54.21   54.24</time>
   <energy>
    <i name="alphaZ">  16293.21160653 </i>
    <i name="ewald"> 726166.66129010 </i>
    <i name="hartreedc">-916681.80691177 </i>
    <i name="XCdc">  -6512.70608806 </i>
    <i name="pawpsdc"> 162273.92519768 </i>
    <i name="pawaedc">-159623.75899949 </i>
    <i name="eentropy">     -1.06875521 </i>
    <i name="bandstr">  38488.79361599 </i>
    <i name="atom"> 168671.76673737 </i>
    <i name="e_fr_energy">  29075.01769314 </i>
    <i name="e_wo_entrp">  29076.08644834 </i>
    <i name="e_0_energy">  29075.55207074 </i>
   </energy>
  </scstep>
  <scstep>
   <time name="dav">   53.51   53.55</time>
   <time name="total">   53.52   53.56</time>
   <energy>
    <i name="e_fr_energy">   1187.40023095 </i>
    <i name="e_wo_entrp">   1188.90084759 </i>
    <i name="e_0_energy">   1188.15053927 </i>
   </energy>
  </scstep>
  <scstep>
   <time name="dav">   70.39   70.44</time>
   <time name="total">   70.40   70.44</time>
   <energy>
    <i name="e_fr_energy">  -1949.77958699 </i>
    <i name="e_wo_entrp">  -1946.22704884 </i>
    <i name="e_0_energy">  -1948.00331791 </i>
   </energy>
  </scstep>
  <scstep>
   <time name="dav">   88.23   88.28</time>
   <time name="total">   88.24   88.28</time>
   <energy>
    <i name="e_fr_energy">  -2619.57316370 </i>
    <i name="e_wo_entrp">  -2616.03702668 </i>
    <i name="e_0_energy">  -2617.80509519 </i>
   </energy>
  </scstep>
  <scstep>
   <time name="dav">   84.43   84.48</time>
   <time name="total">   86.53   86.57</time>
   <energy>
    <i name="e_fr_energy">  -2739.02613094 </i>
    <i name="e_wo_entrp">  -2735.36380862 </i>
    <i name="e_0_energy">  -2737.19496978 </i>
   </energy>
  </scstep>
  <scstep>
   <time name="diag">    8.24    8.24</time>
   <time name="diis">   37.30   37.30</time>
   <time name="orth">    2.27    2.27</time>
   <time name="total">   49.92   49.96</time>
   <energy>
    <i name="e_fr_energy">  -5634.69934979 </i>
    <i name="e_wo_entrp">  -5632.13738832 </i>
    <i name="e_0_energy">  -5633.41836905 </i>
   </energy>
  </scstep>
  <scstep>
   <time name="diag">    8.22    8.22</time>
   <time name="diis">   24.55   24.55</time>
   <time name="orth">    2.27    2.27</time>
   <time name="total">   37.15   37.20</time>
[...]
       <r>     5.8549     0.0000  2772.0000 </r>
       <r>     5.8976     0.0000  2772.0000 </r>
       <r>     5.9404     0.0000  2772.0000 </r>
       <r>     5.9831     0.0000  2772.0000 </r>
       <r>     6.0259     0.0000  2772.0000 </r>
       <r>     6.0686     0.0000  2772.0000 </r>
       <r>     6.1113     0.0000  2772.0000 </r>
       <r>     6.1541     0.0000  2772.0000 </r>
       <r>     6.1968     0.0000  2772.0000 </r>
       <r>     6.2396     0.0000  2772.0000 </r>
       <r>     6.2823     0.0000  2772.0000 </r>
       <r>     6.3250     0.0000  2772.0000 </r>
       <r>     6.3678     0.0000  2772.0000 </r>
       <r>     6.4105     0.0000  2772.0000 </r>
       <r>     6.4532     0.0000  2772.0000 </r>
       <r>     6.4960     0.0000  2772.0000 </r>
       <r>     6.5387     0.0000  2772.0000 </r>
       <r>     6.5815     0.0000  2772.0000 </r>
       <r>     6.6242     0.0000  2772.0000 </r>
       <r>     6.6669     0.0000  2772.0000 </r>
       <r>     6.7097     0.0000  2772.0000 </r>
       <r>     6.7524     0.0000  2772.0000 </r>
       <r>     6.7952     0.0000  2772.0000 </r>
      </set>
     </set>
    </array>
   </total>
  </dos>
 </calculation>
 <structure name="finalpos" >
  <crystal>
   <varray name="basis" >
    <v>       9.72667804       0.00000000       0.00000000 </v>
    <v>       0.00000000       8.42355028       0.00000000 </v>
    <v>       0.00000000       0.00000000      45.00000000 </v>
   </varray>
   <i name="volume">   3686.99226691 </i>
   <varray name="rec_basis" >
    <v>       0.10281002       0.00000000       0.00000000 </v>
    <v>       0.00000000       0.11871479       0.00000000 </v>
    <v>       0.00000000       0.00000000       0.02222222 </v>
   </varray>
  </crystal>
  <varray name="positions" >
   <v>       0.06269356       0.03161636       0.12439226 </v>
   <v>       0.31368190       0.87425869       0.65491363 </v>
   <v>       0.18538903       0.12465701       0.78819587 </v>
   <v>       0.44089461       0.28773498       0.38912992 </v>
   <v>       0.31558751       0.71249293       0.83362452 </v>
   <v>       0.81666480       0.21357783       0.83372954 </v>
   <v>       0.19027757       0.96274081       0.83382117 </v>
   <v>       0.56080412       0.20701317       0.56599328 </v>
   <v>       0.06450985       0.04142267       0.74374907 </v>
   <v>       0.81245146       0.87207077       0.52203749 </v>
   <v>       0.18934361       0.29137466       0.74386114 </v>
   <v>       0.93541878       0.45291614       0.34485648 </v>
   <v>       0.93989767       0.28737318       0.38896251 </v>
   <v>       0.81224056       0.04327734       0.87569228 </v>
   <v>       0.18548680       0.78823378       0.61070266 </v>
   <v>       0.56533173       0.03848711       0.38919961 </v>
   <v>       0.94090280       0.96288699       0.83386513 </v>
   <v>       0.31322535       0.54310021       0.87579720 </v>
   <v>       0.68847550       0.29042187       0.74394763 </v>
   <v>       0.18382995       0.61542009       0.16653641 </v>
   <v>       0.81366009       0.20483483       0.47883153 </v>
   <v>       0.81057130       0.53845774       0.61072606 </v>
   <v>       0.31281320       0.87123488       0.43439447 </v>
   <v>       0.81098886       0.03808392       0.25575030 </v>
   <v>       0.68541930       0.95356170       0.34486352 </v>
   <v>       0.93358782       0.11589671       0.16666703 </v>
   <v>       0.06225209       0.87244939       0.52206415 </v>
   <v>       0.56000963       0.53651926       0.25548364 </v>
   <v>       0.68643291       0.79603520       0.87594509 </v>
   <v>       0.55737429       0.36605537       0.16620921 </v>
   <v>       0.43903687       0.79229523       0.74405046 </v>
   <v>       0.81198584       0.70576729       0.56584338 </v>
   <v>       0.56043121       0.87430349       0.78814782 </v>
   <v>       0.68721922       0.12233659       0.52210264 </v>
   <v>       0.81518807       0.37383605       0.65503072 </v>
   <v>       0.94100588       0.46262597       0.83382224 </v>
   <v>       0.06143161       0.20708145       0.69951621 </v>
   <v>       0.43539877       0.95792417       0.69956144 </v>
   <v>       0.31554945       0.21252467       0.83371175 </v>
   <v>       0.43894083       0.62425778       0.65485864 </v>
   <v>       0.31003351       0.53864969       0.61060610 </v>
   <v>       0.93760936       0.45660992       0.56593125 </v>
   <v>       0.68873369       0.79248516       0.74403618 </v>
   <v>       0.93532743       0.78473243       0.12467911 </v>
   <v>       0.69053706       0.78773313       0.38920073 </v>
   <v>       0.93939114       0.79185968       0.74393293 </v>
   <v>       0.06107541       0.20408299       0.34486013 </v>
   <v>       0.68594964       0.45260330       0.34489390 </v>
   <v>       0.43510840       0.12437491       0.78838945 </v>
   <v>       0.06429385       0.20306189       0.21118536 </v>
   <v>       0.05687065       0.36532603       0.16625074 </v>
   <v>       0.93523996       0.78753126       0.25552282 </v>
   <v>       0.56108041       0.20762119       0.69964115 </v>
   <v>       0.68700103       0.95823207       0.69964657 </v>
   <v>       0.81009535       0.87484165       0.78828343 </v>
   <v>       0.43602052       0.95657188       0.56589264 </v>
   <v>       0.81010350       0.37421952       0.78833377 </v>
   <v>       0.68593546       0.28699359       0.25589664 </v>
   <v>       0.18719281       0.45659616       0.56593122 </v>
   <v>       0.05870333       0.86650898       0.16641550 </v>
   <v>       0.18591292       0.28948034       0.61077731 </v>
   <v>       0.06214772       0.20667341       0.56566302 </v>
   <v>       0.31080769       0.20767157       0.69959796 </v>
   <v>       0.56306272       0.54326454       0.87582037 </v>
   <v>       0.06250965       0.70562854       0.56581834 </v>
   <v>       0.68439230       0.62418877       0.78836669 </v>
   <v>       0.31558777       0.53708511       0.38907733 </v>
   <v>       0.18705948       0.62232167       0.52224210 </v>
   <v>       0.56262003       0.87125833       0.43425404 </v>
   <v>       0.43581620       0.45636018       0.56599218 </v>
   <v>       0.43880589       0.29118243       0.74396484 </v>
   <v>       0.81792694       0.87320666       0.30013348 </v>
   <v>       0.81047609       0.70245235       0.34494116 </v>
   <v>       0.44064502       0.46154456       0.83380512 </v>
   <v>       0.68776851       0.95437700       0.47858727 </v>
   <v>       0.68629928       0.45729406       0.69955092 </v>
   <v>       0.56101458       0.87167730       0.52209453 </v>
   <v>       0.56452292       0.37425653       0.65481733 </v>
   <v>       0.81578160       0.87469265       0.65502655 </v>
   <v>       0.81163388       0.37097821       0.43403944 </v>
   <v>       0.81048085       0.53601501       0.25583618 </v>
   <v>       0.69128634       0.46176495       0.83372593 </v>
   <v>       0.18589863       0.78556255       0.12431234 </v>
   <v>       0.68970524       0.28757734       0.38903670 </v>
   <v>       0.31418567       0.37404312       0.65491685 </v>
   <v>       0.31107567       0.20372967       0.34483664 </v>
   <v>       0.81449816       0.54127031       0.74392070 </v>
   <v>       0.69113370       0.96238984       0.83382417 </v>
   <v>       0.56450782       0.87484734       0.65487038 </v>
   <v>       0.31142448       0.70605526       0.56591841 </v>
   <v>       0.31120308       0.53226256       0.12414049 </v>
   <v>       0.68859388       0.95379800       0.21169911 </v>
   <v>       0.31151655       0.20702634       0.56593827 </v>
   <v>       0.18704955       0.95543520       0.47884621 </v>
   <v>       0.68655233       0.95634045       0.56592876 </v>
   <v>       0.43455358       0.78874289       0.61058614 </v>
   <v>       0.68219566       0.61304675       0.16630288 </v>
   <v>       0.31751925       0.87315623       0.30008614 </v>
   <v>       0.31228307       0.70517822       0.47880319 </v>
   <v>       0.93555609       0.28908559       0.61072523 </v>
   <v>       0.44292879       0.62175552       0.30020575 </v>
   <v>       0.80837267       0.86490380       0.16665322 </v>
   <v>       0.56486331       0.20285792       0.21165336 </v>
   <v>       0.93409086       0.61352193       0.16651926 </v>
   <v>       0.43712270       0.95456936       0.47866305 </v>
   <v>       0.56031517       0.37355286       0.78819138 </v>
   <v>       0.06199980       0.37207749       0.52210700 </v>
   <v>       0.30735612       0.36483287       0.16626352 </v>
   <v>       0.69291917       0.12273344       0.30020323 </v>
   <v>       0.44094229       0.96249024       0.83384098 </v>
   <v>       0.18496182       0.28350087       0.12462905 </v>
   <v>       0.18539942       0.28651071       0.25570909 </v>
   <v>       0.31291082       0.37070970       0.43428093 </v>
   <v>       0.56059314       0.03318879       0.12446218 </v>
   <v>       0.43466388       0.28921937       0.61058683 </v>
   <v>       0.18575084       0.45260921       0.34486140 </v>
   <v>       0.43379540       0.28424173       0.12454176 </v>
   <v>       0.68551161       0.78780983       0.25569913 </v>
   <v>       0.43600265       0.12262446       0.52217972 </v>
   <v>       0.18845849       0.29507433       0.87586425 </v>
   <v>       0.18936513       0.12439563       0.65516566 </v>
   <v>       0.94016096       0.12418932       0.65518372 </v>
   <v>       0.81483733       0.53718381       0.38907925 </v>
   <v>       0.06538773       0.03853216       0.38917556 </v>
   <v>       0.18330528       0.11358983       0.16639665 </v>
   <v>       0.06086474       0.53855910       0.61066837 </v>
   <v>       0.93556318       0.28677100       0.25573314 </v>
   <v>       0.55948448       0.53854915       0.61062555 </v>
   <v>       0.93754553       0.95687385       0.56568247 </v>
   <v>       0.69284930       0.62188805       0.30026192 </v>
   <v>       0.93725247       0.62177650       0.43426033 </v>
   <v>       0.93489484       0.62546027       0.78840810 </v>
   <v>       0.56111433       0.70710397       0.69960067 </v>
   <v>       0.06497161       0.71373401       0.83373496 </v>
   <v>       0.94287052       0.12310966       0.30003296 </v>
   <v>       0.93563317       0.78802989       0.61088010 </v>
   <v>       0.43525113       0.78770764       0.25553198 </v>
   <v>       0.31059231       0.37393078       0.78821791 </v>
   <v>       0.43833742       0.45441989       0.21140079 </v>
   <v>       0.18609132       0.12267872       0.52214248 </v>
   <v>       0.81232782       0.70795425       0.69946043 </v>
   <v>       0.06064934       0.03885891       0.61075792 </v>
   <v>       0.56559900       0.21221371       0.83355926 </v>
   <v>       0.31168571       0.87164942       0.52224559 </v>
   <v>       0.68577048       0.28448303       0.12433336 </v>
   <v>       0.18938969       0.95414940       0.21141175 </v>
   <v>       0.68459349       0.28917983       0.61077106 </v>
   <v>       0.31015135       0.03915423       0.61065596 </v>
   <v>       0.93513494       0.12526253       0.78827605 </v>
   <v>       0.43718890       0.79582045       0.87605580 </v>
   <v>       0.81427143       0.04147468       0.74384586 </v>
   <v>       0.93684265       0.45723648       0.69941463 </v>
   <v>       0.18945413       0.62428231       0.65500909 </v>
   <v>       0.31056981       0.70700459       0.69952239 </v>
   <v>       0.93510900       0.28414533       0.12440196 </v>
   <v>       0.43695841       0.45574861       0.47877550 </v>
   <v>       0.06247673       0.70497711       0.47880941 </v>
   <v>       0.93708661       0.12021447       0.43458711 </v>
   <v>       0.44273526       0.12261580       0.30021920 </v>
   <v>       0.18743575       0.12066365       0.43421487 </v>
   <v>       0.56331380       0.04412341       0.87584387 </v>
   <v>       0.18710276       0.95647499       0.56591097 </v>
   <v>       0.68464072       0.78450669       0.12460467 </v>
   <v>       0.56118368       0.70268288       0.34495881 </v>
   <v>       0.31603116       0.03820679       0.38907882 </v>
   <v>       0.68387102       0.11524339       0.16675096 </v>
   <v>       0.81513023       0.20281483       0.21142982 </v>
   <v>       0.06046616       0.53642745       0.25550275 </v>
   <v>       0.56232928       0.70517301       0.47870677 </v>
   <v>       0.43372682       0.78445125       0.12424049 </v>
   <v>       0.56764171       0.37123193       0.30022710 </v>
   <v>       0.43576684       0.95388556       0.34492118 </v>
   <v>       0.18536522       0.95789062       0.69961341 </v>
   <v>       0.43269231       0.61449955       0.16630231 </v>
   <v>       0.93963650       0.45283120       0.21161289 </v>
   <v>       0.06137187       0.53137571       0.12432662 </v>
   <v>       0.81260576       0.37265270       0.52209677 </v>
   <v>       0.94265672       0.62224944       0.29996844 </v>
   <v>       0.31083879       0.03759817       0.25558400 </v>
   <v>       0.68486605       0.78865142       0.61065962 </v>
   <v>       0.19016493       0.46217717       0.83381897 </v>
   <v>       0.43280756       0.11325453       0.16655007 </v>
   <v>       0.31159823       0.37282296       0.52225891 </v>
   <v>       0.43508168       0.62394255       0.78842988 </v>
   <v>       0.06044130       0.03774365       0.25562706 </v>
   <v>       0.56105643       0.70621980       0.56587642 </v>
   <v>       0.93923804       0.29081732       0.74391952 </v>
   <v>       0.68444257       0.12418083       0.78815672 </v>
   <v>       0.18904858       0.45329064       0.21122310 </v>
   <v>       0.93971189       0.78727258       0.38916758 </v>
   <v>       0.68621849       0.29492470       0.87588373 </v>
   <v>       0.55609103       0.86434562       0.16653866 </v>
   <v>       0.43561212       0.45709385       0.69964123 </v>
   <v>       0.93581255       0.95311378       0.34481451 </v>
   <v>       0.68679285       0.62238553       0.52199660 </v>
   <v>       0.06476037       0.87428454       0.65511074 </v>
   <v>       0.06061824       0.87476784       0.78825707 </v>
   <v>       0.06496659       0.37411767       0.65503698 </v>
   <v>       0.68697057       0.45584748       0.47861314 </v>
   <v>       0.18532340       0.78767515       0.25547094 </v>
   <v>       0.43766938       0.12061301       0.43416079 </v>
   <v>       0.81324641       0.03318136       0.12440604 </v>
   <v>       0.93727288       0.62241957       0.52208612 </v>
   <v>       0.43921576       0.12473817       0.65484707 </v>
   <v>       0.81273230       0.53174444       0.12406563 </v>
   <v>       0.43617589       0.45254685       0.34494096 </v>
   <v>       0.81052945       0.20343223       0.34494988 </v>
   <v>       0.31133462       0.70268009       0.34483843 </v>
   <v>       0.69001236       0.12466562       0.65497008 </v>
   <v>       0.56782542       0.87288662       0.30021871 </v>
   <v>       0.06467111       0.54143319       0.74381441 </v>
   <v>       0.93997447       0.95433675       0.21139612 </v>
   <v>       0.81460284       0.70308482       0.21149520 </v>
   <v>       0.06768240       0.87281582       0.30020642 </v>
   <v>       0.19282852       0.12325498       0.30005128 </v>
   <v>       0.06056024       0.70258858       0.34481891 </v>
   <v>       0.81019276       0.03909018       0.61082501 </v>
   <v>       0.06267941       0.37095489       0.43424149 </v>
   <v>       0.56095591       0.20358850       0.34491822 </v>
   <v>       0.81750191       0.37245902       0.30007026 </v>
   <v>       0.56131857       0.03821685       0.25565677 </v>
   <v>       0.56531816       0.53698981       0.38911547 </v>
   <v>       0.06201016       0.20472653       0.47896538 </v>
   <v>       0.31081822       0.87420001       0.78817495 </v>
   <v>       0.93719933       0.95831214       0.69948519 </v>
   <v>       0.06779139       0.37260194       0.30009026 </v>
   <v>       0.69017773       0.62448686       0.65491494 </v>
   <v>       0.68627583       0.45658751       0.56585701 </v>
   <v>       0.43912132       0.95360560       0.21168348 </v>
   <v>       0.31199842       0.20533969       0.47878525 </v>
   <v>       0.81233726       0.54273799       0.87564122 </v>
   <v>       0.68802827       0.62148348       0.43427244 </v>
   <v>       0.81220131       0.20734812       0.69951678 </v>
   <v>       0.81266113       0.70525606       0.47868369 </v>
   <v>       0.81175921       0.87109300       0.43427562 </v>
   <v>       0.93775351       0.95558280       0.47887538 </v>
   <v>       0.56197307       0.20521925       0.47863186 </v>
   <v>       0.18720815       0.62095477       0.43441158 </v>
   <v>       0.31391644       0.04201894       0.74392802 </v>
   <v>       0.94058098       0.62441353       0.65495016 </v>
   <v>       0.56573374       0.71201892       0.83368599 </v>
   <v>       0.31799177       0.37141894       0.30018387 </v>
   <v>       0.31379110       0.54116554       0.74389113 </v>
   <v>       0.18772293       0.45528247       0.47882643 </v>
   <v>       0.31338227       0.04409697       0.87575804 </v>
   <v>       0.18621145       0.45730406       0.69951310 </v>
   <v>       0.56101656       0.37302690       0.52220129 </v>
   <v>       0.19046869       0.28780252       0.38899825 </v>
   <v>       0.31392148       0.20360076       0.21126184 </v>
   <v>       0.06619355       0.70328227       0.21116149 </v>
   <v>       0.56214283       0.37092161       0.43413704 </v>
   <v>       0.43622506       0.62226024       0.52203343 </v>
   <v>       0.81646861       0.71376945       0.83369182 </v>
   <v>       0.06088574       0.37437364       0.78835828 </v>
   <v>       0.43722483       0.29486709       0.87602533 </v>
   <v>       0.31050293       0.03236680       0.12412416 </v>
   <v>       0.68756844       0.12076426       0.43405804 </v>
   <v>       0.18581794       0.95365940       0.34485526 </v>
   <v>       0.06531664       0.21362341       0.83371505 </v>
   <v>       0.55961724       0.03947019       0.61073152 </v>
   <v>       0.68816649       0.45329637       0.21164209 </v>
   <v>       0.18916018       0.79179733       0.74384925 </v>
   <v>       0.19270709       0.62183398       0.30013071 </v>
   <v>       0.44097709       0.78769386       0.38923897 </v>
   <v>       0.43555090       0.28700391       0.25568921 </v>
   <v>       0.06395471       0.54315965       0.87562708 </v>
   <v>       0.06402817       0.04364800       0.87566964 </v>
   <v>       0.18790066       0.79581645       0.87586900 </v>
   <v>       0.93787320       0.45539446       0.47881298 </v>
   <v>       0.56354370       0.54111649       0.74400033 </v>
   <v>       0.81238741       0.20688989       0.56576625 </v>
   <v>       0.18551063       0.62420614       0.78829165 </v>
   <v>       0.06583292       0.53788318       0.38916337 </v>
   <v>       0.06171731       0.70798769       0.69941834 </v>
   <v>       0.31006505       0.53629683       0.25523584 </v>
   <v>       0.31402214       0.70242493       0.21166546 </v>
   <v>       0.30633970       0.86567362       0.16592286 </v>
   <v>       0.43719790       0.62152273       0.43421420 </v>
   <v>       0.81571874       0.03866452       0.38924248 </v>
   <v>       0.93678761       0.29451326       0.87564743 </v>
   <v>       0.93700444       0.79555176       0.87574595 </v>
   <v>       0.56471568       0.04190569       0.74413377 </v>
   <v>       0.56167952       0.53100498       0.12445615 </v>
   <v>       0.80745010       0.36530970       0.16572042 </v>
   <v>       0.06154292       0.87104066       0.43435116 </v>
   <v>       0.93823783       0.12262284       0.52201492 </v>
   <v>       0.19168592       0.78687042       0.38906136 </v>
   <v>       0.56445090       0.70328049       0.21167189 </v>
  </varray>
 </structure>
</modeling>
