 288 288   0   0
  0.1280206E+02  0.9726678E-09  0.8423550E-09  0.4500000E-08  0.2500000E-15
  1.000000000000000E-004
  CAR 
 unknown system                          
      6.79634373     -6.03175977  301      4.31733098      1.00000000
     -6.032  0.0000E+00  0.0000E+00
     -5.989  0.0000E+00  0.0000E+00
     -5.946  0.0000E+00  0.0000E+00
     -5.903  0.0000E+00  0.0000E+00
     -5.861  0.0000E+00  0.0000E+00
     -5.818  0.0000E+00  0.0000E+00
     -5.775  0.0000E+00  0.0000E+00
     -5.732  0.0000E+00  0.0000E+00
     -5.690  0.0000E+00  0.0000E+00
     -5.647  0.0000E+00  0.0000E+00
     -5.604  0.0000E+00  0.0000E+00
     -5.561  0.0000E+00  0.0000E+00
     -5.519  0.0000E+00  0.0000E+00
     -5.476  0.0000E+00  0.0000E+00
     -5.433  0.0000E+00  0.0000E+00
     -5.390  0.1623E-15  0.6939E-17
     -5.348  0.4089E-14  0.1818E-15
     -5.305  0.8737E-13  0.3918E-14
     -5.262  0.1594E-11  0.7206E-13
     -5.219  0.2476E-10  0.1131E-11
     -5.177  0.3275E-09  0.1513E-10
     -5.134  0.3689E-08  0.1729E-09
     -5.091  0.3541E-07  0.1687E-08
     -5.048  0.2897E-06  0.1408E-07
     -5.006  0.2022E-05  0.1005E-06
     -4.963  0.1204E-04  0.6155E-06
     -4.920  0.6133E-04  0.3238E-05
     -4.877  0.2675E-03  0.1468E-04
     -4.834  0.1003E-02  0.5756E-04
     -4.792  0.3246E-02  0.1964E-03
     -4.749  0.9135E-02  0.5870E-03
     -4.706  0.2255E-01  0.1551E-02
     -4.663  0.4940E-01  0.3663E-02
     -4.621  0.9731E-01  0.7824E-02
     -4.578  0.1746E+00  0.1529E-01
     -4.535  0.2886E+00  0.2763E-01
     -4.492  0.4430E+00  0.4658E-01
     -4.450  0.6352E+00  0.7374E-01
     -4.407  0.8546E+00  0.1103E+00
     -4.364  0.1084E+01  0.1566E+00
     -4.321  0.1303E+01  0.2124E+00
     -4.279  0.1490E+01  0.2761E+00
     -4.236  0.1634E+01  0.3460E+00
     -4.193  0.1734E+01  0.4201E+00
     -4.150  0.1807E+01  0.4974E+00
     -4.108  0.1879E+01  0.5777E+00
     -4.065  0.1977E+01  0.6622E+00
     -4.022  0.2124E+01  0.7531E+00
     -3.979  0.2323E+01  0.8524E+00
     -3.937  0.2558E+01  0.9618E+00
     -3.894  0.2794E+01  0.1081E+01
     -3.851  0.2992E+01  0.1209E+01
     -3.808  0.3120E+01  0.1343E+01
     -3.765  0.3165E+01  0.1478E+01
     -3.723  0.3143E+01  0.1612E+01
     -3.680  0.3093E+01  0.1745E+01
     -3.637  0.3064E+01  0.1876E+01
     -3.594  0.3098E+01  0.2008E+01
     -3.552  0.3213E+01  0.2146E+01
     -3.509  0.3401E+01  0.2291E+01
     -3.466  0.3630E+01  0.2446E+01
     -3.423  0.3856E+01  0.2611E+01
     -3.381  0.4039E+01  0.2784E+01
     -3.338  0.4154E+01  0.2961E+01
     -3.295  0.4197E+01  0.3141E+01
     -3.252  0.4191E+01  0.3320E+01
     -3.210  0.4172E+01  0.3498E+01
     -3.167  0.4185E+01  0.3677E+01
     -3.124  0.4266E+01  0.3860E+01
     -3.081  0.4426E+01  0.4049E+01
     -3.039  0.4647E+01  0.4248E+01
     -2.996  0.4891E+01  0.4457E+01
     -2.953  0.5113E+01  0.4676E+01
     -2.910  0.5273E+01  0.4901E+01
     -2.867  0.5352E+01  0.5130E+01
     -2.825  0.5367E+01  0.5359E+01
     -2.782  0.5363E+01  0.5589E+01
     -2.739  0.5394E+01  0.5819E+01
     -2.696  0.5482E+01  0.6054E+01
     -2.654  0.5601E+01  0.6293E+01
     -2.611  0.5684E+01  0.6536E+01
     -2.568  0.5678E+01  0.6779E+01
     -2.525  0.5588E+01  0.7018E+01
     -2.483  0.5497E+01  0.7253E+01
     -2.440  0.5524E+01  0.7489E+01
     -2.397  0.5766E+01  0.7736E+01
     -2.354  0.6232E+01  0.8002E+01
     -2.312  0.6820E+01  0.8294E+01
     -2.269  0.7341E+01  0.8608E+01
     -2.226  0.7609E+01  0.8933E+01
     -2.183  0.7546E+01  0.9256E+01
     -2.141  0.7239E+01  0.9565E+01
     -2.098  0.6900E+01  0.9860E+01
     -2.055  0.6757E+01  0.1015E+02
     -2.012  0.6933E+01  0.1045E+02
     -1.970  0.7400E+01  0.1076E+02
     -1.927  0.8003E+01  0.1110E+02
     -1.884  0.8537E+01  0.1147E+02
     -1.841  0.8846E+01  0.1185E+02
     -1.798  0.8896E+01  0.1223E+02
     -1.756  0.8787E+01  0.1260E+02
     -1.713  0.8674E+01  0.1297E+02
     -1.670  0.8676E+01  0.1335E+02
     -1.627  0.8819E+01  0.1372E+02
     -1.585  0.9058E+01  0.1411E+02
     -1.542  0.9336E+01  0.1451E+02
     -1.499  0.9619E+01  0.1492E+02
     -1.456  0.9900E+01  0.1534E+02
     -1.414  0.1017E+02  0.1578E+02
     -1.371  0.1039E+02  0.1622E+02
     -1.328  0.1055E+02  0.1667E+02
     -1.285  0.1069E+02  0.1713E+02
     -1.243  0.1096E+02  0.1760E+02
     -1.200  0.1151E+02  0.1809E+02
     -1.157  0.1243E+02  0.1862E+02
     -1.114  0.1357E+02  0.1920E+02
     -1.072  0.1463E+02  0.1983E+02
     -1.029  0.1531E+02  0.2048E+02
     -0.986  0.1553E+02  0.2115E+02
     -0.943  0.1551E+02  0.2181E+02
     -0.901  0.1567E+02  0.2248E+02
     -0.858  0.1637E+02  0.2318E+02
     -0.815  0.1773E+02  0.2394E+02
     -0.772  0.1967E+02  0.2478E+02
     -0.729  0.2205E+02  0.2572E+02
     -0.687  0.2489E+02  0.2679E+02
     -0.644  0.2834E+02  0.2800E+02
     -0.601  0.3247E+02  0.2939E+02
     -0.558  0.3706E+02  0.3097E+02
     -0.516  0.4158E+02  0.3275E+02
     -0.473  0.4551E+02  0.3470E+02
     -0.430  0.4856E+02  0.3677E+02
     -0.387  0.5084E+02  0.3895E+02
     -0.345  0.5263E+02  0.4120E+02
     -0.302  0.5418E+02  0.4352E+02
     -0.259  0.5553E+02  0.4589E+02
     -0.216  0.5659E+02  0.4831E+02
     -0.174  0.5727E+02  0.5076E+02
     -0.131  0.5756E+02  0.5322E+02
     -0.088  0.5763E+02  0.5568E+02
     -0.045  0.5773E+02  0.5815E+02
     -0.003  0.5807E+02  0.6064E+02
      0.040  0.5883E+02  0.6315E+02
      0.083  0.6019E+02  0.6573E+02
      0.126  0.6231E+02  0.6839E+02
      0.168  0.6521E+02  0.7118E+02
      0.211  0.6868E+02  0.7411E+02
      0.254  0.7233E+02  0.7721E+02
      0.297  0.7578E+02  0.8045E+02
      0.340  0.7881E+02  0.8382E+02
      0.382  0.8134E+02  0.8730E+02
      0.425  0.8338E+02  0.9086E+02
      0.468  0.8496E+02  0.9449E+02
      0.511  0.8604E+02  0.9817E+02
      0.553  0.8657E+02  0.1019E+03
      0.596  0.8658E+02  0.1056E+03
      0.639  0.8617E+02  0.1093E+03
      0.682  0.8546E+02  0.1129E+03
      0.724  0.8444E+02  0.1165E+03
      0.767  0.8304E+02  0.1201E+03
      0.810  0.8129E+02  0.1236E+03
      0.853  0.7942E+02  0.1270E+03
      0.895  0.7784E+02  0.1303E+03
      0.938  0.7684E+02  0.1336E+03
      0.981  0.7641E+02  0.1368E+03
      1.024  0.7625E+02  0.1401E+03
      1.066  0.7598E+02  0.1433E+03
      1.109  0.7536E+02  0.1466E+03
      1.152  0.7443E+02  0.1497E+03
      1.195  0.7353E+02  0.1529E+03
      1.237  0.7307E+02  0.1560E+03
      1.280  0.7321E+02  0.1591E+03
      1.323  0.7365E+02  0.1623E+03
      1.366  0.7380E+02  0.1655E+03
      1.409  0.7314E+02  0.1686E+03
      1.451  0.7164E+02  0.1716E+03
      1.494  0.6977E+02  0.1746E+03
      1.537  0.6823E+02  0.1775E+03
      1.580  0.6756E+02  0.1804E+03
      1.622  0.6796E+02  0.1833E+03
      1.665  0.6931E+02  0.1863E+03
      1.708  0.7134E+02  0.1894E+03
      1.751  0.7373E+02  0.1925E+03
      1.793  0.7622E+02  0.1958E+03
      1.836  0.7861E+02  0.1991E+03
      1.879  0.8081E+02  0.2026E+03
      1.922  0.8277E+02  0.2061E+03
      1.964  0.8452E+02  0.2097E+03
      2.007  0.8614E+02  0.2134E+03
      2.050  0.8770E+02  0.2172E+03
      2.093  0.8926E+02  0.2210E+03
      2.135  0.9084E+02  0.2249E+03
      2.178  0.9245E+02  0.2288E+03
      2.221  0.9409E+02  0.2328E+03
      2.264  0.9586E+02  0.2369E+03
      2.307  0.9799E+02  0.2411E+03
      2.349  0.1007E+03  0.2454E+03
      2.392  0.1043E+03  0.2499E+03
      2.435  0.1085E+03  0.2545E+03
      2.478  0.1130E+03  0.2594E+03
      2.520  0.1174E+03  0.2644E+03
      2.563  0.1214E+03  0.2696E+03
      2.606  0.1246E+03  0.2749E+03
      2.649  0.1268E+03  0.2803E+03
      2.691  0.1282E+03  0.2858E+03
      2.734  0.1289E+03  0.2913E+03
      2.777  0.1296E+03  0.2969E+03
      2.820  0.1309E+03  0.3025E+03
      2.862  0.1331E+03  0.3082E+03
      2.905  0.1363E+03  0.3140E+03
      2.948  0.1397E+03  0.3200E+03
      2.991  0.1418E+03  0.3260E+03
      3.033  0.1412E+03  0.3321E+03
      3.076  0.1368E+03  0.3379E+03
      3.119  0.1292E+03  0.3434E+03
      3.162  0.1198E+03  0.3486E+03
      3.204  0.1103E+03  0.3533E+03
      3.247  0.1022E+03  0.3576E+03
      3.290  0.9642E+02  0.3618E+03
      3.333  0.9285E+02  0.3657E+03
      3.376  0.9111E+02  0.3696E+03
      3.418  0.9053E+02  0.3735E+03
      3.461  0.9029E+02  0.3774E+03
      3.504  0.8964E+02  0.3812E+03
      3.547  0.8821E+02  0.3850E+03
      3.589  0.8618E+02  0.3887E+03
      3.632  0.8426E+02  0.3923E+03
      3.675  0.8330E+02  0.3958E+03
      3.718  0.8386E+02  0.3994E+03
      3.760  0.8586E+02  0.4031E+03
      3.803  0.8874E+02  0.4069E+03
      3.846  0.9177E+02  0.4108E+03
      3.889  0.9446E+02  0.4148E+03
      3.931  0.9669E+02  0.4190E+03
      3.974  0.9857E+02  0.4232E+03
      4.017  0.1002E+03  0.4275E+03
      4.060  0.1016E+03  0.4318E+03
      4.102  0.1026E+03  0.4362E+03
      4.145  0.1029E+03  0.4406E+03
      4.188  0.1025E+03  0.4450E+03
      4.231  0.1017E+03  0.4493E+03
      4.273  0.1006E+03  0.4536E+03
      4.316  0.9961E+02  0.4579E+03
      4.359  0.9912E+02  0.4621E+03
      4.402  0.9917E+02  0.4664E+03
      4.445  0.9962E+02  0.4706E+03
      4.487  0.1001E+03  0.4749E+03
      4.530  0.1003E+03  0.4792E+03
      4.573  0.1000E+03  0.4835E+03
      4.616  0.9929E+02  0.4877E+03
      4.658  0.9848E+02  0.4919E+03
      4.701  0.9813E+02  0.4961E+03
      4.744  0.9869E+02  0.5004E+03
      4.787  0.1004E+03  0.5046E+03
      4.829  0.1030E+03  0.5090E+03
      4.872  0.1061E+03  0.5136E+03
      4.915  0.1092E+03  0.5183E+03
      4.958  0.1117E+03  0.5230E+03
      5.000  0.1130E+03  0.5279E+03
      5.043  0.1124E+03  0.5327E+03
      5.086  0.1087E+03  0.5373E+03
      5.129  0.1009E+03  0.5416E+03
      5.171  0.8870E+02  0.5454E+03
      5.214  0.7264E+02  0.5485E+03
      5.257  0.5465E+02  0.5509E+03
      5.300  0.3731E+02  0.5525E+03
      5.342  0.2289E+02  0.5534E+03
      5.385  0.1251E+02  0.5540E+03
      5.428  0.6051E+01  0.5542E+03
      5.471  0.2578E+01  0.5543E+03
      5.514  0.9634E+00  0.5544E+03
      5.556  0.3148E+00  0.5544E+03
      5.599  0.8971E-01  0.5544E+03
      5.642  0.2224E-01  0.5544E+03
      5.685  0.4791E-02  0.5544E+03
      5.727  0.8947E-03  0.5544E+03
      5.770  0.1447E-03  0.5544E+03
      5.813  0.2023E-04  0.5544E+03
      5.856  0.2443E-05  0.5544E+03
      5.898  0.2545E-06  0.5544E+03
      5.941  0.2285E-07  0.5544E+03
      5.984  0.1767E-08  0.5544E+03
      6.027  0.1175E-09  0.5544E+03
      6.069  0.6715E-11  0.5544E+03
      6.112  0.3290E-12  0.5544E+03
      6.155  0.1285E-13  0.5544E+03
      6.198  0.1298E-15  0.5544E+03
      6.240  0.0000E+00  0.5544E+03
      6.283  0.0000E+00  0.5544E+03
      6.326  0.0000E+00  0.5544E+03
      6.369  0.0000E+00  0.5544E+03
      6.412  0.0000E+00  0.5544E+03
      6.454  0.0000E+00  0.5544E+03
      6.497  0.0000E+00  0.5544E+03
      6.540  0.0000E+00  0.5544E+03
      6.583  0.0000E+00  0.5544E+03
      6.625  0.0000E+00  0.5544E+03
      6.668  0.0000E+00  0.5544E+03
      6.711  0.0000E+00  0.5544E+03
      6.754  0.0000E+00  0.5544E+03
      6.796  0.0000E+00  0.5544E+03
