 288 288   0   0
  0.1280206E+02  0.9726678E-09  0.8423550E-09  0.4500000E-08  0.2500000E-15
  1.000000000000000E-004
  CAR 
 unknown system                          
      6.76174892     -6.05424582  301      4.30110180      1.00000000
     -6.054  0.0000E+00  0.0000E+00
     -6.012  0.0000E+00  0.0000E+00
     -5.969  0.0000E+00  0.0000E+00
     -5.926  0.0000E+00  0.0000E+00
     -5.883  0.0000E+00  0.0000E+00
     -5.841  0.0000E+00  0.0000E+00
     -5.798  0.0000E+00  0.0000E+00
     -5.755  0.0000E+00  0.0000E+00
     -5.712  0.0000E+00  0.0000E+00
     -5.670  0.0000E+00  0.0000E+00
     -5.627  0.0000E+00  0.0000E+00
     -5.584  0.0000E+00  0.0000E+00
     -5.542  0.0000E+00  0.0000E+00
     -5.499  0.0000E+00  0.0000E+00
     -5.456  0.0000E+00  0.0000E+00
     -5.413  0.1624E-15  0.6939E-17
     -5.371  0.3898E-14  0.1735E-15
     -5.328  0.8336E-13  0.3735E-14
     -5.285  0.1520E-11  0.6869E-13
     -5.243  0.2363E-10  0.1078E-11
     -5.200  0.3127E-09  0.1444E-10
     -5.157  0.3527E-08  0.1651E-09
     -5.114  0.3390E-07  0.1613E-08
     -5.072  0.2779E-06  0.1348E-07
     -5.029  0.1943E-05  0.9650E-07
     -4.986  0.1161E-04  0.5924E-06
     -4.944  0.5931E-04  0.3126E-05
     -4.901  0.2598E-03  0.1422E-04
     -4.858  0.9788E-03  0.5604E-04
     -4.815  0.3187E-02  0.1922E-03
     -4.773  0.9026E-02  0.5778E-03
     -4.730  0.2244E-01  0.1537E-02
     -4.687  0.4955E-01  0.3653E-02
     -4.644  0.9832E-01  0.7854E-02
     -4.602  0.1776E+00  0.1544E-01
     -4.559  0.2952E+00  0.2805E-01
     -4.516  0.4550E+00  0.4749E-01
     -4.474  0.6540E+00  0.7543E-01
     -4.431  0.8811E+00  0.1131E+00
     -4.388  0.1117E+01  0.1608E+00
     -4.345  0.1339E+01  0.2180E+00
     -4.303  0.1524E+01  0.2831E+00
     -4.260  0.1660E+01  0.3540E+00
     -4.217  0.1747E+01  0.4287E+00
     -4.175  0.1805E+01  0.5058E+00
     -4.132  0.1864E+01  0.5854E+00
     -4.089  0.1956E+01  0.6690E+00
     -4.046  0.2108E+01  0.7590E+00
     -4.004  0.2321E+01  0.8582E+00
     -3.961  0.2577E+01  0.9683E+00
     -3.918  0.2833E+01  0.1089E+01
     -3.876  0.3044E+01  0.1219E+01
     -3.833  0.3169E+01  0.1355E+01
     -3.790  0.3197E+01  0.1491E+01
     -3.747  0.3147E+01  0.1626E+01
     -3.705  0.3066E+01  0.1757E+01
     -3.662  0.3015E+01  0.1886E+01
     -3.619  0.3042E+01  0.2015E+01
     -3.576  0.3167E+01  0.2151E+01
     -3.534  0.3377E+01  0.2295E+01
     -3.491  0.3631E+01  0.2450E+01
     -3.448  0.3876E+01  0.2616E+01
     -3.406  0.4066E+01  0.2789E+01
     -3.363  0.4175E+01  0.2968E+01
     -3.320  0.4204E+01  0.3147E+01
     -3.277  0.4181E+01  0.3326E+01
     -3.235  0.4148E+01  0.3503E+01
     -3.192  0.4154E+01  0.3681E+01
     -3.149  0.4232E+01  0.3861E+01
     -3.107  0.4393E+01  0.4049E+01
     -3.064  0.4622E+01  0.4247E+01
     -3.021  0.4880E+01  0.4455E+01
     -2.978  0.5117E+01  0.4674E+01
     -2.936  0.5292E+01  0.4900E+01
     -2.893  0.5383E+01  0.5130E+01
     -2.850  0.5402E+01  0.5360E+01
     -2.808  0.5393E+01  0.5591E+01
     -2.765  0.5405E+01  0.5822E+01
     -2.722  0.5467E+01  0.6055E+01
     -2.679  0.5559E+01  0.6293E+01
     -2.637  0.5626E+01  0.6533E+01
     -2.594  0.5620E+01  0.6773E+01
     -2.551  0.5544E+01  0.7010E+01
     -2.508  0.5477E+01  0.7244E+01
     -2.466  0.5534E+01  0.7480E+01
     -2.423  0.5805E+01  0.7728E+01
     -2.380  0.6292E+01  0.7997E+01
     -2.338  0.6883E+01  0.8291E+01
     -2.295  0.7386E+01  0.8607E+01
     -2.252  0.7619E+01  0.8932E+01
     -2.209  0.7513E+01  0.9253E+01
     -2.167  0.7170E+01  0.9560E+01
     -2.124  0.6816E+01  0.9851E+01
     -2.081  0.6687E+01  0.1014E+02
     -2.039  0.6907E+01  0.1043E+02
     -1.996  0.7433E+01  0.1075E+02
     -1.953  0.8084E+01  0.1109E+02
     -1.910  0.8634E+01  0.1146E+02
     -1.868  0.8917E+01  0.1184E+02
     -1.825  0.8910E+01  0.1222E+02
     -1.782  0.8735E+01  0.1260E+02
     -1.740  0.8580E+01  0.1296E+02
     -1.697  0.8581E+01  0.1333E+02
     -1.654  0.8765E+01  0.1371E+02
     -1.611  0.9060E+01  0.1409E+02
     -1.569  0.9375E+01  0.1449E+02
     -1.526  0.9654E+01  0.1491E+02
     -1.483  0.9896E+01  0.1533E+02
     -1.440  0.1012E+02  0.1576E+02
     -1.398  0.1031E+02  0.1620E+02
     -1.355  0.1047E+02  0.1665E+02
     -1.312  0.1063E+02  0.1710E+02
     -1.270  0.1092E+02  0.1757E+02
     -1.227  0.1150E+02  0.1806E+02
     -1.184  0.1243E+02  0.1859E+02
     -1.141  0.1357E+02  0.1917E+02
     -1.099  0.1463E+02  0.1980E+02
     -1.056  0.1528E+02  0.2045E+02
     -1.013  0.1545E+02  0.2111E+02
     -0.971  0.1537E+02  0.2176E+02
     -0.928  0.1547E+02  0.2243E+02
     -0.885  0.1610E+02  0.2311E+02
     -0.842  0.1739E+02  0.2386E+02
     -0.800  0.1924E+02  0.2468E+02
     -0.757  0.2149E+02  0.2560E+02
     -0.714  0.2418E+02  0.2663E+02
     -0.672  0.2750E+02  0.2780E+02
     -0.629  0.3160E+02  0.2915E+02
     -0.586  0.3630E+02  0.3070E+02
     -0.543  0.4102E+02  0.3246E+02
     -0.501  0.4514E+02  0.3439E+02
     -0.458  0.4829E+02  0.3645E+02
     -0.415  0.5058E+02  0.3861E+02
     -0.372  0.5235E+02  0.4085E+02
     -0.330  0.5389E+02  0.4315E+02
     -0.287  0.5527E+02  0.4551E+02
     -0.244  0.5637E+02  0.4792E+02
     -0.202  0.5702E+02  0.5035E+02
     -0.159  0.5725E+02  0.5280E+02
     -0.116  0.5725E+02  0.5524E+02
     -0.073  0.5733E+02  0.5769E+02
     -0.031  0.5771E+02  0.6016E+02
      0.012  0.5855E+02  0.6266E+02
      0.055  0.5991E+02  0.6522E+02
      0.097  0.6192E+02  0.6786E+02
      0.140  0.6461E+02  0.7062E+02
      0.183  0.6788E+02  0.7352E+02
      0.226  0.7144E+02  0.7658E+02
      0.268  0.7493E+02  0.7978E+02
      0.311  0.7804E+02  0.8311E+02
      0.354  0.8065E+02  0.8656E+02
      0.396  0.8275E+02  0.9009E+02
      0.439  0.8438E+02  0.9370E+02
      0.482  0.8556E+02  0.9735E+02
      0.525  0.8627E+02  0.1010E+03
      0.567  0.8648E+02  0.1047E+03
      0.610  0.8628E+02  0.1084E+03
      0.653  0.8575E+02  0.1121E+03
      0.696  0.8490E+02  0.1157E+03
      0.738  0.8363E+02  0.1193E+03
      0.781  0.8194E+02  0.1228E+03
      0.824  0.8001E+02  0.1262E+03
      0.866  0.7826E+02  0.1295E+03
      0.909  0.7705E+02  0.1328E+03
      0.952  0.7644E+02  0.1361E+03
      0.995  0.7622E+02  0.1394E+03
      1.037  0.7600E+02  0.1426E+03
      1.080  0.7548E+02  0.1458E+03
      1.123  0.7463E+02  0.1490E+03
      1.165  0.7374E+02  0.1522E+03
      1.208  0.7317E+02  0.1553E+03
      1.251  0.7316E+02  0.1584E+03
      1.294  0.7355E+02  0.1616E+03
      1.336  0.7382E+02  0.1647E+03
      1.379  0.7344E+02  0.1678E+03
      1.422  0.7223E+02  0.1709E+03
      1.464  0.7053E+02  0.1739E+03
      1.507  0.6897E+02  0.1769E+03
      1.550  0.6817E+02  0.1798E+03
      1.593  0.6842E+02  0.1827E+03
      1.635  0.6970E+02  0.1857E+03
      1.678  0.7173E+02  0.1888E+03
      1.721  0.7416E+02  0.1919E+03
      1.764  0.7667E+02  0.1952E+03
      1.806  0.7903E+02  0.1986E+03
      1.849  0.8114E+02  0.2021E+03
      1.892  0.8300E+02  0.2056E+03
      1.934  0.8465E+02  0.2092E+03
      1.977  0.8621E+02  0.2129E+03
      2.020  0.8774E+02  0.2167E+03
      2.063  0.8927E+02  0.2205E+03
      2.105  0.9079E+02  0.2243E+03
      2.148  0.9231E+02  0.2283E+03
      2.191  0.9384E+02  0.2323E+03
      2.233  0.9552E+02  0.2364E+03
      2.276  0.9757E+02  0.2405E+03
      2.319  0.1003E+03  0.2448E+03
      2.362  0.1038E+03  0.2493E+03
      2.404  0.1080E+03  0.2539E+03
      2.447  0.1126E+03  0.2587E+03
      2.490  0.1172E+03  0.2637E+03
      2.532  0.1213E+03  0.2689E+03
      2.575  0.1246E+03  0.2742E+03
      2.618  0.1270E+03  0.2796E+03
      2.661  0.1284E+03  0.2851E+03
      2.703  0.1292E+03  0.2906E+03
      2.746  0.1298E+03  0.2962E+03
      2.789  0.1309E+03  0.3018E+03
      2.832  0.1329E+03  0.3074E+03
      2.874  0.1360E+03  0.3133E+03
      2.917  0.1394E+03  0.3192E+03
      2.960  0.1417E+03  0.3253E+03
      3.002  0.1413E+03  0.3313E+03
      3.045  0.1373E+03  0.3372E+03
      3.088  0.1300E+03  0.3427E+03
      3.131  0.1206E+03  0.3479E+03
      3.173  0.1112E+03  0.3526E+03
      3.216  0.1030E+03  0.3570E+03
      3.259  0.9709E+02  0.3612E+03
      3.301  0.9343E+02  0.3652E+03
      3.344  0.9167E+02  0.3691E+03
      3.387  0.9109E+02  0.3730E+03
      3.430  0.9086E+02  0.3768E+03
      3.472  0.9026E+02  0.3807E+03
      3.515  0.8887E+02  0.3845E+03
      3.558  0.8683E+02  0.3882E+03
      3.600  0.8483E+02  0.3918E+03
      3.643  0.8374E+02  0.3954E+03
      3.686  0.8419E+02  0.3990E+03
      3.729  0.8621E+02  0.4027E+03
      3.771  0.8925E+02  0.4065E+03
      3.814  0.9252E+02  0.4105E+03
      3.857  0.9542E+02  0.4145E+03
      3.900  0.9776E+02  0.4187E+03
      3.942  0.9963E+02  0.4230E+03
      3.985  0.1012E+03  0.4273E+03
      4.028  0.1024E+03  0.4317E+03
      4.070  0.1032E+03  0.4361E+03
      4.113  0.1032E+03  0.4405E+03
      4.156  0.1026E+03  0.4449E+03
      4.199  0.1014E+03  0.4492E+03
      4.241  0.1002E+03  0.4535E+03
      4.284  0.9918E+02  0.4577E+03
      4.327  0.9880E+02  0.4619E+03
      4.369  0.9911E+02  0.4662E+03
      4.412  0.9992E+02  0.4704E+03
      4.455  0.1008E+03  0.4747E+03
      4.498  0.1012E+03  0.4791E+03
      4.540  0.1010E+03  0.4834E+03
      4.583  0.1001E+03  0.4877E+03
      4.626  0.9912E+02  0.4919E+03
      4.668  0.9857E+02  0.4961E+03
      4.711  0.9902E+02  0.5003E+03
      4.754  0.1007E+03  0.5046E+03
      4.797  0.1033E+03  0.5090E+03
      4.839  0.1065E+03  0.5136E+03
      4.882  0.1097E+03  0.5183E+03
      4.925  0.1122E+03  0.5231E+03
      4.968  0.1133E+03  0.5279E+03
      5.010  0.1124E+03  0.5327E+03
      5.053  0.1084E+03  0.5373E+03
      5.096  0.1003E+03  0.5416E+03
      5.138  0.8806E+02  0.5454E+03
      5.181  0.7219E+02  0.5485E+03
      5.224  0.5453E+02  0.5508E+03
      5.267  0.3750E+02  0.5524E+03
      5.309  0.2322E+02  0.5534E+03
      5.352  0.1284E+02  0.5540E+03
      5.395  0.6298E+01  0.5542E+03
      5.437  0.2723E+01  0.5543E+03
      5.480  0.1034E+01  0.5544E+03
      5.523  0.3436E+00  0.5544E+03
      5.566  0.9963E-01  0.5544E+03
      5.608  0.2515E-01  0.5544E+03
      5.651  0.5514E-02  0.5544E+03
      5.694  0.1049E-02  0.5544E+03
      5.736  0.1728E-03  0.5544E+03
      5.779  0.2461E-04  0.5544E+03
      5.822  0.3028E-05  0.5544E+03
      5.865  0.3214E-06  0.5544E+03
      5.907  0.2939E-07  0.5544E+03
      5.950  0.2313E-08  0.5544E+03
      5.993  0.1565E-09  0.5544E+03
      6.036  0.9090E-11  0.5544E+03
      6.078  0.4534E-12  0.5544E+03
      6.121  0.1813E-13  0.5544E+03
      6.164  0.3898E-15  0.5544E+03
      6.206  0.0000E+00  0.5544E+03
      6.249  0.0000E+00  0.5544E+03
      6.292  0.0000E+00  0.5544E+03
      6.335  0.0000E+00  0.5544E+03
      6.377  0.0000E+00  0.5544E+03
      6.420  0.0000E+00  0.5544E+03
      6.463  0.0000E+00  0.5544E+03
      6.505  0.0000E+00  0.5544E+03
      6.548  0.0000E+00  0.5544E+03
      6.591  0.0000E+00  0.5544E+03
      6.634  0.0000E+00  0.5544E+03
      6.676  0.0000E+00  0.5544E+03
      6.719  0.0000E+00  0.5544E+03
      6.762  0.0000E+00  0.5544E+03
