       N       E                     dE             d eps       ncg     rms          rms(c)
DAV:   1     0.292342981569E+05    0.29234E+05   -0.86591E+05 27944   0.197E+03
DAV:   2     0.119794024734E+04   -0.28036E+05   -0.27424E+05 27720   0.605E+02
DAV:   3    -0.194009346440E+04   -0.31380E+04   -0.27261E+04 39102   0.280E+02
DAV:   4    -0.261017355619E+04   -0.67008E+03   -0.61011E+03 50876   0.977E+01
DAV:   5    -0.273046529008E+04   -0.12029E+03   -0.11269E+03 48342   0.398E+01    0.203E+02
RMM:   6    -0.496345383657E+04   -0.22330E+04   -0.95618E+03 48112   0.224E+02    0.555E+02
RMM:   7    -0.372055328130E+04    0.12429E+04   -0.43337E+03 28606   0.142E+02    0.371E+02
RMM:   8    -0.912535619972E+04   -0.54048E+04   -0.12616E+04 41358   0.305E+02    0.844E+02
RMM:   9    -0.119957607872E+05   -0.28704E+04   -0.13444E+04 48790   0.150E+02    0.749E+02
RMM:  10    -0.109494260447E+05    0.10463E+04   -0.53883E+03 45995   0.155E+02    0.697E+02
RMM:  11    -0.566848208952E+04    0.52809E+04   -0.10265E+04 40361   0.269E+02    0.585E+02
RMM:  12    -0.850771323214E+04   -0.28392E+04   -0.11110E+04 49191   0.187E+02    0.669E+02
RMM:  13    -0.573712363070E+04    0.27706E+04   -0.76281E+03 31759   0.166E+02    0.486E+02
RMM:  14    -0.484395903361E+04    0.89316E+03   -0.24886E+03 38018   0.834E+01    0.403E+02
RMM:  15    -0.410963104382E+04    0.73433E+03   -0.31629E+03 30346   0.120E+02    0.369E+02
RMM:  16    -0.352539448540E+04    0.58424E+03   -0.32518E+03 30348   0.132E+02    0.349E+02
RMM:  17    -0.309127883057E+04    0.43412E+03   -0.23003E+03 44518   0.495E+01    0.283E+02
RMM:  18    -0.364108104469E+04   -0.54980E+03   -0.18916E+03 37555   0.650E+01    0.289E+02
RMM:  19    -0.331514926662E+04    0.32593E+03   -0.15081E+03 47444   0.398E+01    0.260E+02
RMM:  20    -0.309859870299E+04    0.21655E+03   -0.75925E+02 40248   0.289E+01    0.254E+02
RMM:  21    -0.292955005234E+04    0.16905E+03   -0.72903E+02 38988   0.327E+01    0.217E+02
RMM:  22    -0.282853466457E+04    0.10102E+03   -0.58938E+02 44069   0.236E+01    0.185E+02
RMM:  23    -0.270174354499E+04    0.12679E+03   -0.36908E+02 39631   0.151E+01    0.153E+02
RMM:  24    -0.269210923392E+04    0.96343E+01   -0.27318E+02 39267   0.163E+01    0.163E+02
RMM:  25    -0.254806138201E+04    0.14405E+03   -0.13812E+02 37797   0.115E+01    0.148E+02
RMM:  26    -0.246215317846E+04    0.85908E+02   -0.63548E+01 41347   0.616E+00    0.138E+02
RMM:  27    -0.237527881481E+04    0.86874E+02   -0.37267E+01 35527   0.646E+00    0.960E+01
RMM:  28    -0.240877363883E+04   -0.33495E+02   -0.44896E+01 30203   0.115E+01    0.120E+02
RMM:  29    -0.234807659337E+04    0.60697E+02   -0.37619E+01 33396   0.849E+00    0.787E+01
RMM:  30    -0.233742594309E+04    0.10651E+02   -0.27087E+01 38792   0.497E+00    0.667E+01
RMM:  31    -0.234271754262E+04   -0.52916E+01   -0.10001E+01 31224   0.486E+00    0.686E+01
RMM:  32    -0.234664790076E+04   -0.39304E+01   -0.59498E+00 35326   0.273E+00    0.705E+01
RMM:  33    -0.234323927071E+04    0.34086E+01   -0.39701E+00 41771   0.163E+00    0.666E+01
RMM:  34    -0.233711094853E+04    0.61283E+01   -0.33481E+00 31276   0.273E+00    0.593E+01
RMM:  35    -0.233730400950E+04   -0.19306E+00   -0.43884E+00 29988   0.373E+00    0.594E+01
RMM:  36    -0.233519140902E+04    0.21126E+01   -0.28628E+00 31166   0.275E+00    0.559E+01
RMM:  37    -0.232947740587E+04    0.57140E+01   -0.36590E+00 34678   0.240E+00    0.480E+01
RMM:  38    -0.232317817769E+04    0.62992E+01   -0.49092E+00 32625   0.316E+00    0.403E+01
RMM:  39    -0.232235238038E+04    0.82580E+00   -0.44849E+00 38323   0.240E+00    0.380E+01
RMM:  40    -0.232190316981E+04    0.44921E+00   -0.26446E+00 32927   0.225E+00    0.373E+01
RMM:  41    -0.232195535864E+04   -0.52189E-01   -0.17824E+00 31759   0.206E+00    0.370E+01
RMM:  42    -0.232151063552E+04    0.44472E+00   -0.16791E+00 40648   0.110E+00    0.364E+01
RMM:  43    -0.232142708163E+04    0.83554E-01   -0.83426E-01 34510   0.104E+00    0.363E+01
RMM:  44    -0.232230108858E+04   -0.87401E+00   -0.87498E-01 31300   0.138E+00    0.368E+01
RMM:  45    -0.232556958534E+04   -0.32685E+01   -0.11407E+00 30452   0.184E+00    0.410E+01
RMM:  46    -0.232282280895E+04    0.27468E+01   -0.80767E-01 28862   0.180E+00    0.360E+01
RMM:  47    -0.232251918296E+04    0.30363E+00   -0.88757E-01 34144   0.127E+00    0.356E+01
RMM:  48    -0.232105007360E+04    0.14691E+01   -0.59596E-01 32506   0.113E+00    0.339E+01
RMM:  49    -0.232074583358E+04    0.30424E+00   -0.53838E-01 39211   0.795E-01    0.338E+01
RMM:  50    -0.232077392393E+04   -0.28090E-01   -0.22955E-01 32159   0.715E-01    0.342E+01
RMM:  51    -0.240546115487E+04   -0.84687E+02   -0.60793E+01 29449   0.152E+01    0.114E+02
RMM:  52    -0.240021565762E+04    0.52455E+01   -0.29968E+01 29374   0.101E+01    0.115E+02
RMM:  53    -0.237415243688E+04    0.26063E+02   -0.18311E+01 28973   0.802E+00    0.963E+01
RMM:  54    -0.235350907398E+04    0.20643E+02   -0.13965E+01 27771   0.809E+00    0.768E+01
RMM:  55    -0.234816581202E+04    0.53433E+01   -0.19318E+01 27998   0.922E+00    0.706E+01
RMM:  56    -0.235181538105E+04   -0.36496E+01   -0.19829E+01 27722   0.101E+01    0.730E+01
RMM:  57    -0.235166856071E+04    0.14682E+00   -0.12209E+01 27958   0.775E+00    0.728E+01
RMM:  58    -0.235471824882E+04   -0.30497E+01   -0.91178E+00 29655   0.548E+00    0.750E+01
RMM:  59    -0.234733101023E+04    0.73872E+01   -0.74008E+00 32046   0.392E+00    0.680E+01
RMM:  60    -0.234113850395E+04    0.61925E+01   -0.38922E+00 33601   0.275E+00    0.627E+01
RMM:  61    -0.251309570907E+04   -0.17196E+03   -0.15919E+02 32753   0.174E+01    0.157E+02
RMM:  62    -0.253210883970E+04   -0.19013E+02   -0.20014E+02 43317   0.902E+00    0.163E+02
RMM:  63    -0.253660956116E+04   -0.45007E+01   -0.12584E+02 46187   0.420E+00    0.170E+02
RMM:  64    -0.253594731839E+04    0.66224E+00   -0.69985E+01 44345   0.380E+00    0.177E+02
RMM:  65    -0.256412034655E+04   -0.28173E+02   -0.45748E+01 39215   0.443E+00    0.191E+02
RMM:  66    -0.247748626450E+04    0.86634E+02   -0.47542E+01 33606   0.806E+00    0.165E+02
RMM:  67    -0.242608472412E+04    0.51402E+02   -0.21293E+01 30633   0.746E+00    0.144E+02
RMM:  68    -0.238599113999E+04    0.40094E+02   -0.17440E+01 29490   0.784E+00    0.118E+02
RMM:  69    -0.235362481160E+04    0.32366E+02   -0.20800E+01 34544   0.577E+00    0.894E+01
RMM:  70    -0.234001529145E+04    0.13610E+02   -0.16137E+01 30474   0.662E+00    0.709E+01
RMM:  71    -0.237075216469E+04   -0.30737E+02   -0.51331E+01 27934   0.145E+01    0.991E+01
RMM:  72    -0.232609502924E+04    0.44657E+02   -0.25849E+01 27722   0.124E+01    0.472E+01
RMM:  73    -0.232194382830E+04    0.41512E+01   -0.22883E+01 34956   0.558E+00    0.346E+01
RMM:  74    -0.232366300019E+04   -0.17192E+01   -0.18498E+01 39440   0.469E+00    0.359E+01
RMM:  75    -0.232435767132E+04   -0.69467E+00   -0.68987E+00 32451   0.376E+00    0.372E+01
RMM:  76    -0.232430104026E+04    0.56631E-01   -0.58230E+00 29761   0.428E+00    0.368E+01
RMM:  77    -0.232121734889E+04    0.30837E+01   -0.26707E+00 28901   0.328E+00    0.281E+01
RMM:  78    -0.232081975580E+04    0.39759E+00   -0.21192E+00 30352   0.250E+00    0.266E+01
RMM:  79    -0.232127852510E+04   -0.45877E+00   -0.15631E+00 32743   0.182E+00    0.283E+01
RMM:  80    -0.232161795670E+04   -0.33943E+00   -0.12196E+00 42821   0.800E-01    0.293E+01
RMM:  81    -0.232469327310E+04   -0.30753E+01   -0.20371E+00 29394   0.258E+00    0.384E+01
RMM:  82    -0.232235518409E+04    0.23381E+01   -0.70898E-01 27800   0.209E+00    0.315E+01
RMM:  83    -0.232164092864E+04    0.71426E+00   -0.41157E-01 32056   0.926E-01    0.294E+01
RMM:  84    -0.232070846235E+04    0.93247E+00   -0.25010E-01 29606   0.961E-01    0.258E+01
RMM:  85    -0.231978237898E+04    0.92608E+00   -0.45154E-01 28954   0.137E+00    0.217E+01
RMM:  86    -0.232521062649E+04   -0.54282E+01   -0.77143E+00 28415   0.540E+00    0.384E+01
RMM:  87    -0.232011505005E+04    0.50956E+01   -0.25955E+00 27720   0.440E+00    0.218E+01
RMM:  88    -0.231954249526E+04    0.57255E+00   -0.68791E-01 28839   0.168E+00    0.195E+01
RMM:  89    -0.231942589488E+04    0.11660E+00   -0.92508E-01 30335   0.160E+00    0.184E+01
RMM:  90    -0.231899686496E+04    0.42903E+00   -0.77911E-01 32836   0.121E+00    0.146E+01
RMM:  91    -0.231937926577E+04   -0.38240E+00   -0.10072E+00 29185   0.185E+00    0.180E+01
RMM:  92    -0.231897055519E+04    0.40871E+00   -0.41721E-01 28555   0.140E+00    0.142E+01
RMM:  93    -0.231903386113E+04   -0.63306E-01   -0.44935E-01 33565   0.864E-01    0.138E+01
RMM:  94    -0.231879414400E+04    0.23972E+00   -0.53700E-01 32511   0.107E+00    0.118E+01
RMM:  95    -0.231870143987E+04    0.92704E-01   -0.41991E-01 32727   0.929E-01    0.108E+01
RMM:  96    -0.231903542390E+04   -0.33398E+00   -0.76852E-01 29439   0.158E+00    0.143E+01
RMM:  97    -0.231911743075E+04   -0.82007E-01   -0.48608E-01 27919   0.167E+00    0.143E+01
RMM:  98    -0.231905291021E+04    0.64521E-01   -0.45805E-01 32137   0.973E-01    0.137E+01
RMM:  99    -0.231906816088E+04   -0.15251E-01   -0.37762E-01 42318   0.455E-01    0.139E+01
RMM: 100    -0.231906435237E+04    0.38085E-02   -0.11378E-01 45611   0.161E-01
   1 F= -.23190644E+04 E0= -.23163202E+04  d E =-.231906E+04
       N       E                     dE             d eps       ncg     rms          rms(c)
DAV:   1    -0.231915138298E+04   -0.83222E-01   -0.61711E+01 39326   0.994E+00    0.131E+01
RMM:   2    -0.283775213900E+04   -0.51860E+03   -0.57245E+02 43654   0.346E+01    0.187E+02
RMM:   3    -0.266589556812E+04    0.17186E+03   -0.11105E+02 28055   0.197E+01    0.212E+02
RMM:   4    -0.255311556223E+04    0.11278E+03   -0.41670E+01 28210   0.126E+01    0.182E+02
RMM:   5    -0.242918132868E+04    0.12393E+03   -0.20775E+01 30824   0.795E+00    0.132E+02
RMM:   6    -0.234440743686E+04    0.84774E+02   -0.18306E+01 29544   0.721E+00    0.679E+01
RMM:   7    -0.234090756326E+04    0.34999E+01   -0.21784E+01 30511   0.746E+00    0.649E+01
RMM:   8    -0.233645175928E+04    0.44558E+01   -0.27049E+01 34513   0.734E+00    0.571E+01
RMM:   9    -0.233496707325E+04    0.14847E+01   -0.18543E+01 36552   0.493E+00    0.494E+01
RMM:  10    -0.232485629165E+04    0.10111E+02   -0.89132E+00 33478   0.410E+00    0.323E+01
RMM:  11    -0.232348939402E+04    0.13669E+01   -0.31054E+00 27809   0.385E+00    0.297E+01
RMM:  12    -0.232147661000E+04    0.20128E+01   -0.17591E+00 27775   0.299E+00    0.239E+01
RMM:  13    -0.232153619432E+04   -0.59584E-01   -0.15708E+00 28481   0.240E+00    0.239E+01
RMM:  14    -0.231990044011E+04    0.16358E+01   -0.88721E-01 31419   0.140E+00    0.170E+01
RMM:  15    -0.231909880012E+04    0.80164E+00   -0.79961E-01 36800   0.101E+00    0.122E+01
RMM:  16    -0.231834495356E+04    0.75385E+00   -0.23526E-01 31928   0.746E-01    0.467E+00
RMM:  17    -0.231835230595E+04   -0.73524E-02   -0.23674E-01 30890   0.800E-01    0.508E+00
RMM:  18    -0.231838036477E+04   -0.28059E-01   -0.21733E-01 34283   0.624E-01    0.543E+00
RMM:  19    -0.231844177769E+04   -0.61413E-01   -0.11429E-01 31978   0.503E-01    0.645E+00
RMM:  20    -0.231844721087E+04   -0.54332E-02   -0.10626E-01 39280   0.322E-01    0.637E+00
RMM:  21    -0.231839534672E+04    0.51864E-01   -0.38822E-02 30654   0.328E-01    0.540E+00
RMM:  22    -0.231835788104E+04    0.37466E-01   -0.56060E-02 27907   0.489E-01    0.454E+00
RMM:  23    -0.231835337800E+04    0.45030E-02   -0.70517E-02 28064   0.540E-01    0.457E+00
RMM:  24    -0.231834124314E+04    0.12135E-01   -0.55742E-02 29387   0.433E-01    0.434E+00
RMM:  25    -0.231831600972E+04    0.25233E-01   -0.63970E-02 38648   0.275E-01    0.373E+00
RMM:  26    -0.231829458341E+04    0.21426E-01   -0.21911E-02 32145   0.210E-01    0.312E+00
RMM:  27    -0.231828625220E+04    0.83312E-02   -0.18876E-02 36079   0.169E-01    0.281E+00
RMM:  28    -0.231827038496E+04    0.15867E-01   -0.90388E-03 30059   0.161E-01    0.211E+00
RMM:  29    -0.231826756696E+04    0.28180E-02   -0.63423E-03 29313   0.149E-01    0.194E+00
RMM:  30    -0.231826385515E+04    0.37118E-02   -0.11509E-02 32200   0.159E-01    0.169E+00
RMM:  31    -0.231825554128E+04    0.83139E-02   -0.73702E-03 29218   0.165E-01    0.107E+00
RMM:  32    -0.231825422099E+04    0.13203E-02   -0.66531E-03 32806   0.115E-01    0.933E-01
RMM:  33    -0.231825334648E+04    0.87451E-03   -0.63700E-03 36487   0.992E-02    0.773E-01
RMM:  34    -0.231825230365E+04    0.10428E-02   -0.23658E-03 30605   0.806E-02    0.584E-01
RMM:  35    -0.231825220195E+04    0.10170E-03   -0.23891E-03 40434   0.469E-02    0.542E-01
RMM:  36    -0.231825269777E+04   -0.49582E-03   -0.11937E-03 31166   0.558E-02    0.564E-01
RMM:  37    -0.231825278098E+04   -0.83206E-04   -0.55669E-04 28926   0.476E-02    0.556E-01
RMM:  38    -0.231825235613E+04    0.42484E-03   -0.78057E-04 32493   0.405E-02    0.474E-01
RMM:  39    -0.231825165915E+04    0.69698E-03   -0.46626E-04 28649   0.418E-02    0.294E-01
RMM:  40    -0.231825151582E+04    0.14333E-03   -0.32651E-04 30136   0.310E-02    0.238E-01
RMM:  41    -0.231825152128E+04   -0.54673E-05   -0.36777E-04 39236   0.205E-02    0.227E-01
RMM:  42    -0.231825144968E+04    0.71607E-04   -0.86656E-05 30729   0.154E-02    0.167E-01
RMM:  43    -0.231825145036E+04   -0.68336E-06   -0.67838E-05 36182   0.884E-03    0.158E-01
RMM:  44    -0.231825148941E+04   -0.39050E-04   -0.44581E-05 32227   0.984E-03    0.146E-01
RMM:  45    -0.231825150898E+04   -0.19571E-04   -0.23134E-05 29400   0.890E-03    0.130E-01
RMM:  46    -0.231825152318E+04   -0.14198E-04   -0.37425E-05 36310   0.750E-03    0.123E-01
RMM:  47    -0.231825163418E+04   -0.11100E-03   -0.11161E-04 34506   0.140E-02    0.951E-02
RMM:  48    -0.231825163861E+04   -0.44302E-05   -0.39573E-05 31964   0.936E-03    0.830E-02
RMM:  49    -0.231825165093E+04   -0.12320E-04   -0.30539E-05 32966   0.779E-03    0.735E-02
RMM:  50    -0.231825165951E+04   -0.85811E-05   -0.12294E-05 26822   0.742E-03    0.532E-02
RMM:  51    -0.231825166087E+04   -0.13633E-05   -0.10850E-05 26857   0.585E-03    0.462E-02
RMM:  52    -0.231825165922E+04    0.16497E-05   -0.14675E-05 28376   0.705E-03    0.297E-02
RMM:  53    -0.231825165970E+04   -0.47806E-06   -0.69480E-06 23420   0.538E-03
   2 F= -.23182517E+04 E0= -.23154841E+04  d E =0.812693E+00
       N       E                     dE             d eps       ncg     rms          rms(c)
DAV:   1    -0.231833261366E+04   -0.80954E-01   -0.48594E+01 27720   0.731E+00    0.136E+00
RMM:   2    -0.232152552072E+04   -0.31929E+01   -0.14169E+00 29148   0.235E+00    0.240E+01
RMM:   3    -0.232308133176E+04   -0.15558E+01   -0.74287E-01 38052   0.101E+00    0.296E+01
RMM:   4    -0.231893975549E+04    0.41416E+01   -0.26388E-01 27752   0.109E+00    0.909E+00
RMM:   5    -0.231876017904E+04    0.17958E+00   -0.25405E-01 27897   0.103E+00    0.849E+00
RMM:   6    -0.231943573424E+04   -0.67556E+00   -0.35813E-01 38693   0.668E-01    0.142E+01
RMM:   7    -0.231942602050E+04    0.97137E-02   -0.39071E-01 35586   0.789E-01    0.136E+01
RMM:   8    -0.231846356694E+04    0.96245E+00   -0.15939E-01 27736   0.856E-01    0.354E+00
RMM:   9    -0.231840166774E+04    0.61899E-01   -0.66971E-02 27800   0.588E-01    0.228E+00
RMM:  10    -0.231842800822E+04   -0.26340E-01   -0.90615E-02 31449   0.438E-01    0.311E+00
RMM:  11    -0.231840504882E+04    0.22959E-01   -0.59108E-02 29782   0.409E-01    0.224E+00
RMM:  12    -0.231838605472E+04    0.18994E-01   -0.28498E-02 29052   0.316E-01    0.139E+00
RMM:  13    -0.231838392066E+04    0.21341E-02   -0.26114E-02 36366   0.167E-01    0.115E+00
RMM:  14    -0.231838166482E+04    0.22558E-02   -0.11142E-02 33442   0.146E-01    0.908E-01
RMM:  15    -0.231837801487E+04    0.36499E-02   -0.29752E-03 27813   0.117E-01    0.406E-01
RMM:  16    -0.231837769279E+04    0.32208E-03   -0.21232E-03 31590   0.705E-02    0.312E-01
RMM:  17    -0.231837781150E+04   -0.11871E-03   -0.22374E-03 32959   0.680E-02    0.324E-01
RMM:  18    -0.231837741546E+04    0.39604E-03   -0.72870E-04 28491   0.574E-02    0.181E-01
RMM:  19    -0.231837740617E+04    0.92865E-05   -0.75924E-04 34422   0.351E-02    0.156E-01
RMM:  20    -0.231837745943E+04   -0.53258E-04   -0.53941E-04 32120   0.348E-02    0.172E-01
RMM:  21    -0.231837735430E+04    0.10513E-03   -0.19046E-04 29165   0.285E-02    0.100E-01
RMM:  22    -0.231837735289E+04    0.14165E-05   -0.22471E-04 38230   0.142E-02    0.827E-02
RMM:  23    -0.231837734883E+04    0.40571E-05   -0.12005E-04 35187   0.129E-02    0.694E-02
RMM:  24    -0.231837733938E+04    0.94471E-05   -0.49420E-05 31723   0.101E-02    0.516E-02
RMM:  25    -0.231837734077E+04   -0.13864E-05   -0.47681E-05 36961   0.573E-03    0.481E-02
RMM:  26    -0.231837733351E+04    0.72590E-05   -0.15764E-05 28778   0.529E-03    0.272E-02
RMM:  27    -0.231837733103E+04    0.24787E-05   -0.69281E-06 22615   0.421E-03    0.155E-02
RMM:  28    -0.231837733116E+04   -0.12893E-06   -0.46696E-06 20571   0.301E-03
   3 F= -.23183773E+04 E0= -.23156059E+04  d E =0.687021E+00
       N       E                     dE             d eps       ncg     rms          rms(c)
DAV:   1    -0.231829223084E+04    0.85100E-01   -0.19414E+02 27720   0.146E+01    0.290E+00
RMM:   2    -0.232957611328E+04   -0.11284E+02   -0.61760E+00 28604   0.509E+00    0.453E+01
RMM:   3    -0.234026498670E+04   -0.10689E+02   -0.28728E+00 36913   0.221E+00    0.640E+01
RMM:   4    -0.232113907340E+04    0.19126E+02   -0.11007E+00 27747   0.219E+00    0.195E+01
RMM:   5    -0.232029460991E+04    0.84446E+00   -0.11475E+00 27792   0.226E+00    0.181E+01
RMM:   6    -0.232341292087E+04   -0.31183E+01   -0.16060E+00 38554   0.142E+00    0.304E+01
RMM:   7    -0.232346532802E+04   -0.52407E-01   -0.17903E+00 35128   0.171E+00    0.299E+01
RMM:   8    -0.231891139870E+04    0.45539E+01   -0.69464E-01 27729   0.184E+00    0.775E+00
RMM:   9    -0.231865730772E+04    0.25409E+00   -0.33155E-01 27761   0.132E+00    0.557E+00
RMM:  10    -0.231880556393E+04   -0.14826E+00   -0.40483E-01 29465   0.109E+00    0.756E+00
RMM:  11    -0.231863197911E+04    0.17358E+00   -0.24318E-01 28493   0.915E-01    0.483E+00
RMM:  12    -0.231854617794E+04    0.85801E-01   -0.13678E-01 29291   0.655E-01    0.304E+00
RMM:  13    -0.231854018845E+04    0.59895E-02   -0.12300E-01 35797   0.369E-01    0.265E+00
RMM:  14    -0.231853157787E+04    0.86106E-02   -0.51693E-02 32754   0.329E-01    0.224E+00
RMM:  15    -0.231851223123E+04    0.19347E-01   -0.14950E-02 27907   0.267E-01    0.121E+00
RMM:  16    -0.231850968555E+04    0.25457E-02   -0.13886E-02 35105   0.145E-01    0.948E-01
RMM:  17    -0.231850715878E+04    0.25268E-02   -0.84264E-03 31817   0.140E-01    0.664E-01
RMM:  18    -0.231850611155E+04    0.10472E-02   -0.33783E-03 29035   0.117E-01    0.516E-01
RMM:  19    -0.231850657567E+04   -0.46412E-03   -0.44481E-03 33925   0.879E-02    0.552E-01
RMM:  20    -0.231850585738E+04    0.71830E-03   -0.22683E-03 30990   0.763E-02    0.372E-01
RMM:  21    -0.231850548312E+04    0.37425E-03   -0.13202E-03 31335   0.584E-02    0.254E-01
RMM:  22    -0.231850543746E+04    0.45666E-04   -0.13529E-03 36447   0.430E-02    0.220E-01
RMM:  23    -0.231850551722E+04   -0.79766E-04   -0.42249E-04 29760   0.367E-02    0.249E-01
RMM:  24    -0.231850549901E+04    0.18216E-04   -0.32462E-04 33555   0.240E-02    0.232E-01
RMM:  25    -0.231850539573E+04    0.10328E-03   -0.28029E-04 39098   0.171E-02    0.180E-01
RMM:  26    -0.231850526533E+04    0.13040E-03   -0.10315E-04 32030   0.147E-02    0.885E-02
RMM:  27    -0.231850525920E+04    0.61290E-05   -0.10296E-04 40090   0.930E-03    0.748E-02
RMM:  28    -0.231850524711E+04    0.12090E-04   -0.52248E-05 33631   0.918E-03    0.526E-02
RMM:  29    -0.231850523893E+04    0.81821E-05   -0.24853E-05 30865   0.741E-03    0.327E-02
RMM:  30    -0.231850523933E+04   -0.40146E-06   -0.22308E-05 30683   0.424E-03    0.289E-02
RMM:  31    -0.231850523752E+04    0.18130E-05   -0.71329E-06 22806   0.422E-03    0.177E-02
RMM:  32    -0.231850523701E+04    0.50914E-06   -0.31644E-06 18731   0.337E-03
   4 F= -.23185052E+04 E0= -.23157263E+04  d E =0.559115E+00
       N       E                     dE             d eps       ncg     rms          rms(c)
DAV:   1    -0.231862111132E+04   -0.11587E+00   -0.90034E+01 27720   0.994E+00    0.171E+00
RMM:   2    -0.231986409436E+04   -0.12430E+01   -0.19791E+00 27999   0.295E+00    0.149E+01
RMM:   3    -0.232347235932E+04   -0.36083E+01   -0.10577E+00 39003   0.127E+00    0.291E+01
RMM:   4    -0.231913999031E+04    0.43324E+01   -0.29275E-01 27722   0.121E+00    0.802E+00
RMM:   5    -0.231954734145E+04   -0.40735E+00   -0.22408E-01 39350   0.510E-01    0.124E+01
RMM:   6    -0.231963559664E+04   -0.88255E-01   -0.50477E-01 30632   0.105E+00    0.127E+01
RMM:   7    -0.231918388577E+04    0.45171E+00   -0.31659E-01 28448   0.108E+00    0.924E+00
RMM:   8    -0.231909268454E+04    0.91201E-01   -0.19639E-01 29688   0.735E-01    0.828E+00
RMM:   9    -0.231878637722E+04    0.30631E+00   -0.93376E-02 27722   0.718E-01    0.335E+00
RMM:  10    -0.231879530924E+04   -0.89320E-02   -0.88660E-02 29420   0.527E-01    0.374E+00
RMM:  11    -0.231876108377E+04    0.34225E-01   -0.99196E-02 31144   0.494E-01    0.276E+00
RMM:  12    -0.231873000875E+04    0.31075E-01   -0.32852E-02 27722   0.421E-01    0.157E+00
RMM:  13    -0.231872286306E+04    0.71457E-02   -0.18077E-02 30218   0.225E-01    0.112E+00
RMM:  14    -0.231872426584E+04   -0.14028E-02   -0.21630E-02 36095   0.168E-01    0.116E+00
RMM:  15    -0.231871940241E+04    0.48634E-02   -0.65721E-03 28910   0.151E-01    0.627E-01
RMM:  16    -0.231871806349E+04    0.13389E-02   -0.53615E-03 33539   0.101E-01    0.363E-01
RMM:  17    -0.231871875387E+04   -0.69038E-03   -0.40468E-03 32018   0.960E-02    0.487E-01
RMM:  18    -0.231871772924E+04    0.10246E-02   -0.15139E-03 28515   0.816E-02    0.231E-01
RMM:  19    -0.231871768860E+04    0.40643E-04   -0.14855E-03 36078   0.432E-02    0.179E-01
RMM:  20    -0.231871770470E+04   -0.16100E-04   -0.78493E-04 34171   0.357E-02    0.169E-01
RMM:  21    -0.231871763833E+04    0.66365E-04   -0.31791E-04 30662   0.303E-02    0.120E-01
RMM:  22    -0.231871763355E+04    0.47877E-05   -0.27791E-04 36252   0.173E-02    0.100E-01
RMM:  23    -0.231871763349E+04    0.54482E-07   -0.17049E-04 35919   0.151E-02    0.906E-02
RMM:  24    -0.231871760751E+04    0.25987E-04   -0.62159E-05 31028   0.129E-02    0.542E-02
RMM:  25    -0.231871760852E+04   -0.10103E-05   -0.58880E-05 38187   0.700E-03    0.491E-02
RMM:  26    -0.231871760491E+04    0.36100E-05   -0.24872E-05 32493   0.624E-03    0.360E-02
RMM:  27    -0.231871759960E+04    0.53042E-05   -0.95671E-06 24931   0.515E-03    0.135E-02
RMM:  28    -0.231871759982E+04   -0.21976E-06   -0.65383E-06 22242   0.290E-03
   5 F= -.23187176E+04 E0= -.23159396E+04  d E =-.212363E+00
