unknown system                          
           1
     9.726678    0.000000    0.000000
     0.000000    8.423550    0.000000
     0.000000    0.000000   45.000000
   Fe   Mn
 281   7
Direct configuration=     1
   0.06161528  0.03537971  0.12445270
   0.81444882  0.04296725  0.87571378
   0.19535521  0.12553292  0.78856710
   0.19521867  0.62512506  0.78831257
   0.31600482  0.36101482  0.16670938
   0.80879338  0.21317908  0.83313505
   0.18341854  0.78749732  0.38904357
   0.56382913  0.20769001  0.56543240
   0.06036958  0.04220525  0.74414974
   0.81346023  0.87197030  0.52131538
   0.18561357  0.29190480  0.74410971
   0.94136197  0.45176014  0.34492796
   0.93356296  0.28739570  0.38907269
   0.43849670  0.62195635  0.52130244
   0.18779798  0.79180726  0.61080103
   0.55822562  0.03779440  0.38907277
   0.93350080  0.96300591  0.83316582
   0.31416778  0.54253453  0.87554809
   0.68567547  0.29211506  0.74407902
   0.94139248  0.95194387  0.34497311
   0.81284018  0.20586336  0.47862217
   0.81282071  0.54179920  0.61078151
   0.31305564  0.87042475  0.43443412
   0.81557690  0.03518112  0.25605935
   0.69148301  0.95160426  0.34491521
   0.94287075  0.11337366  0.16698014
   0.93847564  0.12198341  0.52130843
   0.56510943  0.53565556  0.25594563
   0.69367799  0.79669424  0.87572252
   0.56714064  0.36213110  0.16677382
   0.43589456  0.79184082  0.74415727
   0.81380381  0.70762063  0.56543827
   0.57043328  0.87429272  0.78836468
   0.68844920  0.12206663  0.52130629
   0.19018811  0.28557468  0.25597387
   0.93360965  0.46332969  0.83301554
   0.06553494  0.20855232  0.69971017
   0.80869233  0.03749422  0.38901644
   0.30888760  0.21390907  0.83329732
   0.43398755  0.62599834  0.65495807
   0.31281854  0.54168859  0.61075856
   0.93873273  0.45778797  0.56544820
   0.68561835  0.79208912  0.74416560
   0.30877198  0.87561857  0.65492806
   0.68368191  0.78742126  0.38905980
   0.93584770  0.79185563  0.74415873
   0.06620785  0.20197092  0.34496610
   0.43663054  0.78047388  0.12412501
   0.44536434  0.12521425  0.78862624
   0.05491859  0.20273499  0.21189521
   0.06720394  0.36205168  0.16677852
   0.94030722  0.78527165  0.25602036
   0.56543820  0.20838025  0.69970910
   0.69048407  0.95836780  0.69970870
   0.68352197  0.28761800  0.38905579
   0.43884000  0.95775199  0.56541895
   0.82066665  0.37430022  0.78839162
   0.68996118  0.28548146  0.25603926
   0.18877937  0.45771780  0.56544433
   0.06739005  0.86158877  0.16678414
   0.18787706  0.29185289  0.61077544
   0.56649843  0.70214860  0.34501668
   0.31539783  0.20841206  0.69971999
   0.56587794  0.54185336  0.87555080
   0.06378462  0.70771523  0.56543113
   0.69520960  0.62501445  0.78857555
   0.30870599  0.53701398  0.38903591
   0.18849330  0.62196709  0.52129379
   0.56300393  0.87042075  0.43443257
   0.43882834  0.45773072  0.56542776
   0.43583340  0.29184891  0.74413446
   0.80334242  0.87169604  0.30032336
   0.81644734  0.70204141  0.34499067
   0.43352609  0.46430621  0.83318285
   0.68779464  0.95583466  0.47861417
   0.69085836  0.45819368  0.69972400
   0.56347763  0.87203158  0.52131640
   0.55882376  0.37563242  0.65491608
   0.80880008  0.87561125  0.65487228
   0.81321692  0.37056172  0.43429869
   0.81523878  0.53539690  0.25601880
   0.68348954  0.46309263  0.83308186
   0.18790560  0.77927384  0.12430422
   0.06438166  0.04304000  0.87561937
   0.30886109  0.37567253  0.65490827
   0.31641516  0.20184490  0.34496422
   0.81076204  0.54234981  0.74408633
   0.68387610  0.96350500  0.83310295
   0.55886519  0.87567209  0.65491627
   0.31379833  0.70771246  0.56544061
   0.31242170  0.53518714  0.12414499
   0.67986315  0.95245236  0.21165581
   0.31381374  0.20762628  0.56543095
   0.31098342  0.54275724  0.74425821
   0.68876372  0.95767937  0.56543123
   0.43779798  0.79177315  0.61079765
   0.69229773  0.61094006  0.16700734
   0.30364966  0.87237220  0.30024937
   0.31281855  0.70576031  0.47863994
   0.93790132  0.29172686  0.61076212
   0.42848644  0.62212171  0.30028557
   0.81654729  0.86234365  0.16685683
   0.55535854  0.20212300  0.21159332
   0.94201095  0.61308094  0.16697315
   0.94138732  0.79669921  0.87569005
   0.57045370  0.37433450  0.78834819
   0.06349291  0.37197664  0.52130973
   0.56338256  0.37196892  0.52131018
   0.67870705  0.12204827  0.30029355
   0.43288523  0.96303350  0.83318591
   0.18780047  0.95577638  0.47862320
   0.82076806  0.87444295  0.78840199
   0.31291951  0.37025272  0.43445296
   0.93762681  0.79185557  0.61095965
   0.43773898  0.29183387  0.61084679
   0.19137516  0.45183955  0.34494361
   0.43882520  0.28152118  0.12443568
   0.69017017  0.78544516  0.25604419
   0.19065435  0.95842490  0.69968656
   0.19100060  0.29592139  0.87583405
   0.18390660  0.12581931  0.65489251
   0.93385884  0.12581389  0.65490232
   0.30526466  0.20280035  0.21195169
   0.05872112  0.03751131  0.38901906
   0.44016616  0.95816154  0.69966548
   0.06300782  0.54164733  0.61070298
   0.94026859  0.28515449  0.25600359
   0.56282098  0.54176174  0.61078708
   0.93884722  0.95768835  0.56542153
   0.67863191  0.62197929  0.30032076
   0.93791030  0.62043574  0.43443307
   0.94535216  0.62501839  0.78858333
   0.56538306  0.70841288  0.69967921
   0.05897854  0.71326518  0.83336849
   0.92854580  0.12198935  0.30036046
   0.94007685  0.45837026  0.69966122
   0.43994743  0.78559431  0.25605361
   0.32088922  0.37457502  0.78839645
   0.42977941  0.45211797  0.21172404
   0.18848991  0.12198360  0.52131417
   0.81554191  0.70841281  0.69967117
   0.06272526  0.04186773  0.61086654
   0.55897139  0.21336941  0.83324608
   0.31346420  0.87208907  0.52130040
   0.68682757  0.28182591  0.12426815
   0.17995666  0.95264340  0.21190471
   0.68788886  0.29172702  0.61071600
   0.31258038  0.04198989  0.61088138
   0.94571613  0.12534468  0.78843438
   0.44171708  0.79754922  0.87569905
   0.81086627  0.04250525  0.74405621
   0.43850433  0.12201425  0.52131425
   0.18386230  0.62581890  0.65492151
   0.31528018  0.70826975  0.69963601
   0.93447342  0.27918050  0.12458388
   0.43784119  0.45588131  0.47861636
   0.06283638  0.70593390  0.47861272
   0.93803673  0.12046696  0.43444283
   0.42861505  0.12210650  0.30034901
   0.18795047  0.12044059  0.43444463
   0.56536809  0.04335551  0.87559180
   0.18876184  0.95769209  0.56544257
   0.68853144  0.78151348  0.12432288
   0.56451803  0.53296521  0.12453280
   0.30872290  0.03746711  0.38905588
   0.69218792  0.11111062  0.16699659
   0.80576644  0.20300915  0.21195283
   0.06547758  0.53536620  0.25601490
   0.56277022  0.70572836  0.47863464
   0.06382112  0.20770157  0.56542809
   0.55369129  0.37191577  0.30036321
   0.44118275  0.95210078  0.34501006
   0.18403226  0.96355333  0.83323863
   0.44175777  0.61252357  0.16682863
   0.93012671  0.45301424  0.21187088
   0.06238401  0.53356948  0.12460543
   0.81346449  0.37200378  0.52128233
   0.92850800  0.62195923  0.30037859
   0.31537267  0.03540962  0.25601734
   0.06346444  0.87202509  0.52130792
   0.18402342  0.46469807  0.83330865
   0.44260333  0.11092581  0.16670514
   0.31347090  0.37200492  0.52130869
   0.44599189  0.62486542  0.78838508
   0.06516111  0.03524563  0.25603200
   0.56380855  0.70771092  0.56544054
   0.17876743  0.62219348  0.30034504
   0.69557061  0.12519331  0.78849225
   0.18108060  0.45171200  0.21158427
   0.93362002  0.78751494  0.38906569
   0.69412773  0.29746201  0.87580270
   0.68772235  0.79185623  0.61083226
   0.44034365  0.45801702  0.69960325
   0.80886857  0.37560240  0.65491223
   0.68847325  0.62201831  0.52128688
   0.05884729  0.87561950  0.65488975
   0.07081004  0.87452029  0.78839056
   0.05899157  0.37563462  0.65490865
   0.68784529  0.45581561  0.47862666
   0.19001178  0.78570239  0.25597701
   0.43808691  0.12034851  0.43441164
   0.05868889  0.53769109  0.38905803
   0.93850052  0.62203306  0.52129772
   0.06305697  0.87039419  0.43442615
   0.81113274  0.53361237  0.12440884
   0.44141019  0.45167638  0.34496799
   0.81649684  0.20194157  0.34498816
   0.18620976  0.28051371  0.12439127
   0.68380901  0.12574321  0.65488908
   0.55377791  0.87213437  0.30027918
   0.06059894  0.54210334  0.74420265
   0.93556234  0.77999552  0.12443843
   0.80520410  0.70293500  0.21183124
   0.05385194  0.87212481  0.30030232
   0.17851964  0.12224673  0.30031040
   0.06634543  0.70190797  0.34497893
   0.81268307  0.04182089  0.61084390
   0.06281918  0.37039783  0.43442081
   0.56635386  0.20188185  0.34495329
   0.80353373  0.37205669  0.30032428
   0.43780621  0.95572551  0.47865118
   0.55859099  0.53732763  0.38905374
   0.06282743  0.20592186  0.47861965
   0.32031246  0.87454660  0.78836064
   0.94037599  0.95847007  0.69975793
   0.05369205  0.37204536  0.30033075
   0.68404751  0.62604339  0.65496837
   0.68878477  0.45773119  0.56543579
   0.43068773  0.95254283  0.21176938
   0.31280219  0.20574070  0.47863162
   0.43386589  0.12569801  0.65490870
   0.68808818  0.62046341  0.43442641
   0.81526819  0.20828988  0.69965521
   0.81285771  0.70588307  0.47862511
   0.56311786  0.37029226  0.43439786
   0.93783060  0.95576157  0.47860681
   0.56287348  0.20581819  0.47862558
   0.18791820  0.62045315  0.43442727
   0.31070269  0.04185907  0.74401318
   0.93395517  0.62596348  0.65490395
   0.55883576  0.71305690  0.83321615
   0.30370575  0.37222087  0.30031867
   0.55472277  0.70141408  0.21181359
   0.18778584  0.45575562  0.47863919
   0.31505936  0.04190137  0.87572132
   0.19012053  0.45804335  0.69961469
   0.81462853  0.54268223  0.87564433
   0.18366741  0.28758095  0.38906607
   0.43791521  0.62049922  0.43443180
   0.05526724  0.70314795  0.21188232
   0.81186217  0.03315254  0.12448637
   0.81677997  0.36220976  0.16712304
   0.80840007  0.71376122  0.83312268
   0.07085426  0.37449479  0.78844661
   0.44355561  0.29683712  0.87575947
   0.31341107  0.03372250  0.12449970
   0.68799120  0.12048465  0.43443617
   0.19124269  0.95182986  0.34497264
   0.05862011  0.21362101  0.83333053
   0.56273606  0.04187982  0.61087834
   0.68040797  0.45314775  0.21187397
   0.18636273  0.79165857  0.74418357
   0.81307468  0.87027878  0.43442737
   0.43370015  0.78732423  0.38902916
   0.44056338  0.28537624  0.25597084
   0.06434468  0.54249427  0.87567037
   0.56065853  0.04208995  0.74409599
   0.19398034  0.79707138  0.87591352
   0.93781407  0.45572380  0.47863783
   0.80854794  0.53759884  0.38907881
   0.81377576  0.20773875  0.56543507
   0.31638823  0.70207535  0.34496972
   0.93082865  0.95298270  0.21188835
   0.06531192  0.70842103  0.69967903
   0.31495828  0.53565394  0.25604654
   0.30565384  0.70196297  0.21191864
   0.56702865  0.86310232  0.16667026
   0.56081690  0.54264450  0.74411037
   0.69102077  0.45177620  0.34492382
   0.94098124  0.29697113  0.87584274
   0.56501145  0.03537805  0.25603894
   0.19192756  0.11160834  0.16597552
   0.30826723  0.71462578  0.83402157
   0.31886807  0.86141051  0.16587792
   0.93628466  0.29223968  0.74407961
   0.56458729  0.03409823  0.12470481
   0.19327593  0.61189731  0.16599837
   0.43347902  0.28755840  0.38898484
Direct configuration=     2
   0.06193849  0.03492315  0.12451039
   0.81437093  0.04325670  0.87562253
   0.19493920  0.12551844  0.78854562
   0.19470584  0.62526054  0.78831072
   0.31567807  0.36137832  0.16676565
   0.80928062  0.21294985  0.83312627
   0.18375950  0.78751254  0.38897547
   0.56375211  0.20806445  0.56545885
   0.06090832  0.04205835  0.74417672
   0.81365412  0.87200615  0.52135841
   0.18618487  0.29203343  0.74413307
   0.94076423  0.45199498  0.34486193
   0.93357502  0.28736277  0.38909467
   0.43851065  0.62206648  0.52137632
   0.18742724  0.79143193  0.61085776
   0.55865849  0.03798750  0.38907093
   0.93392059  0.96294149  0.83318648
   0.31417349  0.54281797  0.87554695
   0.68585642  0.29206394  0.74410337
   0.94072519  0.95218047  0.34487559
   0.81283255  0.20580684  0.47842529
   0.81291272  0.54174817  0.61080509
   0.31336360  0.87052481  0.43428208
   0.81494980  0.03519141  0.25609146
   0.69082115  0.95189305  0.34483831
   0.94251994  0.11373057  0.16704437
   0.93849086  0.12212804  0.52137249
   0.56460367  0.53570409  0.25600376
   0.69322337  0.79641574  0.87566027
   0.56683429  0.36244179  0.16682544
   0.43614891  0.79198653  0.74417498
   0.81392195  0.70729120  0.56549285
   0.56985745  0.87455802  0.78834288
   0.68842217  0.12238242  0.52134066
   0.18966027  0.28553775  0.25602334
   0.93405932  0.46308605  0.83305288
   0.06539106  0.20859069  0.69971902
   0.80884005  0.03762163  0.38904534
   0.30934771  0.21368519  0.83327362
   0.43417914  0.62558523  0.65498729
   0.31260997  0.54153723  0.61080465
   0.93866510  0.45776002  0.56550698
   0.68581636  0.79219300  0.74419691
   0.30878524  0.87544076  0.65500030
   0.68392375  0.78747026  0.38907010
   0.93623888  0.79187635  0.74418474
   0.06566966  0.20218855  0.34485678
   0.43650113  0.78048822  0.12419416
   0.44493448  0.12525690  0.78857044
   0.05527909  0.20269861  0.21192120
   0.06678316  0.36225150  0.16686524
   0.93966768  0.78535049  0.25603781
   0.56508525  0.20837189  0.69975751
   0.69015880  0.95837559  0.69976983
   0.68372715  0.28754062  0.38908791
   0.43868918  0.95769380  0.56541309
   0.82005562  0.37449056  0.78836872
   0.68946301  0.28540783  0.25608630
   0.18854284  0.45763605  0.56551666
   0.06694282  0.86200482  0.16686996
   0.18769461  0.29213629  0.61080626
   0.56580069  0.70225312  0.34490009
   0.31527884  0.20841112  0.69977499
   0.56556297  0.54240388  0.87548963
   0.06352243  0.70739694  0.56548127
   0.69464729  0.62522860  0.78854721
   0.30925882  0.53686900  0.38895143
   0.18831735  0.62215577  0.52138856
   0.56320785  0.87055437  0.43427618
   0.43881046  0.45763602  0.56547883
   0.43612055  0.29187766  0.74415018
   0.80395406  0.87152360  0.30031197
   0.81572057  0.70208525  0.34487395
   0.43408940  0.46395127  0.83317377
   0.68787778  0.95566512  0.47843302
   0.69047958  0.45826868  0.69974331
   0.56340388  0.87205955  0.52133061
   0.55915765  0.37569921  0.65494995
   0.80938279  0.87544632  0.65491438
   0.81293223  0.37051611  0.43415896
   0.81472180  0.53546603  0.25605297
   0.68391737  0.46289151  0.83309503
   0.18808174  0.77972547  0.12433682
   0.06429945  0.04356652  0.87554870
   0.30906785  0.37578424  0.65494414
   0.31607723  0.20222765  0.34488088
   0.81107660  0.54238394  0.74410593
   0.68427496  0.96339996  0.83310798
   0.55926307  0.87550457  0.65499480
   0.31359940  0.70729833  0.56546915
   0.31255277  0.53440884  0.12421629
   0.68055339  0.95225220  0.21175784
   0.31367475  0.20785807  0.56547723
   0.31132278  0.54272661  0.74424219
   0.68891334  0.95752366  0.56545565
   0.43763068  0.79135490  0.61083000
   0.69198916  0.61123010  0.16708838
   0.30441376  0.87210893  0.30028722
   0.31298596  0.70555059  0.47856286
   0.93786146  0.29203350  0.61079320
   0.42922222  0.62189052  0.30030860
   0.81630312  0.86242677  0.16691723
   0.55590691  0.20223092  0.21170743
   0.94157233  0.61307368  0.16704487
   0.94105919  0.79647277  0.87561415
   0.56985345  0.37453902  0.78833129
   0.06328650  0.37235267  0.52139423
   0.56338927  0.37225812  0.52138593
   0.67929955  0.12179561  0.30027866
   0.43342771  0.96300328  0.83318114
   0.18779462  0.95567341  0.47856241
   0.82012831  0.87454736  0.78838740
   0.31318575  0.37028126  0.43430583
   0.93771426  0.79147641  0.61098095
   0.43767349  0.29219225  0.61086600
   0.19090443  0.45207546  0.34481022
   0.43846233  0.28169348  0.12451320
   0.68965760  0.78548040  0.25608612
   0.19047436  0.95831969  0.69972668
   0.19089269  0.29562091  0.87575095
   0.18413120  0.12581365  0.65494215
   0.93422711  0.12581065  0.65492699
   0.30575442  0.20284653  0.21197563
   0.05873936  0.03757717  0.38899046
   0.43988880  0.95827313  0.69977271
   0.06280119  0.54167669  0.61075524
   0.93972708  0.28522313  0.25603370
   0.56289961  0.54154689  0.61081536
   0.93878063  0.95750091  0.56545576
   0.67914975  0.62177440  0.30032985
   0.93742809  0.62023487  0.43428543
   0.94492136  0.62528214  0.78855962
   0.56513955  0.70831308  0.69974547
   0.05934439  0.71304119  0.83330630
   0.92913542  0.12181906  0.30033583
   0.93997772  0.45852489  0.69968254
   0.43950295  0.78553672  0.25611082
   0.32037237  0.37477570  0.78837142
   0.43033701  0.45195754  0.21174873
   0.18840541  0.12219657  0.52138249
   0.81532652  0.70843642  0.69969271
   0.06255511  0.04175150  0.61090130
   0.55953228  0.21318294  0.83322822
   0.31341068  0.87217569  0.52135017
   0.68686945  0.28201352  0.12440309
   0.18029749  0.95247641  0.21195001
   0.68793459  0.29210083  0.61074576
   0.31235526  0.04206927  0.61091799
   0.94513838  0.12530228  0.78843916
   0.44164397  0.79717756  0.87567472
   0.81106202  0.04240228  0.74411524
   0.43845998  0.12231510  0.52134353
   0.18400260  0.62564000  0.65493609
   0.31500813  0.70822964  0.69971018
   0.93514540  0.27939654  0.12470065
   0.43804007  0.45562642  0.47851768
   0.06263529  0.70564541  0.47856482
   0.93748108  0.12071171  0.43426854
   0.42935759  0.12198015  0.30035798
   0.18783523  0.12061040  0.43430280
   0.56519116  0.04382302  0.87551932
   0.18844460  0.95755040  0.56546680
   0.68869401  0.78163270  0.12445244
   0.56425590  0.53256773  0.12467789
   0.30930109  0.03762628  0.38899162
   0.69186003  0.11176431  0.16704834
   0.80632840  0.20287478  0.21202179
   0.06494209  0.53532914  0.25604845
   0.56292761  0.70562750  0.47848174
   0.06363390  0.20785824  0.56546827
   0.55426802  0.37175595  0.30037363
   0.44068630  0.95224802  0.34490700
   0.18441997  0.96355486  0.83321881
   0.44146707  0.61256685  0.16686544
   0.93066868  0.45276419  0.21187633
   0.06260598  0.53291906  0.12469513
   0.81352862  0.37235890  0.52135861
   0.92915281  0.62175833  0.30036405
   0.31484316  0.03544641  0.25607394
   0.06326913  0.87212228  0.52138259
   0.18434565  0.46434180  0.83330779
   0.44231772  0.11155331  0.16674855
   0.31349147  0.37225943  0.52138107
   0.44546505  0.62503469  0.78834374
   0.06461050  0.03537781  0.25606019
   0.56377957  0.70723351  0.56547122
   0.17950111  0.62187125  0.30034711
   0.69489996  0.12513136  0.78847905
   0.18133093  0.45154359  0.21163289
   0.93370336  0.78750567  0.38904110
   0.69346638  0.29700928  0.87572643
   0.68799593  0.79136316  0.61086177
   0.44006677  0.45800114  0.69967659
   0.80927415  0.37574219  0.65490282
   0.68850909  0.62208388  0.52135195
   0.05911164  0.87540685  0.65492731
   0.07027999  0.87456809  0.78837880
   0.05931010  0.37583002  0.65490574
   0.68795517  0.45553677  0.47846771
   0.18951208  0.78558849  0.25603503
   0.43846387  0.12052759  0.43424434
   0.05871564  0.53749491  0.38901231
   0.93846851  0.62214476  0.52138880
   0.06266320  0.87067814  0.43428374
   0.81140821  0.53330425  0.12457688
   0.44085680  0.45175969  0.34487936
   0.81580968  0.20211078  0.34492199
   0.18654480  0.28085711  0.12446455
   0.68423527  0.12589847  0.65494581
   0.55441146  0.87190665  0.30029926
   0.06107425  0.54213411  0.74421081
   0.93588466  0.78016756  0.12454449
   0.80570330  0.70278921  0.21188771
   0.05443844  0.87188013  0.30030787
   0.17923760  0.12209448  0.30029274
   0.06583582  0.70197888  0.34485783
   0.81288815  0.04180183  0.61087464
   0.06233038  0.37047132  0.43428308
   0.56563974  0.20218117  0.34488733
   0.80409628  0.37185258  0.30032044
   0.43802032  0.95567783  0.47853579
   0.55897921  0.53703248  0.38903758
   0.06261693  0.20584458  0.47851893
   0.31985300  0.87486501  0.78831627
   0.94023437  0.95833147  0.69976840
   0.05438084  0.37189031  0.30033004
   0.68450865  0.62572625  0.65497632
   0.68875494  0.45759680  0.56549408
   0.43119214  0.95240533  0.21184340
   0.31299514  0.20559462  0.47854533
   0.43409294  0.12593031  0.65499970
   0.68805146  0.62043530  0.43428024
   0.81501309  0.20837799  0.69968285
   0.81278909  0.70571746  0.47849700
   0.56339668  0.37030956  0.43421805
   0.93760658  0.95571541  0.47849667
   0.56294317  0.20572642  0.47847284
   0.18781721  0.62040960  0.43429530
   0.31115974  0.04179005  0.74405148
   0.93436195  0.62593814  0.65488233
   0.55945347  0.71295173  0.83318235
   0.30446994  0.37202747  0.30033402
   0.55539447  0.70129429  0.21189210
   0.18768202  0.45551445  0.47856211
   0.31497849  0.04256220  0.87564783
   0.19002030  0.45821149  0.69965734
   0.81450124  0.54316670  0.87554795
   0.18401424  0.28754004  0.38899814
   0.43832877  0.62061094  0.43427200
   0.05555469  0.70298071  0.21191637
   0.81225566  0.03279591  0.12458219
   0.81651081  0.36255732  0.16721174
   0.80889256  0.71359011  0.83311495
   0.07036394  0.37471396  0.78842204
   0.44311732  0.29646429  0.87570641
   0.31322303  0.03349728  0.12446782
   0.68804233  0.12069020  0.43427208
   0.19077290  0.95205695  0.34485751
   0.05903660  0.21340642  0.83332945
   0.56277900  0.04209013  0.61090577
   0.68092964  0.45285248  0.21187219
   0.18679915  0.79175389  0.74418722
   0.81270654  0.87063671  0.43429216
   0.43421452  0.78738097  0.38899720
   0.43999540  0.28538015  0.25602986
   0.06436144  0.54287386  0.87559634
   0.56082669  0.04197855  0.74413661
   0.19348071  0.79675721  0.87587623
   0.93765907  0.45550993  0.47852129
   0.80873348  0.53731480  0.38909015
   0.81381585  0.20794761  0.56548845
   0.31596990  0.70223541  0.34483212
   0.93118591  0.95281515  0.21193455
   0.06517968  0.70846043  0.69968995
   0.31447417  0.53554586  0.25609367
   0.30616220  0.70180274  0.21194856
   0.56679731  0.86314037  0.16673916
   0.56096883  0.54259994  0.74413491
   0.69037372  0.45202688  0.34485337
   0.94094026  0.29659314  0.87575342
   0.56461500  0.03543144  0.25607483
   0.19138614  0.11228799  0.16607753
   0.30872372  0.71440212  0.83391439
   0.31846677  0.86157022  0.16598478
   0.93650033  0.29231648  0.74413429
   0.56430481  0.03392985  0.12477775
   0.19288194  0.61170690  0.16609889
   0.43410391  0.28748432  0.38890367
Direct configuration=     3
   0.06223085  0.03451017  0.12456257
   0.81430048  0.04351852  0.87553998
   0.19456291  0.12550534  0.78852619
   0.19424195  0.62538308  0.78830905
   0.31538252  0.36170712  0.16681655
   0.80972134  0.21274251  0.83311833
   0.18406791  0.78752630  0.38891387
   0.56368244  0.20840314  0.56548277
   0.06139563  0.04192548  0.74420113
   0.81382950  0.87203858  0.52139733
   0.18670164  0.29214978  0.74415420
   0.94022355  0.45220740  0.34480219
   0.93358594  0.28733298  0.38911455
   0.43852328  0.62216609  0.52144315
   0.18709189  0.79109243  0.61090907
   0.55905004  0.03816217  0.38906927
   0.93430031  0.96288322  0.83320516
   0.31417867  0.54307436  0.87554591
   0.68602009  0.29201770  0.74412540
   0.94012160  0.95239449  0.34478737
   0.81282564  0.20575572  0.47824720
   0.81299594  0.54170201  0.61082642
   0.31364217  0.87061532  0.43414455
   0.81438256  0.03520071  0.25612050
   0.69022246  0.95215428  0.34476875
   0.94220263  0.11405340  0.16710248
   0.93850463  0.12225886  0.52143044
   0.56414619  0.53574798  0.25605635
   0.69281215  0.79616383  0.87560397
   0.56655718  0.36272281  0.16687213
   0.43637899  0.79211834  0.74419100
   0.81402882  0.70699322  0.56554222
   0.56933660  0.87479801  0.78832316
   0.68839772  0.12266806  0.52137176
   0.18918281  0.28550434  0.25606810
   0.93446607  0.46286566  0.83308665
   0.06526091  0.20862540  0.69972703
   0.80897367  0.03773687  0.38907148
   0.30976390  0.21348268  0.83325219
   0.43435244  0.62521155  0.65501371
   0.31242131  0.54140032  0.61084635
   0.93860392  0.45773474  0.56556015
   0.68599548  0.79228696  0.74422524
   0.30879723  0.87527992  0.65506564
   0.68414250  0.78751459  0.38907941
   0.93659273  0.79189508  0.74420826
   0.06518285  0.20238541  0.34475790
   0.43638408  0.78050119  0.12425671
   0.44454564  0.12529549  0.78851996
   0.05560517  0.20266570  0.21194471
   0.06640255  0.36243224  0.16694368
   0.93908920  0.78542181  0.25605360
   0.56476599  0.20836433  0.69980130
   0.68986459  0.95838264  0.69982513
   0.68391276  0.28747063  0.38911696
   0.43855276  0.95764117  0.56540779
   0.81950292  0.37466272  0.78834801
   0.68901239  0.28534123  0.25612885
   0.18832888  0.45756211  0.56558209
   0.06653828  0.86238116  0.16694760
   0.18752957  0.29239263  0.61083413
   0.56516955  0.70234766  0.34479463
   0.31517120  0.20841027  0.69982474
   0.56527806  0.54290185  0.87543430
   0.06328527  0.70710903  0.56552663
   0.69413866  0.62542230  0.78852157
   0.30975887  0.53673786  0.38887502
   0.18815818  0.62232645  0.52147428
   0.56339230  0.87067524  0.43413473
   0.43879429  0.45755036  0.56552502
   0.43638028  0.29190367  0.74416440
   0.80450732  0.87136762  0.30030167
   0.81506318  0.70212491  0.34476838
   0.43459894  0.46363021  0.83316556
   0.68795299  0.95551176  0.47826915
   0.69013695  0.45833652  0.69976077
   0.56333717  0.87208485  0.52134346
   0.55945966  0.37575961  0.65498058
   0.80990988  0.87529714  0.65495245
   0.81267471  0.37047485  0.43403257
   0.81425417  0.53552855  0.25608389
   0.68430437  0.46270959  0.83310694
   0.18824107  0.78013400  0.12436630
   0.06422509  0.04404279  0.87548479
   0.30925488  0.37588528  0.65497659
   0.31577156  0.20257386  0.34480550
   0.81136114  0.54241481  0.74412367
   0.68463575  0.96330495  0.83311254
   0.55962296  0.87535305  0.65506583
   0.31341946  0.70692374  0.56549496
   0.31267133  0.53370484  0.12428078
   0.68117774  0.95207114  0.21185012
   0.31354902  0.20806774  0.56551910
   0.31162975  0.54269890  0.74422770
   0.68904868  0.95738281  0.56547774
   0.43747935  0.79097657  0.61085926
   0.69171005  0.61149246  0.16716168
   0.30510492  0.87187079  0.30032145
   0.31313739  0.70536088  0.47849315
   0.93782540  0.29231087  0.61082132
   0.42988776  0.62168139  0.30032943
   0.81608225  0.86250196  0.16697187
   0.55640294  0.20232853  0.21181063
   0.94117557  0.61306711  0.16710974
   0.94076239  0.79626794  0.87554549
   0.56931050  0.37472402  0.78831600
   0.06309981  0.37269280  0.52147067
   0.56339535  0.37251972  0.52145446
   0.67983549  0.12156707  0.30026520
   0.43391841  0.96297594  0.83317683
   0.18778933  0.95558026  0.47850743
   0.81954963  0.87464179  0.78837421
   0.31342657  0.37030707  0.43417273
   0.93779336  0.79113344  0.61100022
   0.43761425  0.29251643  0.61088338
   0.19047863  0.45228885  0.34468957
   0.43813410  0.28184934  0.12458332
   0.68919397  0.78551228  0.25612406
   0.19031156  0.95822452  0.69976296
   0.19079509  0.29534911  0.87567578
   0.18433436  0.12580853  0.65498704
   0.93456023  0.12580772  0.65494929
   0.30619742  0.20288831  0.21199729
   0.05875587  0.03763675  0.38896460
   0.43963791  0.95837407  0.69986970
   0.06261428  0.54170325  0.61080251
   0.93923725  0.28528522  0.25606095
   0.56297074  0.54135254  0.61084094
   0.93872040  0.95733136  0.56548672
   0.67961815  0.62158906  0.30033808
   0.93699192  0.62005317  0.43415189
   0.94453168  0.62552070  0.78853817
   0.56491929  0.70822280  0.69980540
   0.05967531  0.71283859  0.83325006
   0.92966876  0.12166503  0.30031355
   0.93988806  0.45866475  0.69970183
   0.43910090  0.78548462  0.25616257
   0.31990486  0.37495723  0.78834878
   0.43084139  0.45181241  0.21177106
   0.18832896  0.12238920  0.52144429
   0.81513169  0.70845779  0.69971218
   0.06240120  0.04164636  0.61093273
   0.56003963  0.21301428  0.83321206
   0.31336226  0.87225404  0.52139519
   0.68690732  0.28218321  0.12452516
   0.18060579  0.95232536  0.21199099
   0.68797596  0.29243894  0.61077267
   0.31215163  0.04214106  0.61095111
   0.94461577  0.12526393  0.78844348
   0.44157785  0.79684138  0.87565272
   0.81123910  0.04230914  0.74416865
   0.43841985  0.12258722  0.52137001
   0.18412950  0.62547817  0.65494927
   0.31476205  0.70819336  0.69977727
   0.93575324  0.27959196  0.12480627
   0.43821997  0.45539586  0.47842843
   0.06245340  0.70538447  0.47852149
   0.93697847  0.12093311  0.43411089
   0.43002924  0.12186587  0.30036610
   0.18773100  0.12076400  0.43417451
   0.56503112  0.04424590  0.87545376
   0.18815764  0.95742224  0.56548873
   0.68884106  0.78174055  0.12456964
   0.56401880  0.53220819  0.12480913
   0.30982409  0.03777025  0.38893349
   0.69156343  0.11235560  0.16709515
   0.80683671  0.20275323  0.21208417
   0.06445772  0.53529562  0.25607880
   0.56306998  0.70553628  0.47834344
   0.06346455  0.20799995  0.56550462
   0.55478970  0.37161139  0.30038305
   0.44023723  0.95238121  0.34481378
   0.18477068  0.96355624  0.83320088
   0.44120411  0.61260599  0.16689874
   0.93115892  0.45253801  0.21188125
   0.06280677  0.53233073  0.12477626
   0.81358663  0.37268013  0.52142761
   0.92973608  0.62157660  0.30035090
   0.31436420  0.03547970  0.25612513
   0.06309247  0.87221019  0.52145013
   0.18463712  0.46401953  0.83330701
   0.44205938  0.11212091  0.16678782
   0.31351007  0.37248965  0.52144654
   0.44498851  0.62518780  0.78830635
   0.06411245  0.03549738  0.25608569
   0.56375335  0.70680168  0.56549898
   0.18016476  0.62157978  0.30034897
   0.69429333  0.12507532  0.78846710
   0.18155736  0.45139126  0.21167687
   0.93377874  0.78749728  0.38901886
   0.69286817  0.29659977  0.87565744
   0.68824339  0.79091716  0.61088845
   0.43981632  0.45798678  0.69974294
   0.80964101  0.37586863  0.65489431
   0.68854151  0.62214318  0.52141081
   0.05935075  0.87521451  0.65496129
   0.06980053  0.87461132  0.78836817
   0.05959822  0.37600677  0.65490312
   0.68805456  0.45528454  0.47832394
   0.18906007  0.78548546  0.25608751
   0.43880484  0.12068959  0.43409301
   0.05873984  0.53731745  0.38897095
   0.93843956  0.62224579  0.52147120
   0.06230702  0.87093498  0.43415491
   0.81165738  0.53302555  0.12472888
   0.44035624  0.45183504  0.34479919