<?xml version="1.0" encoding="ISO-8859-1"?>
<modeling>
 <generator>
  <i name="program" type="string">vasp </i>
  <i name="version" type="string">5.4.4.18Apr17-6-g9f103f2a35  </i>
  <i name="subversion" type="string">(build May 29 2019 08:40:53) complex            parallel </i>
  <i name="platform" type="string">LinuxPGI </i>
  <i name="date" type="string">2021 11 22 </i>
  <i name="time" type="string">02:41:35 </i>
 </generator>
 <incar>
  <i type="int" name="ISTART">     2</i>
  <i type="string" name="PREC">accurate</i>
  <i type="string" name="ALGO"> Fast</i>
  <i type="int" name="ICHARG">     2</i>
  <i type="int" name="INIWAV">     1</i>
  <i type="int" name="NELM">   100</i>
  <i type="int" name="NELMIN">     4</i>
  <i type="int" name="IBRION">     2</i>
  <i name="EDIFF">      0.00001000</i>
  <i type="int" name="NSW">   500</i>
  <i type="int" name="ISIF">     2</i>
  <i type="int" name="ISYM">     2</i>
  <i name="ENCUT">    500.00000000</i>
  <i name="POTIM">      0.25000000</i>
  <i type="string" name="LREAL"> Auto</i>
  <i type="int" name="ISMEAR">     0</i>
  <i name="SIGMA">      0.15000000</i>
  <i type="logical" name="LWAVE"> F  </i>
  <i type="logical" name="LCHARG"> F  </i>
  <v type="int" name="KPOINT_BSE">    -1     0     0     0</v>
  <i type="int" name="NELM">   100</i>
 </incar>
 <structure name="primitive_cell" >
  <crystal>
   <varray name="basis" >
    <v>       9.72667800       0.00000000       0.00000000 </v>
    <v>       0.00000000       8.42355000       0.00000000 </v>
    <v>       0.00000000       0.00000000      45.00000000 </v>
   </varray>
   <i name="volume">   3686.99213101 </i>
   <varray name="rec_basis" >
    <v>       0.10281002       0.00000000       0.00000000 </v>
    <v>       0.00000000       0.11871479       0.00000000 </v>
    <v>       0.00000000       0.00000000       0.02222222 </v>
   </varray>
  </crystal>
  <varray name="positions" >
   <v>       0.43723866      -0.20727203      -0.12670341 </v>
   <v>       0.43713024      -0.04095656      -0.16877221 </v>
   <v>       0.31261629      -0.29040813      -0.16883127 </v>
   <v>      -0.43691715      -0.29118594      -0.16874235 </v>
   <v>      -0.43774017       0.04181978      -0.12667960 </v>
   <v>       0.31250267       0.04217087      -0.12662447 </v>
   <v>       0.18745789      -0.20793144      -0.12663342 </v>
   <v>      -0.31235037      -0.20830520      -0.12662991 </v>
   <v>       0.31159874      -0.45807752      -0.12672196 </v>
   <v>      -0.43697294      -0.45810475      -0.12652686 </v>
   <v>       0.18758507      -0.04082908      -0.16888416 </v>
   <v>      -0.31242950      -0.04074363      -0.16878497 </v>
   <v>       0.43759869       0.45862241      -0.16881641 </v>
   <v>      -0.43760408      -0.12404286      -0.21347639 </v>
   <v>       0.31259600      -0.12389060      -0.21360722 </v>
   <v>       0.43769958      -0.37407006      -0.21361176 </v>
   <v>      -0.31253368       0.45931157      -0.16814339 </v>
   <v>       0.31223563       0.20890475      -0.16872103 </v>
   <v>       0.18768186       0.45947228      -0.16881148 </v>
   <v>       0.06267001      -0.29061505      -0.16885486 </v>
   <v>      -0.18820130      -0.29119679      -0.16884754 </v>
   <v>      -0.43749021       0.20973842      -0.16880292 </v>
   <v>       0.06329844      -0.45768026      -0.12671167 </v>
   <v>       0.06256061       0.04209926      -0.12660864 </v>
   <v>       0.43763319       0.29236426      -0.12663037 </v>
   <v>      -0.18717613       0.04172723      -0.12664756 </v>
   <v>      -0.18791631      -0.45820636      -0.12648792 </v>
   <v>       0.18761057      -0.37410704      -0.21354009 </v>
   <v>      -0.31273823      -0.37357751      -0.21357294 </v>
   <v>       0.43754433       0.12601680      -0.21361985 </v>
   <v>      -0.06223430      -0.20715432      -0.12675132 </v>
   <v>       0.18776528       0.29239294      -0.12666914 </v>
   <v>      -0.31243882       0.29267218      -0.12645322 </v>
   <v>       0.31260996       0.37619034      -0.21354095 </v>
   <v>       0.06253969      -0.12416809      -0.21358837 </v>
   <v>       0.18727193       0.12633073      -0.21357123 </v>
   <v>      -0.18754576      -0.12405876      -0.21356477 </v>
   <v>      -0.31234690       0.12611947      -0.21356466 </v>
   <v>      -0.06208405      -0.04102349      -0.16871878 </v>
   <v>      -0.43786079       0.37578089      -0.21367978 </v>
   <v>       0.06260419       0.20869393      -0.16883591 </v>
   <v>      -0.18708254       0.20974682      -0.16866847 </v>
   <v>       0.43744718      -0.20774475      -0.25776825 </v>
   <v>      -0.06253769       0.45876789      -0.16880928 </v>
   <v>      -0.43746773       0.04204464      -0.25762101 </v>
   <v>       0.31209170      -0.45740375      -0.25765239 </v>
   <v>       0.31242869       0.04195453      -0.25775351 </v>
   <v>      -0.31272481      -0.20760213      -0.25772681 </v>
   <v>       0.18785762      -0.20782220      -0.25779247 </v>
   <v>      -0.43740946      -0.45757255      -0.25783162 </v>
   <v>       0.06263496       0.37622206      -0.21348980 </v>
   <v>      -0.06259419      -0.37419923      -0.21359982 </v>
   <v>      -0.18736871       0.37610163      -0.21365489 </v>
   <v>      -0.06280916       0.29230210      -0.12663586 </v>
   <v>      -0.06241987       0.12630822      -0.21361100 </v>
   <v>       0.06260357       0.04231219      -0.25771586 </v>
   <v>       0.43750780       0.29226934      -0.25773012 </v>
   <v>      -0.18735628       0.04194753      -0.25768292 </v>
   <v>       0.06253339      -0.45775917      -0.25771821 </v>
   <v>      -0.18724886      -0.45823469      -0.25770649 </v>
   <v>      -0.06257843      -0.20805536      -0.25769019 </v>
   <v>       0.18781363       0.29252774      -0.25775670 </v>
   <v>      -0.31288169       0.29219829      -0.25776713 </v>
   <v>      -0.43726685      -0.29141319      -0.30171573 </v>
   <v>       0.31268697      -0.29150659      -0.30179199 </v>
   <v>       0.43734867      -0.04143547      -0.30189341 </v>
   <v>       0.18764307      -0.04199958      -0.30173467 </v>
   <v>       0.43771652       0.45862754      -0.30177080 </v>
   <v>      -0.31250465      -0.04152268      -0.30183795 </v>
   <v>       0.31249704       0.20836998      -0.30171694 </v>
   <v>      -0.43769608       0.20842396      -0.30183504 </v>
   <v>      -0.18762921      -0.29114048      -0.30178836 </v>
   <v>       0.06239010      -0.29158287      -0.30181815 </v>
   <v>       0.18732933       0.45831117      -0.30179790 </v>
   <v>      -0.31231070       0.45840659      -0.30177831 </v>
   <v>      -0.06279528       0.29230725      -0.25763450 </v>
   <v>       0.06262735       0.20808673      -0.30174244 </v>
   <v>      -0.06235753      -0.04162572      -0.30174177 </v>
   <v>      -0.18740955       0.20828301      -0.30177753 </v>
   <v>      -0.06255075       0.45863555      -0.30178427 </v>
   <v>      -0.43785653      -0.12551167      -0.34620172 </v>
   <v>       0.43753951      -0.37576151      -0.34623244 </v>
   <v>       0.31255290      -0.12580307      -0.34638344 </v>
   <v>       0.43737104       0.12467226      -0.34625430 </v>
   <v>      -0.31251431      -0.37547705      -0.34625241 </v>
   <v>       0.18756014      -0.37622236      -0.34627916 </v>
   <v>       0.18737605       0.12440054      -0.34627696 </v>
   <v>      -0.31286950       0.12447594      -0.34633483 </v>
   <v>       0.06264694      -0.12588304      -0.34633276 </v>
   <v>      -0.18785726      -0.12566805      -0.34635185 </v>
   <v>       0.31232049       0.37448074      -0.34621887 </v>
   <v>      -0.43796165       0.37478153      -0.34628148 </v>
   <v>       0.06280920       0.37444761      -0.34613746 </v>
   <v>      -0.06267314      -0.37580691      -0.34617792 </v>
   <v>      -0.18744820       0.37436835      -0.34623837 </v>
   <v>      -0.06235237       0.12427139      -0.34628256 </v>
   <v>       0.43750674      -0.21441049       0.12671907 </v>
   <v>       0.31239613       0.03576191       0.12674148 </v>
   <v>      -0.43735270       0.03567270       0.12675728 </v>
   <v>       0.18825408      -0.21473191       0.12669204 </v>
   <v>      -0.31320235      -0.21483399       0.12670494 </v>
   <v>       0.31231882      -0.46462481       0.12670690 </v>
   <v>      -0.43735540      -0.46453782       0.12670801 </v>
   <v>       0.43749272      -0.20909062      -0.39011869 </v>
   <v>      -0.43687151       0.04023869      -0.39002834 </v>
   <v>       0.31236865       0.04085288      -0.39020370 </v>
   <v>       0.18754892      -0.20974676      -0.39016614 </v>
   <v>      -0.43760836      -0.45917405      -0.39013429 </v>
   <v>       0.31238632      -0.45946011      -0.39014478 </v>
   <v>      -0.31230427      -0.20916014      -0.39022808 </v>
   <v>       0.43750818       0.28523994       0.12674057 </v>
   <v>       0.06244892       0.03666418       0.12668204 </v>
   <v>      -0.18744069       0.03655660       0.12670719 </v>
   <v>       0.06358382      -0.46421477       0.12672737 </v>
   <v>      -0.18851572      -0.46424856       0.12672947 </v>
   <v>       0.18774613       0.28555378       0.12669746 </v>
   <v>      -0.31272899       0.28546350       0.12670275 </v>
   <v>      -0.06255794      -0.21414577       0.12690853 </v>
   <v>       0.43783331       0.29058378      -0.39023270 </v>
   <v>       0.06227192       0.04069491      -0.39017130 </v>
   <v>       0.06254667      -0.45896145      -0.39006644 </v>
   <v>      -0.18762203       0.04023807      -0.39023056 </v>
   <v>      -0.18723507      -0.45914470      -0.39018373 </v>
   <v>       0.18790707       0.29067551      -0.39012415 </v>
   <v>      -0.31258083       0.29015827      -0.39016781 </v>
   <v>      -0.06275686      -0.20980337      -0.39015139 </v>
   <v>      -0.06246803       0.28586672       0.12669971 </v>
   <v>       0.31264975      -0.13101879       0.16891827 </v>
   <v>      -0.43774796      -0.13101562       0.16899916 </v>
   <v>       0.43752798      -0.38111261       0.16890982 </v>
   <v>      -0.06293693       0.29097482      -0.39010259 </v>
   <v>       0.43754760       0.11885784       0.16889769 </v>
   <v>      -0.31206203      -0.38102008       0.16878636 </v>
   <v>       0.18702368      -0.38108975       0.16883199 </v>
   <v>       0.18766171       0.11866660       0.16896328 </v>
   <v>       0.06199439      -0.13173934       0.16873725 </v>
   <v>      -0.31269169       0.11887985       0.16896865 </v>
   <v>      -0.18684846      -0.13162269       0.16881800 </v>
   <v>       0.31247134       0.36881513       0.16894341 </v>
   <v>      -0.43739186       0.36889141       0.16893601 </v>
   <v>       0.31248555      -0.29315276      -0.43476589 </v>
   <v>      -0.43826899      -0.29340228      -0.43479146 </v>
   <v>       0.43737689      -0.04368866      -0.43490558 </v>
   <v>       0.18737953      -0.04348152      -0.43472349 </v>
   <v>       0.43774193       0.45667354      -0.43477651 </v>
   <v>      -0.31265647      -0.04381790      -0.43515163 </v>
   <v>      -0.06248734      -0.38055510       0.16874379 </v>
   <v>       0.06241682       0.36847542       0.16891367 </v>
   <v>      -0.18742381       0.36846195       0.16892120 </v>
   <v>      -0.43809000       0.20644919      -0.43482904 </v>
   <v>      -0.18746984      -0.29336116      -0.43468160 </v>
   <v>       0.31263840       0.20657008      -0.43490332 </v>
   <v>      -0.31270875       0.45657904      -0.43487719 </v>
   <v>       0.18721578       0.45648394      -0.43488111 </v>
   <v>       0.06291928      -0.29336972      -0.43521529 </v>
   <v>      -0.06251281       0.11836917       0.16871896 </v>
   <v>      -0.06243658      -0.04324868      -0.43473660 </v>
   <v>      -0.18772958       0.20681734      -0.43482913 </v>
   <v>       0.06265302       0.20669284      -0.43492860 </v>
   <v>      -0.06253828       0.45672413      -0.43477625 </v>
   <v>       0.43765476      -0.04824934       0.21354530 </v>
   <v>       0.31251814      -0.29787778       0.21366848 </v>
   <v>      -0.43745038      -0.29805475       0.21366280 </v>
   <v>       0.18784310      -0.04772651       0.21371340 </v>
   <v>      -0.31285382      -0.04788930       0.21371266 </v>
   <v>       0.43752457       0.45206080       0.21360454 </v>
   <v>       0.31245238       0.20205312       0.21360397 </v>
   <v>      -0.43743788       0.20195620       0.21362094 </v>
   <v>       0.06248420      -0.29795338       0.21359575 </v>
   <v>      -0.18751173      -0.29816893       0.21360297 </v>
   <v>       0.18741177       0.45214400       0.21356828 </v>
   <v>      -0.31234803       0.45183743       0.21365269 </v>
   <v>       0.43712435      -0.37771030      -0.47855790 </v>
   <v>       0.31248194      -0.12737488      -0.47869636 </v>
   <v>      -0.43767489      -0.12752414      -0.47874040 </v>
   <v>       0.43749436       0.12236914      -0.47876287 </v>
   <v>       0.18791181      -0.37755586      -0.47870230 </v>
   <v>      -0.31257199      -0.37735526      -0.47873127 </v>
   <v>       0.06259156       0.20180978       0.21363787 </v>
   <v>      -0.18754129       0.20171150       0.21364027 </v>
   <v>      -0.06261717      -0.04815904       0.21352061 </v>
   <v>       0.18753102       0.12266768      -0.47872311 </v>
   <v>      -0.31258505       0.12272544      -0.47877290 </v>
   <v>      -0.18706901      -0.12728419      -0.47866338 </v>
   <v>       0.06221336      -0.12672341      -0.47878821 </v>
   <v>      -0.43774058       0.37241596      -0.47865921 </v>
   <v>       0.31277605       0.37255038      -0.47869634 </v>
   <v>      -0.06252137       0.45123060       0.21376205 </v>
   <v>       0.06231389       0.37255475      -0.47864789 </v>
   <v>      -0.06241312      -0.37787894      -0.47874751 </v>
   <v>      -0.18723252       0.37265852      -0.47862843 </v>
   <v>      -0.06230480       0.12244999      -0.47876735 </v>
   <v>       0.43758939      -0.21444755       0.25768993 </v>
   <v>       0.31233895       0.03567944       0.25769208 </v>
   <v>      -0.43724206       0.03545616       0.25770902 </v>
   <v>      -0.31234933      -0.21454112       0.25775452 </v>
   <v>       0.18741479      -0.21407753       0.25779611 </v>
   <v>      -0.43742883      -0.46454352       0.25775462 </v>
   <v>       0.31257087      -0.46408864       0.25780012 </v>
   <v>       0.43740572       0.28551781       0.25777104 </v>
   <v>       0.06237509       0.03576541       0.25776789 </v>
   <v>      -0.18736814       0.03559836       0.25776804 </v>
   <v>      -0.18751269      -0.46432389       0.25773186 </v>
   <v>       0.06247293      -0.46400617       0.25780155 </v>
   <v>       0.43712496      -0.04447991       0.47858151 </v>
   <v>      -0.43781243      -0.29502476       0.47864805 </v>
   <v>       0.31292700      -0.29447865       0.47859999 </v>
   <v>       0.18747216       0.28578200       0.25772482 </v>
   <v>      -0.31243377       0.28554546       0.25781612 </v>
   <v>      -0.06256045      -0.21418195       0.25768123 </v>
   <v>      -0.31227656      -0.04513053       0.47867952 </v>
   <v>       0.18779358      -0.04464472       0.47857619 </v>
   <v>       0.43733521       0.45533496       0.47861240 </v>
   <v>       0.31286135       0.20551774       0.47858763 </v>
   <v>       0.06245947      -0.29487926       0.47873059 </v>
   <v>      -0.43797289       0.20532544       0.47852202 </v>
   <v>      -0.18768176      -0.29487420       0.47861512 </v>
   <v>      -0.31241098       0.45486564       0.47869888 </v>
   <v>       0.18734768       0.45503031       0.47858399 </v>
   <v>      -0.06236523       0.28584215       0.25769201 </v>
   <v>      -0.18749185       0.20527196       0.47864461 </v>
   <v>       0.06262144       0.20562061       0.47857376 </v>
   <v>      -0.06243091      -0.04482400       0.47851522 </v>
   <v>      -0.06209362       0.45495558       0.47851120 </v>
   <v>      -0.43755363      -0.13069031       0.30178415 </v>
   <v>       0.31254074      -0.13055787       0.30180788 </v>
   <v>       0.43764960      -0.38061319       0.30175186 </v>
   <v>       0.43781412       0.11952695       0.30187035 </v>
   <v>       0.18745534      -0.38063683       0.30173505 </v>
   <v>      -0.31249053      -0.38045273       0.30176252 </v>
   <v>      -0.31246851       0.11957372       0.30174871 </v>
   <v>       0.18748882       0.11917958       0.30180414 </v>
   <v>      -0.18745688      -0.13093467       0.30178303 </v>
   <v>       0.06249485      -0.13077651       0.30181092 </v>
   <v>      -0.43748812       0.36972069       0.30182389 </v>
   <v>       0.31246217       0.36935540       0.30183184 </v>
   <v>       0.31220123      -0.12875386       0.43479903 </v>
   <v>      -0.43779476      -0.12873176       0.43472632 </v>
   <v>       0.43727825      -0.37889162       0.43467546 </v>
   <v>      -0.31275740      -0.37857325       0.43504570 </v>
   <v>       0.43764116       0.12097353       0.43476779 </v>
   <v>       0.18809117      -0.37874482       0.43470723 </v>
   <v>      -0.06258817      -0.38082574       0.30176445 </v>
   <v>       0.06246390       0.36924179       0.30177687 </v>
   <v>      -0.18734494       0.36957940       0.30183643 </v>
   <v>       0.18769342       0.12121479       0.43480388 </v>
   <v>      -0.31285415       0.12108149       0.43479058 </v>
   <v>       0.06253196      -0.12864780       0.43478198 </v>
   <v>      -0.06282660       0.11907309       0.30190682 </v>
   <v>      -0.18707048      -0.12871813       0.43466184 </v>
   <v>       0.31238590       0.37117515       0.43477727 </v>
   <v>      -0.43759776       0.37084137       0.43465772 </v>
   <v>       0.06256998       0.37133229       0.43480966 </v>
   <v>      -0.18740143       0.37098827       0.43468601 </v>
   <v>      -0.06316880      -0.37898200       0.43443215 </v>
   <v>      -0.06264252       0.12104946       0.43480019 </v>
   <v>       0.43744234      -0.04650933       0.34619965 </v>
   <v>      -0.43757987      -0.29648997       0.34618227 </v>
   <v>       0.31237687      -0.29669257       0.34620115 </v>
   <v>      -0.31248952      -0.04646281       0.34620121 </v>
   <v>       0.18742310      -0.04661381       0.34622886 </v>
   <v>       0.43738852       0.45348137       0.34628727 </v>
   <v>       0.31255698       0.20322738       0.34621054 </v>
   <v>      -0.43753067       0.20359586       0.34620638 </v>
   <v>      -0.18749506      -0.29649792       0.34616620 </v>
   <v>       0.18763595       0.45299382       0.34608163 </v>
   <v>       0.06257755      -0.29674836       0.34622624 </v>
   <v>      -0.31264820       0.45345100       0.34624937 </v>
   <v>       0.43716482      -0.21281448       0.39007151 </v>
   <v>      -0.06258325      -0.04612285       0.34611196 </v>
   <v>       0.06240757       0.20335624       0.34624741 </v>
   <v>      -0.18754930       0.20383141       0.34623780 </v>
   <v>      -0.43745171       0.03700071       0.39017279 </v>
   <v>       0.31243153       0.03740146       0.39015252 </v>
   <v>       0.18735255      -0.21311164       0.39017198 </v>
   <v>      -0.31221657      -0.21265532       0.39004319 </v>
   <v>      -0.43732532      -0.46249297       0.39008477 </v>
   <v>       0.31268934      -0.46321824       0.39005440 </v>
   <v>      -0.06252905       0.45336334       0.34622131 </v>
   <v>       0.43740138       0.28732882       0.39016842 </v>
   <v>      -0.18745799       0.03716482       0.39017516 </v>
   <v>       0.06242314       0.03785839       0.39012257 </v>
   <v>       0.06257177      -0.46284370       0.39011260 </v>
   <v>      -0.18765204      -0.46244828       0.39011855 </v>
   <v>       0.18762679       0.28730365       0.39010303 </v>
   <v>      -0.31259100       0.28775999       0.39008801 </v>
   <v>      -0.06193190      -0.21282515       0.39008194 </v>
   <v>      -0.06232405       0.28750391       0.39020463 </v>
  </varray>
 </structure>
 <varray name="primitive_index" >
  <v type="int" >        1 </v>
  <v type="int" >        5 </v>
  <v type="int" >       25 </v>
  <v type="int" >      225 </v>
  <v type="int" >      235 </v>
  <v type="int" >      173 </v>
  <v type="int" >      132 </v>
  <v type="int" >      142 </v>
  <v type="int" >      156 </v>
  <v type="int" >      153 </v>
  <v type="int" >       44 </v>
  <v type="int" >      251 </v>
  <v type="int" >      248 </v>
  <v type="int" >       51 </v>
  <v type="int" >      226 </v>
  <v type="int" >        3 </v>
  <v type="int" >      287 </v>
  <v type="int" >      112 </v>
  <v type="int" >      217 </v>
  <v type="int" >      113 </v>
  <v type="int" >      189 </v>
  <v type="int" >      239 </v>
  <v type="int" >        2 </v>
  <v type="int" >      120 </v>
  <v type="int" >      270 </v>
  <v type="int" >       49 </v>
  <v type="int" >       63 </v>
  <v type="int" >      265 </v>
  <v type="int" >       67 </v>
  <v type="int" >      107 </v>
  <v type="int" >      152 </v>
  <v type="int" >       98 </v>
  <v type="int" >      215 </v>
  <v type="int" >       54 </v>
  <v type="int" >      219 </v>
  <v type="int" >       83 </v>
  <v type="int" >       10 </v>
  <v type="int" >      259 </v>
  <v type="int" >       92 </v>
  <v type="int" >       21 </v>
  <v type="int" >      232 </v>
  <v type="int" >      190 </v>
  <v type="int" >       34 </v>
  <v type="int" >      245 </v>
  <v type="int" >      280 </v>
  <v type="int" >      148 </v>
  <v type="int" >        4 </v>
  <v type="int" >      246 </v>
  <v type="int" >      123 </v>
  <v type="int" >       39 </v>
  <v type="int" >      177 </v>
  <v type="int" >      150 </v>
  <v type="int" >      176 </v>
  <v type="int" >      213 </v>
  <v type="int" >       48 </v>
  <v type="int" >       72 </v>
  <v type="int" >      192 </v>
  <v type="int" >       79 </v>
  <v type="int" >      209 </v>
  <v type="int" >      178 </v>
  <v type="int" >      206 </v>
  <v type="int" >       35 </v>
  <v type="int" >      180 </v>
  <v type="int" >       73 </v>
  <v type="int" >      194 </v>
  <v type="int" >      222 </v>
  <v type="int" >      105 </v>
  <v type="int" >       40 </v>
  <v type="int" >       78 </v>
  <v type="int" >       28 </v>
  <v type="int" >       18 </v>
  <v type="int" >       61 </v>
  <v type="int" >      193 </v>
  <v type="int" >      271 </v>
  <v type="int" >       88 </v>
  <v type="int" >      279 </v>
  <v type="int" >       99 </v>
  <v type="int" >      186 </v>
  <v type="int" >        8 </v>
  <v type="int" >       56 </v>
  <v type="int" >      134 </v>
  <v type="int" >      267 </v>
  <v type="int" >      116 </v>
  <v type="int" >       91 </v>
  <v type="int" >      155 </v>
  <v type="int" >       17 </v>
  <v type="int" >      125 </v>
  <v type="int" >       68 </v>
  <v type="int" >      170 </v>
  <v type="int" >      284 </v>
  <v type="int" >      229 </v>
  <v type="int" >       77 </v>
  <v type="int" >       59 </v>
  <v type="int" >       42 </v>
  <v type="int" >      244 </v>
  <v type="int" >      128 </v>
  <v type="int" >      212 </v>
  <v type="int" >      144 </v>
  <v type="int" >      263 </v>
  <v type="int" >      218 </v>
  <v type="int" >      168 </v>
  <v type="int" >      207 </v>
  <v type="int" >      159 </v>
  <v type="int" >      102 </v>
  <v type="int" >      281 </v>
  <v type="int" >      101 </v>
  <v type="int" >       27 </v>
  <v type="int" >      260 </v>
  <v type="int" >      143 </v>
  <v type="int" >      117 </v>
  <v type="int" >      127 </v>
  <v type="int" >       84 </v>
  <v type="int" >        7 </v>
  <v type="int" >      249 </v>
  <v type="int" >      261 </v>
  <v type="int" >      109 </v>
  <v type="int" >      122 </v>
  <v type="int" >      277 </v>
  <v type="int" >      141 </v>
  <v type="int" >      227 </v>
  <v type="int" >      274 </v>
  <v type="int" >       93 </v>
  <v type="int" >       20 </v>
  <v type="int" >      275 </v>
  <v type="int" >      179 </v>
  <v type="int" >      164 </v>
  <v type="int" >      241 </v>
  <v type="int" >      205 </v>
  <v type="int" >      100 </v>
  <v type="int" >      165 </v>
  <v type="int" >       45 </v>
  <v type="int" >       64 </v>
  <v type="int" >       80 </v>
  <v type="int" >      237 </v>
  <v type="int" >      121 </v>
  <v type="int" >       30 </v>
  <v type="int" >      253 </v>
  <v type="int" >      118 </v>
  <v type="int" >      136 </v>
  <v type="int" >       82 </v>
  <v type="int" >      183 </v>
  <v type="int" >      228 </v>
  <v type="int" >      258 </v>
  <v type="int" >       26 </v>
  <v type="int" >      172 </v>
  <v type="int" >      214 </v>
  <v type="int" >      255 </v>
  <v type="int" >      264 </v>
  <v type="int" >      161 </v>
  <v type="int" >       31 </v>
  <v type="int" >      208 </v>
  <v type="int" >      108 </v>
  <v type="int" >       36 </v>
  <v type="int" >      273 </v>
  <v type="int" >       29 </v>
  <v type="int" >      104 </v>
  <v type="int" >        9 </v>
  <v type="int" >      283 </v>
  <v type="int" >      266 </v>
  <v type="int" >      221 </v>
  <v type="int" >      236 </v>
  <v type="int" >      166 </v>
  <v type="int" >      242 </v>
  <v type="int" >       95 </v>
  <v type="int" >      185 </v>
  <v type="int" >       66 </v>
  <v type="int" >      223 </v>
  <v type="int" >      202 </v>
  <v type="int" >       75 </v>
  <v type="int" >      115 </v>
  <v type="int" >      230 </v>
  <v type="int" >       37 </v>
  <v type="int" >       58 </v>
  <v type="int" >      187 </v>
  <v type="int" >      124 </v>
  <v type="int" >       47 </v>
  <v type="int" >       13 </v>
  <v type="int" >      282 </v>
  <v type="int" >      262 </v>
  <v type="int" >       96 </v>
  <v type="int" >       94 </v>
  <v type="int" >      238 </v>
  <v type="int" >       14 </v>
  <v type="int" >       85 </v>
  <v type="int" >       97 </v>
  <v type="int" >      188 </v>
  <v type="int" >      257 </v>
  <v type="int" >       70 </v>
  <v type="int" >       11 </v>
  <v type="int" >       33 </v>
  <v type="int" >        6 </v>
  <v type="int" >      203 </v>
  <v type="int" >      133 </v>
  <v type="int" >       86 </v>
  <v type="int" >       65 </v>
  <v type="int" >      196 </v>
  <v type="int" >      158 </v>
  <v type="int" >      231 </v>
  <v type="int" >      175 </v>
  <v type="int" >       69 </v>
  <v type="int" >      111 </v>
  <v type="int" >       62 </v>
  <v type="int" >      140 </v>
  <v type="int" >       60 </v>
  <v type="int" >      210 </v>
  <v type="int" >      154 </v>
  <v type="int" >      272 </v>
  <v type="int" >       90 </v>
  <v type="int" >      162 </v>
  <v type="int" >       76 </v>
  <v type="int" >      285 </v>
  <v type="int" >       55 </v>
  <v type="int" >      131 </v>
  <v type="int" >       89 </v>
  <v type="int" >      286 </v>
  <v type="int" >       46 </v>
  <v type="int" >      114 </v>
  <v type="int" >      254 </v>
  <v type="int" >      135 </v>
  <v type="int" >       32 </v>
  <v type="int" >      240 </v>
  <v type="int" >      106 </v>
  <v type="int" >      252 </v>
  <v type="int" >      247 </v>
  <v type="int" >      169 </v>
  <v type="int" >       74 </v>
  <v type="int" >      163 </v>
  <v type="int" >       23 </v>
  <v type="int" >      138 </v>
  <v type="int" >      269 </v>
  <v type="int" >       71 </v>
  <v type="int" >      276 </v>
  <v type="int" >       22 </v>
  <v type="int" >      137 </v>
  <v type="int" >      211 </v>
  <v type="int" >      157 </v>
  <v type="int" >      195 </v>
  <v type="int" >      182 </v>
  <v type="int" >       24 </v>
  <v type="int" >      129 </v>
  <v type="int" >      174 </v>
  <v type="int" >       57 </v>
  <v type="int" >       81 </v>
  <v type="int" >      103 </v>
  <v type="int" >      224 </v>
  <v type="int" >       15 </v>
  <v type="int" >       12 </v>
  <v type="int" >      200 </v>
  <v type="int" >      167 </v>
  <v type="int" >      199 </v>
  <v type="int" >      250 </v>
  <v type="int" >       19 </v>
  <v type="int" >      145 </v>
  <v type="int" >      160 </v>
  <v type="int" >      278 </v>
  <v type="int" >      126 </v>
  <v type="int" >      119 </v>
  <v type="int" >      147 </v>
  <v type="int" >       50 </v>
  <v type="int" >       38 </v>
  <v type="int" >      198 </v>
  <v type="int" >      181 </v>
  <v type="int" >      151 </v>
  <v type="int" >      146 </v>
  <v type="int" >      256 </v>
  <v type="int" >      110 </v>
  <v type="int" >      201 </v>
  <v type="int" >      191 </v>
  <v type="int" >      233 </v>
  <v type="int" >      171 </v>
  <v type="int" >      149 </v>
  <v type="int" >      139 </v>
  <v type="int" >      130 </v>
  <v type="int" >       43 </v>
  <v type="int" >       53 </v>
  <v type="int" >      288 </v>
  <v type="int" >      234 </v>
  <v type="int" >      220 </v>
  <v type="int" >       52 </v>
  <v type="int" >      197 </v>
  <v type="int" >       41 </v>
  <v type="int" >      268 </v>
  <v type="int" >      216 </v>
  <v type="int" >      184 </v>
  <v type="int" >       87 </v>
  <v type="int" >      204 </v>
  <v type="int" >      243 </v>
  <v type="int" >       16 </v>
 </varray>
 <kpoints>
  <generation param="Gamma">
   <v type="int" name="divisions">       4        4        1 </v>
   <v name="usershift">      0.00000000       0.00000000       0.00000000 </v>
   <v name="genvec1">      0.25000000       0.00000000       0.00000000 </v>
   <v name="genvec2">      0.00000000       0.25000000       0.00000000 </v>
   <v name="genvec3">      0.00000000       0.00000000       1.00000000 </v>
   <v name="shift">      0.00000000       0.00000000       0.00000000 </v>
  </generation>
  <varray name="kpointlist" >
   <v>       0.00000000       0.00000000       0.00000000 </v>
   <v>       0.25000000       0.00000000       0.00000000 </v>
   <v>       0.50000000       0.00000000       0.00000000 </v>
   <v>       0.00000000       0.25000000       0.00000000 </v>
   <v>       0.25000000       0.25000000       0.00000000 </v>
   <v>       0.50000000       0.25000000       0.00000000 </v>
   <v>      -0.25000000       0.25000000       0.00000000 </v>
   <v>       0.00000000       0.50000000       0.00000000 </v>
   <v>       0.25000000       0.50000000       0.00000000 </v>
   <v>       0.50000000       0.50000000       0.00000000 </v>
  </varray>
  <varray name="weights" >
   <v>       0.06250000 </v>
   <v>       0.12500000 </v>
   <v>       0.06250000 </v>
   <v>       0.12500000 </v>
   <v>       0.12500000 </v>
   <v>       0.12500000 </v>
   <v>       0.12500000 </v>
   <v>       0.06250000 </v>
   <v>       0.12500000 </v>
   <v>       0.06250000 </v>
  </varray>
 </kpoints>
 <parameters>
  <separator name="general" >
   <i type="string" name="SYSTEM">unknown system</i>
   <i type="logical" name="LCOMPAT"> F  </i>
  </separator>
  <separator name="electronic" >
   <i type="string" name="PREC">accura</i>
   <i name="ENMAX">    500.00000000</i>
   <i name="ENAUG">    838.43500000</i>
   <i name="EDIFF">      0.00001000</i>
   <i type="int" name="IALGO">    68</i>
   <i type="int" name="IWAVPR">    11</i>
   <i type="int" name="NBANDS">  1380</i>
   <i name="NELECT">   2289.00000000</i>
   <i type="int" name="TURBO">     0</i>
   <i type="int" name="IRESTART">     0</i>
   <i type="int" name="NREBOOT">     0</i>
   <i type="int" name="NMIN">     0</i>
   <i name="EREF">      0.00000000</i>
   <separator name="electronic smearing" >
    <i type="int" name="ISMEAR">     0</i>
    <i name="SIGMA">      0.15000000</i>
    <i name="KSPACING">      0.50000000</i>
    <i type="logical" name="KGAMMA"> T  </i>
   </separator>
   <separator name="electronic projectors" >
    <i type="logical" name="LREAL"> T  </i>
    <v name="ROPT">     -0.00025000     -0.00025000</v>
    <i type="int" name="LMAXPAW">  -100</i>
    <i type="int" name="LMAXMIX">     2</i>
    <i type="logical" name="NLSPLINE"> F  </i>
   </separator>
   <separator name="electronic startup" >
    <i type="int" name="ISTART">     0</i>
    <i type="int" name="ICHARG">     2</i>
    <i type="int" name="INIWAV">     1</i>
   </separator>
   <separator name="electronic spin" >
    <i type="int" name="ISPIN">     1</i>
    <i type="logical" name="LNONCOLLINEAR"> F  </i>
    <v name="MAGMOM">      1.00000000      1.00000000      1.00000000      1.00000000      1.00000000      1.00000000      1.00000000      1.00000000      1.00000000      1.00000000      1.00000000      1.00000000      1.00000000      1.00000000      1.00000000      1.00000000      1.00000000      1.00000000      1.00000000      1.00000000
      1.00000000      1.00000000      1.00000000      1.00000000      1.00000000      1.00000000      1.00000000      1.00000000      1.00000000      1.00000000      1.00000000      1.00000000      1.00000000      1.00000000      1.00000000      1.00000000      1.00000000      1.00000000      1.00000000      1.00000000
      1.00000000      1.00000000      1.00000000      1.00000000      1.00000000      1.00000000      1.00000000      1.00000000      1.00000000      1.00000000      1.00000000      1.00000000      1.00000000      1.00000000      1.00000000      1.00000000      1.00000000      1.00000000      1.00000000      1.00000000
      1.00000000      1.00000000      1.00000000      1.00000000      1.00000000      1.00000000      1.00000000      1.00000000      1.00000000      1.00000000      1.00000000      1.00000000      1.00000000      1.00000000      1.00000000      1.00000000      1.00000000      1.00000000      1.00000000      1.00000000
      1.00000000      1.00000000      1.00000000      1.00000000      1.00000000      1.00000000      1.00000000      1.00000000      1.00000000      1.00000000      1.00000000      1.00000000      1.00000000      1.00000000      1.00000000      1.00000000      1.00000000      1.00000000      1.00000000      1.00000000
      1.00000000      1.00000000      1.00000000      1.00000000      1.00000000      1.00000000      1.00000000      1.00000000      1.00000000      1.00000000      1.00000000      1.00000000      1.00000000      1.00000000      1.00000000      1.00000000      1.00000000      1.00000000      1.00000000      1.00000000
      1.00000000      1.00000000      1.00000000      1.00000000      1.00000000      1.00000000      1.00000000      1.00000000      1.00000000      1.00000000      1.00000000      1.00000000      1.00000000      1.00000000      1.00000000      1.00000000      1.00000000      1.00000000      1.00000000      1.00000000
      1.00000000      1.00000000      1.00000000      1.00000000      1.00000000      1.00000000      1.00000000      1.00000000      1.00000000      1.00000000      1.00000000      1.00000000      1.00000000      1.00000000      1.00000000      1.00000000      1.00000000      1.00000000      1.00000000      1.00000000
      1.00000000      1.00000000      1.00000000      1.00000000      1.00000000      1.00000000      1.00000000      1.00000000      1.00000000      1.00000000      1.00000000      1.00000000      1.00000000      1.00000000      1.00000000      1.00000000      1.00000000      1.00000000      1.00000000      1.00000000
      1.00000000      1.00000000      1.00000000      1.00000000      1.00000000      1.00000000      1.00000000      1.00000000      1.00000000      1.00000000      1.00000000      1.00000000      1.00000000      1.00000000      1.00000000      1.00000000      1.00000000      1.00000000      1.00000000      1.00000000
      1.00000000      1.00000000      1.00000000      1.00000000      1.00000000      1.00000000      1.00000000      1.00000000      1.00000000      1.00000000      1.00000000      1.00000000      1.00000000      1.00000000      1.00000000      1.00000000      1.00000000      1.00000000      1.00000000      1.00000000
      1.00000000      1.00000000      1.00000000      1.00000000      1.00000000      1.00000000      1.00000000      1.00000000      1.00000000      1.00000000      1.00000000      1.00000000      1.00000000      1.00000000      1.00000000      1.00000000      1.00000000      1.00000000      1.00000000      1.00000000
      1.00000000      1.00000000      1.00000000      1.00000000      1.00000000      1.00000000      1.00000000      1.00000000      1.00000000      1.00000000      1.00000000      1.00000000      1.00000000      1.00000000      1.00000000      1.00000000      1.00000000      1.00000000      1.00000000      1.00000000
      1.00000000      1.00000000      1.00000000      1.00000000      1.00000000      1.00000000      1.00000000      1.00000000      1.00000000      1.00000000      1.00000000      1.00000000      1.00000000      1.00000000      1.00000000      1.00000000      1.00000000      1.00000000      1.00000000      1.00000000
      1.00000000      1.00000000      1.00000000      1.00000000      1.00000000      1.00000000      1.00000000      1.00000000</v>
    <i name="NUPDOWN">     -1.00000000</i>
    <i type="logical" name="LSORBIT"> F  </i>
    <v name="SAXIS">      0.00000000      0.00000000      1.00000000</v>
    <i type="logical" name="LSPIRAL"> F  </i>
    <v name="QSPIRAL">      0.00000000      0.00000000      0.00000000</v>
    <i type="logical" name="LZEROZ"> F  </i>
   </separator>
   <separator name="electronic exchange-correlation" >
    <i type="logical" name="LASPH"> F  </i>
    <i type="logical" name="LMETAGGA"> F  </i>
   </separator>
   <separator name="electronic convergence" >
    <i type="int" name="NELM">   100</i>
    <i type="int" name="NELMDL">     0</i>
    <i type="int" name="NELMIN">     4</i>
    <i name="ENINI">    500.00000000</i>
    <separator name="electronic convergence detail" >
     <i type="logical" name="LDIAG"> T  </i>
     <i type="logical" name="LSUBROT"> F  </i>
     <i name="WEIMIN">      0.00100000</i>
     <i name="EBREAK">      0.00000000</i>
     <i name="DEPER">      0.30000000</i>
     <i type="int" name="NRMM">     4</i>
     <i name="TIME">      0.40000000</i>
    </separator>
   </separator>
   <separator name="electronic mixer" >
    <i name="AMIX">      0.40000000</i>
    <i name="BMIX">      1.00000000</i>
    <i name="AMIN">      0.10000000</i>
    <i name="AMIX_MAG">      1.60000000</i>
    <i name="BMIX_MAG">      1.00000000</i>
    <separator name="electronic mixer details" >
     <i type="int" name="IMIX">     4</i>
     <i type="logical" name="MIXFIRST"> F  </i>
     <i type="int" name="MAXMIX">   -45</i>
     <i name="WC">    100.00000000</i>
     <i type="int" name="INIMIX">     1</i>
     <i type="int" name="MIXPRE">     1</i>
     <i type="int" name="MREMOVE">     5</i>
    </separator>
   </separator>
   <separator name="electronic dipolcorrection" >
    <i type="logical" name="LDIPOL"> F  </i>
    <i type="logical" name="LMONO"> F  </i>
    <i type="int" name="IDIPOL">     0</i>
    <i name="EPSILON">      1.00000000</i>
    <v name="DIPOL">   -100.00000000   -100.00000000   -100.00000000</v>
    <i name="EFIELD">      0.00000000</i>
   </separator>
  </separator>
  <separator name="grids" >
   <i type="int" name="NGX">    72</i>
   <i type="int" name="NGY">    64</i>
   <i type="int" name="NGZ">   336</i>
   <i type="int" name="NGXF">   144</i>
   <i type="int" name="NGYF">   128</i>
   <i type="int" name="NGZF">   672</i>
   <i type="logical" name="ADDGRID"> F  </i>
  </separator>
  <separator name="ionic" >
   <i type="int" name="NSW">   500</i>
   <i type="int" name="IBRION">     2</i>
   <i type="int" name="MDALGO">     0</i>
   <i type="int" name="ISIF">     2</i>
   <i name="PSTRESS">      0.00000000</i>
   <i name="EDIFFG">      0.00010000</i>
   <i type="int" name="NFREE">     1</i>
   <i name="POTIM">      0.25000000</i>
   <i name="SMASS">     -3.00000000</i>
   <i name="SCALEE">      1.00000000</i>
  </separator>
  <separator name="ionic md" >
   <i name="TEBEG">      0.00010000</i>
   <i name="TEEND">      0.00010000</i>
   <i type="int" name="NBLOCK">     1</i>
   <i type="int" name="KBLOCK">   500</i>
   <i type="int" name="NPACO">   256</i>
   <i name="APACO">     16.00000000</i>
  </separator>
  <separator name="symmetry" >
   <i type="int" name="ISYM">     2</i>
   <i name="SYMPREC">      0.00001000</i>
  </separator>
  <separator name="dos" >
   <i type="int" name="LORBIT">     0</i>
   <v name="RWIGS">     -1.00000000     -1.00000000</v>
   <i type="int" name="NEDOS">   301</i>
   <i name="EMIN">     10.00000000</i>
   <i name="EMAX">    -10.00000000</i>
   <i name="EFERMI">      0.00000000</i>
  </separator>
  <separator name="writing" >
   <i type="int" name="NWRITE">     2</i>
   <i type="logical" name="LWAVE"> F  </i>
   <i type="logical" name="LDOWNSAMPLE"> F  </i>
   <i type="logical" name="LCHARG"> F  </i>
   <i type="logical" name="LPARD"> F  </i>
   <i type="logical" name="LVTOT"> F  </i>
   <i type="logical" name="LVHAR"> F  </i>
   <i type="logical" name="LELF"> F  </i>
   <i type="logical" name="LOPTICS"> F  </i>
   <v name="STM">      0.00000000      0.00000000      0.00000000      0.00000000      0.00000000      0.00000000      0.00000000</v>
  </separator>
  <separator name="performance" >
   <i type="int" name="NPAR">    10</i>
   <i type="int" name="NSIM">     4</i>
   <i type="int" name="NBLK">    -1</i>
   <i type="logical" name="LPLANE"> T  </i>
   <i type="logical" name="LSCALAPACK"> F  </i>
   <i type="logical" name="LSCAAWARE"> F  </i>
   <i type="logical" name="LSCALU"> F  </i>
   <i type="logical" name="LASYNC"> F  </i>
   <i type="logical" name="LORBITALREAL"> F  </i>
  </separator>
  <separator name="miscellaneous" >
   <i type="int" name="IDIOT">     3</i>
   <i type="int" name="ISPECIAL">     0</i>
   <i type="logical" name="LMUSIC"> F  </i>
   <v name="POMASS">     55.84700000     54.93800000</v>
   <v name="DARWINR">      0.00000000      0.00000000</v>
   <v name="DARWINV">      1.00000000      1.00000000</v>
   <i type="logical" name="LCORR"> T  </i>
  </separator>
  <i type="logical" name="GGA_COMPAT"> T  </i>
  <i type="logical" name="LBERRY"> F  </i>
  <i type="int" name="ICORELEVEL">     0</i>
  <i type="logical" name="LDAU"> F  </i>
  <i type="int" name="I_CONSTRAINED_M">     0</i>
  <separator name="electronic exchange-correlation" >
   <i type="string" name="GGA">--</i>
   <i type="int" name="VOSKOWN">     0</i>
   <i type="logical" name="LHFCALC"> F  </i>
   <i type="string" name="PRECFOCK"></i>
   <i type="logical" name="LSYMGRAD"> F  </i>
   <i type="logical" name="LHFONE"> F  </i>
   <i type="logical" name="LRHFCALC"> F  </i>
   <i type="logical" name="LTHOMAS"> F  </i>
   <i type="logical" name="LMODELHF"> F  </i>
   <i name="ENCUT4O">     -1.00000000</i>
   <i type="int" name="EXXOEP">     0</i>
   <i type="int" name="FOURORBIT">     0</i>
   <i name="AEXX">      0.00000000</i>
   <i name="HFALPHA">      0.00000000</i>
   <i name="MCALPHA">      0.00000000</i>
   <i name="ALDAX">      1.00000000</i>
   <i name="AGGAX">      1.00000000</i>
   <i name="ALDAC">      1.00000000</i>
   <i name="AGGAC">      1.00000000</i>
   <i type="int" name="NKREDX">     1</i>
   <i type="int" name="NKREDY">     1</i>
   <i type="int" name="NKREDZ">     1</i>
   <i type="logical" name="SHIFTRED"> F  </i>
   <i type="logical" name="ODDONLY"> F  </i>
   <i type="logical" name="EVENONLY"> F  </i>
   <i type="int" name="LMAXFOCK">     0</i>
   <i type="int" name="NMAXFOCKAE">     0</i>
   <i type="logical" name="LFOCKAEDFT"> F  </i>
   <i name="HFSCREEN">      0.00000000</i>
   <i name="HFSCREENC">      0.00000000</i>
   <i type="int" name="NBANDSGWLOW">     0</i>
  </separator>
  <separator name="vdW DFT" >
   <i type="logical" name="LUSE_VDW"> F  </i>
   <i name="Zab_VDW">     -0.84910000</i>
   <i name="PARAM1">      0.12340000</i>
   <i name="PARAM2">      1.00000000</i>
   <i name="PARAM3">      0.00000000</i>
  </separator>
  <separator name="model GW" >
   <i type="int" name="MODEL_GW">     0</i>
   <i name="MODEL_EPS0">      7.68123361</i>
   <i name="MODEL_ALPHA">      1.00000000</i>
  </separator>
  <separator name="linear response parameters" >
   <i type="logical" name="LEPSILON"> F  </i>
   <i type="logical" name="LRPA"> F  </i>
   <i type="logical" name="LNABLA"> F  </i>
   <i type="logical" name="LVEL"> F  </i>
   <i type="int" name="KINTER">     0</i>
   <i name="CSHIFT">      0.10000000</i>
   <i name="OMEGAMAX">     -1.00000000</i>
   <i name="DEG_THRESHOLD">      0.00200000</i>
   <i name="RTIME">     -0.10000000</i>
   <i name="WPLASMAI">      0.00000000</i>
   <v name="DFIELD">      0.00000000      0.00000000      0.00000000</v>
   <v name="WPLASMA">      0.00000000      0.00000000      0.00000000      0.00000000      0.00000000      0.00000000      0.00000000      0.00000000      0.00000000</v>
  </separator>
  <separator name="orbital magnetization" >
   <i type="logical" name="NUCIND"> F  </i>
   <v name="MAGPOS">      0.00000000      0.00000000      0.00000000</v>
   <i type="logical" name="LNICSALL"> T  </i>
   <i type="logical" name="ORBITALMAG"> F  </i>
   <i type="logical" name="LMAGBLOCH"> F  </i>
   <i type="logical" name="LCHIMAG"> F  </i>
   <i type="logical" name="LGAUGE"> T  </i>
   <i type="int" name="MAGATOM">     0</i>
   <v name="MAGDIPOL">      0.00000000      0.00000000      0.00000000</v>
   <v name="AVECCONST">      0.00000000      0.00000000      0.00000000</v>
  </separator>
  <separator name="response functions" >
   <i type="logical" name="LADDER"> F  </i>
   <i type="logical" name="LRPAFORCE"> F  </i>
   <i type="logical" name="LFXC"> F  </i>
   <i type="logical" name="LHARTREE"> T  </i>
   <i type="int" name="IBSE">     0</i>
   <v type="int" name="KPOINT">    -1     0     0     0</v>
   <i type="logical" name="LTCTE"> F  </i>
   <i type="logical" name="LTETE"> F  </i>
   <i type="logical" name="LTRIPLET"> F  </i>
   <i type="logical" name="LFXCEPS"> F  </i>
   <i type="logical" name="LFXHEG"> F  </i>
   <i type="int" name="NATURALO">     2</i>
   <i type="logical" name="L2ORDER"> F  </i>
   <i type="logical" name="LMP2LT"> F  </i>
   <i type="logical" name="LUSEW"> F  </i>
   <i name="ENCUTGW">     -2.00000000</i>
   <i name="ENCUTGWSOFT">     -2.00000000</i>
   <i name="ENCUTLF">     -1.00000000</i>
   <i type="int" name="LMAXMP2">    -1</i>
   <i name="SCISSOR">      0.00000000</i>
   <i type="int" name="NOMEGA">     0</i>
   <i type="int" name="NOMEGAR">     0</i>
   <i type="int" name="NBANDSGW">    -1</i>
   <i type="int" name="NBANDSO">    -1</i>
   <i type="int" name="NBANDSV">    -1</i>
   <i type="int" name="NELM">   100</i>
   <i type="int" name="NELMHF">     1</i>
   <i type="int" name="DIM">     3</i>
   <i type="int" name="ANTIRES">     0</i>
   <i name="OMEGAMAX">    -30.00000000</i>
   <i name="OMEGAMIN">    -30.00000000</i>
   <i name="OMEGATL">   -200.00000000</i>
   <i type="int" name="OMEGAGRID">   140</i>
   <i name="CSHIFT">     -0.10000000</i>
   <i type="logical" name="SELFENERGY"> F  </i>
   <i type="logical" name="LSPECTRAL"> F  </i>
   <i type="logical" name="LSPECTRALGW"> F  </i>
   <i type="logical" name="LSINGLES"> F  </i>
   <i type="logical" name="LFERMIGW"> F  </i>
   <i type="logical" name="ODDONLYGW"> F  </i>
   <i type="logical" name="EVENONLYGW"> F  </i>
   <i type="int" name="NKREDLFX">     1</i>
   <i type="int" name="NKREDLFY">     1</i>
   <i type="int" name="NKREDLFZ">     1</i>
   <i type="int" name="MAXMEM">  2800</i>
   <i type="int" name="TELESCOPE">     0</i>
   <i type="int" name="TAUPAR">     1</i>
   <i type="int" name="OMEGAPAR">    -1</i>
   <i name="LAMBDA">      1.00000000</i>
  </separator>
  <separator name="External order field" >
   <i name="OFIELD_KAPPA">      0.00000000</i>
   <v name="OFIELD_K">      0.00000000      0.00000000      0.00000000</v>
   <i name="OFIELD_Q6_NEAR">      0.00000000</i>
   <i name="OFIELD_Q6_FAR">      0.00000000</i>
   <i name="OFIELD_A">      0.00000000</i>
  </separator>
 </parameters>
 <atominfo>
  <atoms>     288 </atoms>
  <types>       2 </types>
  <array name="atoms" >
   <dimension dim="1">ion</dimension>
   <field type="string">element</field>
   <field type="int">atomtype</field>
   <set>
    <rc><c>Fe</c><c>   1</c></rc>
    <rc><c>Fe</c><c>   1</c></rc>
    <rc><c>Fe</c><c>   1</c></rc>
    <rc><c>Fe</c><c>   1</c></rc>
    <rc><c>Fe</c><c>   1</c></rc>
    <rc><c>Fe</c><c>   1</c></rc>
    <rc><c>Fe</c><c>   1</c></rc>
    <rc><c>Fe</c><c>   1</c></rc>
    <rc><c>Fe</c><c>   1</c></rc>
    <rc><c>Fe</c><c>   1</c></rc>
    <rc><c>Fe</c><c>   1</c></rc>
    <rc><c>Fe</c><c>   1</c></rc>
    <rc><c>Fe</c><c>   1</c></rc>
    <rc><c>Fe</c><c>   1</c></rc>
    <rc><c>Fe</c><c>   1</c></rc>
    <rc><c>Fe</c><c>   1</c></rc>
    <rc><c>Fe</c><c>   1</c></rc>
    <rc><c>Fe</c><c>   1</c></rc>
    <rc><c>Fe</c><c>   1</c></rc>
    <rc><c>Fe</c><c>   1</c></rc>
    <rc><c>Fe</c><c>   1</c></rc>
    <rc><c>Fe</c><c>   1</c></rc>
    <rc><c>Fe</c><c>   1</c></rc>
    <rc><c>Fe</c><c>   1</c></rc>
    <rc><c>Fe</c><c>   1</c></rc>
    <rc><c>Fe</c><c>   1</c></rc>
    <rc><c>Fe</c><c>   1</c></rc>
    <rc><c>Fe</c><c>   1</c></rc>
    <rc><c>Fe</c><c>   1</c></rc>
    <rc><c>Fe</c><c>   1</c></rc>
    <rc><c>Fe</c><c>   1</c></rc>
    <rc><c>Fe</c><c>   1</c></rc>
    <rc><c>Fe</c><c>   1</c></rc>
    <rc><c>Fe</c><c>   1</c></rc>
    <rc><c>Fe</c><c>   1</c></rc>
    <rc><c>Fe</c><c>   1</c></rc>
    <rc><c>Fe</c><c>   1</c></rc>
    <rc><c>Fe</c><c>   1</c></rc>
    <rc><c>Fe</c><c>   1</c></rc>
    <rc><c>Fe</c><c>   1</c></rc>
    <rc><c>Fe</c><c>   1</c></rc>
    <rc><c>Fe</c><c>   1</c></rc>
    <rc><c>Fe</c><c>   1</c></rc>
    <rc><c>Fe</c><c>   1</c></rc>
    <rc><c>Fe</c><c>   1</c></rc>
    <rc><c>Fe</c><c>   1</c></rc>
    <rc><c>Fe</c><c>   1</c></rc>
    <rc><c>Fe</c><c>   1</c></rc>
    <rc><c>Fe</c><c>   1</c></rc>
    <rc><c>Fe</c><c>   1</c></rc>
    <rc><c>Fe</c><c>   1</c></rc>
    <rc><c>Fe</c><c>   1</c></rc>
    <rc><c>Fe</c><c>   1</c></rc>
    <rc><c>Fe</c><c>   1</c></rc>
    <rc><c>Fe</c><c>   1</c></rc>
    <rc><c>Fe</c><c>   1</c></rc>
    <rc><c>Fe</c><c>   1</c></rc>
    <rc><c>Fe</c><c>   1</c></rc>
    <rc><c>Fe</c><c>   1</c></rc>
    <rc><c>Fe</c><c>   1</c></rc>
    <rc><c>Fe</c><c>   1</c></rc>
    <rc><c>Fe</c><c>   1</c></rc>
    <rc><c>Fe</c><c>   1</c></rc>
    <rc><c>Fe</c><c>   1</c></rc>
    <rc><c>Fe</c><c>   1</c></rc>
    <rc><c>Fe</c><c>   1</c></rc>
    <rc><c>Fe</c><c>   1</c></rc>
    <rc><c>Fe</c><c>   1</c></rc>
    <rc><c>Fe</c><c>   1</c></rc>
    <rc><c>Fe</c><c>   1</c></rc>
    <rc><c>Fe</c><c>   1</c></rc>
    <rc><c>Fe</c><c>   1</c></rc>
    <rc><c>Fe</c><c>   1</c></rc>
    <rc><c>Fe</c><c>   1</c></rc>
    <rc><c>Fe</c><c>   1</c></rc>
    <rc><c>Fe</c><c>   1</c></rc>
    <rc><c>Fe</c><c>   1</c></rc>
    <rc><c>Fe</c><c>   1</c></rc>
    <rc><c>Fe</c><c>   1</c></rc>
    <rc><c>Fe</c><c>   1</c></rc>
    <rc><c>Fe</c><c>   1</c></rc>
    <rc><c>Fe</c><c>   1</c></rc>
    <rc><c>Fe</c><c>   1</c></rc>
    <rc><c>Fe</c><c>   1</c></rc>
    <rc><c>Fe</c><c>   1</c></rc>
    <rc><c>Fe</c><c>   1</c></rc>
    <rc><c>Fe</c><c>   1</c></rc>
    <rc><c>Fe</c><c>   1</c></rc>
    <rc><c>Fe</c><c>   1</c></rc>
    <rc><c>Fe</c><c>   1</c></rc>
    <rc><c>Fe</c><c>   1</c></rc>
    <rc><c>Fe</c><c>   1</c></rc>
    <rc><c>Fe</c><c>   1</c></rc>
    <rc><c>Fe</c><c>   1</c></rc>
    <rc><c>Fe</c><c>   1</c></rc>
    <rc><c>Fe</c><c>   1</c></rc>
    <rc><c>Fe</c><c>   1</c></rc>
    <rc><c>Fe</c><c>   1</c></rc>
    <rc><c>Fe</c><c>   1</c></rc>
    <rc><c>Fe</c><c>   1</c></rc>
    <rc><c>Fe</c><c>   1</c></rc>
    <rc><c>Fe</c><c>   1</c></rc>
    <rc><c>Fe</c><c>   1</c></rc>
    <rc><c>Fe</c><c>   1</c></rc>
    <rc><c>Fe</c><c>   1</c></rc>
    <rc><c>Fe</c><c>   1</c></rc>
    <rc><c>Fe</c><c>   1</c></rc>
    <rc><c>Fe</c><c>   1</c></rc>
    <rc><c>Fe</c><c>   1</c></rc>
    <rc><c>Fe</c><c>   1</c></rc>
    <rc><c>Fe</c><c>   1</c></rc>
    <rc><c>Fe</c><c>   1</c></rc>
    <rc><c>Fe</c><c>   1</c></rc>
    <rc><c>Fe</c><c>   1</c></rc>
    <rc><c>Fe</c><c>   1</c></rc>
    <rc><c>Fe</c><c>   1</c></rc>
    <rc><c>Fe</c><c>   1</c></rc>
    <rc><c>Fe</c><c>   1</c></rc>
    <rc><c>Fe</c><c>   1</c></rc>
    <rc><c>Fe</c><c>   1</c></rc>
    <rc><c>Fe</c><c>   1</c></rc>
    <rc><c>Fe</c><c>   1</c></rc>
    <rc><c>Fe</c><c>   1</c></rc>
    <rc><c>Fe</c><c>   1</c></rc>
    <rc><c>Fe</c><c>   1</c></rc>
    <rc><c>Fe</c><c>   1</c></rc>
    <rc><c>Fe</c><c>   1</c></rc>
    <rc><c>Fe</c><c>   1</c></rc>
    <rc><c>Fe</c><c>   1</c></rc>
    <rc><c>Fe</c><c>   1</c></rc>
    <rc><c>Fe</c><c>   1</c></rc>
    <rc><c>Fe</c><c>   1</c></rc>
    <rc><c>Fe</c><c>   1</c></rc>
    <rc><c>Fe</c><c>   1</c></rc>
    <rc><c>Fe</c><c>   1</c></rc>
    <rc><c>Fe</c><c>   1</c></rc>
    <rc><c>Fe</c><c>   1</c></rc>
    <rc><c>Fe</c><c>   1</c></rc>
    <rc><c>Fe</c><c>   1</c></rc>
    <rc><c>Fe</c><c>   1</c></rc>
    <rc><c>Fe</c><c>   1</c></rc>
    <rc><c>Fe</c><c>   1</c></rc>
    <rc><c>Fe</c><c>   1</c></rc>
    <rc><c>Fe</c><c>   1</c></rc>
    <rc><c>Fe</c><c>   1</c></rc>
    <rc><c>Fe</c><c>   1</c></rc>
    <rc><c>Fe</c><c>   1</c></rc>
    <rc><c>Fe</c><c>   1</c></rc>
    <rc><c>Fe</c><c>   1</c></rc>
    <rc><c>Fe</c><c>   1</c></rc>
    <rc><c>Fe</c><c>   1</c></rc>
    <rc><c>Fe</c><c>   1</c></rc>
    <rc><c>Fe</c><c>   1</c></rc>
    <rc><c>Fe</c><c>   1</c></rc>
    <rc><c>Fe</c><c>   1</c></rc>
    <rc><c>Fe</c><c>   1</c></rc>
    <rc><c>Fe</c><c>   1</c></rc>
    <rc><c>Fe</c><c>   1</c></rc>
    <rc><c>Fe</c><c>   1</c></rc>
    <rc><c>Fe</c><c>   1</c></rc>
    <rc><c>Fe</c><c>   1</c></rc>
    <rc><c>Fe</c><c>   1</c></rc>
    <rc><c>Fe</c><c>   1</c></rc>
    <rc><c>Fe</c><c>   1</c></rc>
    <rc><c>Fe</c><c>   1</c></rc>
    <rc><c>Fe</c><c>   1</c></rc>
    <rc><c>Fe</c><c>   1</c></rc>
    <rc><c>Fe</c><c>   1</c></rc>
    <rc><c>Fe</c><c>   1</c></rc>
    <rc><c>Fe</c><c>   1</c></rc>
    <rc><c>Fe</c><c>   1</c></rc>
    <rc><c>Fe</c><c>   1</c></rc>
    <rc><c>Fe</c><c>   1</c></rc>
    <rc><c>Fe</c><c>   1</c></rc>
    <rc><c>Fe</c><c>   1</c></rc>
    <rc><c>Fe</c><c>   1</c></rc>
    <rc><c>Fe</c><c>   1</c></rc>
    <rc><c>Fe</c><c>   1</c></rc>
    <rc><c>Fe</c><c>   1</c></rc>
    <rc><c>Fe</c><c>   1</c></rc>
    <rc><c>Fe</c><c>   1</c></rc>
    <rc><c>Fe</c><c>   1</c></rc>
    <rc><c>Fe</c><c>   1</c></rc>
    <rc><c>Fe</c><c>   1</c></rc>
    <rc><c>Fe</c><c>   1</c></rc>
    <rc><c>Fe</c><c>   1</c></rc>
    <rc><c>Fe</c><c>   1</c></rc>
    <rc><c>Fe</c><c>   1</c></rc>
    <rc><c>Fe</c><c>   1</c></rc>
    <rc><c>Fe</c><c>   1</c></rc>
    <rc><c>Fe</c><c>   1</c></rc>
    <rc><c>Fe</c><c>   1</c></rc>
    <rc><c>Fe</c><c>   1</c></rc>
    <rc><c>Fe</c><c>   1</c></rc>
    <rc><c>Fe</c><c>   1</c></rc>
    <rc><c>Fe</c><c>   1</c></rc>
    <rc><c>Fe</c><c>   1</c></rc>
    <rc><c>Fe</c><c>   1</c></rc>
    <rc><c>Fe</c><c>   1</c></rc>
    <rc><c>Fe</c><c>   1</c></rc>
    <rc><c>Fe</c><c>   1</c></rc>
    <rc><c>Fe</c><c>   1</c></rc>
    <rc><c>Fe</c><c>   1</c></rc>
    <rc><c>Fe</c><c>   1</c></rc>
    <rc><c>Fe</c><c>   1</c></rc>
    <rc><c>Fe</c><c>   1</c></rc>
    <rc><c>Fe</c><c>   1</c></rc>
    <rc><c>Fe</c><c>   1</c></rc>
    <rc><c>Fe</c><c>   1</c></rc>
    <rc><c>Fe</c><c>   1</c></rc>
    <rc><c>Fe</c><c>   1</c></rc>
    <rc><c>Fe</c><c>   1</c></rc>
    <rc><c>Fe</c><c>   1</c></rc>
    <rc><c>Fe</c><c>   1</c></rc>
    <rc><c>Fe</c><c>   1</c></rc>
    <rc><c>Fe</c><c>   1</c></rc>
    <rc><c>Fe</c><c>   1</c></rc>
    <rc><c>Fe</c><c>   1</c></rc>
    <rc><c>Fe</c><c>   1</c></rc>
    <rc><c>Fe</c><c>   1</c></rc>
    <rc><c>Fe</c><c>   1</c></rc>
    <rc><c>Fe</c><c>   1</c></rc>
    <rc><c>Fe</c><c>   1</c></rc>
    <rc><c>Fe</c><c>   1</c></rc>
    <rc><c>Fe</c><c>   1</c></rc>
    <rc><c>Fe</c><c>   1</c></rc>
    <rc><c>Fe</c><c>   1</c></rc>
    <rc><c>Fe</c><c>   1</c></rc>
    <rc><c>Fe</c><c>   1</c></rc>
    <rc><c>Fe</c><c>   1</c></rc>
    <rc><c>Fe</c><c>   1</c></rc>
    <rc><c>Fe</c><c>   1</c></rc>
    <rc><c>Fe</c><c>   1</c></rc>
    <rc><c>Fe</c><c>   1</c></rc>
    <rc><c>Fe</c><c>   1</c></rc>
    <rc><c>Fe</c><c>   1</c></rc>
    <rc><c>Fe</c><c>   1</c></rc>
    <rc><c>Fe</c><c>   1</c></rc>
    <rc><c>Fe</c><c>   1</c></rc>
    <rc><c>Fe</c><c>   1</c></rc>
    <rc><c>Fe</c><c>   1</c></rc>
    <rc><c>Fe</c><c>   1</c></rc>
    <rc><c>Fe</c><c>   1</c></rc>
    <rc><c>Fe</c><c>   1</c></rc>
    <rc><c>Fe</c><c>   1</c></rc>
    <rc><c>Fe</c><c>   1</c></rc>
    <rc><c>Fe</c><c>   1</c></rc>
    <rc><c>Fe</c><c>   1</c></rc>
    <rc><c>Fe</c><c>   1</c></rc>
    <rc><c>Fe</c><c>   1</c></rc>
    <rc><c>Fe</c><c>   1</c></rc>
    <rc><c>Fe</c><c>   1</c></rc>
    <rc><c>Fe</c><c>   1</c></rc>
    <rc><c>Fe</c><c>   1</c></rc>
    <rc><c>Fe</c><c>   1</c></rc>
    <rc><c>Fe</c><c>   1</c></rc>
    <rc><c>Fe</c><c>   1</c></rc>
    <rc><c>Fe</c><c>   1</c></rc>
    <rc><c>Fe</c><c>   1</c></rc>
    <rc><c>Fe</c><c>   1</c></rc>
    <rc><c>Fe</c><c>   1</c></rc>
    <rc><c>Fe</c><c>   1</c></rc>
    <rc><c>Fe</c><c>   1</c></rc>
    <rc><c>Fe</c><c>   1</c></rc>
    <rc><c>Fe</c><c>   1</c></rc>
    <rc><c>Fe</c><c>   1</c></rc>
    <rc><c>Fe</c><c>   1</c></rc>
    <rc><c>Fe</c><c>   1</c></rc>
    <rc><c>Fe</c><c>   1</c></rc>
    <rc><c>Fe</c><c>   1</c></rc>
    <rc><c>Fe</c><c>   1</c></rc>
    <rc><c>Fe</c><c>   1</c></rc>
    <rc><c>Fe</c><c>   1</c></rc>
    <rc><c>Mn</c><c>   2</c></rc>
    <rc><c>Mn</c><c>   2</c></rc>
    <rc><c>Mn</c><c>   2</c></rc>
    <rc><c>Mn</c><c>   2</c></rc>
    <rc><c>Mn</c><c>   2</c></rc>
    <rc><c>Mn</c><c>   2</c></rc>
    <rc><c>Mn</c><c>   2</c></rc>
    <rc><c>Mn</c><c>   2</c></rc>
    <rc><c>Mn</c><c>   2</c></rc>
    <rc><c>Mn</c><c>   2</c></rc>
    <rc><c>Mn</c><c>   2</c></rc>
    <rc><c>Mn</c><c>   2</c></rc>
    <rc><c>Mn</c><c>   2</c></rc>
    <rc><c>Mn</c><c>   2</c></rc>
    <rc><c>Mn</c><c>   2</c></rc>
   </set>
  </array>
  <array name="atomtypes" >
   <dimension dim="1">type</dimension>
   <field type="int">atomspertype</field>
   <field type="string">element</field>
   <field>mass</field>
   <field>valence</field>
   <field type="string">pseudopotential</field>
   <set>
    <rc><c> 273</c><c>Fe</c><c>     55.84700000</c><c>      8.00000000</c><c>  PAW_PBE Fe_GW 31Mar2010               </c></rc>
    <rc><c>  15</c><c>Mn</c><c>     54.93800000</c><c>      7.00000000</c><c>  PAW_PBE Mn_GW 31Mar2010               </c></rc>
   </set>
  </array>
 </atominfo>
 <structure name="initialpos" >
  <crystal>
   <varray name="basis" >
    <v>       9.72667800       0.00000000       0.00000000 </v>
    <v>       0.00000000       8.42355000       0.00000000 </v>
    <v>       0.00000000       0.00000000      45.00000000 </v>
   </varray>
   <i name="volume">   3686.99213101 </i>
   <varray name="rec_basis" >
    <v>       0.10281002       0.00000000       0.00000000 </v>
    <v>       0.00000000       0.11871479       0.00000000 </v>
    <v>       0.00000000       0.00000000       0.02222222 </v>
   </varray>
  </crystal>
  <varray name="positions" >
   <v>       0.43723866       0.79272797       0.87329659 </v>
   <v>       0.06329844       0.54231974       0.87328833 </v>
   <v>       0.43769958       0.62592994       0.78638824 </v>
   <v>       0.31242869       0.04195453       0.74224649 </v>
   <v>       0.43713024       0.95904344       0.83122779 </v>
   <v>       0.81276748       0.37265852       0.52137157 </v>
   <v>       0.81255931       0.03655660       0.12670719 </v>
   <v>       0.81259045       0.20828301       0.69822247 </v>
   <v>       0.93756342       0.95675132       0.56526340 </v>
   <v>       0.81245424       0.87594124       0.78643523 </v>
   <v>       0.06231389       0.37255475       0.52135211 </v>
   <v>       0.68714585       0.12108149       0.43479058 </v>
   <v>       0.18791181       0.62244414       0.52129770 </v>
   <v>       0.68741495       0.12272544       0.52122710 </v>
   <v>       0.18769342       0.12121479       0.43480388 </v>
   <v>       0.93767595       0.28750391       0.39020463 </v>
   <v>       0.18756014       0.62377764       0.65372084 </v>
   <v>       0.56230392       0.20842396       0.69816496 </v>
   <v>       0.56240224       0.37084137       0.43465772 </v>
   <v>       0.81276493       0.54085530       0.60981627 </v>
   <v>       0.56213921       0.37578089       0.78632022 </v>
   <v>       0.81254312       0.86906533       0.30178303 </v>
   <v>       0.43781412       0.11952695       0.30187035 </v>
   <v>       0.43727825       0.62110838       0.43467546 </v>
   <v>       0.31261629       0.70959187       0.83116873 </v>
   <v>       0.18737953       0.95651848       0.56527651 </v>
   <v>       0.18754892       0.79025324       0.60983386 </v>
   <v>       0.31249704       0.20836998       0.69828306 </v>
   <v>       0.06291928       0.70663028       0.56478471 </v>
   <v>       0.06199439       0.86826066       0.16873725 </v>
   <v>       0.56191000       0.20644919       0.56517096 </v>
   <v>       0.93763477       0.28584215       0.25769201 </v>
   <v>       0.93758688       0.62212106       0.52125249 </v>
   <v>       0.43744718       0.79225525       0.74223175 </v>
   <v>       0.18781363       0.29252774       0.74224330 </v>
   <v>       0.68729125       0.45657904       0.56512281 </v>
   <v>       0.68765197       0.45183743       0.21365269 </v>
   <v>       0.68751048       0.95353719       0.34620121 </v>
   <v>       0.56259054       0.54242745       0.74216838 </v>
   <v>       0.43771652       0.45862754       0.69822920 </v>
   <v>       0.81254201       0.03716482       0.39017516 </v>
   <v>       0.93732686       0.62419309       0.65382208 </v>
   <v>       0.31243153       0.03740146       0.39015252 </v>
   <v>       0.18758507       0.95917092       0.83111584 </v>
   <v>       0.93706307       0.29097482       0.60989741 </v>
   <v>       0.56202711       0.20532544       0.47852202 </v>
   <v>       0.43749436       0.12236914       0.52123713 </v>
   <v>       0.93758013       0.12630822       0.78638900 </v>
   <v>       0.81282387       0.04172723       0.87335244 </v>
   <v>       0.31237687       0.70330743       0.34620115 </v>
   <v>       0.56239592       0.87595714       0.78652361 </v>
   <v>       0.93747095       0.45336334       0.34622131 </v>
   <v>       0.18735255       0.78688836       0.39017198 </v>
   <v>       0.31260996       0.37619034       0.78645905 </v>
   <v>       0.18779358       0.95535528       0.47857619 </v>
   <v>       0.93744925       0.45863555       0.69821573 </v>
   <v>       0.18809117       0.62125518       0.43470723 </v>
   <v>       0.43712435       0.62228970       0.52144210 </v>
   <v>       0.06280920       0.37444761       0.65386254 </v>
   <v>       0.06247293       0.53599383       0.25780155 </v>
   <v>       0.81237079       0.70885952       0.69821164 </v>
   <v>       0.81263186       0.03559836       0.25776804 </v>
   <v>       0.81208369       0.54179364       0.87351208 </v>
   <v>       0.43754760       0.11885784       0.16889769 </v>
   <v>       0.56275794       0.03545616       0.25770902 </v>
   <v>       0.43752457       0.45206080       0.21360454 </v>
   <v>       0.68726177       0.62642249       0.78642706 </v>
   <v>       0.68713050       0.12447594       0.65366517 </v>
   <v>       0.43740572       0.28551781       0.25777104 </v>
   <v>       0.93747863       0.45123060       0.21376205 </v>
   <v>       0.68753149       0.11957372       0.30174871 </v>
   <v>       0.06260357       0.04231219       0.74228414 </v>
   <v>       0.56273315       0.70858681       0.69828427 </v>
   <v>       0.31254074       0.86944213       0.30180788 </v>
   <v>       0.06248420       0.70204662       0.21359575 </v>
   <v>       0.93743955       0.78581805       0.25768123 </v>
   <v>       0.56203835       0.37478153       0.65371852 </v>
   <v>       0.68749535       0.95847732       0.69816205 </v>
   <v>       0.81264372       0.04194753       0.74231708 </v>
   <v>       0.68793797       0.61897992       0.16878636 </v>
   <v>       0.93741183       0.61917426       0.30176445 </v>
   <v>       0.56260814       0.36889141       0.16893601 </v>
   <v>       0.18727193       0.12633073       0.78642877 </v>
   <v>       0.06244892       0.03666418       0.12668204 </v>
   <v>       0.81293099       0.87271581       0.52133662 </v>
   <v>       0.31233895       0.03567944       0.25769208 </v>
   <v>       0.18762679       0.28730365       0.39010303 </v>
   <v>       0.68768930       0.45840659       0.69822169 </v>
   <v>       0.31286135       0.20551774       0.47858763 </v>
   <v>       0.18747216       0.28578200       0.25772482 </v>
   <v>       0.43737104       0.12467226       0.65374570 </v>
   <v>       0.93791595       0.95897651       0.83128122 </v>
   <v>       0.81237797       0.04023807       0.60976944 </v>
   <v>       0.93738283       0.95184096       0.21352061 </v>
   <v>       0.18784310       0.95227349       0.21371340 </v>
   <v>       0.81245871       0.20171150       0.21364027 </v>
   <v>       0.06221336       0.87327659       0.52121179 </v>
   <v>       0.18776528       0.29239294       0.87333086 </v>
   <v>       0.06262735       0.20808673       0.69825756 </v>
   <v>       0.56225204       0.86898438       0.16899916 </v>
   <v>       0.31236865       0.04085288       0.60979630 </v>
   <v>       0.43749272       0.79090938       0.60988131 </v>
   <v>       0.06246390       0.36924179       0.30177687 </v>
   <v>       0.93748719       0.11836917       0.16871896 </v>
   <v>       0.18764307       0.95800042       0.69826533 </v>
   <v>       0.06262144       0.20562061       0.47857376 </v>
   <v>       0.43754433       0.12601680       0.78638015 </v>
   <v>       0.31263840       0.20657008       0.56509668 </v>
   <v>       0.18774613       0.28555378       0.12669746 </v>
   <v>       0.18763595       0.45299382       0.34608163 </v>
   <v>       0.06237509       0.03576541       0.25776789 </v>
   <v>       0.31223563       0.20890475       0.83127897 </v>
   <v>       0.06267001       0.70938495       0.83114514 </v>
   <v>       0.81231824       0.70512580       0.47861512 </v>
   <v>       0.81248827       0.70183107       0.21360297 </v>
   <v>       0.31255290       0.87419693       0.65361656 </v>
   <v>       0.68769573       0.79083986       0.60977192 </v>
   <v>       0.81315154       0.86837731       0.16881800 </v>
   <v>       0.43744234       0.95349067       0.34619965 </v>
   <v>       0.06256061       0.04209926       0.87339136 </v>
   <v>       0.18766171       0.11866660       0.16896328 </v>
   <v>       0.68727101       0.28546350       0.12670275 </v>
   <v>       0.18785762       0.79217780       0.74220753 </v>
   <v>       0.56232511       0.87247586       0.52125960 </v>
   <v>       0.18737605       0.12440054       0.65372304 </v>
   <v>       0.93735748       0.12104946       0.43480019 </v>
   <v>       0.43750818       0.28523994       0.12674057 </v>
   <v>       0.93764763       0.12427139       0.65371744 </v>
   <v>       0.68724260       0.62142675       0.43504570 </v>
   <v>       0.56254829       0.03700071       0.39017279 </v>
   <v>       0.43733521       0.45533496       0.47861240 </v>
   <v>       0.18745789       0.79206856       0.87336658 </v>
   <v>       0.43758939       0.78555245       0.25768993 </v>
   <v>       0.56214347       0.87448833       0.65379828 </v>
   <v>       0.18734768       0.45503031       0.47858399 </v>
   <v>       0.31247134       0.36881513       0.16894341 </v>
   <v>       0.06249485       0.86922349       0.30181092 </v>
   <v>       0.18745534       0.61936317       0.30173505 </v>
   <v>       0.81245070       0.20383141       0.34623780 </v>
   <v>       0.81248731       0.53567611       0.25773186 </v>
   <v>       0.43783331       0.29058378       0.60976730 </v>
   <v>       0.68764963       0.79169480       0.87337009 </v>
   <v>       0.31238632       0.54053989       0.60985522 </v>
   <v>       0.31239613       0.03576191       0.12674148 </v>
   <v>       0.06256998       0.37133229       0.43480966 </v>
   <v>       0.56246933       0.20359586       0.34620638 </v>
   <v>       0.56242013       0.70351003       0.34618227 </v>
   <v>       0.31209170       0.54259625       0.74234761 </v>
   <v>       0.06240757       0.20335624       0.34624741 </v>
   <v>       0.93740581       0.62580077       0.78640018 </v>
   <v>       0.31255698       0.20322738       0.34621054 </v>
   <v>       0.93776570       0.79284568       0.87324868 </v>
   <v>       0.56302706       0.54189525       0.87347314 </v>
   <v>       0.56218757       0.70497524       0.47864805 </v>
   <v>       0.68748569       0.62452295       0.65374759 </v>
   <v>       0.31159874       0.54192248       0.87327804 </v>
   <v>       0.31246217       0.36935540       0.30183184 </v>
   <v>       0.18741479       0.78592247       0.25779611 </v>
   <v>       0.56264460       0.53546218       0.12670801 </v>
   <v>       0.81259857       0.37098827       0.43468601 </v>
   <v>       0.81257619       0.36846195       0.16892120 </v>
   <v>       0.68756623       0.28554546       0.25781612 </v>
   <v>       0.43764960       0.61938681       0.30175186 </v>
   <v>       0.93724314       0.79019663       0.60984861 </v>
   <v>       0.43752798       0.61888739       0.16890982 </v>
   <v>       0.31251814       0.70212222       0.21366848 </v>
   <v>       0.93717340       0.11907309       0.30190682 </v>
   <v>       0.68679765       0.78516601       0.12670494 </v>
   <v>       0.56244637       0.86930969       0.30178415 </v>
   <v>       0.06264694       0.87411696       0.65366724 </v>
   <v>       0.93741675       0.95387715       0.34611196 </v>
   <v>       0.43774193       0.45667354       0.56522349 </v>
   <v>       0.31250267       0.04217087       0.87337553 </v>
   <v>       0.43764116       0.12097353       0.43476779 </v>
   <v>       0.31257087       0.53591136       0.25780012 </v>
   <v>       0.81263129       0.37610163       0.78634511 </v>
   <v>       0.06263496       0.37622206       0.78651020 </v>
   <v>       0.81275114       0.54176531       0.74229351 </v>
   <v>       0.68741917       0.29015827       0.60983219 </v>
   <v>       0.68711831       0.29219829       0.74223287 </v>
   <v>       0.43738852       0.45348137       0.34628727 </v>
   <v>       0.56220524       0.87126824       0.43472632 </v>
   <v>       0.31248555       0.70684724       0.56523411 </v>
   <v>       0.81234796       0.53755172       0.39011855 </v>
   <v>       0.68714618       0.95211070       0.21371266 </v>
   <v>       0.93764247       0.95837428       0.69825823 </v>
   <v>       0.31248194       0.87262512       0.52130364 </v>
   <v>       0.56225942       0.37241596       0.52134079 </v>
   <v>       0.81179870       0.70880321       0.83115246 </v>
   <v>       0.81291746       0.20974682       0.83133153 </v>
   <v>       0.68735180       0.45345100       0.34624937 </v>
   <v>       0.43750780       0.29226934       0.74226988 </v>
   <v>       0.06239010       0.70841713       0.69818185 </v>
   <v>       0.31268697       0.70849341       0.69820801 </v>
   <v>       0.31220123       0.87124614       0.43479903 </v>
   <v>       0.68765067       0.78545888       0.25775452 </v>
   <v>       0.43740138       0.28732882       0.39016842 </v>
   <v>       0.18742310       0.95338619       0.34622886 </v>
   <v>       0.81292952       0.87128187       0.43466184 </v>
   <v>       0.06253196       0.87135220       0.43478198 </v>
   <v>       0.06257755       0.70325164       0.34622624 </v>
   <v>       0.56256212       0.20195620       0.21362094 </v>
   <v>       0.93769520       0.12244999       0.52123265 </v>
   <v>       0.68740900       0.28775999       0.39008801 </v>
   <v>       0.31264975       0.86898121       0.16891827 </v>
   <v>       0.93742157       0.79194464       0.74230981 </v>
   <v>       0.31231882       0.53537519       0.12670690 </v>
   <v>       0.81253016       0.70663884       0.56531840 </v>
   <v>       0.06253339       0.54224083       0.74228179 </v>
   <v>       0.43712496       0.95552009       0.47858151 </v>
   <v>       0.56251188       0.36972069       0.30182389 </v>
   <v>       0.43750674       0.78558951       0.12671907 </v>
   <v>       0.93719084       0.29230210       0.87336414 </v>
   <v>       0.68734353       0.95618210       0.56484837 </v>
   <v>       0.68756118       0.29267218       0.87354678 </v>
   <v>       0.06257177       0.53715630       0.39011260 </v>
   <v>       0.18768186       0.45947228       0.83118852 </v>
   <v>       0.18825408       0.78526809       0.12669204 </v>
   <v>       0.06253969       0.87583191       0.78641163 </v>
   <v>       0.31268934       0.53678176       0.39005440 </v>
   <v>       0.93746172       0.45672413       0.56522375 </v>
   <v>       0.43734867       0.95856453       0.69810659 </v>
   <v>       0.31245238       0.20205312       0.21360397 </v>
   <v>       0.81265506       0.36957940       0.30183643 </v>
   <v>       0.56308285       0.70881406       0.83125765 </v>
   <v>       0.31259600       0.87610940       0.78639278 </v>
   <v>       0.06227192       0.04069491       0.60982870 </v>
   <v>       0.56173101       0.70659772       0.56520854 </v>
   <v>       0.31232049       0.37448074       0.65378113 </v>
   <v>       0.18741177       0.45214400       0.21356828 </v>
   <v>       0.56257117       0.53545648       0.25775462 </v>
   <v>       0.06260419       0.20869393       0.83116409 </v>
   <v>       0.43716482       0.78718552       0.39007151 </v>
   <v>       0.56267468       0.53750703       0.39008477 </v>
   <v>       0.56225983       0.04181978       0.87332040 </v>
   <v>       0.43765476       0.95175066       0.21354530 </v>
   <v>       0.18702368       0.61891025       0.16883199 </v>
   <v>       0.18753102       0.12266768       0.52127689 </v>
   <v>       0.56250979       0.20973842       0.83119708 </v>
   <v>       0.81250815       0.20527196       0.47864461 </v>
   <v>       0.93753197       0.28586672       0.12669971 </v>
   <v>       0.56254962       0.70194525       0.21366280 </v>
   <v>       0.93806810       0.78717485       0.39008194 </v>
   <v>       0.81255180       0.37436835       0.65376163 </v>
   <v>       0.93746231       0.45876789       0.83119072 </v>
   <v>       0.68727519       0.79239787       0.74227319 </v>
   <v>       0.93790638       0.45495558       0.47851120 </v>
   <v>       0.43759869       0.45862241       0.83118359 </v>
   <v>       0.06358382       0.53578523       0.12672737 </v>
   <v>       0.31238590       0.37117515       0.43477727 </v>
   <v>       0.68757050       0.95925637       0.83121503 </v>
   <v>       0.93756909       0.95517600       0.47851522 </v>
   <v>       0.68730831       0.11887985       0.16896865 </v>
   <v>       0.68758902       0.45486564       0.47869888 </v>
   <v>       0.93751266       0.61944490       0.16874379 </v>
   <v>       0.81250494       0.70350208       0.34616620 </v>
   <v>       0.31277605       0.37255038       0.52130366 </v>
   <v>       0.43737689       0.95631134       0.56509442 </v>
   <v>       0.68765310       0.12611947       0.78643534 </v>
   <v>       0.56239164       0.54082595       0.60986571 </v>
   <v>       0.81148428       0.53575144       0.12672947 </v>
   <v>       0.06259156       0.20180978       0.21363787 </v>
   <v>       0.56264730       0.03567270       0.12675728 </v>
   <v>       0.06241682       0.36847542       0.16891367 </v>
   <v>       0.18761057       0.62589296       0.78645991 </v>
   <v>       0.06265302       0.20669284       0.56507140 </v>
   <v>       0.43753951       0.62423849       0.65376756 </v>
   <v>       0.06242314       0.03785839       0.39012257 </v>
   <v>       0.68750947       0.61954727       0.30176252 </v>
   <v>       0.43763319       0.29236426       0.87336963 </v>
   <v>       0.18732933       0.45831117       0.69820210 </v>
   <v>       0.31292700       0.70552135       0.47859999 </v>
   <v>       0.18721578       0.45648394       0.56511889 </v>
   <v>       0.06254667       0.54103855       0.60993356 </v>
   <v>       0.18790707       0.29067551       0.60987585 </v>
   <v>       0.18748882       0.11917958       0.30180414 </v>
   <v>       0.93744206       0.78585423       0.12690853 </v>
   <v>       0.93683120       0.62101800       0.43443215 </v>
   <v>       0.93720472       0.29230725       0.74236550 </v>
   <v>       0.56253227       0.04204464       0.74237899 </v>
   <v>       0.56312849       0.04023869       0.60997166 </v>
   <v>       0.68742801       0.62264474       0.52126873 </v>
   <v>       0.81227042       0.20681734       0.56517087 </v>
   <v>       0.81214274       0.87433195       0.65364815 </v>
   <v>       0.68772344       0.95486947       0.47867952 </v>
   <v>       0.06245947       0.70512074       0.47873059 </v>
   <v>       0.68746632       0.45931157       0.83185661 </v>
   <v>       0.68778343       0.78734468       0.39004319 </v>
  </varray>
 </structure>
 <calculation>
  <scstep>
   <time name="dav">  147.16  147.15</time>
   <time name="total">  147.61  147.60</time>
   <energy>
    <i name="alphaZ">  16277.55763135 </i>
    <i name="ewald"> 762724.45531961 </i>
    <i name="hartreedc">-952964.62943494 </i>
    <i name="XCdc">  -6524.65976995 </i>
    <i name="pawpsdc"> 162148.49262465 </i>
    <i name="pawaedc">-159453.03229289 </i>
    <i name="eentropy">     -0.96148480 </i>
    <i name="bandstr">  39733.70849171 </i>
    <i name="atom"> 168497.18126305 </i>
    <i name="e_fr_energy">  30438.11234779 </i>
    <i name="e_wo_entrp">  30439.07383260 </i>
    <i name="e_0_energy">  30438.59309019 </i>
   </energy>
  </scstep>
  <scstep>
   <time name="dav">  143.82  143.82</time>
   <time name="total">  143.82  143.82</time>
   <energy>
    <i name="e_fr_energy">   1533.44479690 </i>
    <i name="e_wo_entrp">   1534.82876906 </i>
    <i name="e_0_energy">   1534.13678298 </i>
   </energy>
  </scstep>
  <scstep>
   <time name="dav">  176.83  176.82</time>
   <time name="total">  176.83  176.83</time>
   <energy>
    <i name="e_fr_energy">  -1896.72247697 </i>
    <i name="e_wo_entrp">  -1893.19637299 </i>
    <i name="e_0_energy">  -1894.95942498 </i>
   </energy>
  </scstep>
  <scstep>
   <time name="dav">  216.97  216.96</time>
   <time name="total">  216.97  216.96</time>
   <energy>
    <i name="e_fr_energy">  -2609.86527788 </i>
    <i name="e_wo_entrp">  -2606.42314023 </i>
    <i name="e_0_energy">  -2608.14420906 </i>
   </energy>
  </scstep>
  <scstep>
   <time name="dav">  208.83  208.82</time>
   <time name="total">  213.49  213.48</time>
   <energy>
    <i name="e_fr_energy">  -2739.76788610 </i>
    <i name="e_wo_entrp">  -2736.25201044 </i>
    <i name="e_0_energy">  -2738.00994827 </i>
   </energy>
  </scstep>
  <scstep>
   <time name="diag">   30.57   30.57</time>
   <time name="diis">   75.33   75.33</time>
   <time name="orth">    9.39    9.39</time>
   <time name="total">  120.26  120.26</time>
   <energy>
    <i name="e_fr_energy">  -7732.94251386 </i>
    <i name="e_wo_entrp">  -7729.78149771 </i>
    <i name="e_0_energy">  -7731.36200579 </i>
   </energy>
  </scstep>
  <scstep>
   <time name="diag">   31.29   31.29</time>
   <time name="diis">   76.89   76.89</time>
   <time name="orth">    9.32    9.32</time>
   <time name="total">  122.30  122.29</time>
   <energy>
    <i name="e_fr_energy">  -9651.53537760 </i>
    <i name="e_wo_entrp">  -9648.35180129 </i>
    <i name="e_0_energy">  -9649.94358945 </i>
   </energy>
  </scstep>
  <scstep>
[...]
    <v>       0.68750458       0.61961209       0.30178148 </v>
    <v>       0.43752260       0.29234292       0.87337751 </v>
    <v>       0.18730041       0.45826518       0.69820705 </v>
    <v>       0.31294631       0.70548082       0.47858360 </v>
    <v>       0.18722127       0.45639851       0.56511804 </v>
    <v>       0.06258145       0.54101526       0.60992267 </v>
    <v>       0.18788146       0.29068047       0.60986691 </v>
    <v>       0.18748989       0.11934126       0.30181388 </v>
    <v>       0.93747193       0.78564166       0.12690254 </v>
    <v>       0.93685163       0.62111008       0.43443069 </v>
    <v>       0.93722452       0.29218289       0.74239863 </v>
    <v>       0.56249206       0.04203294       0.74238455 </v>
    <v>       0.56317866       0.04015206       0.60997638 </v>
    <v>       0.68744908       0.62260632       0.52125161 </v>
    <v>       0.81225802       0.20676298       0.56517333 </v>
    <v>       0.81216376       0.87438296       0.65364177 </v>
    <v>       0.68772146       0.95493758       0.47867472 </v>
    <v>       0.06247005       0.70516367       0.47872024 </v>
    <v>       0.68748966       0.45913010       0.83187558 </v>
    <v>       0.68775359       0.78738586       0.39003566 </v>
   </varray>
  </structure>
  <varray name="forces" >
   <v>      -0.00275230      -0.00057103      -0.00148300 </v>
   <v>       0.00397367       0.00140473       0.00933558 </v>
   <v>      -0.00074370      -0.00606759       0.00377735 </v>
   <v>       0.00216471      -0.00357212      -0.00074074 </v>
   <v>      -0.00044478      -0.00314939       0.00573188 </v>
   <v>      -0.00408857      -0.00495375      -0.00213562 </v>
   <v>      -0.00212020      -0.00237868      -0.00368924 </v>
   <v>      -0.00138361      -0.00227036      -0.00069953 </v>
   <v>      -0.00001091      -0.00340813      -0.00141613 </v>
   <v>      -0.00206440      -0.00939174       0.00053965 </v>
   <v>       0.00213663       0.00184944      -0.00208081 </v>
   <v>       0.00069020       0.00247053       0.00171524 </v>
   <v>      -0.00202140      -0.00552979      -0.00083174 </v>
   <v>       0.00208666       0.00390394      -0.00203243 </v>
   <v>      -0.00154635       0.00045219       0.00197563 </v>
   <v>       0.00072953       0.00026461       0.00195319 </v>
   <v>       0.00051858      -0.00103648      -0.00177711 </v>
   <v>      -0.00104076      -0.00140695       0.00154017 </v>
   <v>       0.00087122       0.00357610       0.00266258 </v>
   <v>      -0.00000148      -0.00224258      -0.00263753 </v>
   <v>      -0.00222121      -0.00558900       0.00188626 </v>
   <v>      -0.00068332       0.00540633      -0.00108450 </v>
   <v>      -0.00050926       0.00051315       0.00159556 </v>
   <v>       0.00120907       0.00266847       0.00195784 </v>
   <v>       0.00283616      -0.00255083       0.00755867 </v>
   <v>       0.00028125      -0.00249559      -0.00079052 </v>
   <v>       0.00159555      -0.00095772      -0.00303395 </v>
   <v>       0.00032437      -0.00170208       0.00183447 </v>
   <v>      -0.00071506      -0.00202017      -0.00314992 </v>
   <v>       0.00061384       0.00106688      -0.00087554 </v>
   <v>      -0.00047659      -0.00227876      -0.00188609 </v>
   <v>       0.00028231       0.00032689      -0.00253990 </v>
   <v>       0.00424041      -0.00452469       0.00010613 </v>
   <v>       0.00067229      -0.00292020      -0.00178469 </v>
   <v>       0.00279896      -0.00083662       0.00174551 </v>
   <v>       0.00005684       0.00004630      -0.00293161 </v>
   <v>       0.00293239       0.00706302      -0.00784939 </v>
   <v>       0.00104615       0.00104473      -0.00235724 </v>
   <v>      -0.00062501      -0.00103455      -0.00021049 </v>
   <v>      -0.00085675      -0.00192016       0.00207497 </v>
   <v>       0.00132456       0.00084010       0.00184556 </v>
   <v>      -0.00008148      -0.00129237      -0.00033042 </v>
   <v>      -0.00149624      -0.00013098       0.00466323 </v>
   <v>       0.00144411      -0.00055982       0.00584992 </v>
   <v>      -0.00036472      -0.00247091      -0.00306987 </v>
   <v>      -0.00005663       0.00082288       0.00321450 </v>
   <v>      -0.00021358       0.00184050      -0.00005894 </v>
   <v>       0.00171066      -0.00892745       0.00201822 </v>
   <v>      -0.00261885      -0.00042184       0.00361129 </v>
   <v>      -0.00055622       0.00151464       0.00138321 </v>
   <v>      -0.00130981      -0.01044396       0.00111830 </v>
   <v>       0.00013609       0.00178313       0.00173025 </v>
   <v>      -0.00055284       0.00159620       0.00413041 </v>
   <v>       0.00094448      -0.00596904       0.00335644 </v>
   <v>      -0.00152479       0.00003995      -0.00165611 </v>
   <v>       0.00052209      -0.00062807       0.00025766 </v>
   <v>       0.00083297       0.00208231       0.00072551 </v>
   <v>       0.00026349      -0.00277541       0.00264233 </v>
   <v>      -0.00043912       0.00145232       0.00010120 </v>
   <v>       0.00085961       0.00240657      -0.00186824 </v>
   <v>      -0.00147581      -0.00234568       0.00067226 </v>
   <v>       0.00162550       0.00254585       0.00237532 </v>
   <v>      -0.00051775       0.00078341       0.00462195 </v>
   <v>       0.00051977       0.00129147      -0.00210879 </v>
   <v>       0.00034392       0.00131934       0.00265089 </v>
   <v>       0.00045207       0.00620556      -0.00603173 </v>
   <v>      -0.00180852      -0.00707161       0.00443956 </v>
   <v>       0.00035630      -0.00055784       0.00097606 </v>
   <v>      -0.00122356       0.00102827       0.00264467 </v>
   <v>      -0.00068674       0.00550754      -0.00391759 </v>
   <v>      -0.00050844       0.00054913      -0.00209191 </v>
   <v>       0.00021193      -0.00491552       0.00027744 </v>
   <v>      -0.00066252      -0.00130116       0.00251335 </v>
   <v>      -0.00027452       0.00425680       0.00148504 </v>
   <v>      -0.00075019       0.00530968      -0.00483496 </v>
   <v>       0.00051606       0.00688216      -0.00154918 </v>
   <v>       0.00022862      -0.00086921      -0.00091482 </v>
   <v>       0.00024631      -0.00350454       0.00175062 </v>
   <v>      -0.00313889      -0.00473231      -0.00045860 </v>
   <v>       0.00066066       0.00082932      -0.00574070 </v>
   <v>       0.00102782       0.00632376      -0.00157840 </v>
   <v>       0.00149844       0.00197456      -0.00472804 </v>
   <v>       0.00151384      -0.00594497       0.00001707 </v>
   <v>       0.00081121      -0.00150946      -0.00340627 </v>
   <v>       0.00046743      -0.00194077      -0.00182086 </v>
   <v>      -0.00216770       0.00276299       0.00277156 </v>
   <v>      -0.00080462      -0.00016668       0.00435801 </v>
   <v>      -0.00017069      -0.00130465       0.00107202 </v>
   <v>       0.00280660       0.00189387       0.00313332 </v>
   <v>      -0.00089786       0.00065619       0.00008389 </v>
   <v>       0.00031519      -0.00011704       0.00004624 </v>
   <v>       0.00099199      -0.00234323       0.00682031 </v>
   <v>       0.00006949      -0.00192448      -0.00240216 </v>
   <v>      -0.00013406       0.00694279      -0.00497426 </v>
   <v>      -0.00117728       0.00527226      -0.00422517 </v>
   <v>       0.00293347       0.00593185      -0.00651855 </v>
   <v>      -0.00266154       0.00401404      -0.00048095 </v>
   <v>       0.00162895       0.00474484       0.00364449 </v>
   <v>       0.00116373      -0.00108697      -0.00110581 </v>
   <v>       0.00029918       0.00077218      -0.00429404 </v>
   <v>       0.00107536      -0.00272907      -0.00480677 </v>
   <v>       0.00014796      -0.00139612      -0.00329295 </v>
   <v>       0.00173720       0.00119332      -0.00162308 </v>
   <v>      -0.00043257       0.00069125      -0.00081574 </v>
   <v>       0.00069695      -0.00193249       0.00203158 </v>
   <v>       0.00063793      -0.00264926       0.00273673 </v>
   <v>      -0.00139165      -0.00533879       0.00127918 </v>
   <v>       0.00104401      -0.00220718      -0.00307137 </v>
   <v>       0.00303436      -0.00165476      -0.00639088 </v>
   <v>       0.00024266       0.00019121       0.00198980 </v>
   <v>      -0.00068567       0.00219864       0.00124741 </v>
   <v>      -0.00201565      -0.00117384       0.00320257 </v>
   <v>       0.00062743      -0.00343441       0.00792436 </v>
   <v>      -0.00406537       0.00477892      -0.00063560 </v>
   <v>      -0.00015378       0.00580269      -0.00574244 </v>
   <v>       0.00043075      -0.00062905      -0.00099416 </v>
   <v>       0.00018903      -0.00265052      -0.00403867 </v>
   <v>      -0.00121185      -0.00014550      -0.00135440 </v>
   <v>       0.00006546       0.00041114      -0.00120927 </v>
   <v>       0.00191113      -0.00080090       0.00163524 </v>
   <v>      -0.00152562       0.00156132      -0.00164622 </v>
   <v>      -0.00193703      -0.00172352      -0.00345834 </v>
   <v>       0.00059890      -0.00532263      -0.00196366 </v>
   <v>      -0.00152151      -0.00379419      -0.00020299 </v>
   <v>       0.00025644       0.00143688       0.00095828 </v>
   <v>       0.00114334       0.00150776       0.00093625 </v>
   <v>       0.00017078       0.00099725      -0.00969725 </v>
   <v>      -0.00129996       0.00151316      -0.00163796 </v>
   <v>      -0.00067259       0.00456086       0.00150264 </v>
   <v>       0.00097246      -0.00009397       0.00227460 </v>
   <v>      -0.00039706       0.00003499       0.00328210 </v>
   <v>       0.00117183      -0.00201041       0.00475898 </v>
   <v>      -0.00125625       0.00336142       0.00058635 </v>
   <v>      -0.00011139      -0.00170039       0.00084476 </v>
   <v>      -0.00168204       0.00178234       0.00579767 </v>
   <v>       0.00026687       0.00212915      -0.00649313 </v>
   <v>       0.00172179       0.00504778      -0.00078157 </v>
   <v>       0.00101024       0.00494388       0.00042580 </v>
   <v>      -0.00024306       0.00007099      -0.00019097 </v>
   <v>      -0.00045310       0.00421258      -0.00369270 </v>
   <v>       0.00035404      -0.00144976      -0.00302778 </v>
   <v>      -0.00264086       0.00284922       0.00146424 </v>
   <v>       0.00113460      -0.00014738      -0.00260383 </v>
   <v>       0.00098254       0.00216417      -0.00660624 </v>
   <v>      -0.00059916       0.00249659       0.00157483 </v>
   <v>       0.00149141      -0.00179342      -0.00073008 </v>
   <v>       0.00092518       0.00248205       0.00110915 </v>
   <v>      -0.00084027      -0.00242054       0.00070005 </v>
   <v>       0.00040009      -0.00200514       0.00066875 </v>
   <v>       0.00107521      -0.00776294       0.00216745 </v>
   <v>      -0.00026787      -0.00217066       0.00006510 </v>
   <v>       0.00424184      -0.00249001       0.00392772 </v>
   <v>      -0.00094071       0.00186837       0.00146584 </v>
   <v>       0.00262872       0.00297324       0.00086525 </v>
   <v>      -0.00025184       0.00016872      -0.00148405 </v>
   <v>      -0.00200525       0.00234492       0.00652503 </v>
   <v>      -0.00059881       0.00152165      -0.00138589 </v>
   <v>      -0.00049978       0.00481271       0.00009913 </v>
   <v>      -0.00068349      -0.00144274      -0.00351873 </v>
   <v>       0.00010980       0.00198457       0.00244760 </v>
   <v>       0.00056514       0.00075302      -0.00355550 </v>
   <v>       0.00029765       0.00042867      -0.00098470 </v>
   <v>      -0.00102660       0.00491071      -0.00092454 </v>
   <v>      -0.00172888      -0.00125662      -0.00348799 </v>
   <v>       0.00120806       0.00204558      -0.00743752 </v>
   <v>      -0.00087378       0.00618680      -0.00609950 </v>
   <v>       0.00077880       0.00043252      -0.00140227 </v>
   <v>       0.00015002      -0.00087290      -0.00189934 </v>
   <v>      -0.00067507       0.00453392      -0.00021839 </v>
   <v>      -0.00071995      -0.00048872      -0.00016417 </v>
   <v>       0.00021841       0.00159850      -0.00082452 </v>
   <v>      -0.00067029      -0.00161772      -0.00317798 </v>
   <v>      -0.00041986      -0.00111418      -0.00223258 </v>
   <v>      -0.00017306       0.00179994       0.00358837 </v>
   <v>      -0.00038964       0.00256850       0.00063795 </v>
   <v>      -0.00130974      -0.00387870       0.00309726 </v>
   <v>       0.00388976      -0.00487714       0.00503968 </v>
   <v>       0.00120886      -0.00047235       0.00062801 </v>
   <v>       0.00030646      -0.00194406      -0.00144239 </v>
   <v>      -0.00326779      -0.00238561       0.00020366 </v>
   <v>       0.00057030       0.00042062       0.00064990 </v>
   <v>       0.00067237      -0.00000109       0.00396106 </v>
   <v>       0.00234390      -0.00147948      -0.00097602 </v>
   <v>      -0.00024859       0.00235525       0.00155253 </v>
   <v>       0.00135154       0.00566501      -0.00627168 </v>
   <v>      -0.00060405      -0.00136426      -0.00053821 </v>
   <v>       0.00299138      -0.00230580      -0.00005404 </v>
   <v>      -0.00009827      -0.00111720      -0.00098054 </v>
   <v>      -0.00156389      -0.00379813       0.00570332 </v>
   <v>       0.00051085       0.00110228       0.00390877 </v>
   <v>       0.00013804       0.00067756       0.00133651 </v>
   <v>       0.00014570      -0.00177999       0.00076684 </v>
   <v>      -0.00014687      -0.00204553       0.00138165 </v>
   <v>       0.00110576      -0.00101589       0.00234251 </v>
   <v>      -0.00103880       0.00200004       0.00378671 </v>
   <v>       0.00076564       0.00520753      -0.00028773 </v>
   <v>      -0.00008549       0.00110290       0.00357016 </v>
   <v>      -0.00060585       0.00050412      -0.00115806 </v>
   <v>      -0.00037541       0.00143706       0.00183030 </v>
   <v>      -0.00045495       0.00391750       0.00195491 </v>
   <v>       0.00055079       0.00373155       0.00172878 </v>
   <v>       0.00109825       0.00465168      -0.00707056 </v>
   <v>       0.00114516      -0.00108697      -0.00019478 </v>
   <v>       0.00100675       0.00053184       0.00133015 </v>
   <v>       0.00106645       0.00133274      -0.00330495 </v>
   <v>      -0.00019442      -0.00487015       0.00010833 </v>
   <v>       0.00116099      -0.00064431      -0.00765984 </v>
   <v>      -0.00139021      -0.00194251      -0.00059032 </v>
   <v>       0.00046912      -0.00095926       0.00097128 </v>
   <v>       0.00041930       0.00067698       0.00122401 </v>
   <v>      -0.00094472       0.00138076      -0.00108124 </v>
   <v>       0.00041584       0.00264954      -0.00378954 </v>
   <v>      -0.00007263       0.00170794       0.00372181 </v>
   <v>       0.00020091      -0.00344417      -0.00063823 </v>
   <v>      -0.00228251       0.00268718       0.00691683 </v>
   <v>      -0.00001416       0.00153386       0.00281559 </v>
   <v>       0.00104083      -0.00316857       0.00592741 </v>
   <v>       0.00063322      -0.00070836      -0.00412947 </v>
   <v>       0.00112801      -0.00990567       0.00216534 </v>
   <v>       0.00009051       0.00079612       0.00426831 </v>
   <v>       0.00090255      -0.00192101      -0.00290555 </v>
   <v>      -0.00172811      -0.00362349       0.00165461 </v>
   <v>      -0.00206073       0.00510697      -0.00566567 </v>
   <v>      -0.00083274       0.00179095      -0.00192158 </v>
   <v>      -0.00115850      -0.00273309       0.00351327 </v>
   <v>       0.00159777      -0.00823439       0.00168963 </v>
   <v>      -0.00003324      -0.00268378      -0.00405504 </v>
   <v>       0.00022486      -0.00131939      -0.00222653 </v>
   <v>       0.00061592       0.00067048      -0.00033615 </v>
   <v>      -0.00285690       0.00592861      -0.00471410 </v>
   <v>      -0.00080251       0.00316790      -0.00079700 </v>
   <v>       0.00299744      -0.00031024       0.00377184 </v>
   <v>       0.00062876       0.00035615       0.00599505 </v>
   <v>       0.00077541       0.00163305       0.00303086 </v>
   <v>       0.00018517       0.00135954       0.00076200 </v>
   <v>      -0.00000996       0.00514513      -0.00555806 </v>
   <v>      -0.00067251       0.00143511      -0.00519484 </v>
   <v>      -0.00269810       0.00341329      -0.00030195 </v>
   <v>      -0.00237222       0.00064949       0.00544636 </v>
   <v>      -0.00361396       0.00166812       0.00401071 </v>
   <v>      -0.00065856      -0.00435746      -0.00127875 </v>
   <v>       0.00142876       0.00559621      -0.00658749 </v>
   <v>      -0.00069977       0.00254801       0.00277385 </v>
   <v>      -0.00001987       0.00008254      -0.00166445 </v>
   <v>      -0.00046403       0.00033295       0.00522488 </v>
   <v>      -0.00003687      -0.00446871       0.00057622 </v>
   <v>       0.00097210       0.00375457       0.00230625 </v>
   <v>       0.00018301       0.00102504       0.00471549 </v>
   <v>       0.00089741      -0.00058466      -0.00269180 </v>
   <v>      -0.00091030       0.00248340       0.00250997 </v>
   <v>      -0.00245831      -0.00410005       0.00596348 </v>
   <v>       0.00090783      -0.00006913       0.00226065 </v>
   <v>       0.00207954       0.00324218      -0.00125500 </v>
   <v>       0.00083598      -0.00019532       0.00331992 </v>
   <v>      -0.00120474       0.00079563      -0.00231367 </v>
   <v>      -0.00024140       0.00437822       0.00169724 </v>
   <v>       0.00130678      -0.00240575      -0.00114915 </v>
   <v>      -0.00024045      -0.00306867      -0.00154800 </v>
   <v>      -0.00192647      -0.00712740      -0.00066587 </v>
   <v>      -0.00002858      -0.00196192      -0.00276257 </v>
   <v>      -0.00084333      -0.00084247      -0.00043842 </v>
   <v>      -0.00177530       0.00589434      -0.00447416 </v>
   <v>       0.00041782       0.00277051      -0.00635340 </v>
   <v>      -0.00249526      -0.00018393      -0.00449261 </v>
   <v>       0.00180296      -0.01007761       0.00727160 </v>
   <v>       0.00058897      -0.00245860      -0.00315422 </v>
   <v>      -0.00111360       0.00006369      -0.00172316 </v>
   <v>      -0.00006478       0.00089367       0.00314378 </v>
   <v>      -0.00094482       0.00484671      -0.00050101 </v>
   <v>       0.00053908       0.00210449       0.00151074 </v>
   <v>       0.00037729      -0.00112005       0.00152934 </v>
   <v>       0.00001220       0.00362906       0.00093289 </v>
   <v>      -0.00065191      -0.00056343      -0.00500537 </v>
   <v>      -0.00142588      -0.00070758      -0.00215407 </v>
   <v>       0.00092195      -0.00203954      -0.00298949 </v>
   <v>       0.00049132       0.00054385      -0.00105357 </v>
   <v>      -0.00077855      -0.00085439      -0.00039492 </v>
   <v>      -0.00187073       0.00317917       0.00181918 </v>
   <v>       0.00221283      -0.00205547       0.00085620 </v>
   <v>      -0.00021881      -0.00367331       0.00121268 </v>
   <v>      -0.00115864      -0.00232546      -0.00210591 </v>
   <v>      -0.00126181       0.00064907      -0.00024061 </v>
   <v>       0.00004403      -0.00211426      -0.00231575 </v>
   <v>      -0.00053594       0.00001403       0.00103535 </v>
   <v>       0.00096574      -0.00213582       0.00115126 </v>
   <v>      -0.00043122      -0.00121190       0.00230235 </v>
   <v>      -0.00150152       0.00241297       0.00496992 </v>
   <v>       0.00129934       0.00198736       0.00328459 </v>
  </varray>
  <varray name="stress" >
   <v>      -1.14350853      -0.00558416       0.00589898 </v>
   <v>      -0.00558416      -0.25022272      -1.90594665 </v>
   <v>       0.00589923      -1.90594623      -4.14608888 </v>
  </varray>
  <energy>
   <i name="e_fr_energy">  -2325.99461083 </i>
   <i name="e_wo_entrp">  -2323.24307652 </i>
   <i name="e_0_energy">     -5.50306861 </i>
  </energy>
  <time name="totalsc"> 1448.83 1448.78</time>
 </calculation>
