unknown system                          
            1
     9.726678    0.000000    0.000000
     0.000000    8.423550    0.000000
     0.000000    0.000000   45.000000
   Fe   Mn
 273  15
Direct configuration=     1
   0.43723866  0.79272797  0.87329659
   0.06329844  0.54231974  0.87328833
   0.43769958  0.62592994  0.78638824
   0.31242869  0.04195453  0.74224649
   0.43713024  0.95904344  0.83122779
   0.81276748  0.37265852  0.52137157
   0.81255931  0.03655660  0.12670719
   0.81259045  0.20828301  0.69822247
   0.93756342  0.95675132  0.56526340
   0.81245424  0.87594124  0.78643523
   0.06231389  0.37255475  0.52135211
   0.68714585  0.12108149  0.43479058
   0.18791181  0.62244414  0.52129770
   0.68741495  0.12272544  0.52122710
   0.18769342  0.12121479  0.43480388
   0.93767595  0.28750391  0.39020463
   0.18756014  0.62377764  0.65372084
   0.56230392  0.20842396  0.69816496
   0.56240224  0.37084137  0.43465772
   0.81276493  0.54085530  0.60981627
   0.56213921  0.37578089  0.78632022
   0.81254312  0.86906533  0.30178303
   0.43781412  0.11952695  0.30187035
   0.43727825  0.62110838  0.43467546
   0.31261629  0.70959187  0.83116873
   0.18737953  0.95651848  0.56527651
   0.18754892  0.79025324  0.60983386
   0.31249704  0.20836998  0.69828306
   0.06291928  0.70663028  0.56478471
   0.06199439  0.86826066  0.16873725
   0.56191000  0.20644919  0.56517096
   0.93763477  0.28584215  0.25769201
   0.93758688  0.62212106  0.52125249
   0.43744718  0.79225525  0.74223175
   0.18781363  0.29252774  0.74224330
   0.68729125  0.45657904  0.56512281
   0.68765197  0.45183743  0.21365269
   0.68751048  0.95353719  0.34620121
   0.56259054  0.54242745  0.74216838
   0.43771652  0.45862754  0.69822920
   0.81254201  0.03716482  0.39017516
   0.93732686  0.62419309  0.65382208
   0.31243153  0.03740146  0.39015252
   0.18758507  0.95917092  0.83111584
   0.93706307  0.29097482  0.60989741
   0.56202711  0.20532544  0.47852202
   0.43749436  0.12236914  0.52123713
   0.93758013  0.12630822  0.78638900
   0.81282387  0.04172723  0.87335244
   0.31237687  0.70330743  0.34620115
   0.56239592  0.87595714  0.78652361
   0.93747095  0.45336334  0.34622131
   0.18735255  0.78688836  0.39017198
   0.31260996  0.37619034  0.78645905
   0.18779358  0.95535528  0.47857619
   0.93744925  0.45863555  0.69821573
   0.18809117  0.62125518  0.43470723
   0.43712435  0.62228970  0.52144210
   0.06280920  0.37444761  0.65386254
   0.06247293  0.53599383  0.25780155
   0.81237079  0.70885952  0.69821164
   0.81263186  0.03559836  0.25776804
   0.81208369  0.54179364  0.87351208
   0.43754760  0.11885784  0.16889769
   0.56275794  0.03545616  0.25770902
   0.43752457  0.45206080  0.21360454
   0.68726177  0.62642249  0.78642706
   0.68713050  0.12447594  0.65366517
   0.43740572  0.28551781  0.25777104
   0.93747863  0.45123060  0.21376205
   0.68753149  0.11957372  0.30174871
   0.06260357  0.04231219  0.74228414
   0.56273315  0.70858681  0.69828427
   0.31254074  0.86944213  0.30180788
   0.06248420  0.70204662  0.21359575
   0.93743955  0.78581805  0.25768123
   0.56203835  0.37478153  0.65371852
   0.68749535  0.95847732  0.69816205
   0.81264372  0.04194753  0.74231708
   0.68793797  0.61897992  0.16878636
   0.93741183  0.61917426  0.30176445
   0.56260814  0.36889141  0.16893601
   0.18727193  0.12633073  0.78642877
   0.06244892  0.03666418  0.12668204
   0.81293099  0.87271581  0.52133662
   0.31233895  0.03567944  0.25769208
   0.18762679  0.28730365  0.39010303
   0.68768930  0.45840659  0.69822169
   0.31286135  0.20551774  0.47858763
   0.18747216  0.28578200  0.25772482
   0.43737104  0.12467226  0.65374570
   0.93791595  0.95897651  0.83128122
   0.81237797  0.04023807  0.60976944
   0.93738283  0.95184096  0.21352061
   0.18784310  0.95227349  0.21371340
   0.81245871  0.20171150  0.21364027
   0.06221336  0.87327659  0.52121179
   0.18776528  0.29239294  0.87333086
   0.06262735  0.20808673  0.69825756
   0.56225204  0.86898438  0.16899916
   0.31236865  0.04085288  0.60979630
   0.43749272  0.79090938  0.60988131
   0.06246390  0.36924179  0.30177687
   0.93748719  0.11836917  0.16871896
   0.18764307  0.95800042  0.69826533
   0.06262144  0.20562061  0.47857376
   0.43754433  0.12601680  0.78638015
   0.31263840  0.20657008  0.56509668
   0.18774613  0.28555378  0.12669746
   0.18763595  0.45299382  0.34608163
   0.06237509  0.03576541  0.25776789
   0.31223563  0.20890475  0.83127897
   0.06267001  0.70938495  0.83114514
   0.81231824  0.70512580  0.47861512
   0.81248827  0.70183107  0.21360297
   0.31255290  0.87419693  0.65361656
   0.68769573  0.79083986  0.60977192
   0.81315154  0.86837731  0.16881800
   0.43744234  0.95349067  0.34619965
   0.06256061  0.04209926  0.87339136
   0.18766171  0.11866660  0.16896328
   0.68727101  0.28546350  0.12670275
   0.18785762  0.79217780  0.74220753
   0.56232511  0.87247586  0.52125960
   0.18737605  0.12440054  0.65372304
   0.93735748  0.12104946  0.43480019
   0.43750818  0.28523994  0.12674057
   0.93764763  0.12427139  0.65371744
   0.68724260  0.62142675  0.43504570
   0.56254829  0.03700071  0.39017279
   0.43733521  0.45533496  0.47861240
   0.18745789  0.79206856  0.87336658
   0.43758939  0.78555245  0.25768993
   0.56214347  0.87448833  0.65379828
   0.18734768  0.45503031  0.47858399
   0.31247134  0.36881513  0.16894341
   0.06249485  0.86922349  0.30181092
   0.18745534  0.61936317  0.30173505
   0.81245070  0.20383141  0.34623780
   0.81248731  0.53567611  0.25773186
   0.43783331  0.29058378  0.60976730
   0.68764963  0.79169480  0.87337009
   0.31238632  0.54053989  0.60985522
   0.31239613  0.03576191  0.12674148
   0.06256998  0.37133229  0.43480966
   0.56246933  0.20359586  0.34620638
   0.56242013  0.70351003  0.34618227
   0.31209170  0.54259625  0.74234761
   0.06240757  0.20335624  0.34624741
   0.93740581  0.62580077  0.78640018
   0.31255698  0.20322738  0.34621054
   0.93776570  0.79284568  0.87324868
   0.56302706  0.54189525  0.87347314
   0.56218757  0.70497524  0.47864805
   0.68748569  0.62452295  0.65374759
   0.31159874  0.54192248  0.87327804
   0.31246217  0.36935540  0.30183184
   0.18741479  0.78592247  0.25779611
   0.56264460  0.53546218  0.12670801
   0.81259857  0.37098827  0.43468601
   0.81257619  0.36846195  0.16892120
   0.68756623  0.28554546  0.25781612
   0.43764960  0.61938681  0.30175186
   0.93724314  0.79019663  0.60984861
   0.43752798  0.61888739  0.16890982
   0.31251814  0.70212222  0.21366848
   0.93717340  0.11907309  0.30190682
   0.68679765  0.78516601  0.12670494
   0.56244637  0.86930969  0.30178415
   0.06264694  0.87411696  0.65366724
   0.93741675  0.95387715  0.34611196
   0.43774193  0.45667354  0.56522349
   0.31250267  0.04217087  0.87337553
   0.43764116  0.12097353  0.43476779
   0.31257087  0.53591136  0.25780012
   0.81263129  0.37610163  0.78634511
   0.06263496  0.37622206  0.78651020
   0.81275114  0.54176531  0.74229351
   0.68741917  0.29015827  0.60983219
   0.68711831  0.29219829  0.74223287
   0.43738852  0.45348137  0.34628727
   0.56220524  0.87126824  0.43472632
   0.31248555  0.70684724  0.56523411
   0.81234796  0.53755172  0.39011855
   0.68714618  0.95211070  0.21371266
   0.93764247  0.95837428  0.69825823
   0.31248194  0.87262512  0.52130364
   0.56225942  0.37241596  0.52134079
   0.81179870  0.70880321  0.83115246
   0.81291746  0.20974682  0.83133153
   0.68735180  0.45345100  0.34624937
   0.43750780  0.29226934  0.74226988
   0.06239010  0.70841713  0.69818185
   0.31268697  0.70849341  0.69820801
   0.31220123  0.87124614  0.43479903
   0.68765067  0.78545888  0.25775452
   0.43740138  0.28732882  0.39016842
   0.18742310  0.95338619  0.34622886
   0.81292952  0.87128187  0.43466184
   0.06253196  0.87135220  0.43478198
   0.06257755  0.70325164  0.34622624
   0.56256212  0.20195620  0.21362094
   0.93769520  0.12244999  0.52123265
   0.68740900  0.28775999  0.39008801
   0.31264975  0.86898121  0.16891827
   0.93742157  0.79194464  0.74230981
   0.31231882  0.53537519  0.12670690
   0.81253016  0.70663884  0.56531840
   0.06253339  0.54224083  0.74228179
   0.43712496  0.95552009  0.47858151
   0.56251188  0.36972069  0.30182389
   0.43750674  0.78558951  0.12671907
   0.93719084  0.29230210  0.87336414
   0.68734353  0.95618210  0.56484837
   0.68756118  0.29267218  0.87354678
   0.06257177  0.53715630  0.39011260
   0.18768186  0.45947228  0.83118852
   0.18825408  0.78526809  0.12669204
   0.06253969  0.87583191  0.78641163
   0.31268934  0.53678176  0.39005440
   0.93746172  0.45672413  0.56522375
   0.43734867  0.95856453  0.69810659
   0.31245238  0.20205312  0.21360397
   0.81265506  0.36957940  0.30183643
   0.56308285  0.70881406  0.83125765
   0.31259600  0.87610940  0.78639278
   0.06227192  0.04069491  0.60982870
   0.56173101  0.70659772  0.56520854
   0.31232049  0.37448074  0.65378113
   0.18741177  0.45214400  0.21356828
   0.56257117  0.53545648  0.25775462
   0.06260419  0.20869393  0.83116409
   0.43716482  0.78718552  0.39007151
   0.56267468  0.53750703  0.39008477
   0.56225983  0.04181978  0.87332040
   0.43765476  0.95175066  0.21354530
   0.18702368  0.61891025  0.16883199
   0.18753102  0.12266768  0.52127689
   0.56250979  0.20973842  0.83119708
   0.81250815  0.20527196  0.47864461
   0.93753197  0.28586672  0.12669971
   0.56254962  0.70194525  0.21366280
   0.93806810  0.78717485  0.39008194
   0.81255180  0.37436835  0.65376163
   0.93746231  0.45876789  0.83119072
   0.68727519  0.79239787  0.74227319
   0.93790638  0.45495558  0.47851120
   0.43759869  0.45862241  0.83118359
   0.06358382  0.53578523  0.12672737
   0.31238590  0.37117515  0.43477727
   0.68757050  0.95925637  0.83121503
   0.93756909  0.95517600  0.47851522
   0.68730831  0.11887985  0.16896865
   0.68758902  0.45486564  0.47869888
   0.93751266  0.61944490  0.16874379
   0.81250494  0.70350208  0.34616620
   0.31277605  0.37255038  0.52130366
   0.43737689  0.95631134  0.56509442
   0.68765310  0.12611947  0.78643534
   0.56239164  0.54082595  0.60986571
   0.81148428  0.53575144  0.12672947
   0.06259156  0.20180978  0.21363787
   0.56264730  0.03567270  0.12675728
   0.06241682  0.36847542  0.16891367
   0.18761057  0.62589296  0.78645991
   0.06265302  0.20669284  0.56507140
   0.43753951  0.62423849  0.65376756
   0.06242314  0.03785839  0.39012257
   0.68750947  0.61954727  0.30176252
   0.43763319  0.29236426  0.87336963
   0.18732933  0.45831117  0.69820210
   0.31292700  0.70552135  0.47859999
   0.18721578  0.45648394  0.56511889
   0.06254667  0.54103855  0.60993356
   0.18790707  0.29067551  0.60987585
   0.18748882  0.11917958  0.30180414
   0.93744206  0.78585423  0.12690853
   0.93683120  0.62101800  0.43443215
   0.93720472  0.29230725  0.74236550
   0.56253227  0.04204464  0.74237899
   0.56312849  0.04023869  0.60997166
   0.68742801  0.62264474  0.52126873
   0.81227042  0.20681734  0.56517087
   0.81214274  0.87433195  0.65364815
   0.68772344  0.95486947  0.47867952
   0.06245947  0.70512074  0.47873059
   0.68746632  0.45931157  0.83185661
   0.68778343  0.78734468  0.39004319
Direct configuration=     2
   0.43764791  0.79302356  0.87325605
   0.06131492  0.54317514  0.87324400
   0.43869295  0.62626311  0.78642416
   0.31202760  0.04067889  0.74222746
   0.43790344  0.95995077  0.83112112
   0.81270007  0.37251306  0.52137886
   0.81290443  0.03696380  0.12664147
   0.81191085  0.20888774  0.69849649
   0.93711762  0.95679878  0.56525020
   0.81282174  0.87641339  0.78673974
   0.06217607  0.37229708  0.52120042
   0.68755051  0.12201324  0.43430764
   0.18720380  0.62216621  0.52095758
   0.68750622  0.12297933  0.52094906
   0.18734365  0.12244955  0.43427082
   0.93741557  0.28815288  0.38991185
   0.18785337  0.62435224  0.65418668
   0.56323831  0.20899347  0.69820922
   0.56309067  0.37045302  0.43400098
   0.81246850  0.54072647  0.61006805
   0.56400576  0.37588156  0.78653946
   0.81367338  0.86737304  0.30181027
   0.43830339  0.12081470  0.30211720
   0.43814481  0.62021239  0.43394919
   0.31260985  0.71076969  0.83108245
   0.18773574  0.95680589  0.56516921
   0.18733002  0.78959075  0.61018153
   0.31286778  0.20797293  0.69809185
   0.06256466  0.70598894  0.56484172
   0.06320131  0.86945119  0.16898364
   0.56200726  0.20649749  0.56521044
   0.93695517  0.28787778  0.25821582
   0.93812099  0.62186699  0.52112862
   0.43770850  0.79204297  0.74217362
   0.18684356  0.29181293  0.74218638
   0.68725278  0.45638649  0.56516261
   0.68704713  0.45161355  0.21439210
   0.68812617  0.95412194  0.34623981
   0.56405409  0.54257749  0.74199886
   0.43886125  0.45908665  0.69809769
   0.81291266  0.03916997  0.38980311
   0.93667687  0.62547304  0.65433374
   0.31235845  0.03763873  0.38970461
   0.18657778  0.95966646  0.83082991
   0.93682563  0.29126719  0.61005856
   0.56161296  0.20495718  0.47808274
   0.43751777  0.12293302  0.52096852
   0.93681572  0.12540016  0.78669211
   0.81312006  0.04102538  0.87319915
   0.31161499  0.70256627  0.34620767
   0.56364413  0.87652417  0.78673936
   0.93792862  0.45322145  0.34594479
   0.18774483  0.78709019  0.38953243
   0.31281775  0.37586393  0.78662468
   0.18764007  0.95552321  0.47823526
   0.93615552  0.45873186  0.69829236
   0.18543533  0.62051628  0.43420544
   0.43720003  0.62175470  0.52124976
   0.06297808  0.37464323  0.65425441
   0.06152982  0.53617816  0.25845801
   0.81192747  0.70858007  0.69813708
   0.81259615  0.03560742  0.25801633
   0.81324913  0.54284322  0.87316838
   0.43694379  0.11711827  0.16947419
   0.56337034  0.03594067  0.25766791
   0.43766098  0.45184845  0.21415811
   0.68836977  0.62629669  0.78659271
   0.68743144  0.12399579  0.65414661
   0.43803363  0.28713498  0.25783426
   0.93747805  0.45140906  0.21434179
   0.68868484  0.12148230  0.30188836
   0.06188275  0.04144598  0.74238498
   0.56333388  0.70779457  0.69828506
   0.31163952  0.86737326  0.30206435
   0.06269429  0.70231142  0.21400643
   0.93733406  0.78366968  0.25825561
   0.56197492  0.37567422  0.65423603
   0.68775110  0.95804294  0.69812650
   0.81265284  0.04235133  0.74242402
   0.68843041  0.61972534  0.16900033
   0.93765731  0.61783471  0.30182077
   0.56278060  0.36818670  0.16973572
   0.18628999  0.12496170  0.78679429
   0.06235106  0.03703995  0.12670564
   0.81257824  0.87334974  0.52120150
   0.31248547  0.03554011  0.25756058
   0.18760445  0.28743947  0.38964533
   0.68768433  0.45855964  0.69839965
   0.31285071  0.20581406  0.47817322
   0.18702035  0.28765562  0.25792271
   0.43692252  0.12489198  0.65423283
   0.93679184  0.95888876  0.83104634
   0.81177552  0.03978538  0.61009196
   0.93760644  0.95141791  0.21376482
   0.18838726  0.95245515  0.21376309
   0.81176679  0.20192070  0.21407138
   0.06232939  0.87262061  0.52086394
   0.18726272  0.29173177  0.87317101
   0.06198427  0.20773860  0.69829548
   0.56171313  0.86958682  0.16911304
   0.31274641  0.04139731  0.61010025
   0.43795515  0.79064643  0.61015808
   0.06100649  0.37178379  0.30203419
   0.93801246  0.11771409  0.16860011
   0.18752338  0.95768565  0.69820472
   0.06338633  0.20537531  0.47807021
   0.43824508  0.12491290  0.78663443
   0.31255926  0.20671644  0.56512021
   0.18463636  0.28437282  0.12680603
   0.18682890  0.45345904  0.34595493
   0.06164799  0.03500045  0.25796819
   0.31265950  0.20817277  0.83123488
   0.06070327  0.71068202  0.83104562
   0.81347335  0.70505577  0.47790498
   0.81231808  0.70178682  0.21418510
   0.31211579  0.87417365  0.65418754
   0.68827382  0.79106305  0.61016652
   0.81289320  0.86986889  0.16904525
   0.43655988  0.95316186  0.34643999
   0.06039557  0.04186178  0.87294800
   0.18763689  0.11779142  0.16918790
   0.68996020  0.28406082  0.12660427
   0.18742060  0.79288156  0.74226075
   0.56260159  0.87307343  0.52106366
   0.18780459  0.12377461  0.65424385
   0.93729088  0.12295369  0.43406209
   0.43716716  0.28344254  0.12664122
   0.93743149  0.12328499  0.65416294
   0.68934089  0.61945568  0.43429705
   0.56213406  0.03780542  0.38986319
   0.43710946  0.45391671  0.47824517
   0.18619820  0.79171594  0.87328175
   0.43798117  0.78426888  0.25775694
   0.56295237  0.87362818  0.65431625
   0.18753812  0.45469164  0.47816656
   0.31126171  0.36795364  0.16975395
   0.06156792  0.86676334  0.30202140
   0.18595140  0.61843639  0.30195741
   0.81331639  0.20526642  0.34625780
   0.81277688  0.53530771  0.25842065
   0.43795635  0.29084836  0.61004874
   0.68924991  0.79295716  0.87307961
   0.31223604  0.53992233  0.61019147
   0.31131949  0.03341810  0.12689471
   0.06098927  0.37181097  0.43413514
   0.56261279  0.20469189  0.34638973
   0.56189683  0.70224626  0.34619326
   0.31287180  0.54380057  0.74217994
   0.06196601  0.20489097  0.34637236
   0.93648915  0.62626034  0.78668211
   0.31200935  0.20425887  0.34651371
   0.93683737  0.79326311  0.87336282
   0.56301509  0.54207700  0.87317148
   0.56224775  0.70554523  0.47825985
   0.68765309  0.62501675  0.65426548
   0.31248608  0.54182532  0.87334150
   0.31202597  0.37119326  0.30206316
   0.18652201  0.78434971  0.25813300
   0.56369490  0.53770052  0.12651738
   0.81352036  0.37232574  0.43376078
   0.81349289  0.36834666  0.16905452
   0.68805699  0.28750111  0.25817498
   0.43750468  0.61815499  0.30186730
   0.93643221  0.79003794  0.61030170
   0.43708745  0.62029518  0.16939820
   0.31277748  0.70241664  0.21400768
   0.93663485  0.12056867  0.30214771
   0.68621165  0.78668925  0.12660065
   0.56314537  0.86799418  0.30188487
   0.06225218  0.87368131  0.65423830
   0.93811662  0.95397778  0.34605349
   0.43794125  0.45640764  0.56521862
   0.31335995  0.04255796  0.87311187
   0.43765949  0.12201672  0.43425614
   0.31242549  0.53593450  0.25815028
   0.81264995  0.37563369  0.78656458
   0.06053563  0.37545392  0.78669943
   0.81178615  0.54134244  0.74224691
   0.68745067  0.29046536  0.60997853
   0.68817447  0.29260109  0.74217155
   0.43691537  0.45354953  0.34632827
   0.56245344  0.87203676  0.43423397
   0.31242064  0.70648634  0.56520302
   0.81300148  0.53619322  0.39008053
   0.68643333  0.95197094  0.21395929
   0.93710646  0.95801905  0.69829773
   0.31249882  0.87290583  0.52109698
   0.56258558  0.37213008  0.52115611
   0.81206991  0.70948092  0.83101911
   0.81318151  0.20892743  0.83110755
   0.68816669  0.45314989  0.34616340
   0.43894801  0.29260525  0.74203739
   0.06218457  0.70889413  0.69813157
   0.31276854  0.70877738  0.69811774
   0.31238557  0.87222545  0.43409946
   0.68829497  0.78378419  0.25803164
   0.43716852  0.28766009  0.38982144
   0.18704779  0.95265703  0.34641210
   0.81332996  0.87073826  0.43421289
   0.06174398  0.87021637  0.43433639
   0.06293622  0.70205410  0.34591370
   0.56215256  0.20204108  0.21399684
   0.93756378  0.12323743  0.52108563
   0.68792526  0.28849052  0.38984283
   0.31228411  0.86950454  0.16901746
   0.93702439  0.79207818  0.74241875
   0.31052878  0.53751832  0.12664016
   0.81242513  0.70636861  0.56538499
   0.06132272  0.54291621  0.74228297
   0.43762898  0.95663423  0.47822003
   0.56350109  0.37099572  0.30183914
   0.43734464  0.78736324  0.12673506
   0.93649521  0.29212885  0.87332482
   0.68715753  0.95605823  0.56501844
   0.68857390  0.29156894  0.87307997
   0.06146632  0.53654665  0.38977286
   0.18663790  0.45897005  0.83120455
   0.18852252  0.78652826  0.12676099
   0.06184501  0.87605966  0.78662925
   0.31289496  0.53621150  0.38944063
   0.93732488  0.45671149  0.56518822
   0.43779102  0.95838738  0.69807536
   0.31295919  0.20195080  0.21376099
   0.81352331  0.37119803  0.30191006
   0.56481458  0.70894436  0.83117537
   0.31171589  0.87638991  0.78644390
   0.06200390  0.04120768  0.61013122
   0.56222456  0.70652561  0.56529931
   0.31268926  0.37484121  0.65417565
   0.18785136  0.45209892  0.21397948
   0.56339114  0.53520440  0.25804989
   0.06104902  0.20777782  0.83098768
   0.43659488  0.78703880  0.38955873
   0.56288459  0.53649582  0.38969941
   0.56323767  0.04146224  0.87307896
   0.43763730  0.95212130  0.21364870
   0.18604215  0.61976656  0.16895319
   0.18753920  0.12325992  0.52096958
   0.56332578  0.20942176  0.83105523
   0.81225073  0.20472183  0.47816405
   0.93806241  0.28525063  0.12662024
   0.56227484  0.70190419  0.21416853
   0.93883259  0.78588986  0.38983648
   0.81210230  0.37521116  0.65426999
   0.93575041  0.45826908  0.83100060
   0.68783118  0.79183340  0.74227746
   0.93849895  0.45598606  0.47773077
   0.43959662  0.45757024  0.83114878
   0.06251881  0.53516756  0.12666476
   0.31238929  0.37000284  0.43424564
   0.68889360  0.95978268  0.83107081
   0.93791527  0.95545680  0.47813188
   0.68740898  0.11765296  0.16915089
   0.68689068  0.45386389  0.47810194
   0.93853457  0.61884212  0.16893030
   0.81344846  0.70187781  0.34588903
   0.31266923  0.37221394  0.52100996
   0.43770204  0.95674470  0.56511831
   0.68870721  0.12583988  0.78679015
   0.56278863  0.54078024  0.61017630
   0.81307114  0.53508758  0.12654550
   0.06319776  0.20183402  0.21387563
   0.56337353  0.03335429  0.12677207
   0.06260394  0.36867420  0.16895945
   0.18648985  0.62801673  0.78644470
   0.06274809  0.20741548  0.56506622
   0.43775908  0.62385298  0.65425187
   0.06252621  0.03877629  0.38970317
   0.68887988  0.61809183  0.30168338
   0.43778111  0.29187741  0.87328278
   0.18743339  0.45880851  0.69801972
   0.31189188  0.70550006  0.47839305
   0.18725905  0.45605151  0.56524067
   0.06257736  0.54072456  0.61008030
   0.18808258  0.29137366  0.60998432
   0.18622457  0.12016543  0.30229705
   0.93814680  0.78662352  0.12662434
   0.93664701  0.61913685  0.43371383
   0.93541174  0.29224661  0.74231814
   0.56393035  0.04213594  0.74227964
   0.56360521  0.04017041  0.60998734
   0.68753572  0.62173408  0.52130421
   0.81212791  0.20722141  0.56516901
   0.81213486  0.87302748  0.65404178
   0.68686078  0.95603333  0.47820264
   0.06232377  0.70465566  0.47808813
   0.68831320  0.45910133  0.83145327
   0.68708783  0.78637242  0.38966053
Direct configuration=     3
   0.43757595  0.79297159  0.87326318
   0.06166367  0.54302475  0.87325179
   0.43851829  0.62620453  0.78641785
   0.31209812  0.04090317  0.74223081
   0.43776749  0.95979124  0.83113988
   0.81271192  0.37253864  0.52137758
   0.81284375  0.03689221  0.12665302
   0.81203034  0.20878142  0.69844831
   0.93719600  0.95679043  0.56525252
   0.81275713  0.87633038  0.78668620
   0.06220030  0.37234238  0.52122709
   0.68747936  0.12184942  0.43439255
   0.18732828  0.62221507  0.52101738
   0.68749017  0.12293469  0.52099794
   0.18740514  0.12223245  0.43436454
   0.93746135  0.28803878  0.38996333
   0.18780181  0.62425121  0.65410478
   0.56307402  0.20889334  0.69820144
   0.56296963  0.37052130  0.43411645
   0.81252062  0.54074912  0.61002378
   0.56367758  0.37586386  0.78650092
   0.81347466  0.86767058  0.30180548
   0.43821737  0.12058828  0.30207380
   0.43799246  0.62036992  0.43407688
   0.31261098  0.71056260  0.83109762
   0.18767311  0.95675535  0.56518807
   0.18736851  0.78970723  0.61012040
   0.31280260  0.20804274  0.69812547
   0.06262701  0.70610170  0.56483169
   0.06298911  0.86924187  0.16894032
   0.56199016  0.20648900  0.56520350
   0.93707466  0.28751987  0.25812373
   0.93802708  0.62191166  0.52115040
   0.43766256  0.79208030  0.74218384
   0.18701412  0.29193860  0.74219638
   0.68725955  0.45642035  0.56515561
   0.68715347  0.45165291  0.21426210
   0.68801792  0.95401913  0.34623302
   0.56379676  0.54255111  0.74202867
   0.43865998  0.45900593  0.69812081
   0.81284749  0.03881742  0.38986852
   0.93679115  0.62524800  0.65424378
   0.31237130  0.03759701  0.38978336
   0.18675488  0.95957934  0.83088018
   0.93686737  0.29121579  0.61003022
   0.56168578  0.20502193  0.47815998
   0.43751365  0.12283388  0.52101575
   0.93695012  0.12555981  0.78663882
   0.81306798  0.04114878  0.87322610
   0.31174894  0.70269658  0.34620652
   0.56342467  0.87642447  0.78670142
   0.93784816  0.45324639  0.34599341
   0.18767586  0.78705470  0.38964487
   0.31278121  0.37592132  0.78659556
   0.18766706  0.95549369  0.47829520
   0.93638299  0.45871492  0.69827888
   0.18590228  0.62064620  0.43429367
   0.43718672  0.62184876  0.52128358
   0.06294839  0.37460884  0.65418551
   0.06169564  0.53614575  0.25834259
   0.81200541  0.70862920  0.69815019
   0.81260243  0.03560582  0.25797268
   0.81304422  0.54265868  0.87322881
   0.43704995  0.11742412  0.16937283
   0.56326267  0.03585549  0.25767514
   0.43763700  0.45188579  0.21406078
   0.68817496  0.62631880  0.78656359
   0.68737853  0.12408021  0.65406196
   0.43792323  0.28685065  0.25782315
   0.93747815  0.45137769  0.21423986
   0.68848205  0.12114674  0.30186380
   0.06200948  0.04159828  0.74236725
   0.56322826  0.70793387  0.69828492
   0.31179797  0.86773701  0.30201926
   0.06265735  0.70226486  0.21393422
   0.93735261  0.78404741  0.25815463
   0.56198607  0.37551727  0.65414504
   0.68770613  0.95811931  0.69813275
   0.81265124  0.04228033  0.74240522
   0.68834383  0.61959428  0.16896271
   0.93761415  0.61807023  0.30181086
   0.56275027  0.36831061  0.16959512
   0.18646264  0.12520240  0.78673002
   0.06236826  0.03697388  0.12670149
   0.81264026  0.87323828  0.52122525
   0.31245971  0.03556461  0.25758370
   0.18760838  0.28741559  0.38972580
   0.68768520  0.45853273  0.69836836
   0.31285258  0.20576196  0.47824608
   0.18709979  0.28732620  0.25788791
   0.43700138  0.12485335  0.65414718
   0.93698948  0.95890419  0.83108763
   0.81188144  0.03986497  0.61003525
   0.93756713  0.95149229  0.21372189
   0.18829158  0.95242321  0.21375435
   0.81188844  0.20188392  0.21399558
   0.06230899  0.87273594  0.52092510
   0.18735108  0.29184802  0.87319912
   0.06209734  0.20779981  0.69828881
   0.56180789  0.86948090  0.16909302
   0.31267999  0.04130159  0.61004681
   0.43787384  0.79069266  0.61010942
   0.06126273  0.37133686  0.30198895
   0.93792010  0.11782927  0.16862101
   0.18754443  0.95774099  0.69821538
   0.06325185  0.20541844  0.47815875
   0.43812188  0.12510699  0.78658972
   0.31257318  0.20669070  0.56511607
   0.18518312  0.28458045  0.12678694
   0.18697079  0.45337725  0.34597721
   0.06177583  0.03513494  0.25793297
   0.31258497  0.20830147  0.83124263
   0.06104907  0.71045397  0.83106312
   0.81327026  0.70506808  0.47802984
   0.81234800  0.70179460  0.21408275
   0.31219264  0.87417775  0.65408715
   0.68817218  0.79102381  0.61009714
   0.81293862  0.86960664  0.16900530
   0.43671503  0.95321967  0.34639773
   0.06077622  0.04190354  0.87302595
   0.18764125  0.11794529  0.16914841
   0.68948739  0.28430744  0.12662158
   0.18749744  0.79275783  0.74225139
   0.56255298  0.87296837  0.52109811
   0.18772925  0.12388466  0.65415228
   0.93730259  0.12261889  0.43419186
   0.43722712  0.28375856  0.12665869
   0.93746949  0.12345842  0.65408461
   0.68897197  0.61980224  0.43442868
   0.56220689  0.03766394  0.38991762
   0.43714915  0.45416607  0.47830974
   0.18641968  0.79177794  0.87329667
   0.43791229  0.78449455  0.25774516
   0.56281015  0.87377941  0.65422518
   0.18750464  0.45475119  0.47823995
   0.31147439  0.36810511  0.16961144
   0.06173089  0.86719588  0.30198439
   0.18621583  0.61859934  0.30191832
   0.81316418  0.20501412  0.34625429
   0.81272597  0.53537248  0.25829955
   0.43793471  0.29080184  0.60999926
   0.68896855  0.79273521  0.87313069
   0.31226246  0.54003091  0.61013235
   0.31150878  0.03383019  0.12686777
   0.06126719  0.37172681  0.43425373
   0.56258756  0.20449919  0.34635749
   0.56198884  0.70246846  0.34619132
   0.31273465  0.54358883  0.74220942
   0.06204365  0.20462113  0.34635039
   0.93665032  0.62617954  0.78663254
   0.31210563  0.20407752  0.34646041
   0.93700059  0.79318972  0.87334275
   0.56301719  0.54204504  0.87322452
   0.56223717  0.70544502  0.47832810
   0.68762366  0.62492993  0.65417443
   0.31233007  0.54184240  0.87333034
   0.31210266  0.37087013  0.30202249
   0.18667898  0.78462623  0.25807377
   0.56351024  0.53730697  0.12655090
   0.81335829  0.37209059  0.43392345
   0.81333171  0.36836693  0.16903108
   0.68797071  0.28715727  0.25811188
   0.43753016  0.61837157  0.30184700
   0.93657479  0.79006584  0.61022204
   0.43716490  0.62004766  0.16931233
   0.31273188  0.70236487  0.21394804
   0.93672954  0.12030571  0.30210536
   0.68631468  0.78642144  0.12661899
   0.56302247  0.86822547  0.30186716
   0.06232159  0.87375791  0.65413790
   0.93799357  0.95396009  0.34606377
   0.43790621  0.45645439  0.56521948
   0.31320922  0.04248990  0.87315822
   0.43765627  0.12183331  0.43434610
   0.31245105  0.53593043  0.25808871
   0.81264667  0.37571596  0.78652599
   0.06090473  0.37558898  0.78666616
   0.81195581  0.54141679  0.74225510
   0.68744514  0.29041136  0.60995280
   0.68798878  0.29253027  0.74218233
   0.43699856  0.45353755  0.34632106
   0.56240980  0.87190164  0.43432054
   0.31243205  0.70654980  0.56520848
   0.81288658  0.53643207  0.39008722
   0.68655866  0.95199551  0.21391593
   0.93720070  0.95808151  0.69829079
   0.31249585  0.87285648  0.52113332
   0.56252823  0.37218034  0.52118858
   0.81202222  0.70936177  0.83104255
   0.81313508  0.20907149  0.83114693
   0.68802342  0.45320283  0.34617851
   0.43869479  0.29254619  0.74207826
   0.06222071  0.70881027  0.69814041
   0.31275419  0.70872745  0.69813361
   0.31235316  0.87205327  0.43422246
   0.68818169  0.78407864  0.25798292
   0.43720946  0.28760184  0.38988245
   0.18711377  0.95278523  0.34637988
   0.81325956  0.87083384  0.43429183
   0.06188252  0.87041607  0.43441474
   0.06287315  0.70226465  0.34596865
   0.56222457  0.20202615  0.21393075
   0.93758688  0.12309898  0.52111147
   0.68783449  0.28836208  0.38988594
   0.31234840  0.86941253  0.16900002
   0.93709422  0.79205470  0.74239960