 running on  448 total cores
 distrk:  each k-point on  112 cores,    4 groups
 distr:  one band on    8 cores,   14 groups
 using from now: INCAR     
 vasp.5.4.4.18Apr17-6-g9f103f2a35 (build Sep 27 2018 12:46:37) complex + VL-xray
 _
 POSCAR found type information on POSCAR  Fe Mn
 POSCAR found :  2 types and     288 ions
 scaLAPACK will be used

 ----------------------------------------------------------------------------- 
|                                                                             |
|           W    W    AA    RRRRR   N    N  II  N    N   GGGG   !!!           |
|           W    W   A  A   R    R  NN   N  II  NN   N  G    G  !!!           |
|           W    W  A    A  R    R  N N  N  II  N N  N  G       !!!           |
|           W WW W  AAAAAA  RRRRR   N  N N  II  N  N N  G  GGG   !            |
|           WW  WW  A    A  R   R   N   NN  II  N   NN  G    G                |
|           W    W  A    A  R    R  N    N  II  N    N   GGGG   !!!           |
|                                                                             |
|      For optimal performance we recommend to set                            |
|        NCORE= 4 - approx SQRT( number of cores)                             |
|      NCORE specifies how many cores store one orbital (NPAR=cpu/NCORE).     |
|      This setting can  greatly improve the performance of VASP for DFT.     |
|      The default,   NCORE=1            might be grossly inefficient         |
|      on modern multi-core architectures or massively parallel machines.     |
|      Do your own testing !!!!                                               |
|      Unfortunately you need to use the default for GW and RPA calculations. |
|      (for HF NCORE is supported but not extensively tested yet)             |
|                                                                             |
 ----------------------------------------------------------------------------- 


 ----------------------------------------------------------------------------- 
|                                                                             |
|           W    W    AA    RRRRR   N    N  II  N    N   GGGG   !!!           |
|           W    W   A  A   R    R  NN   N  II  NN   N  G    G  !!!           |
|           W    W  A    A  R    R  N N  N  II  N N  N  G       !!!           |
|           W WW W  AAAAAA  RRRRR   N  N N  II  N  N N  G  GGG   !            |
|           WW  WW  A    A  R   R   N   NN  II  N   NN  G    G                |
|           W    W  A    A  R    R  N    N  II  N    N   GGGG   !!!           |
|                                                                             |
|      You have enabled k-point parallelism (KPAR>1).                         |
|      This developmental code was originally  written by Paul Kent at ORNL,  |
|      and carefully double checked in Vienna.                                |
|      GW as well as linear response parallelism added by Martijn Marsman     |
|      and Georg Kresse.                                                      |
|      Carefully verify results versus KPAR=1.                                |
|      Report problems to Paul Kent and Vienna.                               |
|                                                                             |
 ----------------------------------------------------------------------------- 

 LDA part: xc-table for Pade appr. of Perdew
 POSCAR found type information on POSCAR  Fe Mn
 POSCAR found :  2 types and     288 ions
 POSCAR, INCAR and KPOINTS ok, starting setup
 FFT: planning ...
 WAVECAR not read
 WARNING: random wavefunctions but no delay for mixing, default for NELMDL
 entering main loop
       N       E                     dE             d eps       ncg     rms          rms(c)
DAV:   1     0.290748406159E+05    0.29075E+05   -0.86151E+05 27930   0.196E+03
DAV:   2     0.118760784985E+04   -0.27887E+05   -0.27268E+05 27720   0.601E+02
DAV:   3    -0.194959448390E+04   -0.31372E+04   -0.27192E+04 38976   0.279E+02
DAV:   4    -0.261907143297E+04   -0.66948E+03   -0.60942E+03 50946   0.974E+01
DAV:   5    -0.273856888741E+04   -0.11950E+03   -0.11185E+03 48300   0.397E+01    0.204E+02
RMM:   6    -0.559037801405E+04   -0.28518E+04   -0.10282E+04 47581   0.231E+02    0.585E+02
RMM:   7    -0.340525544971E+04    0.21851E+04   -0.34674E+03 28906   0.123E+02    0.340E+02
RMM:   8    -0.112607618423E+05   -0.78555E+04   -0.17906E+04 44285   0.365E+02    0.111E+03
RMM:   9    -0.151326734063E+05   -0.38719E+04   -0.17300E+04 49908   0.184E+02    0.792E+02
RMM:  10    -0.875772384477E+04    0.63749E+04   -0.46031E+03 43902   0.133E+02    0.500E+02
RMM:  11    -0.718120384750E+04    0.15765E+04   -0.15707E+04 47422   0.269E+02    0.847E+02
RMM:  12    -0.764968113949E+04   -0.46848E+03   -0.13177E+04 50104   0.153E+02    0.821E+02
RMM:  13    -0.942984110013E+04   -0.17802E+04   -0.89291E+03 50180   0.142E+02    0.719E+02
RMM:  14    -0.708810488322E+04    0.23417E+04   -0.57188E+03 32318   0.160E+02    0.558E+02
RMM:  15    -0.798362502389E+04   -0.89552E+03   -0.33737E+03 28336   0.120E+02    0.472E+02
RMM:  16    -0.351344975156E+04    0.44702E+04   -0.32863E+03 28047   0.128E+02    0.387E+02
RMM:  17    -0.291148707562E+04    0.60196E+03   -0.10989E+03 32166   0.518E+01    0.289E+02
RMM:  18    -0.276774827879E+04    0.14374E+03   -0.16690E+03 38630   0.537E+01    0.275E+02
RMM:  19    -0.266459950724E+04    0.10315E+03   -0.15661E+03 41609   0.435E+01    0.226E+02
RMM:  20    -0.240775995554E+04    0.25684E+03   -0.67496E+02 42034   0.273E+01    0.121E+02
RMM:  21    -0.247249533797E+04   -0.64735E+02   -0.61988E+02 41292   0.242E+01    0.135E+02
RMM:  22    -0.239609792687E+04    0.76397E+02   -0.27309E+02 38169   0.159E+01    0.940E+01
RMM:  23    -0.239354144435E+04    0.25565E+01   -0.19239E+02 35645   0.132E+01    0.794E+01
RMM:  24    -0.237621551286E+04    0.17326E+02   -0.10688E+02 34866   0.142E+01    0.946E+01
RMM:  25    -0.235120658851E+04    0.25009E+02   -0.10229E+02 38342   0.994E+00    0.728E+01
RMM:  26    -0.233465467259E+04    0.16552E+02   -0.35429E+01 31272   0.916E+00    0.547E+01
RMM:  27    -0.233375565577E+04    0.89902E+00   -0.59113E+01 39651   0.696E+00    0.531E+01
RMM:  28    -0.233110828248E+04    0.26474E+01   -0.21694E+01 33105   0.541E+00    0.441E+01
RMM:  29    -0.233117639295E+04   -0.68110E-01   -0.12271E+01 40047   0.300E+00    0.422E+01
RMM:  30    -0.233123777283E+04   -0.61380E-01   -0.46481E+00 34238   0.230E+00    0.409E+01
RMM:  31    -0.233009978864E+04    0.11380E+01   -0.46385E+00 31932   0.317E+00    0.381E+01
RMM:  32    -0.232951983967E+04    0.57995E+00   -0.54675E+00 30009   0.418E+00    0.374E+01
RMM:  33    -0.232935376727E+04    0.16607E+00   -0.46259E+00 36942   0.249E+00    0.378E+01
RMM:  34    -0.232917796255E+04    0.17580E+00   -0.24845E+00 40009   0.145E+00    0.376E+01
RMM:  35    -0.232835297261E+04    0.82499E+00   -0.14442E+00 33192   0.169E+00    0.357E+01
RMM:  36    -0.232773080160E+04    0.62217E+00   -0.95008E-01 30581   0.165E+00    0.342E+01
RMM:  37    -0.232830484915E+04   -0.57405E+00   -0.10658E+00 29621   0.197E+00    0.360E+01
RMM:  38    -0.233077243245E+04   -0.24676E+01   -0.23177E+00 28661   0.311E+00    0.410E+01
RMM:  39    -0.233413845687E+04   -0.33660E+01   -0.39057E+00 30951   0.312E+00    0.477E+01
RMM:  40    -0.233246693928E+04    0.16715E+01   -0.31969E+00 40928   0.173E+00    0.444E+01
RMM:  41    -0.233074072991E+04    0.17262E+01   -0.99882E-01 32618   0.140E+00    0.413E+01
RMM:  42    -0.232909322543E+04    0.16475E+01   -0.15603E+00 34699   0.164E+00    0.378E+01
RMM:  43    -0.232746192687E+04    0.16313E+01   -0.10885E+00 41016   0.980E-01    0.334E+01
RMM:  44    -0.232713740482E+04    0.32452E+00   -0.48510E-01 43401   0.397E-01    0.326E+01
RMM:  45    -0.232668188995E+04    0.45551E+00   -0.17842E-01 30599   0.723E-01    0.319E+01
RMM:  46    -0.232598255907E+04    0.69933E+00   -0.43465E-01 29715   0.118E+00    0.302E+01
RMM:  47    -0.232581767824E+04    0.16488E+00   -0.37786E-01 30519   0.104E+00    0.299E+01
RMM:  48    -0.232518963374E+04    0.62804E+00   -0.44188E-01 35205   0.862E-01    0.276E+01
RMM:  49    -0.232477128922E+04    0.41834E+00   -0.43643E-01 32209   0.951E-01    0.253E+01
RMM:  50    -0.232486373593E+04   -0.92447E-01   -0.50878E-01 40652   0.703E-01    0.255E+01
RMM:  51    -0.238681981406E+04   -0.61956E+02   -0.48559E+01 32612   0.107E+01    0.977E+01
RMM:  52    -0.239586798019E+04   -0.90482E+01   -0.54867E+01 45996   0.336E+00    0.106E+02
RMM:  53    -0.241038465850E+04   -0.14517E+02   -0.10857E+01 32893   0.278E+00    0.119E+02
RMM:  54    -0.241586281544E+04   -0.54782E+01   -0.63690E+00 39144   0.182E+00    0.124E+02
RMM:  55    -0.241667524186E+04   -0.81243E+00   -0.54537E+00 45701   0.756E-01    0.126E+02
RMM:  56    -0.241273369684E+04    0.39415E+01   -0.63147E+01 35048   0.919E+00    0.121E+02
RMM:  57    -0.239723108756E+04    0.15503E+02   -0.33766E+01 42982   0.395E+00    0.116E+02
RMM:  58    -0.237841561157E+04    0.18815E+02   -0.94914E+00 30537   0.491E+00    0.105E+02
RMM:  59    -0.236438556848E+04    0.14030E+02   -0.19861E+01 29200   0.780E+00    0.903E+01
RMM:  60    -0.235640386943E+04    0.79817E+01   -0.30193E+01 29336   0.101E+01    0.795E+01
RMM:  61    -0.234083865153E+04    0.15565E+02   -0.45994E+01 31323   0.101E+01    0.581E+01
RMM:  62    -0.232960586784E+04    0.11233E+02   -0.24988E+01 30132   0.835E+00    0.390E+01
RMM:  63    -0.233011528014E+04   -0.50941E+00   -0.26769E+01 35599   0.642E+00    0.380E+01
RMM:  64    -0.232808540598E+04    0.20299E+01   -0.79902E+00 28840   0.542E+00    0.335E+01
RMM:  65    -0.232760075134E+04    0.48465E+00   -0.78585E+00 33191   0.386E+00    0.307E+01
RMM:  66    -0.234873141524E+04   -0.21131E+02   -0.12429E+01 33365   0.479E+00    0.660E+01
RMM:  67    -0.233816819098E+04    0.10563E+02   -0.68169E+00 32246   0.392E+00    0.524E+01
RMM:  68    -0.233140644726E+04    0.67617E+01   -0.40434E+00 31081   0.321E+00    0.396E+01
RMM:  69    -0.232829924321E+04    0.31072E+01   -0.33024E+00 28630   0.372E+00    0.312E+01
RMM:  70    -0.232750847560E+04    0.79077E+00   -0.29433E+00 29886   0.300E+00    0.282E+01
RMM:  71    -0.233535341646E+04   -0.78449E+01   -0.10433E+01 29020   0.606E+00    0.479E+01
RMM:  72    -0.232904294423E+04    0.63105E+01   -0.44449E+00 27730   0.528E+00    0.332E+01
RMM:  73    -0.232927410660E+04   -0.23116E+00   -0.25743E+00 28471   0.334E+00    0.342E+01
RMM:  74    -0.232813175741E+04    0.11423E+01   -0.29307E+00 37606   0.178E+00    0.302E+01
RMM:  75    -0.232828587115E+04   -0.15411E+00   -0.13272E+00 29913   0.208E+00    0.305E+01
RMM:  76    -0.233381333794E+04   -0.55275E+01   -0.70600E+00 28547   0.508E+00    0.421E+01
RMM:  77    -0.232898571273E+04    0.48276E+01   -0.36949E+00 27720   0.494E+00    0.320E+01
RMM:  78    -0.232758957999E+04    0.13961E+01   -0.12371E+00 27947   0.246E+00    0.280E+01
RMM:  79    -0.232745938324E+04    0.13020E+00   -0.13096E+00 28375   0.236E+00    0.274E+01
RMM:  80    -0.232667065095E+04    0.78873E+00   -0.12111E+00 28087   0.221E+00    0.243E+01
RMM:  81    -0.232822075209E+04   -0.15501E+01   -0.28797E+00 27874   0.360E+00    0.293E+01
RMM:  82    -0.232763929323E+04    0.58146E+00   -0.15041E+00 28028   0.287E+00    0.266E+01
RMM:  83    -0.232506702153E+04    0.25723E+01   -0.14947E+00 31545   0.183E+00    0.161E+01
RMM:  84    -0.232454892164E+04    0.51810E+00   -0.11400E+00 29184   0.195E+00    0.131E+01
RMM:  85    -0.232470053911E+04   -0.15162E+00   -0.15193E+00 33156   0.172E+00    0.138E+01
RMM:  86    -0.232743700546E+04   -0.27365E+01   -0.37800E+00 27755   0.398E+00    0.257E+01
RMM:  87    -0.232526656619E+04    0.21704E+01   -0.16322E+00 27720   0.319E+00    0.162E+01
RMM:  88    -0.232453267202E+04    0.73389E+00   -0.88025E-01 27967   0.192E+00    0.115E+01
RMM:  89    -0.232423741722E+04    0.29525E+00   -0.38517E-01 29462   0.113E+00    0.885E+00
RMM:  90    -0.232418046551E+04    0.56952E-01   -0.37161E-01 38878   0.608E-01    0.796E+00
RMM:  91    -0.232430485107E+04   -0.12439E+00   -0.41715E-01 29170   0.121E+00    0.903E+00
RMM:  92    -0.232409587538E+04    0.20898E+00   -0.20805E-01 27934   0.110E+00    0.650E+00
RMM:  93    -0.232406317464E+04    0.32701E-01   -0.22005E-01 32163   0.665E-01    0.597E+00
RMM:  94    -0.232401924166E+04    0.43933E-01   -0.10723E-01 32300   0.483E-01    0.516E+00
RMM:  95    -0.232401691793E+04    0.23237E-02   -0.76362E-02 30810   0.459E-01    0.494E+00
RMM:  96    -0.232435880166E+04   -0.34188E+00   -0.88489E-01 31096   0.148E+00    0.885E+00
RMM:  97    -0.232412452261E+04    0.23428E+00   -0.29277E-01 27723   0.129E+00    0.604E+00
RMM:  98    -0.232410307630E+04    0.21446E-01   -0.19924E-01 29075   0.841E-01    0.566E+00
RMM:  99    -0.232405056625E+04    0.52510E-01   -0.84282E-02 28465   0.599E-01    0.480E+00
RMM: 100    -0.232402413428E+04    0.26432E-01   -0.70849E-02 34535   0.320E-01
   1 F= -.23240241E+04 E0= -.23212631E+04  d E =-.232402E+04
 curvature:   0.00 expect dE= 0.000E+00 dE for cont linesearch  0.000E+00
 trial: gam= 0.00000 g(F)=  0.250E+00 g(S)=  0.000E+00 ort = 0.000E+00 (trialstep = 0.100E+01)
 search vector abs. value=  0.250E+00
 bond charge predicted
       N       E                     dE             d eps       ncg     rms          rms(c)
DAV:   1    -0.232435680529E+04   -0.30624E+00   -0.43954E+01 28728   0.767E+00    0.689E+00
RMM:   2    -0.266330991159E+04   -0.33895E+03   -0.18322E+02 36002   0.146E+01    0.197E+02
RMM:   3    -0.242822937368E+04    0.23508E+03   -0.22346E+01 28294   0.916E+00    0.130E+02
RMM:   4    -0.244344570414E+04   -0.15216E+02   -0.21468E+01 36843   0.499E+00    0.136E+02
RMM:   5    -0.234926360025E+04    0.94182E+02   -0.99183E+00 27969   0.603E+00    0.654E+01
RMM:   6    -0.232777652488E+04    0.21487E+02   -0.85937E+00 29294   0.508E+00    0.263E+01
RMM:   7    -0.233993037532E+04   -0.12154E+02   -0.21830E+01 34510   0.630E+00    0.546E+01
RMM:   8    -0.233636825093E+04    0.35621E+01   -0.14118E+01 34435   0.532E+00    0.454E+01
RMM:   9    -0.232653788067E+04    0.98304E+01   -0.46381E+00 27803   0.462E+00    0.209E+01
RMM:  10    -0.232520782136E+04    0.13301E+01   -0.39303E+00 38319   0.208E+00    0.142E+01
RMM:  11    -0.232474897232E+04    0.45885E+00   -0.14742E+00 31331   0.182E+00    0.111E+01
RMM:  12    -0.232428437826E+04    0.46459E+00   -0.70923E-01 32938   0.123E+00    0.542E+00
RMM:  13    -0.232420910216E+04    0.75276E-01   -0.36542E-01 30069   0.103E+00    0.402E+00
RMM:  14    -0.232420186967E+04    0.72325E-02   -0.38925E-01 39207   0.653E-01    0.322E+00
RMM:  15    -0.232418514809E+04    0.16722E-01   -0.13458E-01 35370   0.437E-01    0.258E+00
RMM:  16    -0.232418744994E+04   -0.23019E-02   -0.91068E-02 41407   0.280E-01    0.251E+00
RMM:  17    -0.232418741424E+04    0.35704E-04   -0.27845E-02 31527   0.251E-01    0.248E+00
RMM:  18    -0.232418524052E+04    0.21737E-02   -0.16631E-02 31563   0.200E-01    0.238E+00
RMM:  19    -0.232417843091E+04    0.68096E-02   -0.19063E-02 34476   0.182E-01    0.203E+00
RMM:  20    -0.232416727274E+04    0.11158E-01   -0.11698E-02 30098   0.191E-01    0.143E+00
RMM:  21    -0.232416645317E+04    0.81957E-03   -0.88879E-03 28208   0.190E-01    0.145E+00
RMM:  22    -0.232417234991E+04   -0.58967E-02   -0.11595E-02 30310   0.179E-01    0.180E+00
RMM:  23    -0.232417614711E+04   -0.37972E-02   -0.63329E-03 29736   0.144E-01    0.196E+00
RMM:  24    -0.232417372954E+04    0.24176E-02   -0.57836E-03 35943   0.922E-02    0.181E+00
RMM:  25    -0.232416485748E+04    0.88721E-02   -0.31587E-03 30785   0.919E-02    0.122E+00
RMM:  26    -0.232416067939E+04    0.41781E-02   -0.22637E-03 30513   0.803E-02    0.828E-01
RMM:  27    -0.232415958433E+04    0.10951E-02   -0.34409E-03 33326   0.832E-02    0.663E-01
RMM:  28    -0.232415870242E+04    0.88191E-03   -0.17124E-03 28928   0.780E-02    0.478E-01
RMM:  29    -0.232415860690E+04    0.95516E-04   -0.13172E-03 30314   0.612E-02    0.439E-01
RMM:  30    -0.232415901263E+04   -0.40573E-03   -0.21342E-03 33895   0.631E-02    0.477E-01
RMM:  31    -0.232415875649E+04    0.25614E-03   -0.97623E-04 29393   0.583E-02    0.386E-01
RMM:  32    -0.232415868459E+04    0.71903E-04   -0.93798E-04 37438   0.358E-02    0.345E-01
RMM:  33    -0.232415870595E+04   -0.21366E-04   -0.66051E-04 33097   0.363E-02    0.341E-01
RMM:  34    -0.232415874632E+04   -0.40368E-04   -0.26061E-04 29455   0.304E-02    0.347E-01
RMM:  35    -0.232415870095E+04    0.45375E-04   -0.32195E-04 40488   0.172E-02    0.324E-01
RMM:  36    -0.232415843495E+04    0.26599E-03   -0.14176E-04 31865   0.181E-02    0.228E-01
RMM:  37    -0.232415828811E+04    0.14684E-03   -0.87862E-05 31787   0.143E-02    0.150E-01
RMM:  38    -0.232415825283E+04    0.35276E-04   -0.92644E-05 38127   0.107E-02    0.113E-01
RMM:  39    -0.232415823845E+04    0.14379E-04   -0.49362E-05 31370   0.108E-02    0.697E-02
RMM:  40    -0.232415824251E+04   -0.40540E-05   -0.44297E-05 36170   0.777E-03    0.650E-02
RMM:  41    -0.232415824805E+04   -0.55428E-05   -0.35041E-05 33341   0.814E-03    0.599E-02
RMM:  42    -0.232415824946E+04   -0.14136E-05   -0.19900E-05 29776   0.770E-03    0.395E-02
RMM:  43    -0.232415825622E+04   -0.67544E-05   -0.19379E-05 31724   0.496E-03    0.355E-02
RMM:  44    -0.232415828368E+04   -0.27464E-04   -0.16228E-05 30676   0.562E-03    0.331E-02
RMM:  45    -0.232415829308E+04   -0.93961E-05   -0.72925E-06 23494   0.447E-03    0.265E-02
RMM:  46    -0.232415829424E+04   -0.11600E-05   -0.46952E-06 20451   0.287E-03    0.218E-02
RMM:  47    -0.232415830162E+04   -0.73779E-05   -0.10158E-05 25596   0.424E-03    0.237E-02
RMM:  48    -0.232415830115E+04    0.46295E-06   -0.27950E-06 17935   0.315E-03
   2 F= -.23241583E+04 E0= -.23213931E+04  d E =-.134167E+00
 ZBRENT: can't locate minimum, use default step
 trial-energy change:   -0.134167  1 .order   -0.220241   -0.249563   -0.190919
 step:   4.0000(harm=  4.2556)  dis= 0.02776  next Energy= -2324.555155 (dE=-0.531E+00)
 bond charge predicted
       N       E                     dE             d eps       ncg     rms          rms(c)
DAV:   1    -0.232394603090E+04    0.21227E+00   -0.39361E+02 27720   0.208E+01    0.414E+00
RMM:   2    -0.233479860397E+04   -0.10853E+02   -0.11841E+01 27810   0.722E+00    0.431E+01
RMM:   3    -0.235430136357E+04   -0.19503E+02   -0.61032E+00 39248   0.288E+00    0.699E+01
RMM:   4    -0.234378349706E+04    0.10518E+02   -0.23999E+00 28479   0.309E+00    0.579E+01
RMM:   5    -0.232698146411E+04    0.16802E+02   -0.15453E+00 32515   0.195E+00    0.204E+01
RMM:   6    -0.232833605325E+04   -0.13546E+01   -0.19286E+00 29766   0.232E+00    0.255E+01
RMM:   7    -0.233125197260E+04   -0.29159E+01   -0.34606E+00 30757   0.284E+00    0.347E+01
RMM:   8    -0.232596165575E+04    0.52903E+01   -0.13091E+00 27990   0.230E+00    0.161E+01
RMM:   9    -0.232487695776E+04    0.10847E+01   -0.66477E-01 27747   0.191E+00    0.813E+00
RMM:  10    -0.232497150907E+04   -0.94551E-01   -0.64645E-01 28239   0.156E+00    0.907E+00
RMM:  11    -0.232477806362E+04    0.19345E+00   -0.41676E-01 28472   0.123E+00    0.723E+00
RMM:  12    -0.232457916694E+04    0.19890E+00   -0.19033E-01 27928   0.894E-01    0.360E+00
RMM:  13    -0.232453388559E+04    0.45281E-01   -0.15100E-01 31501   0.546E-01    0.231E+00
RMM:  14    -0.232454347899E+04   -0.95934E-02   -0.11377E-01 35625   0.414E-01    0.255E+00
RMM:  15    -0.232454631665E+04   -0.28377E-02   -0.50718E-02 31425   0.355E-01    0.254E+00
RMM:  16    -0.232453692313E+04    0.93935E-02   -0.22164E-02 29197   0.291E-01    0.216E+00
RMM:  17    -0.232452856189E+04    0.83612E-02   -0.32431E-02 35744   0.222E-01    0.163E+00
RMM:  18    -0.232451903176E+04    0.95301E-02   -0.16122E-02 30368   0.221E-01    0.943E-01
RMM:  19    -0.232451873084E+04    0.30092E-03   -0.81327E-03 29954   0.166E-01    0.973E-01
RMM:  20    -0.232451827900E+04    0.45183E-03   -0.86078E-03 36600   0.105E-01    0.885E-01
RMM:  21    -0.232451715326E+04    0.11257E-02   -0.27362E-03 31599   0.802E-02    0.761E-01
RMM:  22    -0.232451686146E+04    0.29179E-03   -0.23302E-03 37587   0.510E-02    0.699E-01
RMM:  23    -0.232451554699E+04    0.13145E-02   -0.13771E-03 31632   0.568E-02    0.457E-01
RMM:  24    -0.232451488966E+04    0.65733E-03   -0.82577E-04 29198   0.567E-02    0.278E-01
RMM:  25    -0.232451483502E+04    0.54640E-04   -0.82880E-04 31118   0.466E-02    0.248E-01
RMM:  26    -0.232451481342E+04    0.21602E-04   -0.55265E-04 30812   0.391E-02    0.238E-01
RMM:  27    -0.232451471065E+04    0.10276E-03   -0.22674E-04 30072   0.280E-02    0.195E-01
RMM:  28    -0.232451467273E+04    0.37926E-04   -0.27235E-04 37894   0.158E-02    0.166E-01
RMM:  29    -0.232451457157E+04    0.10116E-03   -0.89762E-05 33292   0.122E-02    0.779E-02
RMM:  30    -0.232451455931E+04    0.12256E-04   -0.54999E-05 32679   0.101E-02    0.578E-02
RMM:  31    -0.232451455905E+04    0.26348E-06   -0.57093E-05 34986   0.955E-03    0.532E-02
RMM:  32    -0.232451454873E+04    0.10313E-04   -0.20570E-05 29352   0.798E-03    0.289E-02
RMM:  33    -0.232451454890E+04   -0.17005E-06   -0.19098E-05 29565   0.414E-03    0.246E-02
RMM:  34    -0.232451454811E+04    0.79133E-06   -0.74162E-06 23337   0.377E-03
   3 F= -.23245145E+04 E0= -.23217321E+04  d E =-.490414E+00
 curvature:  -2.11 expect dE=-0.171E+00 dE for cont linesearch -0.188E-01
 ZBRENT: extrapolating
 opt :   4.9820  next Energy= -2324.537664 (dE=-0.514E+00)
 bond charge predicted
       N       E                     dE             d eps       ncg     rms          rms(c)
DAV:   1    -0.232449234380E+04    0.22205E-01   -0.42264E+01 27748   0.678E+00    0.117E+00
RMM:   2    -0.232522857320E+04   -0.73623E+00   -0.92791E-01 27913   0.195E+00    0.112E+01
RMM:   3    -0.232713388933E+04   -0.19053E+01   -0.42966E-01 36928   0.862E-01    0.215E+01
RMM:   4    -0.232524540659E+04    0.18885E+01   -0.12775E-01 27964   0.721E-01    0.107E+01
RMM:   5    -0.232493531228E+04    0.31009E+00   -0.10509E-01 31813   0.504E-01    0.873E+00
RMM:   6    -0.232470439573E+04    0.23092E+00   -0.10176E-01 28225   0.602E-01    0.547E+00
RMM:   7    -0.232538432660E+04   -0.67993E+00   -0.40222E-01 34697   0.784E-01    0.126E+01
RMM:   8    -0.232464867866E+04    0.73565E+00   -0.13594E-01 27820   0.750E-01    0.425E+00
RMM:   9    -0.232457261008E+04    0.76069E-01   -0.53641E-02 28037   0.501E-01    0.254E+00
RMM:  10    -0.232456755149E+04    0.50586E-02   -0.50092E-02 30721   0.354E-01    0.240E+00
RMM:  11    -0.232456125806E+04    0.62934E-02   -0.47857E-02 31811   0.332E-01    0.205E+00
RMM:  12    -0.232454777058E+04    0.13487E-01   -0.19774E-02 28145   0.283E-01    0.133E+00
RMM:  13    -0.232454207969E+04    0.56909E-02   -0.10799E-02 29448   0.193E-01    0.957E-01
RMM:  14    -0.232454145956E+04    0.62013E-03   -0.11087E-02 35473   0.127E-01    0.844E-01
RMM:  15    -0.232453900157E+04    0.24580E-02   -0.50464E-03 32020   0.108E-01    0.438E-01
RMM:  16    -0.232453819285E+04    0.80872E-03   -0.19214E-03 29505   0.835E-02    0.231E-01
RMM:  17    -0.232453830295E+04   -0.11010E-03   -0.24504E-03 37704   0.528E-02    0.223E-01
RMM:  18    -0.232453828754E+04    0.15405E-04   -0.89466E-04 31132   0.478E-02    0.205E-01
RMM:  19    -0.232453810181E+04    0.18573E-03   -0.34764E-04 29444   0.360E-02    0.941E-02
RMM:  20    -0.232453813075E+04   -0.28941E-04   -0.44292E-04 38782   0.201E-02    0.953E-02
RMM:  21    -0.232453817296E+04   -0.42207E-04   -0.20222E-04 31672   0.217E-02    0.126E-01
RMM:  22    -0.232453814297E+04    0.29988E-04   -0.94505E-05 30693   0.165E-02    0.962E-02
RMM:  23    -0.232453813477E+04    0.81985E-05   -0.10733E-04 38186   0.107E-02    0.800E-02
RMM:  24    -0.232453811182E+04    0.22951E-04   -0.47093E-05 31422   0.105E-02    0.400E-02
RMM:  25    -0.232453810758E+04    0.42451E-05   -0.31474E-05 32796   0.714E-03    0.242E-02
RMM:  26    -0.232453810897E+04   -0.13970E-05   -0.21189E-05 30376   0.403E-03    0.238E-02
RMM:  27    -0.232453810790E+04    0.10701E-05   -0.64647E-06 22043   0.398E-03    0.158E-02
RMM:  28    -0.232453810733E+04    0.57562E-06   -0.30847E-06 18827   0.326E-03
   4 F= -.23245381E+04 E0= -.23217514E+04  d E =-.513973E+00
 curvature:  -2.60 expect dE=-0.268E+00 dE for cont linesearch -0.253E-05
 trial: gam= 0.41039 g(F)=  0.103E+00 g(S)=  0.000E+00 ort = 0.493E-03 (trialstep = 0.180E+01)
 search vector abs. value=  0.145E+00
 bond charge predicted
       N       E                     dE             d eps       ncg     rms          rms(c)
DAV:   1    -0.232460071335E+04   -0.62605E-01   -0.81141E+01 27720   0.943E+00    0.156E+00
RMM:   2    -0.232866861697E+04   -0.40679E+01   -0.18016E+00 28234   0.273E+00    0.279E+01
RMM:   3    -0.232618399501E+04    0.24846E+01   -0.79687E-01 38125   0.109E+00    0.158E+01
RMM:   4    -0.232507425891E+04    0.11097E+01   -0.25145E-01 27727   0.110E+00    0.816E+00
RMM:   5    -0.232749004463E+04   -0.24158E+01   -0.30976E-01 38112   0.654E-01    0.229E+01
RMM:   6    -0.232507227494E+04    0.24178E+01   -0.24291E-01 31807   0.777E-01    0.742E+00
RMM:   7    -0.232608502281E+04   -0.10127E+01   -0.56044E-01 31720   0.106E+00    0.162E+01
RMM:   8    -0.232492127502E+04    0.11637E+01   -0.23601E-01 27738   0.102E+00    0.606E+00
RMM:   9    -0.232473426930E+04    0.18701E+00   -0.99744E-02 27876   0.681E-01    0.282E+00
RMM:  10    -0.232473329101E+04    0.97828E-03   -0.94792E-02 28980   0.568E-01    0.285E+00
RMM:  11    -0.232472483938E+04    0.84516E-02   -0.84774E-02 29291   0.505E-01    0.248E+00
RMM:  12    -0.232469650920E+04    0.28330E-01   -0.26833E-02 27739   0.391E-01    0.119E+00
RMM:  13    -0.232469133536E+04    0.51738E-02   -0.16930E-02 32276   0.174E-01    0.622E-01
RMM:  14    -0.232469271524E+04   -0.13799E-02   -0.13270E-02 34355   0.145E-01    0.745E-01
RMM:  15    -0.232469149973E+04    0.12155E-02   -0.56610E-03 29394   0.135E-01    0.559E-01
RMM:  16    -0.232469042005E+04    0.10797E-02   -0.29431E-03 30356   0.910E-02    0.323E-01
RMM:  17    -0.232469058437E+04   -0.16432E-03   -0.32125E-03 35979   0.675E-02    0.331E-01
RMM:  18    -0.232469029445E+04    0.28992E-03   -0.14432E-03 30582   0.637E-02    0.225E-01
RMM:  19    -0.232469016726E+04    0.12719E-03   -0.99240E-04 33321   0.436E-02    0.146E-01
RMM:  20    -0.232469021573E+04   -0.48469E-04   -0.84417E-04 37818   0.306E-02    0.147E-01
RMM:  21    -0.232469019426E+04    0.21474E-04   -0.34403E-04 31750   0.287E-02    0.126E-01
RMM:  22    -0.232469013838E+04    0.55878E-04   -0.15900E-04 31004   0.207E-02    0.697E-02
RMM:  23    -0.232469014456E+04   -0.61752E-05   -0.18570E-04 39609   0.125E-02    0.642E-02
RMM:  24    -0.232469014240E+04    0.21554E-05   -0.66236E-05 32489   0.112E-02    0.578E-02
RMM:  25    -0.232469014041E+04    0.19890E-05   -0.40604E-05 33664   0.814E-03    0.506E-02
RMM:  26    -0.232469013607E+04    0.43400E-05   -0.31385E-05 35142   0.567E-03    0.369E-02
RMM:  27    -0.232469013127E+04    0.48042E-05   -0.96639E-06 25731   0.499E-03    0.191E-02
RMM:  28    -0.232469013137E+04   -0.96537E-07   -0.54755E-06 21223   0.342E-03
   5 F= -.23246901E+04 E0= -.23219041E+04  d E =-.152024E+00
 trial-energy change:   -0.152024  1 .order   -0.152083   -0.185229   -0.118937
 step:   5.0194(harm=  5.0194)  dis= 0.02605  next Energy= -2324.796885 (dE=-0.259E+00)
