<?xml version="1.0" encoding="ISO-8859-1"?>
<modeling>
 <generator>
  <i name="program" type="string">vasp </i>
  <i name="version" type="string">5.4.4.18Apr17-6-g9f103f2a35  </i>
  <i name="subversion" type="string">(build Sep 27 2018 12:46:37) complex + VL-xray_ parallel </i>
  <i name="platform" type="string">LLNL_Quartz_ifc </i>
  <i name="date" type="string">2021 09 27 </i>
  <i name="time" type="string">00:38:34 </i>
 </generator>
 <incar>
  <i type="int" name="ISTART">     2</i>
  <i type="string" name="PREC">accurate</i>
  <i type="string" name="ALGO"> Fast</i>
  <i type="int" name="ICHARG">     2</i>
  <i type="int" name="INIWAV">     1</i>
  <i type="int" name="NELM">   100</i>
  <i type="int" name="NELMIN">     4</i>
  <i type="int" name="IBRION">     2</i>
  <i name="EDIFF">      0.00000100</i>
  <i type="int" name="NSW">     5</i>
  <i type="int" name="ISIF">     2</i>
  <i type="int" name="ISYM">     2</i>
  <i name="ENCUT">    450.00000000</i>
  <i name="POTIM">      0.25000000</i>
  <i type="string" name="LREAL"> Auto</i>
  <i type="int" name="ISMEAR">     0</i>
  <i name="SIGMA">      0.15000000</i>
  <i type="logical" name="LWAVE"> F  </i>
  <i type="logical" name="LCHARG"> F  </i>
  <i type="int" name="ICORELEVEL">     0</i>
  <i type="int" name="CLNT">     1</i>
  <i type="int" name="CLN">     1</i>
  <i type="int" name="INCAR     ">     0</i>
  <i name="CLZ">      0.00000000</i>
  <v type="int" name="KPOINT_BSE">    -1     0     0     0</v>
  <i type="int" name="NELM">   100</i>
 </incar>
 <structure name="primitive_cell" >
  <crystal>
   <varray name="basis" >
    <v>       9.72667804       0.00000000       0.00000000 </v>
    <v>       0.00000000       8.42355028       0.00000000 </v>
    <v>       0.00000000       0.00000000      45.00000000 </v>
   </varray>
   <i name="volume">   3686.99226691 </i>
   <varray name="rec_basis" >
    <v>       0.10281002       0.00000000       0.00000000 </v>
    <v>       0.00000000       0.11871479       0.00000000 </v>
    <v>       0.00000000       0.00000000       0.02222222 </v>
   </varray>
  </crystal>
  <varray name="positions" >
   <v>       0.06185231       0.02945901       0.12414907 </v>
   <v>       0.18321532       0.11210749       0.16648263 </v>
   <v>       0.05618519      -0.13517122       0.16665768 </v>
   <v>       0.18601679      -0.21202168       0.12403949 </v>
   <v>      -0.06586779      -0.21120380       0.12442187 </v>
   <v>      -0.18591644       0.03069551       0.12401900 </v>
   <v>      -0.06907751       0.11419279       0.16689577 </v>
   <v>       0.31142959       0.03101829       0.12415774 </v>
   <v>       0.18515046       0.28682132       0.12412462 </v>
   <v>      -0.06588619       0.28698583       0.12390895 </v>
   <v>       0.30609029      -0.13544616       0.16578822 </v>
   <v>       0.05513612       0.36535262       0.16662590 </v>
   <v>      -0.19272908      -0.13658640       0.16686155 </v>
   <v>       0.43243122       0.11175472       0.16657301 </v>
   <v>      -0.05900008      -0.04624165       0.21129506 </v>
   <v>       0.30702149       0.36378999       0.16661821 </v>
   <v>       0.18216527      -0.38656288       0.16663435 </v>
   <v>       0.43533224      -0.21310357       0.12413387 </v>
   <v>       0.06509337       0.20388144       0.21106895 </v>
   <v>       0.19040071      -0.04525604       0.21171072 </v>
   <v>      -0.06725159      -0.38713148       0.16673391 </v>
   <v>      -0.31527183      -0.21173722       0.12435086 </v>
   <v>       0.06181042      -0.47020885       0.12407380 </v>
   <v>      -0.19439287       0.36530068       0.16589489 </v>
   <v>       0.43430502       0.28673152       0.12415638 </v>
   <v>      -0.31764527       0.11390990       0.16687086 </v>
   <v>      -0.31351808       0.28610927       0.12391044 </v>
   <v>       0.06746292      -0.29641285       0.21130459 </v>
   <v>      -0.18431524       0.20351229       0.21113671 </v>
   <v>      -0.18669941      -0.47035090       0.12401957 </v>
   <v>      -0.43737466       0.03220021       0.12432797 </v>
   <v>       0.31564650       0.20490870       0.21134030 </v>
   <v>       0.31259119      -0.47047867       0.12395398 </v>
   <v>      -0.18380429      -0.29657166       0.21148512 </v>
   <v>      -0.44348684      -0.13798905       0.16630966 </v>
   <v>       0.43183867      -0.38717908       0.16609342 </v>
   <v>      -0.31011957      -0.04532134       0.21177759 </v>
   <v>       0.31452849      -0.29691627       0.21227013 </v>
   <v>      -0.31773610      -0.38792237       0.16622147 </v>
   <v>       0.18992871       0.45314508       0.21114163 </v>
   <v>      -0.06014905       0.45348821       0.21158051 </v>
   <v>       0.44153129      -0.04446104       0.21204585 </v>
   <v>      -0.44363567       0.36504071       0.16658203 </v>
   <v>       0.05891566       0.03729721       0.25579386 </v>
   <v>       0.18370847      -0.21297261       0.25549053 </v>
   <v>      -0.06653318      -0.21288613       0.25560122 </v>
   <v>       0.30934560       0.03722157       0.25550322 </v>
   <v>      -0.43346701       0.20295197       0.21145519 </v>
   <v>       0.18349012       0.28691265       0.25582123 </v>
   <v>      -0.19059361       0.03798808       0.25595507 </v>
   <v>      -0.43770982      -0.47111586       0.12452809 </v>
   <v>      -0.06635712       0.28772478       0.25582746 </v>
   <v>      -0.31080501       0.45428995       0.21177580 </v>
   <v>       0.43968169       0.45380011       0.21135707 </v>
   <v>      -0.43331397      -0.29650193       0.21195385 </v>
   <v>       0.05913619      -0.46274420       0.25571407 </v>
   <v>       0.43362026      -0.21261482       0.25565720 </v>
   <v>      -0.31652906      -0.21247633       0.25581581 </v>
   <v>       0.43318089       0.28755742       0.25575878 </v>
   <v>      -0.31618739       0.28759632       0.25603157 </v>
   <v>       0.30764752      -0.46268830       0.25553278 </v>
   <v>      -0.19171668      -0.46283823       0.25578669 </v>
   <v>      -0.44000952       0.03772103       0.25548261 </v>
   <v>       0.06994152      -0.12650667       0.30033796 </v>
   <v>      -0.05451637       0.12266263       0.30011581 </v>
   <v>       0.19545073       0.12307876       0.30024795 </v>
   <v>      -0.17882856      -0.12652732       0.30018712 </v>
   <v>       0.31928560      -0.12603057       0.30015951 </v>
   <v>       0.06977599       0.37345870       0.29999789 </v>
   <v>      -0.44176262      -0.46223906       0.25557898 </v>
   <v>      -0.05532426      -0.37734751       0.29998816 </v>
   <v>      -0.30439112       0.12293288       0.30025764 </v>
   <v>       0.19568870      -0.37701304       0.30013316 </v>
   <v>      -0.17933671       0.37299984       0.30013629 </v>
   <v>       0.44458873       0.12281884       0.30039157 </v>
   <v>       0.32078052       0.37272288       0.30014909 </v>
   <v>      -0.30439617      -0.37644201       0.30020054 </v>
   <v>      -0.42955535      -0.12681491       0.30028137 </v>
   <v>       0.44559732      -0.37631476       0.30025146 </v>
   <v>      -0.43000972       0.37216068       0.30028813 </v>
   <v>       0.18356423      -0.04798578       0.34487228 </v>
   <v>      -0.06578971      -0.04799598       0.34474804 </v>
   <v>       0.05881766       0.20285070       0.34479976 </v>
   <v>       0.05846825      -0.29805419       0.34485953 </v>
   <v>       0.30904089       0.20272476       0.34473910 </v>
   <v>      -0.19078893       0.20274684       0.34479895 </v>
   <v>       0.30893687      -0.29840277       0.34477052 </v>
   <v>       0.43368718      -0.04730676       0.34490562 </v>
   <v>      -0.19148044      -0.29775038       0.34486603 </v>
   <v>      -0.31675246      -0.04789908       0.34481627 </v>
   <v>       0.18387588       0.45270712       0.34484543 </v>
   <v>      -0.06634506       0.45228897       0.34489142 </v>
   <v>      -0.44139377       0.20271612       0.34475562 </v>
   <v>       0.43379787       0.45245381       0.34495592 </v>
   <v>      -0.31647021       0.45247101       0.34490825 </v>
   <v>       0.06537947       0.03897054      -0.12423912 </v>
   <v>      -0.44088856      -0.29779088       0.34493881 </v>
   <v>       0.18761037      -0.20251606      -0.12392867 </v>
   <v>      -0.06295726      -0.20443106      -0.12442530 </v>
   <v>      -0.18730831       0.04064247      -0.12422246 </v>
   <v>       0.31432736       0.04109767      -0.12409438 </v>
   <v>       0.18831495       0.29689561      -0.12382561 </v>
   <v>      -0.06520720       0.29799706      -0.12441950 </v>
   <v>       0.43638915      -0.20209247      -0.12378746 </v>
   <v>       0.06321429      -0.45915017      -0.12411779 </v>
   <v>      -0.31558018      -0.20212549      -0.12406138 </v>
   <v>       0.06634670       0.03786857       0.38911715 </v>
   <v>       0.43678277       0.29842345      -0.12365682 </v>
   <v>      -0.31456111       0.29905097      -0.12398327 </v>
   <v>      -0.05866262      -0.21240898       0.38890806 </v>
   <v>       0.31326718      -0.45916102      -0.12392360 </v>
   <v>      -0.18782812      -0.45969766      -0.12415264 </v>
   <v>       0.19287587      -0.21240397       0.38892563 </v>
   <v>      -0.18342071       0.03811726       0.38911972 </v>
   <v>      -0.05879689       0.28706326       0.38891443 </v>
   <v>       0.31618513       0.03734959       0.38897109 </v>
   <v>       0.19117707       0.28761579       0.38882955 </v>
   <v>      -0.43700639       0.04073067      -0.12393565 </v>
   <v>       0.06763426      -0.46131507       0.38905455 </v>
   <v>      -0.30840716      -0.21248589       0.38906020 </v>
   <v>      -0.30861230       0.28760866       0.38880166 </v>
   <v>       0.44138998      -0.21209326       0.38913679 </v>
   <v>       0.44146514       0.28755060       0.38908882 </v>
   <v>      -0.18363415      -0.46219815       0.38905745 </v>
   <v>       0.31586566      -0.46173394       0.38892851 </v>
   <v>      -0.43760552      -0.45923839      -0.12400321 </v>
   <v>      -0.43382503       0.03803010       0.38898680 </v>
   <v>      -0.05747045      -0.03507785      -0.16611418 </v>
   <v>       0.19164209      -0.03661832      -0.16640717 </v>
   <v>       0.06693461       0.21523613      -0.16600263 </v>
   <v>       0.06603786      -0.28331346      -0.16609705 </v>
   <v>      -0.18177403       0.21527448      -0.16637025 </v>
   <v>       0.31704524       0.21294028      -0.16651711 </v>
   <v>      -0.43341521      -0.46239081       0.38907643 </v>
   <v>      -0.18286531      -0.28465722      -0.16662336 </v>
   <v>      -0.30840479      -0.03763517      -0.16647958 </v>
   <v>       0.31816974      -0.28622294      -0.16680579 </v>
   <v>       0.44267837      -0.03677814      -0.16664924 </v>
   <v>      -0.05780775       0.46426721      -0.16625570 </v>
   <v>       0.19173191       0.46343658      -0.16653609 </v>
   <v>       0.06361031      -0.12788484       0.43432041 </v>
   <v>       0.18717908       0.11944718       0.43433687 </v>
   <v>      -0.06295612       0.12078606       0.43446076 </v>
   <v>      -0.43392966       0.21369554      -0.16678314 </v>
   <v>      -0.30788784       0.46218206      -0.16668771 </v>
   <v>       0.44243019       0.46275784      -0.16664497 </v>
   <v>      -0.43369123      -0.28641017      -0.16668903 </v>
   <v>      -0.18849999      -0.12859656       0.43422040 </v>
   <v>       0.31182443      -0.12946319       0.43445071 </v>
   <v>       0.06266175       0.37125815       0.43437524 </v>
   <v>       0.18736194      -0.37946936       0.43438729 </v>
   <v>      -0.06290955      -0.37984868       0.43446711 </v>
   <v>      -0.31213947       0.12005160       0.43432119 </v>
   <v>       0.43739649       0.12132038       0.43440682 </v>
   <v>      -0.18751365       0.37202321       0.43420538 </v>
   <v>       0.31244576       0.37049806       0.43444819 </v>
   <v>      -0.31218040      -0.37876130       0.43438945 </v>
   <v>      -0.43658990      -0.12910581       0.43423706 </v>
   <v>       0.43675074      -0.37932643       0.43440239 </v>
   <v>      -0.43785650       0.37085938       0.43437675 </v>
   <v>       0.05881352      -0.12574707      -0.21154970 </v>
   <v>       0.18374540       0.12338563      -0.21137656 </v>
   <v>      -0.06600799       0.12470135      -0.21140773 </v>
   <v>       0.31020902      -0.12686578      -0.21156043 </v>
   <v>      -0.19108788      -0.12629396      -0.21161335 </v>
   <v>       0.05888223       0.37520319      -0.21155314 </v>
   <v>       0.43360572       0.12263319      -0.21100860 </v>
   <v>       0.18442360      -0.37740314      -0.21147838 </v>
   <v>      -0.06693720      -0.37543377      -0.21165243 </v>
   <v>       0.30872154       0.37397669      -0.21119695 </v>
   <v>      -0.31771972       0.12294574      -0.21147039 </v>
   <v>      -0.19152758       0.37514691      -0.21150991 </v>
   <v>       0.43293342      -0.37682119      -0.21103798 </v>
   <v>      -0.44098247      -0.12632061      -0.21136547 </v>
   <v>      -0.31716618      -0.37737119      -0.21139385 </v>
   <v>      -0.06258504      -0.04438439       0.47869046 </v>
   <v>       0.18762716      -0.04445308       0.47876970 </v>
   <v>       0.06262476       0.20607390       0.47864863 </v>
   <v>      -0.44113458       0.37346469      -0.21125644 </v>
   <v>       0.06245419      -0.29396235       0.47848466 </v>
   <v>      -0.18776555       0.20601140       0.47864059 </v>
   <v>       0.31252294       0.20579766       0.47872958 </v>
   <v>      -0.18776187      -0.29404481       0.47860028 </v>
   <v>       0.31228120      -0.29409745       0.47861584 </v>
   <v>      -0.31240794      -0.04407237       0.47869124 </v>
   <v>       0.43740199      -0.04428955       0.47867149 </v>
   <v>      -0.06260751       0.45561068       0.47854984 </v>
   <v>       0.18722275       0.45575712       0.47867563 </v>
   <v>      -0.43771890       0.20576527       0.47865726 </v>
   <v>      -0.31270811       0.45593470       0.47858049 </v>
   <v>       0.43750010       0.45576707       0.47853623 </v>
   <v>      -0.43758976      -0.29409459       0.47860799 </v>
   <v>       0.06575221       0.04060210      -0.25578932 </v>
   <v>      -0.05974927      -0.20909192      -0.25550279 </v>
   <v>       0.18964733      -0.20834825      -0.25560279 </v>
   <v>      -0.18453090       0.04080610      -0.25571478 </v>
   <v>      -0.06023066       0.29081338      -0.25547576 </v>
   <v>       0.19054208       0.29102738      -0.25562414 </v>
   <v>       0.31503841       0.04171791      -0.25586954 </v>
   <v>       0.06536629      -0.45907729      -0.25568168 </v>
   <v>      -0.31003308      -0.20832476      -0.25568254 </v>
   <v>       0.43952992      -0.20800735      -0.25555964 </v>
   <v>      -0.30983776       0.29135540      -0.25574561 </v>
   <v>       0.43991294       0.29158548      -0.25572264 </v>
   <v>      -0.18424789      -0.45973899      -0.25581667 </v>
   <v>       0.31527179      -0.45864380      -0.25569517 </v>
   <v>      -0.43446116       0.04123828      -0.25570859 </v>
   <v>       0.06195176      -0.12815505      -0.47853676 </v>
   <v>       0.18690489       0.12186346      -0.47854130 </v>
   <v>      -0.06337113       0.12201215      -0.47849787 </v>
   <v>      -0.18833226      -0.12863931      -0.47858157 </v>
   <v>       0.31178849      -0.12827565      -0.47848044 </v>
   <v>       0.06153038       0.37238849      -0.47849137 </v>
   <v>      -0.43488800      -0.45868087      -0.25593289 </v>
   <v>      -0.06333646      -0.37803263      -0.47858223 </v>
   <v>       0.18684965      -0.37832896      -0.47857853 </v>
   <v>      -0.31321746       0.12198171      -0.47860401 </v>
   <v>       0.43694180       0.12177874      -0.47852362 </v>
   <v>       0.31166897       0.37205303      -0.47863010 </v>
   <v>      -0.18809888       0.37237181      -0.47855535 </v>
   <v>      -0.31338175      -0.37853688      -0.47871267 </v>
   <v>       0.43674598      -0.37795361      -0.47864184 </v>
   <v>      -0.43781217      -0.12792756      -0.47855028 </v>
   <v>      -0.43819369       0.37204041      -0.47859960 </v>
   <v>       0.18489001      -0.04278620      -0.30023997 </v>
   <v>      -0.06478134      -0.04185228      -0.30033604 </v>
   <v>       0.06051762       0.20766799      -0.30028435 </v>
   <v>       0.06066603      -0.29246988      -0.30031084 </v>
   <v>       0.31044400       0.20714286      -0.30016709 </v>
   <v>      -0.18936692       0.20740840      -0.30015718 </v>
   <v>       0.31016254      -0.29311189      -0.30022433 </v>
   <v>      -0.18991032      -0.29278878      -0.30022643 </v>
   <v>       0.43522520      -0.04264208      -0.30026798 </v>
   <v>      -0.31491258      -0.04274898      -0.30019942 </v>
   <v>       0.18526880       0.45786310      -0.30034015 </v>
   <v>      -0.06469101       0.45807348      -0.30035494 </v>
   <v>      -0.43983141       0.20701485      -0.30020024 </v>
   <v>       0.43535193       0.45768598      -0.30023583 </v>
   <v>      -0.31543617       0.45762210      -0.30019311 </v>
   <v>      -0.43963323      -0.29279909      -0.30026545 </v>
   <v>      -0.06339216      -0.04270908      -0.43454399 </v>
   <v>       0.18686601      -0.04300610      -0.43445455 </v>
   <v>       0.06218214       0.20705152      -0.43459755 </v>
   <v>       0.06228126      -0.29301486      -0.43446083 </v>
   <v>      -0.18879911       0.20685355      -0.43452141 </v>
   <v>       0.31142301       0.20656673      -0.43448404 </v>
   <v>       0.31130577      -0.29308681      -0.43447486 </v>
   <v>      -0.18869424      -0.29323273      -0.43449756 </v>
   <v>       0.43680903      -0.04292618      -0.43456562 </v>
   <v>      -0.31260693      -0.04306869      -0.43446252 </v>
   <v>       0.18695084       0.45703170      -0.43455544 </v>
   <v>      -0.06341143       0.45638593      -0.43437232 </v>
   <v>      -0.43788345       0.20698166      -0.43446049 </v>
   <v>      -0.31317471       0.45690345      -0.43462476 </v>
   <v>       0.43688885       0.45676450      -0.43442111 </v>
   <v>      -0.43766113      -0.29300199      -0.43446402 </v>
   <v>       0.06616962      -0.12559884      -0.34499812 </v>
   <v>       0.19137129       0.12509531      -0.34484099 </v>
   <v>      -0.05882336       0.12471174      -0.34501033 </v>
   <v>      -0.18386653      -0.12514548      -0.34488673 </v>
   <v>       0.31638468      -0.12519050      -0.34485725 </v>
   <v>       0.06628466       0.37456132      -0.34504550 </v>
   <v>       0.19116699      -0.37500991      -0.34492790 </v>
   <v>      -0.05871213      -0.37496270      -0.34506624 </v>
   <v>      -0.30872697       0.12488248      -0.34500928 </v>
   <v>      -0.18377396       0.37449626      -0.34498813 </v>
   <v>       0.44122582       0.12440600      -0.34507477 </v>
   <v>       0.31601804       0.37399073      -0.34502391 </v>
   <v>      -0.30891729      -0.37511593      -0.34477267 </v>
   <v>      -0.43402558      -0.12571204      -0.34502809 </v>
   <v>       0.44131157      -0.37531147      -0.34502264 </v>
   <v>      -0.43388915       0.37430603      -0.34500959 </v>
   <v>       0.05880874       0.03799275      -0.38907416 </v>
   <v>       0.18382456      -0.21200778      -0.38906579 </v>
   <v>      -0.06627242      -0.21236228      -0.38908596 </v>
   <v>       0.30893164       0.03845901      -0.38891486 </v>
   <v>      -0.19089865       0.03839279      -0.38900910 </v>
   <v>      -0.06616191       0.28808153      -0.38908815 </v>
   <v>       0.18415990       0.28845057      -0.38891953 </v>
   <v>       0.05886799      -0.46180492      -0.38900459 </v>
   <v>       0.43399549      -0.21169820      -0.38903351 </v>
   <v>      -0.31599545      -0.21172128      -0.38910081 </v>
   <v>       0.43401299       0.28833787      -0.38901040 </v>
   <v>      -0.31590239       0.28869113      -0.38895292 </v>
   <v>       0.30913872      -0.46154367      -0.38900923 </v>
   <v>      -0.19083173      -0.46163077      -0.38893938 </v>
   <v>      -0.44073618       0.03871634      -0.38887698 </v>
   <v>      -0.44104664      -0.46158666      -0.38898215 </v>
  </varray>
 </structure>
 <varray name="primitive_index" >
  <v type="int" >        1 </v>
  <v type="int" >      125 </v>
  <v type="int" >       60 </v>
  <v type="int" >       83 </v>
  <v type="int" >       44 </v>
  <v type="int" >      202 </v>
  <v type="int" >       26 </v>
  <v type="int" >      256 </v>
  <v type="int" >      111 </v>
  <v type="int" >      155 </v>
  <v type="int" >      277 </v>
  <v type="int" >       51 </v>
  <v type="int" >      102 </v>
  <v type="int" >      182 </v>
  <v type="int" >      212 </v>
  <v type="int" >      108 </v>
  <v type="int" >       20 </v>
  <v type="int" >      170 </v>
  <v type="int" >       50 </v>
  <v type="int" >      146 </v>
  <v type="int" >      104 </v>
  <v type="int" >      163 </v>
  <v type="int" >      176 </v>
  <v type="int" >      284 </v>
  <v type="int" >      117 </v>
  <v type="int" >      166 </v>
  <v type="int" >      145 </v>
  <v type="int" >      250 </v>
  <v type="int" >      167 </v>
  <v type="int" >      205 </v>
  <v type="int" >      114 </v>
  <v type="int" >      249 </v>
  <v type="int" >       91 </v>
  <v type="int" >      213 </v>
  <v type="int" >      192 </v>
  <v type="int" >      174 </v>
  <v type="int" >       92 </v>
  <v type="int" >      276 </v>
  <v type="int" >       97 </v>
  <v type="int" >      189 </v>
  <v type="int" >      175 </v>
  <v type="int" >      229 </v>
  <v type="int" >       30 </v>
  <v type="int" >      185 </v>
  <v type="int" >      200 </v>
  <v type="int" >       52 </v>
  <v type="int" >      179 </v>
  <v type="int" >      103 </v>
  <v type="int" >      112 </v>
  <v type="int" >       24 </v>
  <v type="int" >      283 </v>
  <v type="int" >      127 </v>
  <v type="int" >      261 </v>
  <v type="int" >      139 </v>
  <v type="int" >      288 </v>
  <v type="int" >      168 </v>
  <v type="int" >      137 </v>
  <v type="int" >      118 </v>
  <v type="int" >      265 </v>
  <v type="int" >       58 </v>
  <v type="int" >      275 </v>
  <v type="int" >       81 </v>
  <v type="int" >      221 </v>
  <v type="int" >      214 </v>
  <v type="int" >      135 </v>
  <v type="int" >      215 </v>
  <v type="int" >       72 </v>
  <v type="int" >       98 </v>
  <v type="int" >      226 </v>
  <v type="int" >       28 </v>
  <v type="int" >      178 </v>
  <v type="int" >      109 </v>
  <v type="int" >      263 </v>
  <v type="int" >      220 </v>
  <v type="int" >      159 </v>
  <v type="int" >      242 </v>
  <v type="int" >      130 </v>
  <v type="int" >      210 </v>
  <v type="int" >      101 </v>
  <v type="int" >      171 </v>
  <v type="int" >      258 </v>
  <v type="int" >      194 </v>
  <v type="int" >       47 </v>
  <v type="int" >      216 </v>
  <v type="int" >       86 </v>
  <v type="int" >      207 </v>
  <v type="int" >      208 </v>
  <v type="int" >      172 </v>
  <v type="int" >       73 </v>
  <v type="int" >       25 </v>
  <v type="int" >      116 </v>
  <v type="int" >       12 </v>
  <v type="int" >      219 </v>
  <v type="int" >      206 </v>
  <v type="int" >       48 </v>
  <v type="int" >      282 </v>
  <v type="int" >      164 </v>
  <v type="int" >      268 </v>
  <v type="int" >      281 </v>
  <v type="int" >       14 </v>
  <v type="int" >      245 </v>
  <v type="int" >      120 </v>
  <v type="int" >      280 </v>
  <v type="int" >      150 </v>
  <v type="int" >      266 </v>
  <v type="int" >       29 </v>
  <v type="int" >      124 </v>
  <v type="int" >      255 </v>
  <v type="int" >      191 </v>
  <v type="int" >      190 </v>
  <v type="int" >       18 </v>
  <v type="int" >      231 </v>
  <v type="int" >      287 </v>
  <v type="int" >      131 </v>
  <v type="int" >       13 </v>
  <v type="int" >      165 </v>
  <v type="int" >      248 </v>
  <v type="int" >      161 </v>
  <v type="int" >      273 </v>
  <v type="int" >       45 </v>
  <v type="int" >       84 </v>
  <v type="int" >      264 </v>
  <v type="int" >        4 </v>
  <v type="int" >      123 </v>
  <v type="int" >       67 </v>
  <v type="int" >       64 </v>
  <v type="int" >       16 </v>
  <v type="int" >       17 </v>
  <v type="int" >        7 </v>
  <v type="int" >      259 </v>
  <v type="int" >      134 </v>
  <v type="int" >        6 </v>
  <v type="int" >       39 </v>
  <v type="int" >      222 </v>
  <v type="int" >      253 </v>
  <v type="int" >       88 </v>
  <v type="int" >        5 </v>
  <v type="int" >      110 </v>
  <v type="int" >       36 </v>
  <v type="int" >      181 </v>
  <v type="int" >      285 </v>
  <v type="int" >      160 </v>
  <v type="int" >      158 </v>
  <v type="int" >      143 </v>
  <v type="int" >       82 </v>
  <v type="int" >       74 </v>
  <v type="int" >      241 </v>
  <v type="int" >      235 </v>
  <v type="int" >       23 </v>
  <v type="int" >      218 </v>
  <v type="int" >      238 </v>
  <v type="int" >      279 </v>
  <v type="int" >      257 </v>
  <v type="int" >      201 </v>
  <v type="int" >       80 </v>
  <v type="int" >      113 </v>
  <v type="int" >      232 </v>
  <v type="int" >       69 </v>
  <v type="int" >      278 </v>
  <v type="int" >      251 </v>
  <v type="int" >      197 </v>
  <v type="int" >        3 </v>
  <v type="int" >      149 </v>
  <v type="int" >      224 </v>
  <v type="int" >       55 </v>
  <v type="int" >      254 </v>
  <v type="int" >       49 </v>
  <v type="int" >      272 </v>
  <v type="int" >      132 </v>
  <v type="int" >      138 </v>
  <v type="int" >      188 </v>
  <v type="int" >       57 </v>
  <v type="int" >      184 </v>
  <v type="int" >       33 </v>
  <v type="int" >       66 </v>
  <v type="int" >      236 </v>
  <v type="int" >       94 </v>
  <v type="int" >      223 </v>
  <v type="int" >      106 </v>
  <v type="int" >      157 </v>
  <v type="int" >       21 </v>
  <v type="int" >      230 </v>
  <v type="int" >      234 </v>
  <v type="int" >       99 </v>
  <v type="int" >       75 </v>
  <v type="int" >      105 </v>
  <v type="int" >      269 </v>
  <v type="int" >      244 </v>
  <v type="int" >      237 </v>
  <v type="int" >      199 </v>
  <v type="int" >      156 </v>
  <v type="int" >      169 </v>
  <v type="int" >        9 </v>
  <v type="int" >       46 </v>
  <v type="int" >      262 </v>
  <v type="int" >      151 </v>
  <v type="int" >      187 </v>
  <v type="int" >       11 </v>
  <v type="int" >      239 </v>
  <v type="int" >      211 </v>
  <v type="int" >       43 </v>
  <v type="int" >       31 </v>
  <v type="int" >       19 </v>
  <v type="int" >       71 </v>
  <v type="int" >       87 </v>
  <v type="int" >      243 </v>
  <v type="int" >      267 </v>
  <v type="int" >       27 </v>
  <v type="int" >      140 </v>
  <v type="int" >      286 </v>
  <v type="int" >       10 </v>
  <v type="int" >      144 </v>
  <v type="int" >      107 </v>
  <v type="int" >      270 </v>
  <v type="int" >      203 </v>
  <v type="int" >       68 </v>
  <v type="int" >       34 </v>
  <v type="int" >      119 </v>
  <v type="int" >      183 </v>
  <v type="int" >      177 </v>
  <v type="int" >      195 </v>
  <v type="int" >      252 </v>
  <v type="int" >       77 </v>
  <v type="int" >      247 </v>
  <v type="int" >      173 </v>
  <v type="int" >      225 </v>
  <v type="int" >       37 </v>
  <v type="int" >      274 </v>
  <v type="int" >       63 </v>
  <v type="int" >      233 </v>
  <v type="int" >      154 </v>
  <v type="int" >      141 </v>
  <v type="int" >       38 </v>
  <v type="int" >       54 </v>
  <v type="int" >      246 </v>
  <v type="int" >      152 </v>
  <v type="int" >       53 </v>
  <v type="int" >      193 </v>
  <v type="int" >       76 </v>
  <v type="int" >      133 </v>
  <v type="int" >      129 </v>
  <v type="int" >      162 </v>
  <v type="int" >       62 </v>
  <v type="int" >       65 </v>
  <v type="int" >      271 </v>
  <v type="int" >       93 </v>
  <v type="int" >       90 </v>
  <v type="int" >       32 </v>
  <v type="int" >       56 </v>
  <v type="int" >       95 </v>
  <v type="int" >       59 </v>
  <v type="int" >       42 </v>
  <v type="int" >        8 </v>
  <v type="int" >      228 </v>
  <v type="int" >       70 </v>
  <v type="int" >      186 </v>
  <v type="int" >      196 </v>
  <v type="int" >      121 </v>
  <v type="int" >      122 </v>
  <v type="int" >       79 </v>
  <v type="int" >        2 </v>
  <v type="int" >      198 </v>
  <v type="int" >      153 </v>
  <v type="int" >      240 </v>
  <v type="int" >      209 </v>
  <v type="int" >       35 </v>
  <v type="int" >      204 </v>
  <v type="int" >       85 </v>
  <v type="int" >      227 </v>
  <v type="int" >       89 </v>
  <v type="int" >       40 </v>
  <v type="int" >       78 </v>
  <v type="int" >      142 </v>
  <v type="int" >       15 </v>
  <v type="int" >      136 </v>
  <v type="int" >      148 </v>
  <v type="int" >      217 </v>
  <v type="int" >      100 </v>
  <v type="int" >       61 </v>
  <v type="int" >      126 </v>
  <v type="int" >       96 </v>
  <v type="int" >      180 </v>
  <v type="int" >      115 </v>
  <v type="int" >      147 </v>
  <v type="int" >       41 </v>
  <v type="int" >       22 </v>
  <v type="int" >      260 </v>
  <v type="int" >      128 </v>
 </varray>
 <kpoints>
  <generation param="Gamma">
   <v type="int" name="divisions">       4        4        1 </v>
   <v name="usershift">      0.00000000       0.00000000       0.00000000 </v>
   <v name="genvec1">      0.25000000       0.00000000       0.00000000 </v>
   <v name="genvec2">      0.00000000       0.25000000       0.00000000 </v>
   <v name="genvec3">      0.00000000       0.00000000       1.00000000 </v>
   <v name="shift">      0.00000000       0.00000000       0.00000000 </v>
  </generation>
  <varray name="kpointlist" >
   <v>       0.00000000       0.00000000       0.00000000 </v>
   <v>       0.25000000       0.00000000       0.00000000 </v>
   <v>       0.50000000       0.00000000       0.00000000 </v>
   <v>       0.00000000       0.25000000       0.00000000 </v>
   <v>       0.25000000       0.25000000       0.00000000 </v>
   <v>       0.50000000       0.25000000       0.00000000 </v>
   <v>      -0.25000000       0.25000000       0.00000000 </v>
   <v>       0.00000000       0.50000000       0.00000000 </v>
   <v>       0.25000000       0.50000000       0.00000000 </v>
   <v>       0.50000000       0.50000000       0.00000000 </v>
  </varray>
  <varray name="weights" >
   <v>       0.06250000 </v>
   <v>       0.12500000 </v>
   <v>       0.06250000 </v>
   <v>       0.12500000 </v>
   <v>       0.12500000 </v>
   <v>       0.12500000 </v>
   <v>       0.12500000 </v>
   <v>       0.06250000 </v>
   <v>       0.12500000 </v>
   <v>       0.06250000 </v>
  </varray>
 </kpoints>
 <parameters>
  <separator name="general" >
   <i type="string" name="SYSTEM">unknown system</i>
   <i type="logical" name="LCOMPAT"> F  </i>
  </separator>
  <separator name="electronic" >
   <i type="string" name="PREC">accura</i>
   <i name="ENMAX">    450.00000000</i>
   <i name="ENAUG">    838.43500000</i>
   <i name="EDIFF">      0.00000100</i>
   <i type="int" name="IALGO">    68</i>
   <i type="int" name="IWAVPR">    11</i>
   <i type="int" name="NBANDS">  1386</i>
   <i name="NELECT">   2290.00000000</i>
   <i type="int" name="TURBO">     0</i>
   <i type="int" name="IRESTART">     0</i>
   <i type="int" name="NREBOOT">     0</i>
   <i type="int" name="NMIN">     0</i>
   <i name="EREF">      0.00000000</i>
   <separator name="electronic smearing" >
    <i type="int" name="ISMEAR">     0</i>
    <i name="SIGMA">      0.15000000</i>
    <i name="KSPACING">      0.50000000</i>
    <i type="logical" name="KGAMMA"> T  </i>
   </separator>
   <separator name="electronic projectors" >
    <i type="logical" name="LREAL"> T  </i>
    <v name="ROPT">     -0.00025000     -0.00025000</v>
    <i type="int" name="LMAXPAW">  -100</i>
    <i type="int" name="LMAXMIX">     2</i>
    <i type="logical" name="NLSPLINE"> F  </i>
   </separator>
   <separator name="electronic startup" >
    <i type="int" name="ISTART">     0</i>
    <i type="int" name="ICHARG">     2</i>
    <i type="int" name="INIWAV">     1</i>
   </separator>
   <separator name="electronic spin" >
    <i type="int" name="ISPIN">     1</i>
    <i type="logical" name="LNONCOLLINEAR"> F  </i>
    <v name="MAGMOM">      1.00000000      1.00000000      1.00000000      1.00000000      1.00000000      1.00000000      1.00000000      1.00000000      1.00000000      1.00000000      1.00000000      1.00000000      1.00000000      1.00000000      1.00000000      1.00000000      1.00000000      1.00000000      1.00000000      1.00000000
      1.00000000      1.00000000      1.00000000      1.00000000      1.00000000      1.00000000      1.00000000      1.00000000      1.00000000      1.00000000      1.00000000      1.00000000      1.00000000      1.00000000      1.00000000      1.00000000      1.00000000      1.00000000      1.00000000      1.00000000
      1.00000000      1.00000000      1.00000000      1.00000000      1.00000000      1.00000000      1.00000000      1.00000000      1.00000000      1.00000000      1.00000000      1.00000000      1.00000000      1.00000000      1.00000000      1.00000000      1.00000000      1.00000000      1.00000000      1.00000000
      1.00000000      1.00000000      1.00000000      1.00000000      1.00000000      1.00000000      1.00000000      1.00000000      1.00000000      1.00000000      1.00000000      1.00000000      1.00000000      1.00000000      1.00000000      1.00000000      1.00000000      1.00000000      1.00000000      1.00000000
      1.00000000      1.00000000      1.00000000      1.00000000      1.00000000      1.00000000      1.00000000      1.00000000      1.00000000      1.00000000      1.00000000      1.00000000      1.00000000      1.00000000      1.00000000      1.00000000      1.00000000      1.00000000      1.00000000      1.00000000
      1.00000000      1.00000000      1.00000000      1.00000000      1.00000000      1.00000000      1.00000000      1.00000000      1.00000000      1.00000000      1.00000000      1.00000000      1.00000000      1.00000000      1.00000000      1.00000000      1.00000000      1.00000000      1.00000000      1.00000000
      1.00000000      1.00000000      1.00000000      1.00000000      1.00000000      1.00000000      1.00000000      1.00000000      1.00000000      1.00000000      1.00000000      1.00000000      1.00000000      1.00000000      1.00000000      1.00000000      1.00000000      1.00000000      1.00000000      1.00000000
      1.00000000      1.00000000      1.00000000      1.00000000      1.00000000      1.00000000      1.00000000      1.00000000      1.00000000      1.00000000      1.00000000      1.00000000      1.00000000      1.00000000      1.00000000      1.00000000      1.00000000      1.00000000      1.00000000      1.00000000
      1.00000000      1.00000000      1.00000000      1.00000000      1.00000000      1.00000000      1.00000000      1.00000000      1.00000000      1.00000000      1.00000000      1.00000000      1.00000000      1.00000000      1.00000000      1.00000000      1.00000000      1.00000000      1.00000000      1.00000000
      1.00000000      1.00000000      1.00000000      1.00000000      1.00000000      1.00000000      1.00000000      1.00000000      1.00000000      1.00000000      1.00000000      1.00000000      1.00000000      1.00000000      1.00000000      1.00000000      1.00000000      1.00000000      1.00000000      1.00000000
      1.00000000      1.00000000      1.00000000      1.00000000      1.00000000      1.00000000      1.00000000      1.00000000      1.00000000      1.00000000      1.00000000      1.00000000      1.00000000      1.00000000      1.00000000      1.00000000      1.00000000      1.00000000      1.00000000      1.00000000
      1.00000000      1.00000000      1.00000000      1.00000000      1.00000000      1.00000000      1.00000000      1.00000000      1.00000000      1.00000000      1.00000000      1.00000000      1.00000000      1.00000000      1.00000000      1.00000000      1.00000000      1.00000000      1.00000000      1.00000000
      1.00000000      1.00000000      1.00000000      1.00000000      1.00000000      1.00000000      1.00000000      1.00000000      1.00000000      1.00000000      1.00000000      1.00000000      1.00000000      1.00000000      1.00000000      1.00000000      1.00000000      1.00000000      1.00000000      1.00000000
      1.00000000      1.00000000      1.00000000      1.00000000      1.00000000      1.00000000      1.00000000      1.00000000      1.00000000      1.00000000      1.00000000      1.00000000      1.00000000      1.00000000      1.00000000      1.00000000      1.00000000      1.00000000      1.00000000      1.00000000
      1.00000000      1.00000000      1.00000000      1.00000000      1.00000000      1.00000000      1.00000000      1.00000000</v>
    <i name="NUPDOWN">     -1.00000000</i>
    <i type="logical" name="LSORBIT"> F  </i>
    <v name="SAXIS">      0.00000000      0.00000000      1.00000000</v>
    <i type="logical" name="LSPIRAL"> F  </i>
    <v name="QSPIRAL">      0.00000000      0.00000000      0.00000000</v>
    <i type="logical" name="LZEROZ"> F  </i>
   </separator>
   <separator name="electronic exchange-correlation" >
    <i type="logical" name="LASPH"> F  </i>
    <i type="logical" name="LMETAGGA"> F  </i>
   </separator>
   <separator name="electronic convergence" >
    <i type="int" name="NELM">   100</i>
    <i type="int" name="NELMDL">     0</i>
    <i type="int" name="NELMIN">     4</i>
    <i name="ENINI">    450.00000000</i>
    <separator name="electronic convergence detail" >
     <i type="logical" name="LDIAG"> T  </i>
     <i type="logical" name="LSUBROT"> F  </i>
     <i name="WEIMIN">      0.00100000</i>
     <i name="EBREAK">      0.00000000</i>
     <i name="DEPER">      0.30000000</i>
     <i type="int" name="NRMM">     4</i>
     <i name="TIME">      0.40000000</i>
    </separator>
   </separator>
   <separator name="electronic mixer" >
    <i name="AMIX">      0.40000000</i>
    <i name="BMIX">      1.00000000</i>
    <i name="AMIN">      0.10000000</i>
    <i name="AMIX_MAG">      1.60000000</i>
    <i name="BMIX_MAG">      1.00000000</i>
    <separator name="electronic mixer details" >
     <i type="int" name="IMIX">     4</i>
     <i type="logical" name="MIXFIRST"> F  </i>
     <i type="int" name="MAXMIX">   -45</i>
     <i name="WC">    100.00000000</i>
     <i type="int" name="INIMIX">     1</i>
     <i type="int" name="MIXPRE">     1</i>
     <i type="int" name="MREMOVE">     5</i>
    </separator>
   </separator>
   <separator name="electronic dipolcorrection" >
    <i type="logical" name="LDIPOL"> F  </i>
    <i type="logical" name="LMONO"> F  </i>
    <i type="int" name="IDIPOL">     0</i>
    <i name="EPSILON">      1.00000000</i>
    <v name="DIPOL">   -100.00000000   -100.00000000   -100.00000000</v>
    <i name="EFIELD">      0.00000000</i>
   </separator>
  </separator>
  <separator name="grids" >
   <i type="int" name="NGX">    70</i>
   <i type="int" name="NGY">    60</i>
   <i type="int" name="NGZ">   320</i>
   <i type="int" name="NGXF">   140</i>
   <i type="int" name="NGYF">   120</i>
   <i type="int" name="NGZF">   640</i>
   <i type="logical" name="ADDGRID"> F  </i>
  </separator>
  <separator name="ionic" >
   <i type="int" name="NSW">     5</i>
   <i type="int" name="IBRION">     2</i>
   <i type="int" name="MDALGO">     0</i>
   <i type="int" name="ISIF">     2</i>
   <i name="PSTRESS">      0.00000000</i>
   <i name="EDIFFG">      0.00001000</i>
   <i type="int" name="NFREE">     1</i>
   <i name="POTIM">      0.25000000</i>
   <i name="SMASS">     -3.00000000</i>
   <i name="SCALEE">      1.00000000</i>
  </separator>
  <separator name="ionic md" >
   <i name="TEBEG">      0.00010000</i>
   <i name="TEEND">      0.00010000</i>
   <i type="int" name="NBLOCK">     1</i>
   <i type="int" name="KBLOCK">     5</i>
   <i type="int" name="NPACO">   256</i>
   <i name="APACO">     16.00000000</i>
  </separator>
  <separator name="symmetry" >
   <i type="int" name="ISYM">     2</i>
   <i name="SYMPREC">      0.00001000</i>
  </separator>
  <separator name="dos" >
   <i type="int" name="LORBIT">     0</i>
   <v name="RWIGS">     -1.00000000     -1.00000000</v>
   <i type="int" name="NEDOS">   301</i>
   <i name="EMIN">     10.00000000</i>
   <i name="EMAX">    -10.00000000</i>
   <i name="EFERMI">      0.00000000</i>
  </separator>
  <separator name="writing" >
   <i type="int" name="NWRITE">     2</i>
   <i type="logical" name="LWAVE"> F  </i>
   <i type="logical" name="LDOWNSAMPLE"> F  </i>
   <i type="logical" name="LCHARG"> F  </i>
   <i type="logical" name="LPARD"> F  </i>
   <i type="logical" name="LVTOT"> F  </i>
   <i type="logical" name="LVHAR"> F  </i>
   <i type="logical" name="LELF"> F  </i>
   <i type="logical" name="LOPTICS"> F  </i>
   <v name="STM">      0.00000000      0.00000000      0.00000000      0.00000000      0.00000000      0.00000000      0.00000000</v>
  </separator>
  <separator name="performance" >
   <i type="int" name="NPAR">    14</i>
   <i type="int" name="NSIM">     4</i>
   <i type="int" name="NBLK">    -1</i>
   <i type="logical" name="LPLANE"> T  </i>
   <i type="logical" name="LSCALAPACK"> T  </i>
   <i type="logical" name="LSCAAWARE"> T  </i>
   <i type="logical" name="LSCALU"> F  </i>
   <i type="logical" name="LASYNC"> F  </i>
   <i type="logical" name="LORBITALREAL"> F  </i>
  </separator>
  <separator name="miscellaneous" >
   <i type="int" name="IDIOT">     3</i>
   <i type="int" name="ISPECIAL">     0</i>
   <i type="logical" name="LMUSIC"> F  </i>
   <v name="POMASS">     55.84700000     54.93800000</v>
   <v name="DARWINR">      0.00000000      0.00000000</v>
   <v name="DARWINV">      1.00000000      1.00000000</v>
   <i type="logical" name="LCORR"> T  </i>
  </separator>
  <i type="logical" name="GGA_COMPAT"> T  </i>
  <i type="logical" name="LBERRY"> F  </i>
  <i type="int" name="ICORELEVEL">     0</i>
  <i type="logical" name="LDAU"> F  </i>
  <i type="int" name="I_CONSTRAINED_M">     0</i>
  <separator name="electronic exchange-correlation" >
   <i type="string" name="GGA">--</i>
   <i type="int" name="VOSKOWN">     0</i>
   <i type="logical" name="LHFCALC"> F  </i>
   <i type="string" name="PRECFOCK"></i>
   <i type="logical" name="LSYMGRAD"> F  </i>
   <i type="logical" name="LHFONE"> F  </i>
   <i type="logical" name="LRHFCALC"> F  </i>
   <i type="logical" name="LTHOMAS"> F  </i>
   <i type="logical" name="LMODELHF"> F  </i>
   <i name="ENCUT4O">     -1.00000000</i>
   <i type="int" name="EXXOEP">     0</i>
   <i type="int" name="FOURORBIT">     0</i>
   <i name="AEXX">      0.00000000</i>
   <i name="HFALPHA">      0.00000000</i>
   <i name="MCALPHA">      0.00000000</i>
   <i name="ALDAX">      1.00000000</i>
   <i name="AGGAX">      1.00000000</i>
   <i name="ALDAC">      1.00000000</i>
   <i name="AGGAC">      1.00000000</i>
   <i type="int" name="NKREDX">     1</i>
   <i type="int" name="NKREDY">     1</i>
   <i type="int" name="NKREDZ">     1</i>
   <i type="logical" name="SHIFTRED"> F  </i>
   <i type="logical" name="ODDONLY"> F  </i>
   <i type="logical" name="EVENONLY"> F  </i>
   <i type="int" name="LMAXFOCK">     0</i>
   <i type="int" name="NMAXFOCKAE">     0</i>
   <i type="logical" name="LFOCKAEDFT"> F  </i>
   <i name="HFSCREEN">      0.00000000</i>
   <i name="HFSCREENC">      0.00000000</i>
   <i type="int" name="NBANDSGWLOW">     0</i>
  </separator>
  <separator name="vdW DFT" >
   <i type="logical" name="LUSE_VDW"> F  </i>
   <i name="Zab_VDW">     -0.84910000</i>
   <i name="PARAM1">      0.12340000</i>
   <i name="PARAM2">      1.00000000</i>
   <i name="PARAM3">      0.00000000</i>
  </separator>
  <separator name="model GW" >
   <i type="int" name="MODEL_GW">     0</i>
   <i name="MODEL_EPS0">      7.68123389</i>
   <i name="MODEL_ALPHA">      1.00000000</i>
  </separator>
  <separator name="linear response parameters" >
   <i type="logical" name="LEPSILON"> F  </i>
   <i type="logical" name="LRPA"> F  </i>
   <i type="logical" name="LNABLA"> F  </i>
   <i type="logical" name="LVEL"> F  </i>
   <i type="int" name="KINTER">     0</i>
   <i name="CSHIFT">      0.10000000</i>
   <i name="OMEGAMAX">     -1.00000000</i>
   <i name="DEG_THRESHOLD">      0.00200000</i>
   <i name="RTIME">     -0.10000000</i>
   <i name="WPLASMAI">      0.00000000</i>
   <v name="DFIELD">      0.00000000      0.00000000      0.00000000</v>
   <v name="WPLASMA">      0.00000000      0.00000000      0.00000000      0.00000000      0.00000000      0.00000000      0.00000000      0.00000000      0.00000000</v>
  </separator>
  <separator name="orbital magnetization" >
   <i type="logical" name="NUCIND"> F  </i>
   <v name="MAGPOS">      0.00000000      0.00000000      0.00000000</v>
   <i type="logical" name="LNICSALL"> T  </i>
   <i type="logical" name="ORBITALMAG"> F  </i>
   <i type="logical" name="LMAGBLOCH"> F  </i>
   <i type="logical" name="LCHIMAG"> F  </i>
   <i type="logical" name="LGAUGE"> T  </i>
   <i type="int" name="MAGATOM">     0</i>
   <v name="MAGDIPOL">      0.00000000      0.00000000      0.00000000</v>
   <v name="AVECCONST">      0.00000000      0.00000000      0.00000000</v>
  </separator>
  <separator name="response functions" >
   <i type="logical" name="LADDER"> F  </i>
   <i type="logical" name="LRPAFORCE"> F  </i>
   <i type="logical" name="LFXC"> F  </i>
   <i type="logical" name="LHARTREE"> T  </i>
   <i type="int" name="IBSE">     0</i>
   <v type="int" name="KPOINT">    -1     0     0     0</v>
   <i type="logical" name="LTCTE"> F  </i>
   <i type="logical" name="LTETE"> F  </i>
   <i type="logical" name="LTRIPLET"> F  </i>
   <i type="logical" name="LFXCEPS"> F  </i>
   <i type="logical" name="LFXHEG"> F  </i>
   <i type="int" name="NATURALO">     2</i>
   <i type="logical" name="L2ORDER"> F  </i>
   <i type="logical" name="LMP2LT"> F  </i>
   <i type="logical" name="LUSEW"> F  </i>
   <i name="ENCUTGW">     -2.00000000</i>
   <i name="ENCUTGWSOFT">     -2.00000000</i>
   <i name="ENCUTLF">     -1.00000000</i>
   <i type="int" name="LMAXMP2">    -1</i>
   <i name="SCISSOR">      0.00000000</i>
   <i type="int" name="NOMEGA">     0</i>
   <i type="int" name="NOMEGAR">     0</i>
   <i type="int" name="NBANDSGW">    -1</i>
   <i type="int" name="NBANDSO">    -1</i>
   <i type="int" name="NBANDSV">    -1</i>
   <i type="int" name="NELM">   100</i>
   <i type="int" name="NELMHF">     1</i>
   <i type="int" name="DIM">     3</i>
   <i type="int" name="ANTIRES">     0</i>
   <i name="OMEGAMAX">    -30.00000000</i>
   <i name="OMEGAMIN">    -30.00000000</i>
   <i name="OMEGATL">   -200.00000000</i>
   <i type="int" name="OMEGAGRID">   140</i>
   <i name="CSHIFT">     -0.10000000</i>
   <i type="logical" name="SELFENERGY"> F  </i>
   <i type="logical" name="LSPECTRAL"> F  </i>
   <i type="logical" name="LSPECTRALGW"> F  </i>
   <i type="logical" name="LSINGLES"> F  </i>
   <i type="logical" name="LFERMIGW"> F  </i>
   <i type="logical" name="ODDONLYGW"> F  </i>
   <i type="logical" name="EVENONLYGW"> F  </i>
   <i type="int" name="NKREDLFX">     1</i>
   <i type="int" name="NKREDLFY">     1</i>
   <i type="int" name="NKREDLFZ">     1</i>
   <i type="int" name="MAXMEM">  2800</i>
   <i type="int" name="TELESCOPE">     0</i>
   <i type="int" name="TAUPAR">     1</i>
   <i type="int" name="OMEGAPAR">    -1</i>
   <i name="LAMBDA">      1.00000000</i>
  </separator>
  <separator name="External order field" >
   <i name="OFIELD_KAPPA">      0.00000000</i>
   <v name="OFIELD_K">      0.00000000      0.00000000      0.00000000</v>
   <i name="OFIELD_Q6_NEAR">      0.00000000</i>
   <i name="OFIELD_Q6_FAR">      0.00000000</i>
   <i name="OFIELD_A">      0.00000000</i>
  </separator>
 </parameters>
 <atominfo>
  <atoms>     288 </atoms>
  <types>       2 </types>
  <array name="atoms" >
   <dimension dim="1">ion</dimension>
   <field type="string">element</field>
   <field type="int">atomtype</field>
   <set>
    <rc><c>Fe</c><c>   1</c></rc>
    <rc><c>Fe</c><c>   1</c></rc>
    <rc><c>Fe</c><c>   1</c></rc>
    <rc><c>Fe</c><c>   1</c></rc>
    <rc><c>Fe</c><c>   1</c></rc>
    <rc><c>Fe</c><c>   1</c></rc>
    <rc><c>Fe</c><c>   1</c></rc>
    <rc><c>Fe</c><c>   1</c></rc>
    <rc><c>Fe</c><c>   1</c></rc>
    <rc><c>Fe</c><c>   1</c></rc>
    <rc><c>Fe</c><c>   1</c></rc>
    <rc><c>Fe</c><c>   1</c></rc>
    <rc><c>Fe</c><c>   1</c></rc>
    <rc><c>Fe</c><c>   1</c></rc>
    <rc><c>Fe</c><c>   1</c></rc>
    <rc><c>Fe</c><c>   1</c></rc>
    <rc><c>Fe</c><c>   1</c></rc>
    <rc><c>Fe</c><c>   1</c></rc>
    <rc><c>Fe</c><c>   1</c></rc>
    <rc><c>Fe</c><c>   1</c></rc>
    <rc><c>Fe</c><c>   1</c></rc>
    <rc><c>Fe</c><c>   1</c></rc>
    <rc><c>Fe</c><c>   1</c></rc>
    <rc><c>Fe</c><c>   1</c></rc>
    <rc><c>Fe</c><c>   1</c></rc>
    <rc><c>Fe</c><c>   1</c></rc>
    <rc><c>Fe</c><c>   1</c></rc>
    <rc><c>Fe</c><c>   1</c></rc>
    <rc><c>Fe</c><c>   1</c></rc>
    <rc><c>Fe</c><c>   1</c></rc>
    <rc><c>Fe</c><c>   1</c></rc>
    <rc><c>Fe</c><c>   1</c></rc>
    <rc><c>Fe</c><c>   1</c></rc>
    <rc><c>Fe</c><c>   1</c></rc>
    <rc><c>Fe</c><c>   1</c></rc>
    <rc><c>Fe</c><c>   1</c></rc>
    <rc><c>Fe</c><c>   1</c></rc>
    <rc><c>Fe</c><c>   1</c></rc>
    <rc><c>Fe</c><c>   1</c></rc>
    <rc><c>Fe</c><c>   1</c></rc>
    <rc><c>Fe</c><c>   1</c></rc>
    <rc><c>Fe</c><c>   1</c></rc>
    <rc><c>Fe</c><c>   1</c></rc>
    <rc><c>Fe</c><c>   1</c></rc>
    <rc><c>Fe</c><c>   1</c></rc>
    <rc><c>Fe</c><c>   1</c></rc>
    <rc><c>Fe</c><c>   1</c></rc>
    <rc><c>Fe</c><c>   1</c></rc>
    <rc><c>Fe</c><c>   1</c></rc>
    <rc><c>Fe</c><c>   1</c></rc>
    <rc><c>Fe</c><c>   1</c></rc>
    <rc><c>Fe</c><c>   1</c></rc>
    <rc><c>Fe</c><c>   1</c></rc>
    <rc><c>Fe</c><c>   1</c></rc>
    <rc><c>Fe</c><c>   1</c></rc>
    <rc><c>Fe</c><c>   1</c></rc>
    <rc><c>Fe</c><c>   1</c></rc>
    <rc><c>Fe</c><c>   1</c></rc>
    <rc><c>Fe</c><c>   1</c></rc>
    <rc><c>Fe</c><c>   1</c></rc>
    <rc><c>Fe</c><c>   1</c></rc>
    <rc><c>Fe</c><c>   1</c></rc>
    <rc><c>Fe</c><c>   1</c></rc>
    <rc><c>Fe</c><c>   1</c></rc>
    <rc><c>Fe</c><c>   1</c></rc>
    <rc><c>Fe</c><c>   1</c></rc>
    <rc><c>Fe</c><c>   1</c></rc>
    <rc><c>Fe</c><c>   1</c></rc>
    <rc><c>Fe</c><c>   1</c></rc>
    <rc><c>Fe</c><c>   1</c></rc>
    <rc><c>Fe</c><c>   1</c></rc>
    <rc><c>Fe</c><c>   1</c></rc>
    <rc><c>Fe</c><c>   1</c></rc>
    <rc><c>Fe</c><c>   1</c></rc>
    <rc><c>Fe</c><c>   1</c></rc>
    <rc><c>Fe</c><c>   1</c></rc>
    <rc><c>Fe</c><c>   1</c></rc>
    <rc><c>Fe</c><c>   1</c></rc>
    <rc><c>Fe</c><c>   1</c></rc>
    <rc><c>Fe</c><c>   1</c></rc>
    <rc><c>Fe</c><c>   1</c></rc>
    <rc><c>Fe</c><c>   1</c></rc>
    <rc><c>Fe</c><c>   1</c></rc>
    <rc><c>Fe</c><c>   1</c></rc>
    <rc><c>Fe</c><c>   1</c></rc>
    <rc><c>Fe</c><c>   1</c></rc>
    <rc><c>Fe</c><c>   1</c></rc>
    <rc><c>Fe</c><c>   1</c></rc>
    <rc><c>Fe</c><c>   1</c></rc>
    <rc><c>Fe</c><c>   1</c></rc>
    <rc><c>Fe</c><c>   1</c></rc>
    <rc><c>Fe</c><c>   1</c></rc>
    <rc><c>Fe</c><c>   1</c></rc>
    <rc><c>Fe</c><c>   1</c></rc>
    <rc><c>Fe</c><c>   1</c></rc>
    <rc><c>Fe</c><c>   1</c></rc>
    <rc><c>Fe</c><c>   1</c></rc>
    <rc><c>Fe</c><c>   1</c></rc>
    <rc><c>Fe</c><c>   1</c></rc>
    <rc><c>Fe</c><c>   1</c></rc>
    <rc><c>Fe</c><c>   1</c></rc>
    <rc><c>Fe</c><c>   1</c></rc>
    <rc><c>Fe</c><c>   1</c></rc>
    <rc><c>Fe</c><c>   1</c></rc>
    <rc><c>Fe</c><c>   1</c></rc>
    <rc><c>Fe</c><c>   1</c></rc>
    <rc><c>Fe</c><c>   1</c></rc>
    <rc><c>Fe</c><c>   1</c></rc>
    <rc><c>Fe</c><c>   1</c></rc>
    <rc><c>Fe</c><c>   1</c></rc>
    <rc><c>Fe</c><c>   1</c></rc>
    <rc><c>Fe</c><c>   1</c></rc>
    <rc><c>Fe</c><c>   1</c></rc>
    <rc><c>Fe</c><c>   1</c></rc>
    <rc><c>Fe</c><c>   1</c></rc>
    <rc><c>Fe</c><c>   1</c></rc>
    <rc><c>Fe</c><c>   1</c></rc>
    <rc><c>Fe</c><c>   1</c></rc>
    <rc><c>Fe</c><c>   1</c></rc>
    <rc><c>Fe</c><c>   1</c></rc>
    <rc><c>Fe</c><c>   1</c></rc>
    <rc><c>Fe</c><c>   1</c></rc>
    <rc><c>Fe</c><c>   1</c></rc>
    <rc><c>Fe</c><c>   1</c></rc>
    <rc><c>Fe</c><c>   1</c></rc>
    <rc><c>Fe</c><c>   1</c></rc>
    <rc><c>Fe</c><c>   1</c></rc>
    <rc><c>Fe</c><c>   1</c></rc>
    <rc><c>Fe</c><c>   1</c></rc>
    <rc><c>Fe</c><c>   1</c></rc>
    <rc><c>Fe</c><c>   1</c></rc>
    <rc><c>Fe</c><c>   1</c></rc>
    <rc><c>Fe</c><c>   1</c></rc>
    <rc><c>Fe</c><c>   1</c></rc>
    <rc><c>Fe</c><c>   1</c></rc>
    <rc><c>Fe</c><c>   1</c></rc>
    <rc><c>Fe</c><c>   1</c></rc>
    <rc><c>Fe</c><c>   1</c></rc>
    <rc><c>Fe</c><c>   1</c></rc>
    <rc><c>Fe</c><c>   1</c></rc>
    <rc><c>Fe</c><c>   1</c></rc>
    <rc><c>Fe</c><c>   1</c></rc>
    <rc><c>Fe</c><c>   1</c></rc>
    <rc><c>Fe</c><c>   1</c></rc>
    <rc><c>Fe</c><c>   1</c></rc>
    <rc><c>Fe</c><c>   1</c></rc>
    <rc><c>Fe</c><c>   1</c></rc>
    <rc><c>Fe</c><c>   1</c></rc>
    <rc><c>Fe</c><c>   1</c></rc>
    <rc><c>Fe</c><c>   1</c></rc>
    <rc><c>Fe</c><c>   1</c></rc>
    <rc><c>Fe</c><c>   1</c></rc>
    <rc><c>Fe</c><c>   1</c></rc>
    <rc><c>Fe</c><c>   1</c></rc>
    <rc><c>Fe</c><c>   1</c></rc>
    <rc><c>Fe</c><c>   1</c></rc>
    <rc><c>Fe</c><c>   1</c></rc>
    <rc><c>Fe</c><c>   1</c></rc>
    <rc><c>Fe</c><c>   1</c></rc>
    <rc><c>Fe</c><c>   1</c></rc>
    <rc><c>Fe</c><c>   1</c></rc>
    <rc><c>Fe</c><c>   1</c></rc>
    <rc><c>Fe</c><c>   1</c></rc>
    <rc><c>Fe</c><c>   1</c></rc>
    <rc><c>Fe</c><c>   1</c></rc>
    <rc><c>Fe</c><c>   1</c></rc>
    <rc><c>Fe</c><c>   1</c></rc>
    <rc><c>Fe</c><c>   1</c></rc>
    <rc><c>Fe</c><c>   1</c></rc>
    <rc><c>Fe</c><c>   1</c></rc>
    <rc><c>Fe</c><c>   1</c></rc>
    <rc><c>Fe</c><c>   1</c></rc>
    <rc><c>Fe</c><c>   1</c></rc>
    <rc><c>Fe</c><c>   1</c></rc>
    <rc><c>Fe</c><c>   1</c></rc>
    <rc><c>Fe</c><c>   1</c></rc>
    <rc><c>Fe</c><c>   1</c></rc>
    <rc><c>Fe</c><c>   1</c></rc>
    <rc><c>Fe</c><c>   1</c></rc>
    <rc><c>Fe</c><c>   1</c></rc>
    <rc><c>Fe</c><c>   1</c></rc>
    <rc><c>Fe</c><c>   1</c></rc>
    <rc><c>Fe</c><c>   1</c></rc>
    <rc><c>Fe</c><c>   1</c></rc>
    <rc><c>Fe</c><c>   1</c></rc>
    <rc><c>Fe</c><c>   1</c></rc>
    <rc><c>Fe</c><c>   1</c></rc>
    <rc><c>Fe</c><c>   1</c></rc>
    <rc><c>Fe</c><c>   1</c></rc>
    <rc><c>Fe</c><c>   1</c></rc>
    <rc><c>Fe</c><c>   1</c></rc>
    <rc><c>Fe</c><c>   1</c></rc>
    <rc><c>Fe</c><c>   1</c></rc>
    <rc><c>Fe</c><c>   1</c></rc>
    <rc><c>Fe</c><c>   1</c></rc>
    <rc><c>Fe</c><c>   1</c></rc>
    <rc><c>Fe</c><c>   1</c></rc>
    <rc><c>Fe</c><c>   1</c></rc>
    <rc><c>Fe</c><c>   1</c></rc>
    <rc><c>Fe</c><c>   1</c></rc>
    <rc><c>Fe</c><c>   1</c></rc>
    <rc><c>Fe</c><c>   1</c></rc>
    <rc><c>Fe</c><c>   1</c></rc>
    <rc><c>Fe</c><c>   1</c></rc>
    <rc><c>Fe</c><c>   1</c></rc>
    <rc><c>Fe</c><c>   1</c></rc>
    <rc><c>Fe</c><c>   1</c></rc>
    <rc><c>Fe</c><c>   1</c></rc>
    <rc><c>Fe</c><c>   1</c></rc>
    <rc><c>Fe</c><c>   1</c></rc>
    <rc><c>Fe</c><c>   1</c></rc>
    <rc><c>Fe</c><c>   1</c></rc>
    <rc><c>Fe</c><c>   1</c></rc>
    <rc><c>Fe</c><c>   1</c></rc>
    <rc><c>Fe</c><c>   1</c></rc>
    <rc><c>Fe</c><c>   1</c></rc>
    <rc><c>Fe</c><c>   1</c></rc>
    <rc><c>Fe</c><c>   1</c></rc>
    <rc><c>Fe</c><c>   1</c></rc>
    <rc><c>Fe</c><c>   1</c></rc>
    <rc><c>Fe</c><c>   1</c></rc>
    <rc><c>Fe</c><c>   1</c></rc>
    <rc><c>Fe</c><c>   1</c></rc>
    <rc><c>Fe</c><c>   1</c></rc>
    <rc><c>Fe</c><c>   1</c></rc>
    <rc><c>Fe</c><c>   1</c></rc>
    <rc><c>Fe</c><c>   1</c></rc>
    <rc><c>Fe</c><c>   1</c></rc>
    <rc><c>Fe</c><c>   1</c></rc>
    <rc><c>Fe</c><c>   1</c></rc>
    <rc><c>Fe</c><c>   1</c></rc>
    <rc><c>Fe</c><c>   1</c></rc>
    <rc><c>Fe</c><c>   1</c></rc>
    <rc><c>Fe</c><c>   1</c></rc>
    <rc><c>Fe</c><c>   1</c></rc>
    <rc><c>Fe</c><c>   1</c></rc>
    <rc><c>Fe</c><c>   1</c></rc>
    <rc><c>Fe</c><c>   1</c></rc>
    <rc><c>Fe</c><c>   1</c></rc>
    <rc><c>Fe</c><c>   1</c></rc>
    <rc><c>Fe</c><c>   1</c></rc>
    <rc><c>Fe</c><c>   1</c></rc>
    <rc><c>Fe</c><c>   1</c></rc>
    <rc><c>Fe</c><c>   1</c></rc>
    <rc><c>Fe</c><c>   1</c></rc>
    <rc><c>Fe</c><c>   1</c></rc>
    <rc><c>Fe</c><c>   1</c></rc>
    <rc><c>Fe</c><c>   1</c></rc>
    <rc><c>Fe</c><c>   1</c></rc>
    <rc><c>Fe</c><c>   1</c></rc>
    <rc><c>Fe</c><c>   1</c></rc>
    <rc><c>Fe</c><c>   1</c></rc>
    <rc><c>Fe</c><c>   1</c></rc>
    <rc><c>Fe</c><c>   1</c></rc>
    <rc><c>Fe</c><c>   1</c></rc>
    <rc><c>Fe</c><c>   1</c></rc>
    <rc><c>Fe</c><c>   1</c></rc>
    <rc><c>Fe</c><c>   1</c></rc>
    <rc><c>Fe</c><c>   1</c></rc>
    <rc><c>Fe</c><c>   1</c></rc>
    <rc><c>Fe</c><c>   1</c></rc>
    <rc><c>Fe</c><c>   1</c></rc>
    <rc><c>Fe</c><c>   1</c></rc>
    <rc><c>Fe</c><c>   1</c></rc>
    <rc><c>Fe</c><c>   1</c></rc>
    <rc><c>Fe</c><c>   1</c></rc>
    <rc><c>Fe</c><c>   1</c></rc>
    <rc><c>Fe</c><c>   1</c></rc>
    <rc><c>Fe</c><c>   1</c></rc>
    <rc><c>Fe</c><c>   1</c></rc>
    <rc><c>Fe</c><c>   1</c></rc>
    <rc><c>Fe</c><c>   1</c></rc>
    <rc><c>Fe</c><c>   1</c></rc>
    <rc><c>Fe</c><c>   1</c></rc>
    <rc><c>Mn</c><c>   2</c></rc>
    <rc><c>Mn</c><c>   2</c></rc>
    <rc><c>Mn</c><c>   2</c></rc>
    <rc><c>Mn</c><c>   2</c></rc>
    <rc><c>Mn</c><c>   2</c></rc>
    <rc><c>Mn</c><c>   2</c></rc>
    <rc><c>Mn</c><c>   2</c></rc>
    <rc><c>Mn</c><c>   2</c></rc>
    <rc><c>Mn</c><c>   2</c></rc>
    <rc><c>Mn</c><c>   2</c></rc>
    <rc><c>Mn</c><c>   2</c></rc>
    <rc><c>Mn</c><c>   2</c></rc>
    <rc><c>Mn</c><c>   2</c></rc>
    <rc><c>Mn</c><c>   2</c></rc>
   </set>
  </array>
  <array name="atomtypes" >
   <dimension dim="1">type</dimension>
   <field type="int">atomspertype</field>
   <field type="string">element</field>
   <field>mass</field>
   <field>valence</field>
   <field type="string">pseudopotential</field>
   <set>
    <rc><c> 274</c><c>Fe</c><c>     55.84700000</c><c>      8.00000000</c><c>  PAW_PBE Fe_GW 31Mar2010               </c></rc>
    <rc><c>  14</c><c>Mn</c><c>     54.93800000</c><c>      7.00000000</c><c>  PAW_PBE Mn_GW 31Mar2010               </c></rc>
   </set>
  </array>
 </atominfo>
 <structure name="initialpos" >
  <crystal>
   <varray name="basis" >
    <v>       9.72667804       0.00000000       0.00000000 </v>
    <v>       0.00000000       8.42355028       0.00000000 </v>
    <v>       0.00000000       0.00000000      45.00000000 </v>
   </varray>
   <i name="volume">   3686.99226691 </i>
   <varray name="rec_basis" >
    <v>       0.10281002       0.00000000       0.00000000 </v>
    <v>       0.00000000       0.11871479       0.00000000 </v>
    <v>       0.00000000       0.00000000       0.02222222 </v>
   </varray>
  </crystal>
  <varray name="positions" >
   <v>       0.06185231       0.02945901       0.12414907 </v>
   <v>       0.31638468       0.87480950       0.65514275 </v>
   <v>       0.18374540       0.12338563       0.78862344 </v>
   <v>       0.44146514       0.28755060       0.38908882 </v>
   <v>       0.31816974       0.71377706       0.83319421 </v>
   <v>       0.81822597       0.21527448       0.83362975 </v>
   <v>       0.19164209       0.96338168       0.83359283 </v>
   <v>       0.56211655       0.20698166       0.56553951 </v>
   <v>       0.06575221       0.04060210       0.74421068 </v>
   <v>       0.81166774       0.87136069       0.52141843 </v>
   <v>       0.19054208       0.29102738       0.74437586 </v>
   <v>       0.93365494       0.45228897       0.34489142 </v>
   <v>       0.94120311       0.28706326       0.38891443 </v>
   <v>       0.81269169       0.04064247       0.87577754 </v>
   <v>       0.18382456       0.78799222       0.61093421 </v>
   <v>       0.56617497       0.03803010       0.38898680 </v>
   <v>       0.94252955       0.96492215       0.83388582 </v>
   <v>       0.31326718       0.54083898       0.87607640 </v>
   <v>       0.69016224       0.29135540       0.74425439 </v>
   <v>       0.18216527       0.61343712       0.16663435 </v>
   <v>       0.81223445       0.20601140       0.47864059 </v>
   <v>       0.80916827       0.53836923       0.61106062 </v>
   <v>       0.31182443       0.87053681       0.43445071 </v>
   <v>       0.80940639       0.03798808       0.25595507 </v>
   <v>       0.68324754       0.95210092       0.34481627 </v>
   <v>       0.93092249       0.11419279       0.16689577 </v>
   <v>       0.06195176       0.87184495       0.52146324 </v>
   <v>       0.55823738       0.53776094       0.25557898 </v>
   <v>       0.68441982       0.79787451       0.87593862 </v>
   <v>       0.55636433       0.36504071       0.16658203 </v>
   <v>       0.43952992       0.79199265       0.74444036 </v>
   <v>       0.81130576       0.70676727       0.56550244 </v>
   <v>       0.55901753       0.87367939       0.78863453 </v>
   <v>       0.68678254       0.12198171       0.52139599 </v>
   <v>       0.81622604       0.37449626       0.65501187 </v>
   <v>       0.94219225       0.46426721       0.83374430 </v>
   <v>       0.06051762       0.20766799       0.69971565 </v>
   <v>       0.43522520       0.95735792       0.69973202 </v>
   <v>       0.31704524       0.21294028       0.83348289 </v>
   <v>       0.44131157       0.62468853       0.65497736 </v>
   <v>       0.30913872       0.53845633       0.61099077 </v>
   <v>       0.93658857       0.45638593       0.56562768 </v>
   <v>       0.68996692       0.79167524       0.74431746 </v>
   <v>       0.93413221       0.78879620       0.12442187 </v>
   <v>       0.69159284       0.78751411       0.38906020 </v>
   <v>       0.94025073       0.79090808       0.74449721 </v>
   <v>       0.05881766       0.20285070       0.34479976 </v>
   <v>       0.68352979       0.45247101       0.34490825 </v>
   <v>       0.43360572       0.12263319       0.78899140 </v>
   <v>       0.06509337       0.20388144       0.21106895 </v>
   <v>       0.05513612       0.36535262       0.16662590 </v>
   <v>       0.93346682       0.78711387       0.25560122 </v>
   <v>       0.56016859       0.20701485       0.69979976 </v>
   <v>       0.68508742       0.95725102       0.69980058 </v>
   <v>       0.80891212       0.87370604       0.78838665 </v>
   <v>       0.43680903       0.95707382       0.56543438 </v>
   <v>       0.80847242       0.37514691       0.78849009 </v>
   <v>       0.68381261       0.28759632       0.25603157 </v>
   <v>       0.18695084       0.45703170       0.56544456 </v>
   <v>       0.05618519       0.86482878       0.16665768 </v>
   <v>       0.18415990       0.28845057       0.61108047 </v>
   <v>       0.06218214       0.20705152       0.56540245 </v>
   <v>       0.31044400       0.20714286       0.69983291 </v>
   <v>       0.56239448       0.54076161       0.87599679 </v>
   <v>       0.06228126       0.70698514       0.56553917 </v>
   <v>       0.68283382       0.62262881       0.78860615 </v>
   <v>       0.31586566       0.53826606       0.38892851 </v>
   <v>       0.18684965       0.62167104       0.52142147 </v>
   <v>       0.56341010       0.87089419       0.43423706 </v>
   <v>       0.43688885       0.45676450       0.56557889 </v>
   <v>       0.43991294       0.29158548       0.74427736 </v>
   <v>       0.82117144       0.87347268       0.30018712 </v>
   <v>       0.80851956       0.70224962       0.34486603 </v>
   <v>       0.44243019       0.46275784       0.83335503 </v>
   <v>       0.68759206       0.95592763       0.47869124 </v>
   <v>       0.68456383       0.45762210       0.69980689 </v>
   <v>       0.56218783       0.87207244       0.52144972 </v>
   <v>       0.56611085       0.37430603       0.65499041 </v>
   <v>       0.81613347       0.87485452       0.65511327 </v>
   <v>       0.81248635       0.37202321       0.43420538 </v>
   <v>       0.80828332       0.53716177       0.25578669 </v>
   <v>       0.69211216       0.46218206       0.83331229 </v>
   <v>       0.18601679       0.78797832       0.12403949 </v>
   <v>       0.69138770       0.28760866       0.38880166 </v>
   <v>       0.31601804       0.37399073       0.65497609 </v>
   <v>       0.30904089       0.20272476       0.34473910 </v>
   <v>       0.81575211       0.54026101       0.74418333 </v>
   <v>       0.69159521       0.96236483       0.83352042 </v>
   <v>       0.56597442       0.87428796       0.65497191 </v>
   <v>       0.31130577       0.70691319       0.56552514 </v>
   <v>       0.31259119       0.52952133       0.12395398 </v>
   <v>       0.68988043       0.95467866       0.21177759 </v>
   <v>       0.31142301       0.20656673       0.56551596 </v>
   <v>       0.18762716       0.95554692       0.47876970 </v>
   <v>       0.68739307       0.95693131       0.56553748 </v>
   <v>       0.43399549       0.78830180       0.61096649 </v>
   <v>       0.68226390       0.61207763       0.16622147 </v>
   <v>       0.31928560       0.87396943       0.30015951 </v>
   <v>       0.31228120       0.70590255       0.47861584 </v>
   <v>       0.93383809       0.28808153       0.61091185 </v>
   <v>       0.44559732       0.62368524       0.30025146 </v>
   <v>       0.80727092       0.86341360       0.16686155 </v>
   <v>       0.56653299       0.20295197       0.21145519 </v>
   <v>       0.93274841       0.61286852       0.16673391 </v>
   <v>       0.43740199       0.95571045       0.47867149 </v>
   <v>       0.55886542       0.37346469       0.78874356 </v>
   <v>       0.06153038       0.37238849       0.52150863 </v>
   <v>       0.30702149       0.36378999       0.16661821 </v>
   <v>       0.69560888       0.12293288       0.30025764 </v>
   <v>       0.44267837       0.96322186       0.83335076 </v>
   <v>       0.18515046       0.28682132       0.12412462 </v>
   <v>       0.18349012       0.28691265       0.25582123 </v>
   <v>       0.31244576       0.37049806       0.43444819 </v>
   <v>       0.56262534       0.03220021       0.12432797 </v>
   <v>       0.43401299       0.28833787       0.61098960 </v>
   <v>       0.18387588       0.45270712       0.34484543 </v>
   <v>       0.43430502       0.28673152       0.12415638 </v>
   <v>       0.68347094       0.78752367       0.25581581 </v>
   <v>       0.43694180       0.12177874       0.52147638 </v>
   <v>       0.18831495       0.29689561       0.87617439 </v>
   <v>       0.19137129       0.12509531       0.65515901 </v>
   <v>       0.94117664       0.12471174       0.65498967 </v>
   <v>       0.81636585       0.53780185       0.38905745 </v>
   <v>       0.06634670       0.03786857       0.38911715 </v>
   <v>       0.18321532       0.11210749       0.16648263 </v>
   <v>       0.05886799       0.53819508       0.61099541 </v>
   <v>       0.93364288       0.28772478       0.25582746 </v>
   <v>       0.55895336       0.53841334       0.61101785 </v>
   <v>       0.93660784       0.95729092       0.56545601 </v>
   <v>       0.69560383       0.62355799       0.30020054 </v>
   <v>       0.81657929       0.03811726       0.38911972 </v>
   <v>       0.93306280       0.62456623       0.78834757 </v>
   <v>       0.56036677       0.70720091       0.69973455 </v>
   <v>       0.06603786       0.71668654       0.83390295 </v>
   <v>       0.94548363       0.12266263       0.30011581 </v>
   <v>       0.93372758       0.78763772       0.61091404 </v>
   <v>       0.43362026       0.78738518       0.25565720 </v>
   <v>       0.30872154       0.37397669       0.78880305 </v>
   <v>       0.43968169       0.45380011       0.21135707 </v>
   <v>       0.18690489       0.12186346       0.52145870 </v>
   <v>       0.81008968       0.70721122       0.69977357 </v>
   <v>       0.05880874       0.03799275       0.61092584 </v>
   <v>       0.56607034       0.21369554       0.83321686 </v>
   <v>       0.31178849       0.87172435       0.52151956 </v>
   <v>       0.68648192       0.28610927       0.12391044 </v>
   <v>       0.19040071       0.95474396       0.21171072 </v>
   <v>       0.68409761       0.28869113       0.61104708 </v>
   <v>       0.30893164       0.03845901       0.61108514 </v>
   <v>       0.93399201       0.12470135       0.78859227 </v>
   <v>       0.43638915       0.79790753       0.87621254 </v>
   <v>       0.81546910       0.04080610       0.74428522 </v>
   <v>       0.93530899       0.45807348       0.69964506 </v>
   <v>       0.19116699       0.62499009       0.65507210 </v>
   <v>       0.31016254       0.70688811       0.69977567 </v>
   <v>       0.93411381       0.28698583       0.12390895 </v>
   <v>       0.43750010       0.45576707       0.47853623 </v>
   <v>       0.06245419       0.70603765       0.47848466 </v>
   <v>       0.93704388       0.12078606       0.43446076 </v>
   <v>       0.44458873       0.12281884       0.30039157 </v>
   <v>       0.18717908       0.11944718       0.43433687 </v>
   <v>       0.56299361       0.04073067       0.87606435 </v>
   <v>       0.18686601       0.95699390       0.56554545 </v>
   <v>       0.68472817       0.78826278       0.12435086 </v>
   <v>       0.55911144       0.70220912       0.34493881 </v>
   <v>       0.31618513       0.03734959       0.38897109 </v>
   <v>       0.68235473       0.11390990       0.16687086 </v>
   <v>       0.81568476       0.20351229       0.21113671 </v>
   <v>       0.05913619       0.53725580       0.25571407 </v>
   <v>       0.56241024       0.70590541       0.47860799 </v>
   <v>       0.43533224       0.78689643       0.12413387 </v>
   <v>       0.56999028       0.37216068       0.30028813 </v>
   <v>       0.43368718       0.95269324       0.34490562 </v>
   <v>       0.18489001       0.95721380       0.69976003 </v>
   <v>       0.43183867       0.61282092       0.16609342 </v>
   <v>       0.93985095       0.45348821       0.21158051 </v>
   <v>       0.06181042       0.52979115       0.12407380 </v>
   <v>       0.81190112       0.37237181       0.52144465 </v>
   <v>       0.94467574       0.62265249       0.29998816 </v>
   <v>       0.30934560       0.03722157       0.25550322 </v>
   <v>       0.68400455       0.78827872       0.61089919 </v>
   <v>       0.19173191       0.46343658       0.83346391 </v>
   <v>       0.43243122       0.11175472       0.16657301 </v>
   <v>       0.31166897       0.37205303       0.52136990 </v>
   <v>       0.43293342       0.62317881       0.78896202 </v>
   <v>       0.05891566       0.03729721       0.25579386 </v>
   <v>       0.56233887       0.70699801       0.56553598 </v>
   <v>       0.93976934       0.29081338       0.74452424 </v>
   <v>       0.68228028       0.12294574       0.78852961 </v>
   <v>       0.18992871       0.45314508       0.21114163 </v>
   <v>       0.94133738       0.78759102       0.38890806 </v>
   <v>       0.68543889       0.29905097       0.87601673 </v>
   <v>       0.55651316       0.86201095       0.16630966 </v>
   <v>       0.43535193       0.45768598       0.69976417 </v>
   <v>       0.93421029       0.95200402       0.34474804 </v>
   <v>       0.68661825       0.62146312       0.52128733 </v>
   <v>       0.06616962       0.87440116       0.65500188 </v>
   <v>       0.05881352       0.87425293       0.78845030 </v>
   <v>       0.06628466       0.37456132       0.65495450 </v>
   <v>       0.68729189       0.45593470       0.47858049 </v>
   <v>       0.18370847       0.78702739       0.25549053 </v>
   <v>       0.43739649       0.12132038       0.43440682 </v>
   <v>       0.81408356       0.03069551       0.12401900 </v>
   <v>       0.93666354       0.62196737       0.52141777 </v>
   <v>       0.44122582       0.12440600       0.65492523 </v>
   <v>       0.81330059       0.52964910       0.12401957 </v>
   <v>       0.43379787       0.45245381       0.34495592 </v>
   <v>       0.80921107       0.20274684       0.34479895 </v>
   <v>       0.30893687       0.70159723       0.34477052 </v>
   <v>       0.69127303       0.12488248       0.65499072 </v>
   <v>       0.57044465       0.87318509       0.30028137 </v>
   <v>       0.06536629       0.54092271       0.74431832 </v>
   <v>       0.94099992       0.95375835       0.21129506 </v>
   <v>       0.81619571       0.70342834       0.21148512 </v>
   <v>       0.06994152       0.87349333       0.30033796 </v>
   <v>       0.19545073       0.12307876       0.30024795 </v>
   <v>       0.05846825       0.70194581       0.34485953 </v>
   <v>       0.80910135       0.03839279       0.61099090 </v>
   <v>       0.06266175       0.37125815       0.43437524 </v>
   <v>       0.55860623       0.20271612       0.34475562 </v>
   <v>       0.82066329       0.37299984       0.30013629 </v>
   <v>       0.55999048       0.03772103       0.25548261 </v>
   <v>       0.56658479       0.53760919       0.38907643 </v>
   <v>       0.06262476       0.20607390       0.47864863 </v>
   <v>       0.31020902       0.87313422       0.78843957 </v>
   <v>       0.93521866       0.95814772       0.69966396 </v>
   <v>       0.06977599       0.37345870       0.29999789 </v>
   <v>       0.69108271       0.62488407       0.65522733 </v>
   <v>       0.68682529       0.45690345       0.56537524 </v>
   <v>       0.44153129       0.95553896       0.21204585 </v>
   <v>       0.31252294       0.20579766       0.47872958 </v>
   <v>       0.81217188       0.54030234       0.87584736 </v>
   <v>       0.68781960       0.62123870       0.43438945 </v>
   <v>       0.81063308       0.20740840       0.69984282 </v>
   <v>       0.81223813       0.70595519       0.47860028 </v>
   <v>       0.81150001       0.87140344       0.43422040 </v>
   <v>       0.93741496       0.95561561       0.47869046 </v>
   <v>       0.56228110       0.20576527       0.47865726 </v>
   <v>       0.18736194       0.62053064       0.43438729 </v>
   <v>       0.31503841       0.04171791       0.74413046 </v>
   <v>       0.94128787       0.62503730       0.65493376 </v>
   <v>       0.56630877       0.71358983       0.83331097 </v>
   <v>       0.32078052       0.37272288       0.30014909 </v>
   <v>       0.31527179       0.54135620       0.74430483 </v>
   <v>       0.18722275       0.45575712       0.47867563 </v>
   <v>       0.31432736       0.04109767       0.87590562 </v>
   <v>       0.18526880       0.45786310       0.69965985 </v>
   <v>       0.56180631       0.37204041       0.52140040 </v>
   <v>       0.19117707       0.28761579       0.38882955 </v>
   <v>       0.31564650       0.20490870       0.21134030 </v>
   <v>       0.06746292       0.70358715       0.21130459 </v>
   <v>       0.56214350       0.37085938       0.43437675 </v>
   <v>       0.43674598       0.62204639       0.52135816 </v>
   <v>       0.81713469       0.71534278       0.83337664 </v>
   <v>       0.05888223       0.37520319       0.78844686 </v>
   <v>       0.43678277       0.29842345       0.87634318 </v>
   <v>       0.31142959       0.03101829       0.12415774 </v>
   <v>       0.68786053       0.12005160       0.43432119 </v>
   <v>       0.18356423       0.95201422       0.34487228 </v>
   <v>       0.06693461       0.21523613       0.83399737 </v>
   <v>       0.55926382       0.03871634       0.61112302 </v>
   <v>       0.68919499       0.45428995       0.21177580 </v>
   <v>       0.18964733       0.79165175       0.74439721 </v>
   <v>       0.19568870       0.62298696       0.30013316 </v>
   <v>       0.44138998       0.78790674       0.38913679 </v>
   <v>       0.43318089       0.28755742       0.25575878 </v>
   <v>       0.06321429       0.54084983       0.87588221 </v>
   <v>       0.56553884       0.04123828       0.74429141 </v>
   <v>       0.18761037       0.79748394       0.87607133 </v>
   <v>       0.93739249       0.45561068       0.47854984 </v>
   <v>       0.56511200       0.54131913       0.74406711 </v>
   <v>       0.81120089       0.20685355       0.56547859 </v>
   <v>       0.18442360       0.62259686       0.78852162 </v>
   <v>       0.06763426       0.53868493       0.38905455 </v>
   <v>       0.06066603       0.70753012       0.69968916 </v>
   <v>       0.30764752       0.53731170       0.25553278 </v>
   <v>       0.31452849       0.70308373       0.21227013 </v>
   <v>       0.30609029       0.86455384       0.16578822 </v>
   <v>       0.43675074       0.62067357       0.43440239 </v>
   <v>       0.93709045       0.62015132       0.43446711 </v>
   <v>       0.93479280       0.29799706       0.87558050 </v>
   <v>       0.93704274       0.79556894       0.87557470 </v>
   <v>       0.06537947       0.03897054       0.87576088 </v>
   <v>       0.56229018       0.52888414       0.12452809 </v>
   <v>       0.80560713       0.36530068       0.16589489 </v>
   <v>       0.06361031       0.87211516       0.43432041 </v>
   <v>       0.93662887       0.12201215       0.52150213 </v>
   <v>       0.19287587       0.78759603       0.38892563 </v>
   <v>       0.56668603       0.70349807       0.21195385 </v>
  </varray>
 </structure>
 <calculation>
  <scstep>
   <time name="dav">   54.08   54.10</time>
   <time name="total">   54.24   54.28</time>
   <energy>
    <i name="alphaZ">  16293.21160653 </i>
    <i name="ewald"> 728390.85335362 </i>
    <i name="hartreedc">-918905.89573921 </i>
    <i name="XCdc">  -6512.67951955 </i>
    <i name="pawpsdc"> 162273.92519768 </i>
    <i name="pawaedc">-159623.75899949 </i>
    <i name="eentropy">     -1.06923651 </i>
    <i name="bandstr">  38488.48721548 </i>
    <i name="atom"> 168671.76673737 </i>
    <i name="e_fr_energy">  29074.84061592 </i>
    <i name="e_wo_entrp">  29075.90985243 </i>
    <i name="e_0_energy">  29075.37523417 </i>
   </energy>
  </scstep>
  <scstep>
   <time name="dav">   53.66   53.69</time>
   <time name="total">   53.67   53.70</time>
   <energy>
    <i name="e_fr_energy">   1187.60784985 </i>
    <i name="e_wo_entrp">   1189.10153930 </i>
    <i name="e_0_energy">   1188.35469458 </i>
   </energy>
  </scstep>
  <scstep>
   <time name="dav">   70.25   70.29</time>
   <time name="total">   70.25   70.30</time>
   <energy>
    <i name="e_fr_energy">  -1949.59448390 </i>
    <i name="e_wo_entrp">  -1946.04449639 </i>
    <i name="e_0_energy">  -1947.81949014 </i>
   </energy>
  </scstep>
  <scstep>
   <time name="dav">   88.07   88.13</time>
   <time name="total">   88.08   88.13</time>
   <energy>
    <i name="e_fr_energy">  -2619.07143297 </i>
    <i name="e_wo_entrp">  -2615.53223590 </i>
    <i name="e_0_energy">  -2617.30183443 </i>
   </energy>
  </scstep>
  <scstep>
   <time name="dav">   84.34   84.39</time>
   <time name="total">   86.37   86.42</time>
   <energy>
    <i name="e_fr_energy">  -2738.56888741 </i>
    <i name="e_wo_entrp">  -2734.90538490 </i>
    <i name="e_0_energy">  -2736.73713616 </i>
   </energy>
  </scstep>
  <scstep>
   <time name="diag">    8.18    8.18</time>
   <time name="diis">   36.78   36.78</time>
   <time name="orth">    2.27    2.27</time>
   <time name="total">   49.37   49.41</time>
   <energy>
    <i name="e_fr_energy">  -5590.37801405 </i>
    <i name="e_wo_entrp">  -5587.83654783 </i>
    <i name="e_0_energy">  -5589.10728094 </i>
   </energy>
  </scstep>
  <scstep>
   <time name="diag">    8.21    8.21</time>
   <time name="diis">   22.42   22.43</time>
   <time name="orth">    2.27    2.27</time>
   <time name="total">   35.06   35.11</time>
[...]
       <r>     5.8729     0.0000  2772.0000 </r>
       <r>     5.9157     0.0000  2772.0000 </r>
       <r>     5.9584     0.0000  2772.0000 </r>
       <r>     6.0012     0.0000  2772.0000 </r>
       <r>     6.0440     0.0000  2772.0000 </r>
       <r>     6.0868     0.0000  2772.0000 </r>
       <r>     6.1296     0.0000  2772.0000 </r>
       <r>     6.1724     0.0000  2772.0000 </r>
       <r>     6.2152     0.0000  2772.0000 </r>
       <r>     6.2580     0.0000  2772.0000 </r>
       <r>     6.3008     0.0000  2772.0000 </r>
       <r>     6.3436     0.0000  2772.0000 </r>
       <r>     6.3864     0.0000  2772.0000 </r>
       <r>     6.4292     0.0000  2772.0000 </r>
       <r>     6.4720     0.0000  2772.0000 </r>
       <r>     6.5148     0.0000  2772.0000 </r>
       <r>     6.5576     0.0000  2772.0000 </r>
       <r>     6.6004     0.0000  2772.0000 </r>
       <r>     6.6432     0.0000  2772.0000 </r>
       <r>     6.6860     0.0000  2772.0000 </r>
       <r>     6.7288     0.0000  2772.0000 </r>
       <r>     6.7716     0.0000  2772.0000 </r>
       <r>     6.8144     0.0000  2772.0000 </r>
      </set>
     </set>
    </array>
   </total>
  </dos>
 </calculation>
 <structure name="finalpos" >
  <crystal>
   <varray name="basis" >
    <v>       9.72667804       0.00000000       0.00000000 </v>
    <v>       0.00000000       8.42355028       0.00000000 </v>
    <v>       0.00000000       0.00000000      45.00000000 </v>
   </varray>
   <i name="volume">   3686.99226691 </i>
   <varray name="rec_basis" >
    <v>       0.10281002       0.00000000       0.00000000 </v>
    <v>       0.00000000       0.11871479       0.00000000 </v>
    <v>       0.00000000       0.00000000       0.02222222 </v>
   </varray>
  </crystal>
  <varray name="positions" >
   <v>       0.06148465       0.03262847       0.12440175 </v>
   <v>       0.31373287       0.87385194       0.65505876 </v>
   <v>       0.18628662       0.12503222       0.78853773 </v>
   <v>       0.44022226       0.28764006       0.38948090 </v>
   <v>       0.31488164       0.71160817       0.83344393 </v>
   <v>       0.81583410       0.21274088       0.83365904 </v>
   <v>       0.18920615       0.96236012       0.83381924 </v>
   <v>       0.56166665       0.20638594       0.56571656 </v>
   <v>       0.06357624       0.04145926       0.74426626 </v>
   <v>       0.81143400       0.87280211       0.52170985 </v>
   <v>       0.18855525       0.29150862       0.74430024 </v>
   <v>       0.93714584       0.45397668       0.34492858 </v>
   <v>       0.93922679       0.28766080       0.38936996 </v>
   <v>       0.81236217       0.04492142       0.87550369 </v>
   <v>       0.18612627       0.78907493       0.61057062 </v>
   <v>       0.56432451       0.03814478       0.38948563 </v>
   <v>       0.94105210       0.96243951       0.83382729 </v>
   <v>       0.31337614       0.54467092       0.87560391 </v>
   <v>       0.68843157       0.29136650       0.74431589 </v>
   <v>       0.18460644       0.61595243       0.16636460 </v>
   <v>       0.81191757       0.20544509       0.47838444 </v>
   <v>       0.81074584       0.53889685       0.61064122 </v>
   <v>       0.31321408       0.87175289       0.43438325 </v>
   <v>       0.81199293       0.03689428       0.25579534 </v>
   <v>       0.68695427       0.95359100       0.34503518 </v>
   <v>       0.93352857       0.11587361       0.16654405 </v>
   <v>       0.06233303       0.87267354       0.52160640 </v>
   <v>       0.56116613       0.53724672       0.25571922 </v>
   <v>       0.68672813       0.79483298       0.87561408 </v>
   <v>       0.55874565       0.36635957       0.16617388 </v>
   <v>       0.43851677       0.79180829       0.74436758 </v>
   <v>       0.81161641       0.70615161       0.56563722 </v>
   <v>       0.56100276       0.87440717       0.78855577 </v>
   <v>       0.68643934       0.12219224       0.52160935 </v>
   <v>       0.81359145       0.37391823       0.65508066 </v>
   <v>       0.94032486       0.46241390       0.83377113 </v>
   <v>       0.06159694       0.20761384       0.69985753 </v>
   <v>       0.43668089       0.95716526       0.69981138 </v>
   <v>       0.31459111       0.21160426       0.83373189 </v>
   <v>       0.43851706       0.62380476       0.65502446 </v>
   <v>       0.31109544       0.53898973       0.61060770 </v>
   <v>       0.93687639       0.45586415       0.56574621 </v>
   <v>       0.68846911       0.79147570       0.74434402 </v>
   <v>       0.93447503       0.78345084       0.12465995 </v>
   <v>       0.68977627       0.78741051       0.38935533 </v>
   <v>       0.93850336       0.79110871       0.74432210 </v>
   <v>       0.06253599       0.20428448       0.34490727 </v>
   <v>       0.68716720       0.45339759       0.34489535 </v>
   <v>       0.43595016       0.12489360       0.78867506 </v>
   <v>       0.06320796       0.20276412       0.21139166 </v>
   <v>       0.05772918       0.36627766       0.16616125 </v>
   <v>       0.93652662       0.78721399       0.25569067 </v>
   <v>       0.56145144       0.20732066       0.69986661 </v>
   <v>       0.68647385       0.95745371       0.69992103 </v>
   <v>       0.81050996       0.87489416       0.78849844 </v>
   <v>       0.43674018       0.95628075       0.56573340 </v>
   <v>       0.81085778       0.37493249       0.78851779 </v>
   <v>       0.68660815       0.28698419       0.25585528 </v>
   <v>       0.18693272       0.45607038       0.56571551 </v>
   <v>       0.05894109       0.86631748       0.16636129 </v>
   <v>       0.18635585       0.28935712       0.61070273 </v>
   <v>       0.06199041       0.20638694       0.56570427 </v>
   <v>       0.31192487       0.20752778       0.69985119 </v>
   <v>       0.56401549       0.54516295       0.87553147 </v>
   <v>       0.06186541       0.70595178       0.56567890 </v>
   <v>       0.68559380       0.62484535       0.78848588 </v>
   <v>       0.31482219       0.53722466       0.38945643 </v>
   <v>       0.18743350       0.62229682       0.52171922 </v>
   <v>       0.56269878       0.87193225       0.43427906 </v>
   <v>       0.43677312       0.45614838       0.56577687 </v>
   <v>       0.43847266       0.29196345       0.74429774 </v>
   <v>       0.81619433       0.87206773       0.30014639 </v>
   <v>       0.81207733       0.70327647       0.34494939 </v>
   <v>       0.44011975       0.46151053       0.83370458 </v>
   <v>       0.68770236       0.95523454       0.47834305 </v>
   <v>       0.68662478       0.45719695       0.69984629 </v>
   <v>       0.56187491       0.87251951       0.52161778 </v>
   <v>       0.56359880       0.37382220       0.65502843 </v>
   <v>       0.81366033       0.87389636       0.65507883 </v>
   <v>       0.81204467       0.37146513       0.43411484 </v>
   <v>       0.81148609       0.53688298       0.25583682 </v>
   <v>       0.69026032       0.46195506       0.83361910 </v>
   <v>       0.18563029       0.78335452       0.12420924 </v>
   <v>       0.68937484       0.28775568       0.38936668 </v>
   <v>       0.31357710       0.37393840       0.65497814 </v>
   <v>       0.31227439       0.20367595       0.34503238 </v>
   <v>       0.81345376       0.54124024       0.74422263 </v>
   <v>       0.69038835       0.96168085       0.83364663 </v>
   <v>       0.56351566       0.87401230       0.65508407 </v>
   <v>       0.31188941       0.70616396       0.56571307 </v>
   <v>       0.30996607       0.53350214       0.12417803 </v>
   <v>       0.68864640       0.95355882       0.21159925 </v>
   <v>       0.31188015       0.20646232       0.56574871 </v>
   <v>       0.18756977       0.95542689       0.47847166 </v>
   <v>       0.68693205       0.95630987       0.56574939 </v>
   <v>       0.43574733       0.78916595       0.61055984 </v>
   <v>       0.68311848       0.61453495       0.16630829 </v>
   <v>       0.31578494       0.87158787       0.30016583 </v>
   <v>       0.31225034       0.70526259       0.47831466 </v>
   <v>       0.93599593       0.28920251       0.61056019 </v>
   <v>       0.44108323       0.62188488       0.30017892 </v>
   <v>       0.80881230       0.86524265       0.16652823 </v>
   <v>       0.56411386       0.20254467       0.21166287 </v>
   <v>       0.93435579       0.61472000       0.16652312 </v>
   <v>       0.43763027       0.95496470       0.47834609 </v>
   <v>       0.56094221       0.37424676       0.78857708 </v>
   <v>       0.06210029       0.37287547       0.52161824 </v>
   <v>       0.30849142       0.36567817       0.16620269 </v>
   <v>       0.69138369       0.12152753       0.30024107 </v>
   <v>       0.44066719       0.96129049       0.83367760 </v>
   <v>       0.18487595       0.28312265       0.12451982 </v>
   <v>       0.18647086       0.28639509       0.25575649 </v>
   <v>       0.31312173       0.37118801       0.43419074 </v>
   <v>       0.56070790       0.03323911       0.12445913 </v>
   <v>       0.43585222       0.28939426       0.61056688 </v>
   <v>       0.18730600       0.45376457       0.34482386 </v>
   <v>       0.43382342       0.28287925       0.12455562 </v>
   <v>       0.68655688       0.78727342       0.25590265 </v>
   <v>       0.43684524       0.12279253       0.52157484 </v>
   <v>       0.18914817       0.29442663       0.87579805 </v>
   <v>       0.18875559       0.12411961       0.65507419 </v>
   <v>       0.93885072       0.12416564       0.65507533 </v>
   <v>       0.81425591       0.53743289       0.38935460 </v>
   <v>       0.06428890       0.03820122       0.38941151 </v>
   <v>       0.18378068       0.11476891       0.16649121 </v>
   <v>       0.06116089       0.53892746       0.61059710 </v>
   <v>       0.93657287       0.28682767       0.25572436 </v>
   <v>       0.56072599       0.53911520       0.61056820 </v>
   <v>       0.93684105       0.95592923       0.56566990 </v>
   <v>       0.69100857       0.62199496       0.30020688 </v>
   <v>       0.81490544       0.03815509       0.38946337 </v>
   <v>       0.93567977       0.62593164       0.78850340 </v>
   <v>       0.56143862       0.70701923       0.69981669 </v>
   <v>       0.06453373       0.71333708       0.83371706 </v>
   <v>       0.94130233       0.12196313       0.30011619 </v>
   <v>       0.93592670       0.78890656       0.61061686 </v>
   <v>       0.43670505       0.78701909       0.25592703 </v>
   <v>       0.31099912       0.37436750       0.78853723 </v>
   <v>       0.43847168       0.45332563       0.21153147 </v>
   <v>       0.18724256       0.12247881       0.52166496 </v>
   <v>       0.81162015       0.70739189       0.69985996 </v>
   <v>       0.06109384       0.03957366       0.61056878 </v>
   <v>       0.56475287       0.21145457       0.83343776 </v>
   <v>       0.31202137       0.87239331       0.52171724 </v>
   <v>       0.68590381       0.28281537       0.12425961 </v>
   <v>       0.18847268       0.95440678       0.21156552 </v>
   <v>       0.68558222       0.28945483       0.61066761 </v>
   <v>       0.31094214       0.03934582       0.61061171 </v>
   <v>       0.93587846       0.12585086       0.78860184 </v>
   <v>       0.43762146       0.79408764       0.87562106 </v>
   <v>       0.81351383       0.04164972       0.74421553 </v>
   <v>       0.93664855       0.45719061       0.69982976 </v>
   <v>       0.18885034       0.62374045       0.65504661 </v>
   <v>       0.31185110       0.70710779       0.69987280 </v>
   <v>       0.93454228       0.28308858       0.12427295 </v>
   <v>       0.43749092       0.45478487       0.47825783 </v>
   <v>       0.06254660       0.70487691       0.47839975 </v>
   <v>       0.93731771       0.12137689       0.43447299 </v>
   <v>       0.44127747       0.12126047       0.30017171 </v>
   <v>       0.18792122       0.12080186       0.43413203 </v>
   <v>       0.56433486       0.04470755       0.87560720 </v>
   <v>       0.18675454       0.95642743       0.56576916 </v>
   <v>       0.68522033       0.78410881       0.12458161 </v>
   <v>       0.56224422       0.70362861       0.34506238 </v>
   <v>       0.31492445       0.03798383       0.38942796 </v>
   <v>       0.68468893       0.11556775       0.16662895 </v>
   <v>       0.81407052       0.20254247       0.21151161 </v>
   <v>       0.06130656       0.53711318       0.25556787 </v>
   <v>       0.56250650       0.70539063       0.47829465 </v>
   <v>       0.43458464       0.78361053       0.12410229 </v>
   <v>       0.56583353       0.37162428       0.30027220 </v>
   <v>       0.43697945       0.95364301       0.34500792 </v>
   <v>       0.18678575       0.95750006       0.69987843 </v>
   <v>       0.43372852       0.61522681       0.16617750 </v>
   <v>       0.93866884       0.45300433       0.21164511 </v>
   <v>       0.06059161       0.53255026       0.12429412 </v>
   <v>       0.81161055       0.37293200       0.52159950 </v>
   <v>       0.94127075       0.62236277       0.30004239 </v>
   <v>       0.31172708       0.03646141       0.25572591 </v>
   <v>       0.68576016       0.78890030       0.61057346 </v>
   <v>       0.18987732       0.46256491       0.83377245 </v>
   <v>       0.43442829       0.11434043       0.16664084 </v>
   <v>       0.31171194       0.37265621       0.52163937 </v>
   <v>       0.43593521       0.62468888       0.78872164 </v>
   <v>       0.06137082       0.03673229       0.25574319 </v>
   <v>       0.56163840       0.70611607       0.56572216 </v>
   <v>       0.93849659       0.29127048       0.74429546 </v>
   <v>       0.68563976       0.12497681       0.78848152 </v>
   <v>       0.18764658       0.45283336       0.21143663 </v>
   <v>       0.93923090       0.78797322       0.38930549 </v>
   <v>       0.68701124       0.29499486       0.87568272 </v>
   <v>       0.55747133       0.86528448       0.16631344 </v>
   <v>       0.43659977       0.45698160       0.69987139 </v>
   <v>       0.93751971       0.95357546       0.34481198 </v>
   <v>       0.68646259       0.62233359       0.52161301 </v>
   <v>       0.06375832       0.87389378       0.65504809 </v>
   <v>       0.06132555       0.87512912       0.78863951 </v>
   <v>       0.06381916       0.37399989       0.65506035 </v>
   <v>       0.68731285       0.45507769       0.47814154 </v>
   <v>       0.18630186       0.78743198       0.25582521 </v>
   <v>       0.43759734       0.12136231       0.43426446 </v>
   <v>       0.81139178       0.03354145       0.12447730 </v>
   <v>       0.93680607       0.62248551       0.52151023 </v>
   <v>       0.43864464       0.12407990       0.65508709 </v>
   <v>       0.81250064       0.53305596       0.12404856 </v>
   <v>       0.43726480       0.45388749       0.34503971 </v>
   <v>       0.81212957       0.20359822       0.34504564 </v>
   <v>       0.31256554       0.70366224       0.34488155 </v>
   <v>       0.68848973       0.12424484       0.65510978 </v>
   <v>       0.56619383       0.87168974       0.30028974 </v>
   <v>       0.06348025       0.54094862       0.74423627 </v>
   <v>       0.93890792       0.95371861       0.21154041 </v>
   <v>       0.81398946       0.70287327       0.21157975 </v>
   <v>       0.06584197       0.87197804       0.30026839 </v>
   <v>       0.19090010       0.12201668       0.30005739 </v>
   <v>       0.06198457       0.70364276       0.34489238 </v>
   <v>       0.81103358       0.03945578       0.61058375 </v>
   <v>       0.06297864       0.37107640       0.43414340 </v>
   <v>       0.56207603       0.20363240       0.34502757 </v>
   <v>       0.81597453       0.37200872       0.30013599 </v>
   <v>       0.56213325       0.03718981       0.25581912 </v>
   <v>       0.56463134       0.53703610       0.38942022 </v>
   <v>       0.06268246       0.20501964       0.47834181 </v>
   <v>       0.31154151       0.87416377       0.78840624 </v>
   <v>       0.93659479       0.95760956       0.69981296 </v>
   <v>       0.06648619       0.37227592       0.30015079 </v>
   <v>       0.68851917       0.62374999       0.65508170 </v>
   <v>       0.68649548       0.45620604       0.56567220 </v>
   <v>       0.43858429       0.95399155       0.21170325 </v>
   <v>       0.31229622       0.20502898       0.47831201 </v>
   <v>       0.81264411       0.54432409       0.87552896 </v>
   <v>       0.68738723       0.62115654       0.43419321 </v>
   <v>       0.81163161       0.20757922       0.69987727 </v>
   <v>       0.81227994       0.70531797       0.47827048 </v>
   <v>       0.81178393       0.87164106       0.43421675 </v>
   <v>       0.93728437       0.95460870       0.47834235 </v>
   <v>       0.56258605       0.20504079       0.47826594 </v>
   <v>       0.18784219       0.62086491       0.43427860 </v>
   <v>       0.31348368       0.04181208       0.74429875 </v>
   <v>       0.93873292       0.62391924       0.65501455 </v>
   <v>       0.56475725       0.71150025       0.83345572 </v>
   <v>       0.31604952       0.37171707       0.30024244 </v>
   <v>       0.31350677       0.54122494       0.74435455 </v>
   <v>       0.18755232       0.45502725       0.47824559 </v>
   <v>       0.31477190       0.04571999       0.87562125 </v>
   <v>       0.18665564       0.45732478       0.69985807 </v>
   <v>       0.56210182       0.37258441       0.52161258 </v>
   <v>       0.18964694       0.28768842       0.38938468 </v>
   <v>       0.31347647       0.20299448       0.21139826 </v>
   <v>       0.06428834       0.70275462       0.21139711 </v>
   <v>       0.56269640       0.37100404       0.43420511 </v>
   <v>       0.43686704       0.62250211       0.52150778 </v>
   <v>       0.81513685       0.71292664       0.83342251 </v>
   <v>       0.06126909       0.37557546       0.78855322 </v>
   <v>       0.43723219       0.29479885       0.87573179 </v>
   <v>       0.31088948       0.03291503       0.12409895 </v>
   <v>       0.68726232       0.12142787       0.43414709 </v>
   <v>       0.18719597       0.95363086       0.34491424 </v>
   <v>       0.06445261       0.21227431       0.83374999 </v>
   <v>       0.56080946       0.03947091       0.61059425 </v>
   <v>       0.68824356       0.45286307       0.21157974 </v>
   <v>       0.18848479       0.79132232       0.74427909 </v>
   <v>       0.19087895       0.62216650       0.30010235 </v>
   <v>       0.44021701       0.78778678       0.38945820 </v>
   <v>       0.43650359       0.28701787       0.25565554 </v>
   <v>       0.06478179       0.54445701       0.87563910 </v>
   <v>       0.56372208       0.04176607       0.74433828 </v>
   <v>       0.18824825       0.79426224       0.87576577 </v>
   <v>       0.93735474       0.45437553       0.47836277 </v>
   <v>       0.56355812       0.54159699       0.74425534 </v>
   <v>       0.81151113       0.20666681       0.56572214 </v>
   <v>       0.18633260       0.62509068       0.78854153 </v>
   <v>       0.06482127       0.53776679       0.38944159 </v>
   <v>       0.06163456       0.70734742       0.69979430 </v>
   <v>       0.31137679       0.53674613       0.25561615 </v>
   <v>       0.31266571       0.70249254       0.21182475 </v>
   <v>       0.30784845       0.86586915       0.16575973 </v>
   <v>       0.43706383       0.62068401       0.43414711 </v>
   <v>       0.93731615       0.62055121       0.43418484 </v>
   <v>       0.93611872       0.29575620       0.87553818 </v>
   <v>       0.93706012       0.79261721       0.87547020 </v>
   <v>       0.06528275       0.04360009       0.87537889 </v>
   <v>       0.56162264       0.53280126       0.12448902 </v>
   <v>       0.80783546       0.36601910       0.16571206 </v>
   <v>       0.06307666       0.87235187       0.43428573 </v>
   <v>       0.93702315       0.12293754       0.52140884 </v>
   <v>       0.19051204       0.78706124       0.38926019 </v>
   <v>       0.56503224       0.70301629       0.21176382 </v>
  </varray>
 </structure>
</modeling>
