unknown system                          
           1
     9.726678    0.000000    0.000000
     0.000000    8.423550    0.000000
     0.000000    0.000000   45.000000
   Fe   Mn
 281   7
Direct configuration=     1
   0.06119676  0.03065308  0.12441391
   0.06326149  0.87192356  0.52127260
   0.19519843  0.12417037  0.78847900
   0.43357212  0.28769121  0.38905123
   0.30851601  0.71279532  0.83317936
   0.80859820  0.21280661  0.83349513
   0.18338448  0.78758359  0.38904182
   0.56385739  0.20762499  0.56542879
   0.06023404  0.04151373  0.74410324
   0.81347156  0.87223497  0.52133227
   0.18540779  0.29122646  0.74407246
   0.94135692  0.45216092  0.34499643
   0.93372481  0.28726159  0.38903739
   0.43850261  0.62234796  0.52136176
   0.18772609  0.79182391  0.61084657
   0.55876391  0.03784924  0.38903173
   0.93332287  0.96362371  0.83332286
   0.31403941  0.54233582  0.87562666
   0.68535334  0.29140363  0.74412427
   0.19248203  0.61173026  0.16678687
   0.81279731  0.20592246  0.47858682
   0.81262077  0.54192012  0.61085263
   0.31307733  0.87035494  0.43448040
   0.81539749  0.03534157  0.25602959
   0.69137478  0.95204898  0.34495898
   0.94187413  0.11279664  0.16683557
   0.93854363  0.12200284  0.52131154
   0.56560673  0.53542113  0.25594857
   0.69028858  0.79394717  0.87567191
   0.56789210  0.36347229  0.16688771
   0.43593928  0.79188335  0.74420123
   0.81384189  0.70765645  0.56544868
   0.56959830  0.87385054  0.78833373
   0.68856332  0.12220314  0.52137705
   0.19044517  0.28553451  0.25602551
   0.93346343  0.46303080  0.83312627
   0.06487220  0.20818528  0.69966768
   0.43989834  0.95820321  0.69968091
   0.30853665  0.21286013  0.83316967
   0.43381895  0.62566564  0.65492973
   0.31295513  0.54173776  0.61076171
   0.93885616  0.45758730  0.56542529
   0.68593531  0.79163951  0.74415437
   0.30886778  0.87567118  0.65492186
   0.68380885  0.78776956  0.38902994
   0.93571114  0.79160585  0.74420001
   0.06598757  0.20216215  0.34496254
   0.43961013  0.78654693  0.12448276
   0.44485969  0.12410683  0.78845790
   0.05604254  0.20319001  0.21179667
   0.06805156  0.36350942  0.16694914
   0.94062142  0.78542378  0.25603316
   0.56498629  0.20833826  0.69967624
   0.68997042  0.95825181  0.69966126
   0.68378880  0.28729450  0.38902845
   0.43884927  0.95776102  0.56548077
   0.82020063  0.37489505  0.78828937
   0.69040556  0.28534895  0.25607140
   0.18886001  0.45767223  0.56543866
   0.06783091  0.86347504  0.16683846
   0.18771254  0.29195805  0.61083932
   0.56610898  0.70211804  0.34489449
   0.31483139  0.20827585  0.69966460
   0.56387790  0.54220567  0.87568462
   0.06376259  0.70729163  0.56556092
   0.69514428  0.62391063  0.78831624
   0.30867331  0.53780492  0.38906322
   0.18840306  0.62218674  0.52137795
   0.56265899  0.87066900  0.43449854
   0.43859193  0.45781970  0.56543017
   0.43558142  0.29150149  0.74411385
   0.80400318  0.87252760  0.30029543
   0.81624676  0.70279028  0.34510322
   0.43351800  0.46271640  0.83312816
   0.68778424  0.95596558  0.47863616
   0.69012651  0.45814918  0.69962767
   0.56344650  0.87238556  0.52137350
   0.55890964  0.37568327  0.65492364
   0.80882303  0.87569289  0.65490995
   0.81257500  0.37066287  0.43447751
   0.81527494  0.53544676  0.25602673
   0.68357284  0.46339456  0.83325787
   0.18861397  0.78633373  0.12449185
   0.06437072  0.04266523  0.87551045
   0.30884436  0.37542605  0.65492877
   0.31631549  0.20202473  0.34485311
   0.81077156  0.54142657  0.74420249
   0.68372542  0.96372750  0.83333024
   0.55883941  0.87566153  0.65490873
   0.31383334  0.70740799  0.56555200
   0.31263859  0.53075391  0.12439508
   0.68134567  0.95303324  0.21175999
   0.31395564  0.20763205  0.56550307
   0.31077580  0.54167135  0.74411037
   0.68882713  0.95765167  0.56547167
   0.43763145  0.79192429  0.61086355
   0.69267993  0.61337104  0.16695384
   0.30377536  0.87232889  0.30030004
   0.31262263  0.70555555  0.47867183
   0.93800391  0.29176478  0.61075224
   0.42931686  0.62277010  0.30029068
   0.81787193  0.86332992  0.16696084
   0.55598766  0.20263524  0.21159436
   0.94271042  0.61322441  0.16694246
   0.93873805  0.79338049  0.87556400
   0.57016147  0.37418989  0.78845835
   0.06347153  0.37233626  0.52132888
   0.56348918  0.37217358  0.52128195
   0.67902600  0.12192775  0.30032187
   0.43331275  0.96268633  0.83315811
   0.18921814  0.28616475  0.12450074
   0.82018390  0.87438650  0.78836480
   0.31281947  0.37078364  0.43447293
   0.93770787  0.79183200  0.61086655
   0.43788562  0.29179574  0.61075993
   0.19177403  0.45221795  0.34504139
   0.43863111  0.28591134  0.12437243
   0.69039691  0.78529350  0.25597159
   0.18993948  0.95816083  0.69966838
   0.19026989  0.29574135  0.87588436
   0.18384598  0.12541885  0.65493688
   0.93382601  0.12545585  0.65491004
   0.30599872  0.20242486  0.21167675
   0.05857395  0.03749536  0.38909489
   0.19306989  0.11363110  0.16675974
   0.06274480  0.54176820  0.61082926
   0.94075248  0.28537365  0.25600122
   0.56305007  0.54171800  0.61071567
   0.93869665  0.95770705  0.56549438
   0.67956592  0.62236036  0.30009848
   0.93751963  0.62000449  0.43454972
   0.94529389  0.62386165  0.78831207
   0.56494571  0.70808138  0.69967196
   0.05888565  0.71288525  0.83309424
   0.92864691  0.12243926  0.30031640
   0.94014181  0.45809692  0.69962635
   0.44062820  0.78551318  0.25599893
   0.31998624  0.37392096  0.78852083
   0.43149079  0.45293573  0.21191997
   0.18843500  0.12229402  0.52128579
   0.81489306  0.70813417  0.69963068
   0.06272450  0.04187305  0.61080661
   0.55881359  0.21284933  0.83337428
   0.31361520  0.87215359  0.52126646
   0.69015496  0.28616935  0.12458678
   0.18126662  0.95262849  0.21161955
   0.68799310  0.29181350  0.61074110
   0.31261663  0.04185438  0.61091218
   0.94471767  0.12410214  0.78850984
   0.43956396  0.79431014  0.87566091
   0.81056641  0.04133811  0.74410831
   0.43813638  0.12204833  0.52137648
   0.18383476  0.62554233  0.65496105
   0.31504636  0.70812486  0.69959790
   0.93808579  0.28534243  0.12454383
   0.43779447  0.45604046  0.47863747
   0.06301148  0.70556440  0.47862314
   0.93823575  0.12008559  0.43439786
   0.42864690  0.12185770  0.30033378
   0.18840424  0.12016929  0.43451525
   0.56374072  0.04270960  0.87562287
   0.18875644  0.95754170  0.56537848
   0.68885142  0.78528423  0.12444591
   0.56279312  0.53119919  0.12429206
   0.30870017  0.03716530  0.38901817
   0.69271261  0.11308828  0.16692382
   0.80565557  0.20308947  0.21183914
   0.06555456  0.53552043  0.25601311
   0.56278500  0.70585995  0.47861137
   0.06376047  0.20752174  0.56551641
   0.55409673  0.37286060  0.30034061
   0.44154079  0.95245738  0.34492528
   0.18373922  0.96265974  0.83313327
   0.44255033  0.61175012  0.16674771
   0.93149488  0.45303347  0.21173226
   0.06163663  0.53087558  0.12441736
   0.81347163  0.37194667  0.52132453
   0.92938825  0.62290510  0.30023970
   0.31556502  0.03581519  0.25597482
   0.68773964  0.79193853  0.61092255
   0.18362461  0.46279768  0.83314185
   0.44179398  0.11252695  0.16685559
   0.31340690  0.37222546  0.52135574
   0.44515335  0.62399344  0.78845753
   0.06622467  0.03595446  0.25586788
   0.56360323  0.70793073  0.56539724
   0.93580817  0.29135049  0.74414753
   0.69524872  0.12416053  0.78846148
   0.18049740  0.45328363  0.21190591
   0.93365281  0.78763434  0.38900558
   0.68917100  0.29419080  0.87574421
   0.31775997  0.86293147  0.16692465
   0.44013327  0.45812908  0.69963288
   0.80880293  0.37543442  0.65490992
   0.68841693  0.62242848  0.52137622
   0.05884148  0.87560615  0.65491396
   0.07074426  0.87361408  0.78825150
   0.05883731  0.37562925  0.65491785
   0.68794833  0.45580760  0.47869177
   0.19071094  0.78542906  0.25594243
   0.43785867  0.12025701  0.43442005
   0.81182935  0.03092074  0.12430714
   0.93842184  0.62207812  0.52136056
   0.06262896  0.87059815  0.43447323
   0.81261211  0.53081925  0.12431972
   0.44160454  0.45200134  0.34499592
   0.81689955  0.20182083  0.34503288
   0.31600959  0.70167399  0.34494613
   0.68389137  0.12572123  0.65494347
   0.55350812  0.87198136  0.30037262
   0.06082152  0.54147006  0.74411766
   0.93785786  0.78538030  0.12438892
   0.80653039  0.70268515  0.21156510
   0.05372430  0.87292841  0.30018914
   0.17934793  0.12298760  0.30029196
   0.06649075  0.70184235  0.34498140
   0.81273890  0.04182126  0.61077364
   0.06334423  0.37058482  0.43442051
   0.56647552  0.20207516  0.34500444
   0.80346503  0.37268287  0.30023592
   0.43789035  0.95600250  0.47862405
   0.55854679  0.53735055  0.38908666
   0.06273980  0.20562099  0.47866101
   0.32022598  0.87405965  0.78843676
   0.94002731  0.95832700  0.69966306
   0.05362872  0.37224079  0.30032842
   0.68393457  0.62566846  0.65491586
   0.68881055  0.45776282  0.56547373
   0.43129130  0.95290060  0.21175126
   0.31285575  0.20592490  0.47861456
   0.43382771  0.12551608  0.65492332
   0.68792351  0.62027468  0.43443163
   0.81496530  0.20810440  0.69962470
   0.81285815  0.70574145  0.47870242
   0.81296248  0.87089432  0.43442475
   0.93781309  0.95582540  0.47864020
   0.56273680  0.20576381  0.47857826
   0.18820980  0.62013429  0.43438275
   0.31075656  0.04182373  0.74415681
   0.93388446  0.62565836  0.65491555
   0.55839181  0.71308520  0.83310179
   0.30389102  0.37261422  0.30032458
   0.55662175  0.70251713  0.21155521
   0.18787111  0.45582506  0.47863952
   0.31408618  0.04209163  0.87571591
   0.19017018  0.45814304  0.69964266
   0.81415255  0.54223273  0.87561940
   0.18324221  0.28837970  0.38914324
   0.43819196  0.62036934  0.43437551
   0.05604000  0.70243705  0.21159772
   0.56223022  0.03082569  0.12444791
   0.81817916  0.36307125  0.16707777
   0.80848202  0.71362647  0.83335230
   0.07010743  0.37429539  0.78838996
   0.44000206  0.29540859  0.87591309
   0.31170558  0.03111254  0.12429938
   0.68746881  0.12014229  0.43445869
   0.19153199  0.95226354  0.34515688
   0.05830495  0.21249607  0.83318437
   0.56280380  0.04187099  0.61080658
   0.68137368  0.45280659  0.21166086
   0.18574641  0.79171789  0.74417928
   0.17904669  0.62235195  0.30029168
   0.43376399  0.78767112  0.38902051
   0.44033463  0.28545886  0.25603776
   0.06485580  0.54200636  0.87562901
   0.56042290  0.04192389  0.74415167
   0.18921862  0.79400769  0.87564879
   0.93768531  0.45589576  0.47863401
   0.80876912  0.53767511  0.38904382
   0.81379332  0.20772975  0.56543520
   0.19516267  0.62410732  0.78845959
   0.93086021  0.95317205  0.21181810
   0.06502499  0.70814493  0.69965831
   0.31541492  0.53538861  0.25597675
   0.30630619  0.70234675  0.21153590
   0.56817597  0.86300524  0.16688751
   0.56073233  0.54176232  0.74419921
   0.69113734  0.45203680  0.34493945
   0.94133730  0.29453517  0.87571027
   0.56587681  0.03603733  0.25591430
   0.80770965  0.03757466  0.38903407
   0.31924481  0.36303880  0.16630688
   0.81447080  0.04230170  0.87533260
   0.56316862  0.37100816  0.43446785
   0.05863131  0.53718444  0.38902106
   0.94259901  0.95257659  0.34498431
   0.18784921  0.95612171  0.47864824
Direct configuration=     2
   0.06145137  0.03091300  0.12447273
   0.06321838  0.87209718  0.52134915
   0.19465850  0.12429847  0.78844873
   0.43381238  0.28761966  0.38911029
   0.30891880  0.71263543  0.83322624
   0.80899004  0.21253299  0.83350337
   0.18370744  0.78754383  0.38911211
   0.56377020  0.20753107  0.56546549
   0.06061451  0.04154849  0.74407465
   0.81345228  0.87238892  0.52140269
   0.18578060  0.29133452  0.74404849
   0.94078409  0.45238677  0.34500552
   0.93403317  0.28718339  0.38910365
   0.43848823  0.62255891  0.52142727
   0.18766503  0.79179815  0.61078486
   0.55892438  0.03786495  0.38910336
   0.93360658  0.96338148  0.83334946
   0.31393488  0.54267607  0.87556749
   0.68570981  0.29146281  0.74408990
   0.19211058  0.61213405  0.16677117
   0.81283687  0.20579180  0.47851518
   0.81258108  0.54187014  0.61078512
   0.31299335  0.87045424  0.43443080
   0.81491106  0.03534350  0.25603610
   0.69079114  0.95221901  0.34497233
   0.94163178  0.11301125  0.16681336
   0.93852330  0.12217215  0.52137359
   0.56507584  0.53546466  0.25595989
   0.68999850  0.79385824  0.87562241
   0.56761608  0.36373261  0.16682348
   0.43623777  0.79185090  0.74415894
   0.81376530  0.70758579  0.56549639
   0.56911922  0.87398312  0.78830253
   0.68855290  0.12236440  0.52143219
   0.18998725  0.28559123  0.25603378
   0.93384105  0.46288026  0.83317368
   0.06468759  0.20818004  0.69967555
   0.43971266  0.95819552  0.69969373
   0.30895569  0.21263986  0.83323410
   0.43414046  0.62558507  0.65492603
   0.31288813  0.54172250  0.61071002
   0.93873728  0.45750986  0.56546934
   0.68620794  0.79163671  0.74411091
   0.30918548  0.87559032  0.65492229
   0.68411319  0.78771377  0.38909795
   0.93601675  0.79159766  0.74415036
   0.06546185  0.20243774  0.34499428
   0.43958084  0.78595253  0.12455366
   0.44435877  0.12427012  0.78843250
   0.05655422  0.20297577  0.21177166
   0.06766864  0.36374297  0.16689596
   0.94012903  0.78551790  0.25602431
   0.56477286  0.20831857  0.69968255
   0.68974039  0.95824354  0.69966881
   0.68401625  0.28729253  0.38908928
   0.43879469  0.95768177  0.56553772
   0.81963067  0.37497532  0.78827262
   0.68992723  0.28543190  0.25607731
   0.18876937  0.45756777  0.56548355
   0.06742480  0.86365922  0.16678941
   0.18766938  0.29187578  0.61077573
   0.56559811  0.70229823  0.34491190
   0.31467335  0.20825881  0.69967503
   0.56382215  0.54251851  0.87562664
   0.06366078  0.70725843  0.56560196
   0.69457119  0.62411573  0.78831768
   0.30905158  0.53778581  0.38912815
   0.18836141  0.62239335  0.52143242
   0.56266316  0.87072408  0.43446533
   0.43854296  0.45771232  0.56547586
   0.43591823  0.29158102  0.74408593
   0.80460800  0.87231344  0.30028738
   0.81570345  0.70290946  0.34511346
   0.43393904  0.46250813  0.83318960
   0.68779480  0.95576370  0.47857093
   0.68989652  0.45817203  0.69964360
   0.56340842  0.87252929  0.52143143
   0.55921224  0.37563309  0.65491634
   0.80911559  0.87562258  0.65491226
   0.81267631  0.37069093  0.43443968
   0.81482618  0.53547898  0.25604209
   0.68396731  0.46318171  0.83329495
   0.18857660  0.78572544  0.12456031
   0.06432902  0.04302619  0.87547341
   0.30918453  0.37541221  0.65492627
   0.31576285  0.20224275  0.34488168
   0.81106272  0.54140920  0.74415799
   0.68416866  0.96345539  0.83336597
   0.55914797  0.87559841  0.65491242
   0.31372672  0.70734420  0.56559722
   0.31276707  0.53109437  0.12441094
   0.68179278  0.95291240  0.21176931
   0.31386129  0.20759683  0.56555233
   0.31108624  0.54168507  0.74407257
   0.68872310  0.95756946  0.56551172
   0.43759983  0.79187217  0.61079604
   0.69235600  0.61363684  0.16690530
   0.30442714  0.87213678  0.30028490
   0.31267572  0.70534725  0.47859343
   0.93791680  0.29174234  0.61070385
   0.42989668  0.62247133  0.30029369
   0.81756929  0.86354761  0.16690803
   0.55642944  0.20250247  0.21162007
   0.94229819  0.61356620  0.16689738
   0.93871261  0.79328849  0.87551683
   0.56963433  0.37431759  0.78842398
   0.06343476  0.37242266  0.52139635
   0.56344007  0.37232801  0.52134033
   0.67969117  0.12179305  0.30032372
   0.43368616  0.96250700  0.83322296
   0.18924037  0.28560114  0.12453779
   0.81962052  0.87445711  0.78835404
   0.31271157  0.37084640  0.43444329
   0.93766456  0.79179274  0.61079427
   0.43781825  0.29176124  0.61070980
   0.19124954  0.45234917  0.34504436
   0.43865135  0.28542448  0.12441201
   0.68991550  0.78536453  0.25596503
   0.18976811  0.95814732  0.69968714
   0.19001933  0.29542362  0.87579485
   0.18415979  0.12541785  0.65492994
   0.93412083  0.12543649  0.65490485
   0.30643456  0.20229365  0.21169924
   0.05894269  0.03746295  0.38916278
   0.19266996  0.11376088  0.16673412
   0.06268013  0.54176138  0.61076344
   0.94019177  0.28546990  0.25599918
   0.56293741  0.54171577  0.61067271
   0.93861671  0.95762129  0.56554065
   0.68006812  0.62215962  0.30012167
   0.93751387  0.62014173  0.43452213
   0.94475071  0.62408048  0.78831055
   0.56475256  0.70810263  0.69968218
   0.05927687  0.71269457  0.83312622
   0.92930782  0.12228532  0.30031233
   0.93991586  0.45813257  0.69964327
   0.44015014  0.78556571  0.25601113
   0.31947730  0.37405308  0.78847921
   0.43196999  0.45285298  0.21191157
   0.18837989  0.12249903  0.52134881
   0.81470011  0.70817611  0.69963886
   0.06268813  0.04180010  0.61074901
   0.55926984  0.21265870  0.83342233
   0.31356998  0.87228323  0.52134157
   0.69010672  0.28563299  0.12464654
   0.18169014  0.95256222  0.21163820
   0.68788239  0.29178822  0.61069272
   0.31257239  0.04179482  0.61084087
   0.94425622  0.12428603  0.78848229
   0.43943203  0.79421260  0.87559931
   0.81086576  0.04140045  0.74408340
   0.43810534  0.12225735  0.52143205
   0.18416668  0.62550063  0.65495515
   0.31485554  0.70811525  0.69961273
   0.93816695  0.28490649  0.12461456
   0.43785164  0.45591110  0.47856666
   0.06298244  0.70534823  0.47855314
   0.93816468  0.12015261  0.43438012
   0.42934415  0.12170883  0.30033398
   0.18836079  0.12036867  0.43446969
   0.56352989  0.04302830  0.87557723
   0.18865902  0.95746007  0.56539078
   0.68890571  0.78482486  0.12451501
   0.56281570  0.53145283  0.12436276
   0.30901759  0.03726322  0.38910053
   0.69234697  0.11325736  0.16688666
   0.80620011  0.20291094  0.21182083
   0.06505791  0.53558802  0.25602398
   0.56276398  0.70566984  0.47853062
   0.06364733  0.20748525  0.56555780
   0.55468915  0.37256980  0.30033700
   0.44097288  0.95255250  0.34494155
   0.18416249  0.96243237  0.83318133
   0.44225842  0.61213973  0.16671931
   0.93191689  0.45290947  0.21175945
   0.06191241  0.53117146  0.12447516
   0.81347296  0.37210266  0.52140266
   0.92995584  0.62262290  0.30026420
   0.31506739  0.03571525  0.25599248
   0.68766764  0.79186702  0.61084561
   0.18398599  0.46258971  0.83319527
   0.44150796  0.11281484  0.16682584
   0.31334602  0.37233303  0.52142607
   0.44462724  0.62413440  0.78843515
   0.06559623  0.03581023  0.25589147
   0.56356612  0.70781446  0.56544622
   0.93609146  0.29140398  0.74410989
   0.69467704  0.12432629  0.78844744
   0.18106604  0.45314959  0.21190544
   0.93385560  0.78759254  0.38907513
   0.68895345  0.29413534  0.87569531
   0.31743494  0.86314491  0.16686196
   0.43991874  0.45815753  0.69964916
   0.80912014  0.37541938  0.65490852
   0.68836890  0.62258419  0.52144051
   0.05913925  0.87553298  0.65491210
   0.07014297  0.87378627  0.78823928
   0.05914488  0.37557827  0.65491743
   0.68792832  0.45570836  0.47860889
   0.19023158  0.78546741  0.25594231
   0.43777012  0.12038815  0.43438458
   0.81198208  0.03123312  0.12437853
   0.93838404  0.62229703  0.52142749
   0.06256408  0.87062010  0.43442983
   0.81272176  0.53116895  0.12440264
   0.44103466  0.45215913  0.34500770
   0.81623415  0.20202299  0.34502749
   0.31546497  0.70184032  0.34496877
   0.68417921  0.12566713  0.65493766
   0.55419515  0.87179907  0.30034885
   0.06112724  0.54149129  0.74408464
   0.93802099  0.78492371  0.12447098
   0.80692626  0.70259958  0.21158106
   0.05441988  0.87270296  0.30019594
   0.17993887  0.12270896  0.30030354
   0.06597823  0.70204209  0.34498200
   0.81268977  0.04175820  0.61072095
   0.06325642  0.37058524  0.43441143
   0.56591247  0.20232930  0.34501736
   0.80416232  0.37250339  0.30023350
   0.43797924  0.95589787  0.47854829
   0.55875924  0.53740611  0.38915134
   0.06264174  0.20556843  0.47858938
   0.31967894  0.87420843  0.78840935
   0.93981898  0.95829245  0.69967306
   0.05433925  0.37213982  0.30032784
   0.68421739  0.62559453  0.65491379
   0.68874236  0.45768262  0.56550991
   0.43175961  0.95277322  0.21176399
   0.31299877  0.20580751  0.47852480
   0.43414647  0.12550219  0.65491970
   0.68793035  0.62042826  0.43439793
   0.81474308  0.20814260  0.69963887
   0.81286901  0.70563869  0.47864110
   0.81297055  0.87088253  0.43441092
   0.93770267  0.95575528  0.47855896
   0.56268503  0.20564157  0.47852576
   0.18815670  0.62043194  0.43437924
   0.31105537  0.04181829  0.74412177
   0.93417448  0.62558485  0.65491478
   0.55882689  0.71289625  0.83314855
   0.30457245  0.37236438  0.30030935
   0.55699808  0.70245137  0.21159218
   0.18789212  0.45571841  0.47857415
   0.31397893  0.04236139  0.87564872
   0.18997062  0.45816792  0.69965416
   0.81403465  0.54246723  0.87556764
   0.18363749  0.28829454  0.38919186
   0.43808372  0.62053742  0.43435135
   0.05652867  0.70240571  0.21162479
   0.56239283  0.03106401  0.12450868
   0.81787427  0.36329187  0.16700168
   0.80889622  0.71338444  0.83337664
   0.06955055  0.37439533  0.78836463
   0.43987718  0.29517801  0.87582826
   0.31187726  0.03146164  0.12437048
   0.68754869  0.12025945  0.43443389
   0.19103830  0.95240237  0.34514590
   0.05869375  0.21235241  0.83324341
   0.56271557  0.04181727  0.61074666
   0.68178063  0.45270693  0.21169481
   0.18606746  0.79171999  0.74413842
   0.17969892  0.62215642  0.30029521
   0.43407441  0.78762135  0.38907434
   0.43984398  0.28551742  0.25604882
   0.06460482  0.54233851  0.87557600
   0.56077591  0.04190063  0.74411173
   0.18913038  0.79395649  0.87559041
   0.93764067  0.45569985  0.47855966
   0.80897033  0.53761946  0.38911234
   0.81371628  0.20764757  0.56546837
   0.19463262  0.62422169  0.78843169
   0.93141467  0.95303909  0.21182071
   0.06482632  0.70815044  0.69966958
   0.31493686  0.53541546  0.25599367
   0.30673675  0.70227812  0.21156694
   0.56792359  0.86328358  0.16683136
   0.56103400  0.54171644  0.74415848
   0.69056534  0.45226394  0.34494938
   0.94108966  0.29444596  0.87565529
   0.56530792  0.03593674  0.25593719
   0.80799731  0.03760254  0.38910247
   0.31880944  0.36325424  0.16626960
   0.81432445  0.04253026  0.87529839
   0.56311460  0.37098316  0.43442870
   0.05887703  0.53725472  0.38906659
   0.94200489  0.95261806  0.34497485
   0.18784318  0.95588031  0.47859865
Direct configuration=     3
   0.06221520  0.03169273  0.12464918
   0.06308904  0.87261804  0.52157882
   0.19303872  0.12468279  0.78835792
   0.43453318  0.28740499  0.38928747
   0.31012717  0.71215577  0.83336688
   0.81016553  0.21171212  0.83352809
   0.18467631  0.78742457  0.38932299
   0.56350864  0.20724932  0.56557562
   0.06175593  0.04165279  0.74398887
   0.81339444  0.87285076  0.52161396
   0.18689904  0.29165872  0.74397656
   0.93906561  0.45306431  0.34503279
   0.93495826  0.28694879  0.38930241
   0.43844510  0.62319175  0.52162382
   0.18748184  0.79172088  0.61059971
   0.55940577  0.03791211  0.38931824
   0.93445772  0.96265477  0.83342924
   0.31362129  0.54369681  0.87538998
   0.68677922  0.29164036  0.74398676
   0.19099624  0.61334542  0.16672406
   0.81295554  0.20539981  0.47830026
   0.81246201  0.54172020  0.61058260
   0.31274140  0.87075216  0.43428200
   0.81345177  0.03534928  0.25605563
   0.68904024  0.95272908  0.34501238
   0.94090472  0.11365507  0.16674675
   0.93846231  0.12268010  0.52155973
   0.56348316  0.53559523  0.25599388
   0.68912825  0.79359145  0.87547390
   0.56678802  0.36451357  0.16663079
   0.43713323  0.79175358  0.74403208
   0.81353554  0.70737381  0.56563949
   0.56768200  0.87438083  0.78820892
   0.68852164  0.12284819  0.52159758
   0.18861349  0.28576139  0.25605858
   0.93497391  0.46242863  0.83331590
   0.06413374  0.20816431  0.69969917
   0.43915561  0.95817246  0.69973221
   0.31021280  0.21197905  0.83342741
   0.43510499  0.62534337  0.65491492
   0.31268710  0.54167671  0.61055495
   0.93838064  0.45727755  0.56560149
   0.68702582  0.79162830  0.74398056
   0.31013855  0.87534772  0.65492356
   0.68502624  0.78754640  0.38930197
   0.93693360  0.79157309  0.74400143
   0.06388469  0.20326451  0.34508950
   0.43949298  0.78416935  0.12476633
   0.44285602  0.12475999  0.78835632
   0.05808927  0.20233307  0.21169663
   0.06651987  0.36444362  0.16673643
   0.93865187  0.78580027  0.25599779
   0.56413257  0.20825948  0.69970149
   0.68905032  0.95821874  0.69969148
   0.68469857  0.28728663  0.38927176
   0.43863095  0.95744400  0.56570856
   0.81792078  0.37521612  0.78822236
   0.68849225  0.28568076  0.25609502
   0.18849746  0.45725439  0.56561822
   0.06620648  0.86421175  0.16664226
   0.18753991  0.29162897  0.61058497
   0.56406549  0.70283879  0.34496413
   0.31419922  0.20820767  0.69970633
   0.56365489  0.54345702  0.87545272
   0.06335534  0.70715883  0.56572510
   0.69285192  0.62473100  0.78832199
   0.31018638  0.53772849  0.38932292
   0.18823646  0.62301321  0.52159582
   0.56267567  0.87088931  0.43436571
   0.43839605  0.45739017  0.56561296
   0.43692866  0.29181962  0.74400218
   0.80642245  0.87167095  0.30026326
   0.81407353  0.70326700  0.34514420
   0.43520215  0.46188333  0.83337391
   0.68782647  0.95515809  0.47837523
   0.68920652  0.45824060  0.69969137
   0.56329419  0.87296050  0.52160521
   0.56012002  0.37548253  0.65489444
   0.80999326  0.87541166  0.65491917
   0.81298023  0.37077510  0.43432617
   0.81347990  0.53557561  0.25608817
   0.68515073  0.46254316  0.83340620
   0.18846450  0.78390058  0.12476569
   0.06420394  0.04410907  0.87536229
   0.31020504  0.37537067  0.65491875
   0.31410492  0.20289679  0.34496737
   0.81193618  0.54135710  0.74402450
   0.68549835  0.96263907  0.83347314
   0.56007364  0.87540903  0.65492350
   0.31340684  0.70715282  0.56573287
   0.31315252  0.53211576  0.12445853
   0.68313410  0.95254990  0.21179725
   0.31357822  0.20749114  0.56570010
   0.31201758  0.54172625  0.74395917
   0.68841101  0.95732281  0.56563186
   0.43750497  0.79171583  0.61059351
   0.69138420  0.61443425  0.16675965
   0.30638250  0.87156046  0.30023948
   0.31283497  0.70472236  0.47835824
   0.93765548  0.29167505  0.61055866
   0.43163613  0.62157501  0.30030272
   0.81666137  0.86420071  0.16674960
   0.55775478  0.20210418  0.21169719
   0.94106149  0.61459157  0.16676213
   0.93863629  0.79301250  0.87537534
   0.56805291  0.37470069  0.78832086
   0.06332444  0.37268187  0.52159877
   0.56329272  0.37279129  0.52151545
   0.68168665  0.12138894  0.30032928
   0.43480637  0.96196903  0.83341753
   0.18930707  0.28391031  0.12464893
   0.81793039  0.87466896  0.78832178
   0.31238788  0.37103466  0.43435435
   0.93753463  0.79167496  0.61057742
   0.43761613  0.29165774  0.61055941
   0.18967606  0.45274281  0.34505328
   0.43871207  0.28396390  0.12453075
   0.68847126  0.78557762  0.25594533
   0.18925399  0.95810678  0.69974341
   0.18926766  0.29447043  0.87552634
   0.18510125  0.12541484  0.65490912
   0.93500527  0.12537838  0.65488928
   0.30774208  0.20190000  0.21176672
   0.06004892  0.03736572  0.38936643
   0.19147015  0.11415021  0.16665727
   0.06248612  0.54174092  0.61056597
   0.93850963  0.28575866  0.25599307
   0.56259941  0.54170909  0.61054384
   0.93837687  0.95736399  0.56567947
   0.68157473  0.62155741  0.30019124
   0.93749658  0.62055343  0.43443938
   0.94312119  0.62473695  0.78830598
   0.56417311  0.70816641  0.69971284
   0.06045055  0.71212253  0.83322218
   0.93129054  0.12182350  0.30030012
   0.93923802  0.45823954  0.69969402
   0.43871595  0.78572333  0.25604774
   0.31795049  0.37444943  0.78835435
   0.43340758  0.45260473  0.21188635
   0.18821456  0.12311407  0.52153785
   0.81412127  0.70830191  0.69966339
   0.06257905  0.04158125  0.61057624
   0.56063858  0.21208681  0.83356649
   0.31343431  0.87267213  0.52156692
   0.68996200  0.28402390  0.12482581
   0.18296071  0.95236339  0.21169417
   0.68755023  0.29171239  0.61054760
   0.31243967  0.04161616  0.61062697
   0.94287186  0.12483773  0.78839965
   0.43903624  0.79391996  0.87541449
   0.81176380  0.04158749  0.74400867
   0.43801222  0.12288440  0.52159878
   0.18516244  0.62537552  0.65493744
   0.31428311  0.70808643  0.69965721
   0.93841044  0.28359865  0.12482677
   0.43802316  0.45552303  0.47835425
   0.06289532  0.70469972  0.47834315
   0.93795144  0.12035368  0.43432690
   0.43143590  0.12126222  0.30033457
   0.18823044  0.12096680  0.43433300
   0.56289741  0.04398440  0.87544029
   0.18836678  0.95721521  0.56542766
   0.68906856  0.78344677  0.12472228
   0.56288344  0.53221377  0.12457487
   0.30996985  0.03755695  0.38934759
   0.69125003  0.11376461  0.16677517
   0.80783373  0.20237533  0.21176592
   0.06356799  0.53579080  0.25605656
   0.56270093  0.70509951  0.47828837
   0.06330791  0.20737578  0.56568194
   0.55646639  0.37169741  0.30032616
   0.43926913  0.95283787  0.34499037
   0.18543230  0.96175025  0.83332553
   0.44138269  0.61330853  0.16663411
   0.93318292  0.45253744  0.21184102
   0.06273977  0.53205911  0.12464855
   0.81347694  0.37257063  0.52163704
   0.93165861  0.62177630  0.30033769
   0.31357450  0.03541543  0.25604548
   0.68745161  0.79165249  0.61061477
   0.18507010  0.46196579  0.83335554
   0.44064989  0.11367852  0.16673657
   0.31316336  0.37265574  0.52163705
   0.44304893  0.62455728  0.78836803
   0.06371093  0.03537751  0.25596226
   0.56345478  0.70746564  0.56559315
   0.93694136  0.29156446  0.74399697
   0.69296199  0.12482357  0.78840534
   0.18277197  0.45274746  0.21190402
   0.93446397  0.78746712  0.38928378
   0.68830079  0.29396898  0.87554860
   0.31645985  0.86378523  0.16667386
   0.43927513  0.45824287  0.69969801
   0.81007178  0.37537425  0.65490431
   0.68822484  0.62305131  0.52163340
   0.06003255  0.87531346  0.65490652
   0.06833908  0.87430283  0.78820259
   0.06006760  0.37542530  0.65491616
   0.68786829  0.45541063  0.47836024
   0.18879349  0.78558245  0.25594196
   0.43750445  0.12078159  0.43427815
   0.81244028  0.03217025  0.12459268
   0.93827063  0.62295379  0.52162826
   0.06236945  0.87068595  0.43429962
   0.81305070  0.53221807  0.12465143
   0.43932500  0.45263250  0.34504305