 vasp.5.4.4.18Apr17-6-g9f103f2a35 (build May 29 2019 08:40:53) complex           
 executed on             LinuxPGI date 2021.12.31  13:07:08
 running on  240 total cores
 distrk:  each k-point on   60 cores,    4 groups
 distr:  one band on NCORES_PER_BAND=   6 cores,   10 groups


--------------------------------------------------------------------------------------------------------


 INCAR:
 POTCAR:    PAW_PBE Fe_GW 31Mar2010               
 POTCAR:    PAW_PBE Mn_GW 31Mar2010               

 ----------------------------------------------------------------------------- 
|                                                                             |
|           W    W    AA    RRRRR   N    N  II  N    N   GGGG   !!!           |
|           W    W   A  A   R    R  NN   N  II  NN   N  G    G  !!!           |
|           W    W  A    A  R    R  N N  N  II  N N  N  G       !!!           |
|           W WW W  AAAAAA  RRRRR   N  N N  II  N  N N  G  GGG   !            |
|           WW  WW  A    A  R   R   N   NN  II  N   NN  G    G                |
|           W    W  A    A  R    R  N    N  II  N    N   GGGG   !!!           |
|                                                                             |
|      For optimal performance we recommend to set                            |
|        NCORE= 4 - approx SQRT( number of cores)                             |
|      NCORE specifies how many cores store one orbital (NPAR=cpu/NCORE).     |
|      This setting can  greatly improve the performance of VASP for DFT.     |
|      The default,   NCORE=1            might be grossly inefficient         |
|      on modern multi-core architectures or massively parallel machines.     |
|      Do your own testing !!!!                                               |
|      Unfortunately you need to use the default for GW and RPA calculations. |
|      (for HF NCORE is supported but not extensively tested yet)             |
|                                                                             |
 ----------------------------------------------------------------------------- 


 ----------------------------------------------------------------------------- 
|                                                                             |
|           W    W    AA    RRRRR   N    N  II  N    N   GGGG   !!!           |
|           W    W   A  A   R    R  NN   N  II  NN   N  G    G  !!!           |
|           W    W  A    A  R    R  N N  N  II  N N  N  G       !!!           |
|           W WW W  AAAAAA  RRRRR   N  N N  II  N  N N  G  GGG   !            |
|           WW  WW  A    A  R   R   N   NN  II  N   NN  G    G                |
|           W    W  A    A  R    R  N    N  II  N    N   GGGG   !!!           |
|                                                                             |
|      You have enabled k-point parallelism (KPAR>1).                         |
|      This developmental code was originally  written by Paul Kent at ORNL,  |
|      and carefully double checked in Vienna.                                |
|      GW as well as linear response parallelism added by Martijn Marsman     |
|      and Georg Kresse.                                                      |
|      Carefully verify results versus KPAR=1.                                |
|      Report problems to Paul Kent and Vienna.                               |
|                                                                             |
 ----------------------------------------------------------------------------- 

 POTCAR:    PAW_PBE Fe_GW 31Mar2010               
   SHA256 =  2f8cc54f0048d2b8131fafa2fd9471601c7f588f91a54eba7a0e33760ec848ea Fe
   COPYR  = (c) Copyright 31Mar2010 Georg Kresse                                
   COPYR  = This file is part of the software VASP. Any use, copying, and all ot
   COPYR  = If you do not have a valid VASP license, you may not use, copy or di
   VRHFIN =Fe:  d7 s1                                                           
   LEXCH  = PE                                                                  
   EATOM  =   594.3155 eV,   43.6810 Ry                                         
                                                                                
   TITEL  = PAW_PBE Fe_GW 31Mar2010                                             
   LULTRA =        F    use ultrasoft PP ?                                      
   IUNSCR =        1    unscreen: 0-lin 1-nonlin 2-no                           
   RPACOR =    1.800    partial core radius                                     
   POMASS =   55.847; ZVAL   =    8.000    mass and valenz                      
   RCORE  =    2.300    outmost cutoff radius                                   
   RWIGS  =    2.300; RWIGS  =    1.217    wigner-seitz radius (au A)           
   ENMAX  =  321.007; ENMIN  =  240.755 eV                                      
   RCLOC  =    1.701    cutoff for local pot                                    
   LCOR   =        T    correct aug charges                                     
   LPAW   =        T    paw PP                                                  
   EAUG   =  753.401                                                            
   DEXC   =    0.000                                                            
   RMAX   =    2.356    core radius for proj-oper                               
   RAUG   =    1.300    factor for augmentation sphere                          
   RDEP   =    2.442    radius for radial grids                                 
   RDEPT  =    1.800    core radius for aug-charge                              
                                                                                
   Atomic configuration                                                         
    9 entries                                                                   
     n  l   j            E        occ.                                          
     1  0  0.50     -6993.8440   2.0000                                         
     2  0  0.50      -814.6047   2.0000                                         
     2  1  1.50      -693.3689   6.0000                                         
     3  0  0.50       -89.4732   2.0000                                         
     3  1  1.50       -55.6373   6.0000                                         
     3  2  2.50        -3.8151   7.0000                                         
     4  0  0.50        -4.2551   1.0000                                         
     4  1  1.50        -3.4015   0.0000                                         
     4  3  2.50        -1.3606   0.0000                                         
   Description                                                                  
     l       E           TYP  RCUT    TYP  RCUT                                 
     2     -3.8151215     23  2.100                                             
     2     -5.1757041     23  2.100                                             
     0     -4.2550988     23  2.300                                             
     0     54.4233040     23  2.300                                             
     1     -2.7211652     23  2.300                                             
     1     68.0291300     23  2.300                                             
     3     27.2116520     23  2.300                                             
  local pseudopotential read in
  partial core-charges read in
  partial kinetic energy density read in
  kinetic energy density of atom read in
  atomic valenz-charges read in
  non local Contribution for L=            2  read in
    real space projection operators read in
  non local Contribution for L=            2  read in
    real space projection operators read in
  non local Contribution for L=            0  read in
    real space projection operators read in
  non local Contribution for L=            0  read in
    real space projection operators read in
  non local Contribution for L=            1  read in
    real space projection operators read in
  non local Contribution for L=            1  read in
    real space projection operators read in
  non local Contribution for L=            3  read in
    real space projection operators read in
    PAW grid and wavefunctions read in
 
   number of l-projection  operators is LMAX  =            7
   number of lm-projection operators is LMMAX =           25
 
 POTCAR:    PAW_PBE Mn_GW 31Mar2010               
   SHA256 =  94ae266cf9f02ce3d66f03781e79a4abde1ab929a3c493eac5d81431ef91e174 Mn
   COPYR  = (c) Copyright 31Mar2010 Georg Kresse                                
   COPYR  = This file is part of the software VASP. Any use, copying, and all ot
   COPYR  = If you do not have a valid VASP license, you may not use, copy or di
   VRHFIN =Mn: d6 s1                                                            
   LEXCH  = PE                                                                  
   EATOM  =   416.7540 eV,   30.6306 Ry                                         
                                                                                
   TITEL  = PAW_PBE Mn_GW 31Mar2010                                             
   LULTRA =        F    use ultrasoft PP ?                                      
   IUNSCR =        1    unscreen: 0-lin 1-nonlin 2-no                           
   RPACOR =    1.800    partial core radius                                     
   POMASS =   54.938; ZVAL   =    7.000    mass and valenz                      
   RCORE  =    2.400    outmost cutoff radius                                   
   RWIGS  =    2.500; RWIGS  =    1.323    wigner-seitz radius (au A)           
   ENMAX  =  278.466; ENMIN  =  208.850 eV                                      
   RCLOC  =    1.725    cutoff for local pot                                    
   LCOR   =        T    correct aug charges                                     
   LPAW   =        T    paw PP                                                  
   EAUG   =  838.435                                                            
   DEXC   =    0.000                                                            
   RMAX   =    2.458    core radius for proj-oper                               
   RAUG   =    1.300    factor for augmentation sphere                          
   RDEP   =    2.492    radius for radial grids                                 
   RDEPT  =    1.800    core radius for aug-charge                              
                                                                                
   Atomic configuration                                                         
    9 entries                                                                   
     n  l   j            E        occ.                                          
     1  0  0.50     -6424.8287   2.0000                                         
     2  0  0.50      -739.1153   2.0000                                         
     2  1  1.50      -625.3949   6.0000                                         
     3  0  0.50       -81.6100   2.0000                                         
     3  1  1.50       -50.4666   6.0000                                         
     3  2  2.50        -3.3745   6.0000                                         
     4  0  0.50        -4.1331   1.0000                                         
     4  1  0.50        -4.0817   0.0000                                         
     4  3  2.50        -1.3606   0.0000                                         
   Description                                                                  
     l       E           TYP  RCUT    TYP  RCUT                                 
     2     -3.3744623     23  2.250                                             
     2     -4.7350449     23  2.250                                             
     0     -4.1331408     23  2.300                                             
     0     54.4233040     23  2.300                                             
     1     -2.7211652     23  2.400                                             
     1     68.0291300     23  2.400                                             
     3     27.2116520     23  2.400                                             
  local pseudopotential read in
  partial core-charges read in
  partial kinetic energy density read in
  kinetic energy density of atom read in
  atomic valenz-charges read in
  non local Contribution for L=            2  read in
    real space projection operators read in
  non local Contribution for L=            2  read in
    real space projection operators read in
  non local Contribution for L=            0  read in
    real space projection operators read in
  non local Contribution for L=            0  read in
    real space projection operators read in
  non local Contribution for L=            1  read in
    real space projection operators read in
  non local Contribution for L=            1  read in
    real space projection operators read in
  non local Contribution for L=            3  read in
    real space projection operators read in
    PAW grid and wavefunctions read in
 
   number of l-projection  operators is LMAX  =            7
   number of lm-projection operators is LMMAX =           25
 
 Optimization of the real space projectors (new method)

 maximal supplied QI-value         = 16.25
 optimisation between [QCUT,QGAM] = [ 11.38, 22.75] = [ 36.24,144.96] Ry 
 Optimized for a Real-space Cutoff    1.47 Angstroem

   l    n(q)    QCUT    max X(q) W(low)/X(q) W(high)/X(q)  e(spline) 
   2      9    11.376   131.327    0.18E-03    0.15E-03    0.32E-06
   2      9    11.376   127.187    0.18E-03    0.15E-03    0.32E-06
   0     10    11.376    16.887    0.65E-04    0.39E-04    0.15E-06
   0     10    11.376     8.663    0.39E-04    0.30E-04    0.12E-06
   1     10    11.376     5.390    0.67E-04    0.60E-04    0.14E-06
   1     10    11.376     3.548    0.40E-04    0.37E-04    0.94E-07
   3      9    11.376     4.269    0.82E-04    0.22E-03    0.14E-06
 Optimization of the real space projectors (new method)

 maximal supplied QI-value         = 15.68
 optimisation between [QCUT,QGAM] = [ 11.45, 22.90] = [ 36.71,146.85] Ry 
 Optimized for a Real-space Cutoff    1.52 Angstroem

   l    n(q)    QCUT    max X(q) W(low)/X(q) W(high)/X(q)  e(spline) 
   2      9    11.450   123.144    0.15E-03    0.12E-04    0.31E-06
   2      9    11.450   117.938    0.15E-03    0.12E-04    0.31E-06
   0     10    11.450    19.684    0.63E-04    0.21E-04    0.22E-06
   0     10    11.450     9.378    0.37E-04    0.16E-04    0.17E-06
   1     10    11.450     5.531    0.25E-04    0.81E-04    0.11E-06
   1     10    11.450     3.850    0.15E-04    0.46E-04    0.77E-07
   3      9    11.450     4.123    0.90E-04    0.12E-03    0.18E-06
  PAW_PBE Fe_GW 31Mar2010               :
 energy of atom  1       EATOM= -594.3155
 kinetic energy error for atom=    0.0081 (will be added to EATOM!!)
  PAW_PBE Mn_GW 31Mar2010               :
 energy of atom  2       EATOM= -416.7540
 kinetic energy error for atom=    0.0025 (will be added to EATOM!!)
 
 
 POSCAR: FeMn_288_20                             
  positions in direct lattice
  velocities in cartesian coordinates
 exchange correlation table for  LEXCH =        8
   RHO(1)=    0.500       N(1)  =     2000
   RHO(2)=  100.500       N(2)  =     4000
 


--------------------------------------------------------------------------------------------------------


 ion  position               nearest neighbor table
   1  0.437  0.296  0.874- 155 2.36 135 2.36 220 2.37   7 2.42 143 2.42 133 2.43  41 2.43  80 2.44
                           132 2.44
   2  0.813  0.379  0.787- 286 2.42  73 2.43  98 2.43 167 2.43 140 2.43  91 2.43 279 2.44 148 2.44
                           142 2.44  31 2.45 252 2.46 145 2.47
   3  0.437  0.121  0.435- 178 2.42  47 2.42 215 2.43  96 2.43  88 2.43 169 2.43 176 2.43 284 2.43
                           162 2.44 152 2.44 283 2.46  40 2.46
   4  0.937  0.451  0.346-  79 2.42  30 2.43 280 2.43 240 2.43 234 2.43 185 2.43  99 2.43 196 2.43
                           250 2.43  35 2.44 203 2.44 180 2.45
   5  0.062  0.545  0.874- 252 2.36  82 2.36  93 2.36  56 2.43 143 2.43 248 2.43 172 2.43   7 2.44
                           182 2.44
   6  0.937  0.116  0.168-  10 2.36 195 2.36  13 2.36 187 2.43  44 2.43  64 2.43 212 2.43 184 2.43
                           197 2.43  15 2.46  78 2.46 271 2.46
   7  0.313  0.545  0.874- 155 2.36  93 2.36  16 2.36   1 2.42 143 2.43 133 2.43   5 2.44 127 2.44
                           182 2.44
   8  0.687  0.616  0.168- 129 2.36 117 2.36 256 2.36 174 2.43  66 2.43 197 2.43 110 2.43 224 2.43
                           187 2.43 193 2.45 102 2.45 237 2.46
   9  0.437  0.293  0.610- 265 2.42 107 2.43 151 2.43 144 2.43 154 2.43 216 2.43 229 2.43  50 2.44
                           275 2.44 113 2.44  45 2.46 259 2.46
  10  0.813  0.032  0.126- 187 2.36   6 2.36 184 2.37 195 2.43  32 2.43  68 2.43 158 2.43  13 2.44
                           129 2.44
  11  0.687  0.461  0.698- 278 2.43 276 2.43 150 2.43 142 2.43  34 2.43 243 2.43 188 2.43  42 2.44
                           268 2.44  91 2.44 216 2.44  52 2.45
  12  0.062  0.033  0.257- 271 2.42  78 2.43  63 2.43  95 2.43 123 2.43 199 2.43 213 2.43 163 2.43
                           126 2.43  39 2.43  87 2.44 273 2.45
  13  0.938  0.283  0.126- 212 2.36   6 2.36 197 2.36 117 2.43 111 2.43 247 2.43 195 2.43  68 2.43
                            10 2.44
  14  0.813  0.035  0.390- 185 2.42 179 2.43  40 2.43  79 2.43 106 2.43 214 2.43 147 2.43 264 2.43
                           192 2.43 124 2.44 284 2.45 183 2.46
  15  0.813  0.198  0.213- 271 2.42  28 2.43 122 2.43 126 2.43  78 2.43 123 2.43 257 2.44 237 2.44
                           168 2.44 184 2.45   6 2.46 197 2.46
  16  0.312  0.713  0.832-   7 2.36 182 2.37 127 2.37  38 2.42  26 2.43 223 2.43  82 2.43 155 2.44
                            93 2.44  97 2.45 109 2.46 272 2.47
  17  0.313  0.199  0.213- 201 2.43 231 2.43 199 2.43 213 2.43 122 2.43 116 2.43  78 2.43 163 2.44
                           137 2.44 108 2.45  64 2.46  22 2.46
  18  0.062  0.370  0.435- 221 2.41 170 2.42 281 2.42 146 2.43 183 2.43  24 2.43 169 2.43 161 2.44
                           215 2.44 234 2.45  79 2.46  70 2.46
  19  0.062  0.377  0.654- 275 2.43 238 2.43  50 2.43 282 2.43 153 2.43 249 2.43 112 2.43  52 2.43
                            43 2.44 274 2.44 205 2.44 276 2.45
  20  0.188  0.958  0.565- 189 2.41 118 2.42  81 2.42  45 2.43 202 2.43 235 2.43  65 2.43 210 2.43
                           219 2.44 242 2.45 107 2.46 261 2.47
  21  0.563  0.367  0.302- 211 2.43  51 2.43  37 2.43 254 2.43 200 2.43 194 2.43 168 2.43 203 2.43
                           116 2.43  62 2.44 240 2.44 149 2.44
  22  0.312  0.366  0.168- 157 2.36 247 2.36 233 2.36  66 2.43  64 2.43 110 2.43 108 2.43 212 2.43
                           263 2.43 137 2.45 231 2.45  17 2.46
  23  0.688  0.623  0.521- 251 2.38 165 2.38 159 2.39 253 2.41 166 2.42  89 2.42 204 2.43 241 2.43
                            54 2.43 207 2.43 287 2.43 225 2.44
  24  0.938  0.620  0.435- 170 2.42 190 2.42 161 2.43 165 2.43 115 2.43  18 2.43 146 2.43 124 2.43
                           244 2.44 264 2.44 234 2.45  30 2.46
  25  0.813  0.866  0.302-  39 2.43 196 2.43  77 2.43 211 2.43 126 2.43  87 2.43 194 2.44 164 2.44
                            99 2.44  95 2.44 147 2.44 179 2.44
  26  0.437  0.962  0.832- 127 2.36  41 2.36 132 2.37  16 2.43  38 2.43 135 2.43 223 2.43 220 2.43
                           119 2.44 130 2.46 173 2.46 272 2.47
  27  0.313  0.711  0.698- 278 2.43  48 2.43 205 2.43 131 2.43 188 2.43  86 2.44  33 2.44 138 2.44
                           206 2.44  43 2.44 156 2.44  94 2.45
  28  0.687  0.949  0.213- 164 2.43 271 2.43  15 2.43 102 2.43 122 2.43 201 2.43 193 2.43 126 2.43
                            83 2.43 174 2.45 187 2.46 184 2.46
  29  0.313  0.032  0.126- 139 2.36 108 2.36  64 2.36 233 2.43 158 2.43 247 2.43 195 2.43 181 2.43
                           128 2.44
  30  0.813  0.535  0.390-  99 2.42   4 2.43  85 2.43 264 2.43 234 2.43 192 2.43 240 2.43  79 2.43
                           214 2.43 146 2.45 244 2.46  24 2.46
  31  0.687  0.462  0.832- 133 2.36 248 2.36  80 2.37  60 2.43 223 2.43 155 2.43 220 2.43 145 2.43
                           252 2.43 140 2.45   2 2.45 167 2.46
  32  0.938  0.782  0.126-  44 2.36 224 2.36 187 2.36 111 2.43  10 2.43 181 2.43 195 2.43 117 2.44
                           129 2.44
  33  0.312  0.545  0.743- 109 2.43 206 2.43 268 2.43 226 2.43 246 2.43 267 2.43  94 2.43  55 2.43
                            27 2.44 278 2.44  97 2.44 205 2.44
  34  0.687  0.627  0.654- 285 2.43 156 2.43 216 2.43 230 2.43 188 2.43  92 2.43  11 2.43 274 2.44
                           154 2.44  52 2.44  42 2.44  53 2.44
  35  0.188  0.451  0.346-  70 2.42 105 2.43 234 2.43 280 2.43 149 2.43 258 2.43 250 2.43 104 2.43
                             4 2.44  58 2.44 180 2.44 254 2.45
  36  0.437  0.620  0.435- 191 2.42 161 2.43 215 2.43 176 2.43 121 2.43  88 2.43 251 2.43 162 2.44
                           244 2.44 141 2.44 105 2.45  85 2.46
  37  0.562  0.533  0.257- 193 2.43  21 2.43 160 2.43 134 2.43  72 2.43 116 2.43 168 2.43  51 2.43
                           164 2.43 237 2.43 231 2.43 211 2.44
  38  0.188  0.961  0.832- 182 2.35  41 2.36 262 2.36  16 2.42  26 2.43  82 2.43 218 2.43 135 2.44
                           114 2.44 245 2.46 277 2.47 272 2.47
  39  0.062  0.866  0.302-  25 2.43  58 2.43  87 2.43  63 2.43  95 2.43 196 2.43  12 2.43 103 2.44
                           273 2.44 147 2.44 280 2.44 101 2.45
  40  0.563  0.035  0.390-  62 2.42 179 2.43 214 2.43 152 2.43  14 2.43 141 2.43 283 2.43 192 2.43
                           232 2.43 284 2.45 162 2.45   3 2.46
  41  0.313  0.046  0.874-  26 2.36  38 2.36 135 2.36 182 2.43 127 2.43   1 2.43 143 2.43 132 2.43
                           262 2.44
  42  0.812  0.711  0.698- 188 2.43 270 2.43  86 2.43 198 2.43  11 2.44  91 2.44 276 2.44  34 2.44
                            92 2.44 239 2.44 255 2.44 274 2.45
  43  0.188  0.627  0.654- 242 2.42 156 2.42 151 2.43  50 2.43 138 2.43 238 2.43 266 2.43  19 2.44
                           205 2.44 274 2.44  27 2.44  86 2.45
  44  0.062  0.866  0.168-  32 2.36 195 2.36 181 2.36 187 2.42 224 2.43 263 2.43   6 2.43 139 2.43
                            64 2.44 199 2.47 271 2.47 269 2.48
  45  0.312  0.207  0.565- 136 2.42 189 2.43  20 2.43 210 2.43  46 2.43 177 2.43 235 2.43 113 2.44
                           259 2.44 107 2.44   9 2.46 275 2.46
  46  0.438  0.123  0.521-  96 2.38  47 2.38 178 2.39 235 2.41 259 2.42  45 2.43 136 2.43 189 2.43
                           207 2.43  90 2.43 287 2.43 118 2.44
  47  0.312  0.205  0.479- 189 2.38  46 2.38 136 2.39 215 2.41 169 2.42   3 2.42  57 2.43 178 2.43
                           221 2.43  96 2.43 281 2.43 191 2.44
  48  0.437  0.961  0.698- 131 2.43  27 2.43 206 2.43  84 2.43 260 2.43 243 2.43 188 2.43 138 2.44
                           270 2.44 208 2.44 265 2.44 230 2.45
  49  0.813  0.205  0.479-  90 2.38 100 2.38 241 2.39 146 2.41 183 2.42 125 2.43 221 2.43 222 2.43
                           284 2.43 170 2.43 159 2.43  96 2.44
  50  0.312  0.377  0.654- 151 2.42  43 2.43 249 2.43 265 2.43  19 2.43  84 2.43 156 2.43 275 2.43
                             9 2.44 216 2.44 205 2.44 278 2.45
  51  0.438  0.617  0.302-  77 2.43  21 2.43 211 2.43  72 2.43 254 2.43  37 2.43 103 2.43  58 2.43
                           160 2.44 149 2.44  75 2.44 104 2.45
  52  0.812  0.377  0.654-  53 2.42 216 2.43 153 2.43 144 2.43  59 2.43  19 2.43 274 2.43 282 2.43
                            34 2.44 150 2.45  11 2.45 276 2.45
  53  0.812  0.543  0.610- 274 2.42  52 2.42  76 2.43 285 2.43 153 2.43 154 2.43 144 2.43 238 2.43
                            34 2.44 166 2.45 288 2.45 253 2.46
  54  0.813  0.873  0.521- 125 2.38 222 2.38 165 2.39 166 2.41 219 2.42  71 2.43 204 2.43  81 2.43
                            23 2.43 100 2.43 287 2.44  90 2.44
  55  0.437  0.295  0.743- 226 2.43 268 2.43 142 2.43 278 2.43 208 2.43  33 2.43 260 2.43 167 2.43
                           267 2.44 130 2.44 243 2.44  84 2.44
  56  0.938  0.296  0.874- 252 2.36 114 2.36 145 2.36   5 2.43 143 2.43 262 2.43 186 2.43 248 2.44
                            80 2.44
  57  0.188  0.955  0.479-  81 2.38 118 2.38 189 2.39 169 2.41 115 2.43 221 2.43 176 2.43  47 2.43
                           190 2.43 178 2.43 121 2.43 125 2.44
  58  0.188  0.617  0.302- 254 2.43  39 2.43  63 2.43 160 2.43 180 2.43 103 2.43 196 2.43  51 2.43
                           175 2.44  35 2.44 280 2.45 104 2.45
  59  0.687  0.127  0.654- 230 2.43 265 2.43 144 2.43 216 2.43 229 2.43  92 2.43 209 2.43  52 2.43
                           282 2.44 270 2.44 243 2.45 150 2.45
  60  0.813  0.712  0.832- 248 2.36 172 2.37  69 2.37  82 2.43  31 2.43 252 2.43 218 2.43 223 2.43
                           119 2.44 140 2.45 236 2.46 286 2.47
  61  0.813  0.045  0.743- 120 2.43 148 2.43 255 2.43 236 2.43 279 2.43 142 2.43 150 2.43 239 2.44
                           208 2.44  73 2.44 270 2.44 198 2.45
  62  0.562  0.201  0.346-  40 2.42 152 2.42 258 2.43 149 2.43 192 2.43 185 2.43 179 2.43 240 2.43
                           232 2.43  21 2.44 194 2.44 200 2.44
  63  0.187  0.783  0.257- 269 2.42 199 2.43  12 2.43  95 2.43 213 2.43 175 2.43  39 2.43  58 2.43
                           160 2.43  72 2.44  67 2.44 103 2.44
  64  0.187  0.116  0.168- 247 2.36  29 2.36 195 2.37 212 2.43  22 2.43   6 2.43 108 2.43 139 2.44
                            44 2.44  78 2.45  17 2.46 199 2.46
  65  0.062  0.708  0.565-  81 2.42 288 2.43 204 2.43 219 2.43  20 2.43 166 2.43 171 2.44 202 2.44
                           238 2.44 177 2.44  76 2.45 242 2.45
  66  0.437  0.616  0.168- 128 2.36 157 2.36 256 2.36  22 2.43 174 2.43   8 2.43 139 2.43 110 2.43
                           263 2.43  67 2.45 193 2.46 231 2.46
  67  0.313  0.699  0.213- 137 2.43 269 2.43 193 2.43 231 2.43 201 2.43 160 2.43 199 2.43  72 2.44
                            63 2.44  66 2.45 139 2.46 263 2.46
  68  0.687  0.282  0.126- 184 2.36 197 2.36 110 2.36 117 2.43 256 2.43 233 2.43  10 2.43 158 2.43
                            13 2.43
  69  0.687  0.795  0.874- 223 2.36 119 2.36  60 2.37 133 2.43 127 2.43 248 2.43 132 2.43 186 2.44
                           172 2.44
  70  0.188  0.285  0.390-  35 2.42 250 2.43 105 2.43 234 2.43 283 2.43 106 2.43 258 2.43  79 2.43
                           152 2.44 169 2.44 215 2.46  18 2.46
  71  0.687  0.958  0.565-  90 2.42 287 2.42  54 2.43 166 2.43 259 2.43 235 2.43 219 2.43 228 2.43
                            89 2.43 285 2.45 229 2.46 209 2.46
  72  0.438  0.783  0.257- 164 2.43  51 2.43  77 2.43  83 2.43  37 2.43 160 2.43 213 2.43 201 2.43
                            63 2.44  67 2.44 193 2.44 103 2.44
  73  0.938  0.130  0.787-  98 2.43 277 2.43   2 2.43 245 2.43 148 2.43 279 2.44  61 2.44 236 2.44
                           120 2.44 114 2.45 145 2.46 218 2.46
  74  0.437  0.793  0.610- 156 2.43 229 2.43 242 2.43 154 2.43 285 2.43 230 2.43 107 2.43 151 2.44
                           138 2.44 235 2.44 202 2.45  89 2.46
  75  0.563  0.701  0.346-  85 2.42 214 2.43 141 2.43  99 2.43 240 2.43 104 2.43 149 2.43 179 2.43
                           232 2.43  77 2.44  51 2.44 211 2.44
  76  0.937  0.793  0.610- 274 2.42  53 2.43 285 2.43 209 2.43  92 2.43 266 2.43 238 2.43 242 2.44
                           261 2.44  65 2.45 219 2.45 166 2.46
  77  0.563  0.866  0.301-  83 2.43 164 2.43  51 2.43  72 2.43 211 2.43  25 2.43 103 2.43 194 2.43
                           200 2.43  75 2.44 232 2.45 179 2.45
  78  0.063  0.199  0.213-  12 2.43 257 2.43 271 2.43  15 2.43  17 2.43 199 2.43 123 2.43 163 2.43
                           137 2.44  64 2.45 212 2.46   6 2.46
  79  0.937  0.285  0.390-   4 2.42 185 2.43 192 2.43 250 2.43  14 2.43  30 2.43 234 2.43  70 2.43
                           106 2.43 183 2.44 146 2.45  18 2.46
  80  0.687  0.296  0.874- 145 2.36 220 2.36  31 2.37 132 2.42 186 2.43 133 2.43 248 2.43   1 2.44
                            56 2.44
  81  0.063  0.873  0.521-  57 2.38 125 2.38 190 2.39  65 2.42 219 2.42  20 2.42 118 2.43 171 2.43
                            54 2.43 189 2.43 204 2.43 100 2.43
  82  0.062  0.712  0.832-   5 2.36 172 2.36 182 2.37  60 2.43 218 2.43  38 2.43 252 2.43  16 2.43
                            93 2.44  97 2.46 286 2.47 277 2.47
  83  0.563  0.033  0.257-  77 2.43 126 2.43 164 2.43 168 2.43  72 2.43 200 2.43 213 2.43 116 2.43
                           122 2.43 194 2.43  28 2.43 201 2.44
  84  0.312  0.212  0.698- 205 2.43 278 2.43 112 2.43 243 2.43  48 2.43  50 2.43 260 2.44 131 2.44
                           226 2.44  55 2.44 249 2.44 265 2.45
  85  0.563  0.535  0.390-  75 2.42 240 2.43 214 2.43  30 2.43 149 2.43 192 2.43 141 2.43 152 2.43
                           105 2.44  88 2.45 244 2.46  36 2.46
  86  0.062  0.711  0.698- 205 2.43  42 2.43 198 2.43 276 2.43 131 2.43 246 2.43  27 2.44 239 2.44
                           266 2.44  94 2.44 274 2.45  43 2.45
  87  0.937  0.116  0.302- 203 2.43 180 2.43 194 2.43  39 2.43  25 2.43 123 2.43 126 2.43 147 2.44
                           273 2.44  12 2.44 250 2.45 185 2.45
  88  0.562  0.370  0.435-  96 2.42 191 2.42 159 2.42 215 2.43   3 2.43 284 2.43  36 2.43 244 2.43
                           146 2.44  85 2.45 152 2.45 192 2.46
  89  0.562  0.707  0.565- 287 2.42 225 2.42  23 2.42 166 2.43 253 2.43 202 2.43 113 2.43 235 2.43
                            71 2.43 154 2.45  74 2.46 285 2.47
  90  0.687  0.123  0.521-  96 2.37  49 2.38 222 2.39  71 2.42 259 2.43 228 2.43 207 2.43 241 2.43
                           100 2.43  46 2.43 287 2.43  54 2.44
  91  0.812  0.545  0.743- 286 2.43 239 2.43 268 2.43 142 2.43   2 2.43 148 2.43 255 2.43 276 2.43
                            42 2.44 246 2.44  11 2.44 140 2.44
  92  0.812  0.877  0.654- 209 2.42 285 2.43 274 2.43 282 2.43  34 2.43  76 2.43 230 2.43  59 2.43
                           266 2.43  42 2.44 198 2.44 270 2.45
  93  0.187  0.462  0.832- 143 2.36   7 2.36   5 2.36 252 2.43 114 2.43 135 2.43 155 2.43  82 2.44
                            16 2.44  98 2.45 267 2.46  97 2.46
  94  0.187  0.795  0.743- 246 2.43 272 2.43 277 2.43 260 2.43 120 2.43 239 2.43  33 2.43 131 2.43
                            97 2.43 206 2.44  86 2.44  27 2.45
  95  0.938  0.783  0.257- 271 2.43  63 2.43 269 2.43  12 2.43 175 2.43 126 2.43  39 2.43 164 2.43
                           134 2.43 102 2.44  25 2.44 196 2.44
  96  0.562  0.205  0.479-  90 2.37  46 2.38 207 2.39  88 2.42   3 2.43 178 2.43 191 2.43 159 2.43
                            47 2.43 222 2.43  49 2.44 284 2.44
  97  0.188  0.629  0.787- 109 2.42 267 2.43 286 2.43  94 2.43  98 2.43 272 2.44 246 2.44  33 2.44
                           277 2.44  16 2.45  82 2.46  93 2.46
  98  0.062  0.379  0.787- 286 2.42  73 2.43   2 2.43 246 2.43 267 2.43  97 2.43 245 2.44 148 2.44
                           226 2.44  93 2.45 114 2.45 252 2.46
  99  0.812  0.701  0.346-  30 2.42 214 2.43  75 2.43 240 2.43 264 2.43 179 2.43   4 2.43 147 2.43
                           280 2.43  25 2.44 211 2.44 196 2.45
 100  0.937  0.123  0.521-  49 2.38 221 2.38 125 2.39 219 2.41 228 2.42 227 2.43 210 2.43 241 2.43
                            90 2.43  54 2.43  81 2.43 189 2.43
 101  0.187  0.951  0.346- 217 2.42 106 2.42 283 2.43 147 2.43 232 2.43 104 2.43 280 2.43 250 2.43
                           258 2.44 273 2.44 103 2.44  39 2.45
 102  0.812  0.699  0.213- 193 2.43 237 2.43 257 2.43 134 2.43  28 2.43  95 2.44 164 2.44 271 2.44
                           269 2.44   8 2.45 224 2.46 187 2.46
 103  0.313  0.867  0.302- 273 2.43 200 2.43  77 2.43  51 2.43 213 2.43 232 2.43  58 2.43  39 2.44
                           104 2.44  72 2.44 101 2.44  63 2.44
 104  0.313  0.701  0.346- 105 2.42 141 2.42 217 2.43 232 2.43  75 2.43 101 2.43 149 2.43  35 2.43
                           280 2.43 103 2.44  58 2.45  51 2.45
 105  0.312  0.535  0.390- 104 2.42  35 2.43 149 2.43  70 2.43 234 2.43 217 2.43 152 2.44 141 2.44
                            85 2.44 215 2.44  36 2.45 161 2.46
 106  0.063  0.035  0.390- 250 2.42 101 2.42 147 2.43 264 2.43  14 2.43  70 2.43 217 2.43  79 2.43
                           283 2.43 115 2.44 169 2.46 183 2.46
 107  0.313  0.043  0.610- 249 2.42 138 2.42 265 2.42   9 2.43 229 2.43 275 2.43  74 2.43 261 2.43
                           242 2.44  45 2.44  20 2.46 235 2.47
 108  0.437  0.116  0.169- 233 2.36  29 2.36 158 2.36 110 2.43 184 2.43  22 2.43 174 2.43  64 2.43
                           139 2.43  17 2.45 201 2.45 122 2.45
 109  0.437  0.629  0.787- 267 2.42  97 2.42  33 2.43 272 2.43 140 2.43 167 2.43 206 2.44 173 2.44
                           268 2.44 155 2.46  16 2.46 223 2.46
 110  0.562  0.366  0.169- 256 2.36 233 2.36  68 2.36 184 2.43  22 2.43 108 2.43 197 2.43  66 2.43
                             8 2.43 231 2.45 237 2.46 122 2.46
 111  0.062  0.533  0.126- 263 2.36 224 2.36 212 2.36  13 2.43  32 2.43 181 2.43 117 2.43 247 2.43
                           157 2.44
 112  0.063  0.212  0.698- 276 2.43 205 2.43  84 2.43 198 2.43  19 2.43 131 2.44 150 2.44 120 2.44
                           226 2.44 148 2.44 282 2.45 249 2.45
 113  0.437  0.458  0.565- 225 2.42 177 2.43 207 2.43 253 2.43  89 2.43 136 2.43 202 2.43 259 2.44
                            45 2.44   9 2.44 151 2.45 154 2.46
 114  0.062  0.212  0.832-  56 2.36 262 2.36 143 2.37 252 2.43  93 2.43 218 2.43 135 2.43 145 2.43
                            38 2.44  73 2.45 245 2.45  98 2.45
 115  0.063  0.870  0.435- 190 2.41  57 2.43 125 2.43  24 2.43 161 2.43 124 2.43 183 2.43 176 2.43
                           169 2.43 106 2.44 264 2.46 217 2.46
 116  0.437  0.283  0.257- 200 2.43 254 2.43 163 2.43 231 2.43 213 2.43  37 2.43 160 2.43  83 2.43
                           168 2.43  17 2.43  21 2.43 122 2.44
 117  0.812  0.532  0.126- 197 2.36 224 2.36   8 2.36  13 2.43 256 2.43  68 2.43 129 2.43 111 2.43
                            32 2.44
 118  0.312  0.873  0.521-  57 2.38 178 2.38 121 2.39 202 2.42  20 2.42 235 2.42  81 2.43 171 2.43
                           189 2.43 225 2.43 287 2.43  46 2.44
 119  0.687  0.963  0.832-  69 2.36 186 2.36 132 2.36 145 2.42 220 2.42 218 2.43 223 2.44  26 2.44
                            60 2.44 236 2.46 173 2.46 279 2.46
 120  0.062  0.045  0.743- 277 2.42  61 2.43  94 2.43 260 2.43 148 2.43 239 2.44 131 2.44 226 2.44
                           112 2.44 245 2.44 198 2.44  73 2.44
 121  0.313  0.705  0.479- 225 2.37 171 2.37 118 2.39 176 2.42 251 2.43 161 2.43  36 2.43 191 2.43
                           178 2.43 281 2.43  57 2.43 190 2.44
 122  0.563  0.199  0.213- 237 2.43  15 2.43  17 2.43 231 2.43  28 2.43 201 2.43  83 2.43 168 2.43
                           116 2.44 184 2.45 108 2.45 110 2.46
 123  0.938  0.283  0.257-  12 2.43 134 2.43 168 2.43 257 2.43  87 2.43 175 2.43 126 2.43 163 2.43
                           203 2.43  15 2.43  78 2.43 180 2.44
 124  0.813  0.870  0.435- 165 2.41 125 2.42 222 2.43 244 2.43 115 2.43  24 2.43 162 2.43 183 2.43
                           284 2.44  14 2.44 214 2.46 264 2.46
 125  0.937  0.955  0.478-  54 2.38  81 2.38 100 2.39 183 2.41 124 2.42 222 2.43 115 2.43  49 2.43
                           221 2.43 165 2.43 190 2.43  57 2.44
 126  0.812  0.033  0.257- 271 2.43  83 2.43 164 2.43  15 2.43 168 2.43  95 2.43  25 2.43 123 2.43
                            12 2.43  87 2.43 194 2.43  28 2.43
 127  0.437  0.796  0.874-  26 2.36  16 2.37 223 2.37 182 2.43  41 2.43  69 2.43 133 2.44 132 2.44
                             7 2.44
 128  0.438  0.782  0.126-  66 2.36 139 2.36 174 2.37 129 2.42 256 2.43 157 2.43 181 2.43 158 2.43
                            29 2.44
 129  0.687  0.782  0.126-   8 2.36 174 2.37 187 2.37 128 2.42 256 2.43 158 2.43 117 2.43  10 2.44
                            32 2.44
 130  0.437  0.130  0.787- 267 2.43 272 2.43 167 2.43 245 2.43 279 2.43  55 2.44 173 2.44 208 2.44
                           135 2.44 260 2.44 220 2.46  26 2.46
 131  0.187  0.961  0.698-  48 2.43 198 2.43  94 2.43  27 2.43  86 2.43 260 2.43 112 2.44 120 2.44
                            84 2.44 138 2.45 249 2.45 266 2.45
 132  0.563  0.046  0.874- 220 2.36 119 2.36  26 2.37 186 2.42  80 2.42  69 2.43  41 2.43 127 2.44
                             1 2.44
 133  0.562  0.546  0.874- 223 2.36  31 2.36 155 2.36  69 2.43   7 2.43   1 2.43 248 2.43  80 2.43
                           127 2.44
 134  0.812  0.532  0.257- 168 2.43 102 2.43 237 2.43  37 2.43 123 2.43 257 2.43 175 2.43 203 2.43
                           164 2.43  95 2.43 211 2.44 196 2.44
 135  0.313  0.212  0.832-   1 2.36  41 2.36 143 2.37 155 2.43  26 2.43  93 2.43 220 2.43 114 2.43
                            38 2.44 130 2.44 245 2.45 267 2.46
 136  0.313  0.373  0.521- 281 2.38 191 2.38  47 2.39 177 2.41  45 2.42  46 2.43 189 2.43 225 2.43
                           113 2.43 207 2.43 227 2.44 171 2.44
 137  0.188  0.450  0.213- 269 2.42  67 2.43 231 2.43  78 2.44 257 2.44 160 2.44  17 2.44 175 2.44
                           163 2.44  22 2.45 263 2.46 212 2.46
 138  0.312  0.877  0.654- 107 2.42 249 2.43  43 2.43 266 2.43 156 2.43 230 2.43 242 2.43 265 2.43
                            27 2.44  74 2.44  48 2.44 131 2.45
 139  0.312  0.866  0.168-  29 2.36 128 2.36 181 2.36 263 2.43 174 2.43  66 2.43 108 2.43  44 2.43
                            64 2.44 199 2.45 201 2.45  67 2.46
 140  0.687  0.629  0.787- 167 2.43   2 2.43 173 2.43 236 2.43 109 2.43 286 2.44 255 2.44 223 2.44
                            91 2.44  31 2.45 268 2.45  60 2.45
 141  0.438  0.785  0.390- 232 2.42 104 2.42  75 2.43 214 2.43 283 2.43  40 2.43 217 2.43  85 2.43
                           105 2.44  36 2.44 176 2.46 162 2.47
 142  0.687  0.295  0.743- 279 2.43  91 2.43  55 2.43 268 2.43  11 2.43  61 2.43 148 2.43 208 2.43
                           167 2.43 150 2.43 243 2.44   2 2.44
 143  0.187  0.296  0.874-  93 2.36 114 2.37 135 2.37   1 2.42   7 2.43  56 2.43   5 2.43  41 2.43
                           262 2.44
 144  0.687  0.293  0.610-  59 2.43   9 2.43 209 2.43  52 2.43 154 2.43 216 2.43 153 2.43  53 2.43
                           229 2.44 253 2.44 228 2.45 259 2.45
 145  0.812  0.212  0.832- 186 2.35  80 2.36  56 2.36 119 2.42 220 2.42 218 2.43  31 2.43 114 2.43
                           252 2.44  73 2.46 279 2.47   2 2.47
 146  0.813  0.370  0.435-  49 2.41 170 2.42 159 2.42  18 2.43 183 2.43 284 2.43  24 2.43 244 2.43
                            88 2.44  30 2.45  79 2.45 192 2.46
 147  0.938  0.951  0.346- 264 2.42 101 2.43 106 2.43 280 2.43 250 2.43  14 2.43  99 2.43 179 2.43
                            87 2.44 185 2.44  25 2.44  39 2.44
 148  0.937  0.295  0.743- 276 2.43  61 2.43  91 2.43 120 2.43 142 2.43 226 2.43  73 2.43 246 2.43
                             2 2.44  98 2.44 112 2.44 150 2.44
 149  0.438  0.451  0.346- 152 2.43  85 2.43 105 2.43 258 2.43  62 2.43 240 2.43  35 2.43 104 2.43
                            75 2.43  51 2.44  21 2.44 254 2.45
 150  0.812  0.211  0.698- 270 2.43 243 2.43 276 2.43 198 2.43  11 2.43  61 2.43 142 2.43 112 2.44
                           148 2.44  52 2.45 282 2.45  59 2.45
 151  0.313  0.542  0.610-  50 2.42  43 2.43   9 2.43 154 2.43 238 2.43 156 2.43 275 2.43 242 2.43
                            74 2.44 202 2.44 113 2.45 177 2.47
 152  0.438  0.285  0.390-  62 2.42 149 2.43 192 2.43  40 2.43 283 2.43 258 2.43  85 2.43 105 2.44
                             3 2.44  70 2.44  88 2.45 215 2.46
 153  0.938  0.293  0.610- 275 2.42 238 2.43 282 2.43  52 2.43 261 2.43  53 2.43  19 2.43 144 2.43
                           209 2.44 288 2.44 210 2.46 228 2.46
 154  0.562  0.543  0.610- 216 2.42 156 2.43 151 2.43  74 2.43   9 2.43 285 2.43 144 2.43  53 2.43
                            34 2.44  89 2.45 113 2.46 253 2.46
 155  0.437  0.462  0.832-   1 2.36   7 2.36 133 2.36 135 2.43  31 2.43  93 2.43 220 2.43 223 2.43
                            16 2.44 267 2.45 109 2.46 167 2.46
 156  0.437  0.627  0.654-  43 2.42  74 2.43  34 2.43 154 2.43 138 2.43 151 2.43 230 2.43  50 2.43
                           216 2.43  27 2.44 278 2.44 188 2.45
 157  0.313  0.532  0.126-  22 2.36  66 2.36 263 2.37 256 2.43 233 2.43 128 2.43 247 2.43 181 2.43
                           111 2.44
 158  0.562  0.032  0.126- 174 2.36 184 2.36 108 2.36  29 2.43 129 2.43 233 2.43 128 2.43  68 2.43
                            10 2.43
 159  0.687  0.455  0.478- 207 2.38 241 2.38  23 2.39 244 2.41  88 2.42 146 2.42 191 2.43 251 2.43
                           170 2.43  96 2.43 165 2.43  49 2.43
 160  0.313  0.533  0.257- 254 2.43  37 2.43  72 2.43 163 2.43 116 2.43  67 2.43 175 2.43  58 2.43
                            63 2.43 231 2.44 137 2.44  51 2.44
 161  0.188  0.620  0.435- 281 2.41 190 2.42  36 2.43  24 2.43 121 2.43 115 2.43 176 2.43 215 2.43
                            18 2.44 217 2.44 234 2.46 105 2.46
 162  0.562  0.870  0.435- 251 2.41 222 2.42 178 2.42 176 2.43 244 2.43 124 2.43  36 2.44 284 2.44
                             3 2.44  40 2.45 214 2.46 141 2.47
 163  0.188  0.283  0.257- 116 2.43 273 2.43 213 2.43 160 2.43 254 2.43 175 2.43 123 2.43  12 2.43
                            78 2.43 180 2.44  17 2.44 137 2.44
 164  0.687  0.783  0.257-  77 2.43  28 2.43  72 2.43  83 2.43 126 2.43  37 2.43  95 2.43 211 2.43
                           134 2.43 193 2.43  25 2.44 102 2.44
 165  0.812  0.705  0.478-  23 2.38 204 2.38  54 2.39 124 2.41 244 2.42  24 2.43 222 2.43 125 2.43
                           170 2.43 251 2.43 190 2.43 159 2.43
 166  0.812  0.708  0.565-  54 2.41  23 2.42 204 2.43  71 2.43  89 2.43 219 2.43  65 2.43 288 2.43
                           253 2.44  53 2.45  76 2.46 285 2.46
 167  0.563  0.379  0.787- 279 2.43 140 2.43 130 2.43   2 2.43 267 2.43 268 2.43 142 2.43  55 2.43
                           109 2.43  31 2.46 155 2.46 220 2.46
 168  0.688  0.283  0.257- 194 2.43 134 2.43  83 2.43 126 2.43 123 2.43 237 2.43  37 2.43 116 2.43
                            21 2.43 203 2.43 122 2.43  15 2.44
 169  0.188  0.120  0.435-  57 2.41  47 2.42 221 2.42   3 2.43  18 2.43 183 2.43 215 2.43 115 2.43
                           176 2.43  70 2.44 106 2.46 283 2.46
 170  0.937  0.455  0.479- 227 2.38 241 2.38 204 2.39  24 2.42  18 2.42 146 2.42 159 2.43 165 2.43
                           190 2.43  49 2.43 281 2.43 221 2.44
 171  0.187  0.623  0.521- 121 2.37 190 2.38 281 2.38 177 2.41 118 2.43 225 2.43  81 2.43 204 2.43
                            65 2.44 227 2.44 202 2.44 136 2.44
 172  0.937  0.796  0.874- 218 2.36  82 2.36  60 2.37 262 2.43 248 2.43   5 2.43 182 2.43  69 2.44
                           186 2.44
 173  0.563  0.879  0.787- 272 2.42 279 2.43 236 2.43 208 2.43 255 2.43 140 2.43 130 2.44 206 2.44
                           109 2.44 223 2.46 119 2.46  26 2.46
 174  0.562  0.866  0.169- 158 2.36 128 2.37 129 2.37   8 2.43  66 2.43 139 2.43 108 2.43 184 2.43
                           187 2.44 201 2.45  28 2.45 193 2.45
 175  0.062  0.533  0.257- 269 2.42  95 2.43 134 2.43  63 2.43 123 2.43 163 2.43 160 2.43 257 2.43
                            58 2.44 196 2.44 180 2.44 137 2.44
 176  0.313  0.870  0.435- 121 2.42  57 2.43 178 2.43  36 2.43 162 2.43 161 2.43 115 2.43   3 2.43
                           169 2.43 283 2.45 217 2.46 141 2.46
 177  0.188  0.457  0.565- 171 2.41 136 2.41 227 2.42 113 2.43  45 2.43 210 2.43 202 2.43 288 2.44
                            65 2.44 275 2.46 151 2.47 238 2.47
 178  0.438  0.955  0.479- 287 2.37 118 2.38  46 2.39   3 2.42 162 2.42 176 2.43  96 2.43  47 2.43
                           121 2.43 222 2.43  57 2.43 251 2.44
 179  0.688  0.951  0.346- 214 2.42  14 2.43  40 2.43  99 2.43 185 2.43  62 2.43  75 2.43 147 2.43
                           194 2.44 232 2.44  25 2.44  77 2.45
 180  0.063  0.366  0.302- 273 2.43  87 2.43 203 2.43 254 2.43 196 2.43  58 2.43 250 2.44 163 2.44
                           175 2.44 123 2.44  35 2.44   4 2.45
 181  0.188  0.782  0.126- 263 2.36 139 2.36  44 2.36 111 2.43 128 2.43  32 2.43 157 2.43  29 2.43
                           195 2.44
 182  0.188  0.796  0.874-  38 2.35  16 2.37  82 2.37 127 2.43  41 2.43 262 2.43 172 2.43   7 2.44
                             5 2.44
 183  0.938  0.120  0.435- 125 2.41 221 2.42  49 2.42  18 2.43 146 2.43 169 2.43 284 2.43 115 2.43
                           124 2.43  79 2.44  14 2.46 106 2.46
 184  0.687  0.116  0.169-  68 2.36 158 2.36  10 2.37 110 2.43 108 2.43 197 2.43   6 2.43 187 2.43
                           174 2.43 122 2.45  15 2.45  28 2.46
 185  0.812  0.201  0.346-  14 2.42  79 2.43 192 2.43 179 2.43 240 2.43  62 2.43   4 2.43 250 2.43
                           147 2.44 203 2.44 194 2.45  87 2.45
 186  0.812  0.046  0.874- 145 2.35 119 2.36 218 2.37 132 2.42  80 2.43  56 2.43 262 2.43  69 2.44
                           172 2.44
 187  0.813  0.866  0.168-  10 2.36  32 2.36 129 2.37  44 2.42   6 2.43 224 2.43 184 2.43   8 2.43
                           174 2.44 102 2.46  28 2.46 271 2.46
 188  0.563  0.712  0.698-  42 2.43 270 2.43  34 2.43  27 2.43  48 2.43  11 2.43 278 2.43 268 2.44
                           206 2.44 230 2.44 255 2.44 156 2.45
 189  0.188  0.123  0.521-  47 2.38 221 2.38  57 2.39  20 2.41  45 2.43 210 2.43 136 2.43 118 2.43
                            46 2.43  81 2.43 227 2.43 100 2.43
 190  0.062  0.705  0.479- 171 2.38 204 2.38  81 2.39 115 2.41  24 2.42 161 2.42 170 2.43 165 2.43
                           281 2.43  57 2.43 125 2.43 121 2.44
 191  0.438  0.455  0.479- 207 2.38 136 2.38 225 2.39  36 2.42  88 2.42 251 2.42 215 2.42 159 2.43
                           121 2.43  96 2.43 281 2.44  47 2.44
 192  0.688  0.285  0.390- 152 2.43 240 2.43 185 2.43  79 2.43  85 2.43  62 2.43  30 2.43  40 2.43
                            14 2.43 284 2.43  88 2.46 146 2.46
 193  0.563  0.698  0.213- 102 2.43 237 2.43  37 2.43  67 2.43 231 2.43  28 2.43 164 2.43  72 2.44
                           201 2.44   8 2.45 174 2.45  66 2.46
 194  0.687  0.117  0.302- 200 2.43 168 2.43 203 2.43  87 2.43  21 2.43  77 2.43 126 2.43  83 2.43
                            25 2.44 179 2.44  62 2.44 185 2.45
 195  0.062  0.033  0.126-  44 2.36   6 2.36  64 2.37 247 2.43  10 2.43  13 2.43  32 2.43  29 2.43
                           181 2.44
 196  0.937  0.616  0.302- 203 2.43 211 2.43  25 2.43 180 2.43  39 2.43   4 2.43  58 2.43 175 2.44
                            95 2.44 134 2.44 280 2.45  99 2.45
 197  0.812  0.366  0.168- 117 2.36  68 2.36  13 2.36   8 2.43 110 2.43 184 2.43 212 2.43   6 2.43
                           224 2.43 237 2.45 257 2.46  15 2.46
 198  0.938  0.961  0.698- 131 2.43  86 2.43 150 2.43 282 2.43 112 2.43  42 2.43 270 2.44 266 2.44
                           120 2.44  92 2.44 239 2.45  61 2.45
 199  0.188  0.949  0.213- 201 2.43  63 2.43  17 2.43  12 2.43 213 2.43  67 2.43  78 2.43 269 2.44
                           271 2.44 139 2.45  64 2.46  44 2.47
 200  0.438  0.117  0.302- 194 2.43 116 2.43  21 2.43 273 2.43  83 2.43 103 2.43 254 2.43  77 2.43
                           213 2.44 232 2.44  62 2.44 258 2.44
 201  0.438  0.949  0.213- 199 2.43  17 2.43  67 2.43  28 2.43 122 2.43  72 2.43 213 2.44 193 2.44
                            83 2.44 174 2.45 108 2.45 139 2.45
 202  0.313  0.708  0.565- 118 2.42 235 2.43  20 2.43  89 2.43 225 2.43 113 2.43 177 2.43  65 2.44
                           171 2.44 151 2.44  74 2.45 242 2.45
 203  0.813  0.366  0.302- 196 2.43 211 2.43  87 2.43 194 2.43 180 2.43  21 2.43 134 2.43 123 2.43
                           168 2.43 185 2.44 240 2.44   4 2.44
 204  0.938  0.623  0.521- 190 2.38 165 2.38 170 2.39 288 2.42 166 2.43  54 2.43  23 2.43  65 2.43
                           227 2.43 171 2.43 241 2.43  81 2.43
 205  0.187  0.461  0.698- 112 2.43  84 2.43  86 2.43  27 2.43 278 2.43 276 2.43 226 2.43  43 2.44
                            50 2.44  19 2.44  33 2.44 246 2.44
 206  0.438  0.795  0.743- 272 2.43 208 2.43 255 2.43  33 2.43 268 2.43  48 2.43 260 2.43  94 2.44
                           109 2.44 188 2.44 173 2.44  27 2.44
 207  0.563  0.373  0.521- 191 2.38 159 2.38  96 2.39 259 2.42 253 2.42 113 2.43  90 2.43 136 2.43
                            46 2.43  23 2.43 225 2.43 241 2.43
 208  0.562  0.045  0.743- 206 2.43 173 2.43 260 2.43 255 2.43 279 2.43  55 2.43 142 2.43 243 2.43
                            61 2.44 270 2.44  48 2.44 130 2.44
 209  0.813  0.043  0.610-  92 2.42 261 2.43  76 2.43 282 2.43 285 2.43 144 2.43  59 2.43 229 2.43
                           153 2.44 228 2.44 219 2.46  71 2.46
 210  0.063  0.208  0.565- 227 2.42  45 2.43 189 2.43 100 2.43 219 2.43  20 2.43 177 2.43 228 2.44
                           288 2.44 261 2.44 275 2.45 153 2.46
 211  0.688  0.616  0.302- 196 2.43  21 2.43  51 2.43 203 2.43  77 2.43  25 2.43 240 2.43 164 2.43
                           134 2.44  37 2.44  99 2.44  75 2.44
 212  0.062  0.366  0.168-  13 2.36 247 2.36 111 2.36  64 2.43   6 2.43 197 2.43 224 2.43 263 2.43
                            22 2.43 257 2.46 137 2.46  78 2.46
 213  0.313  0.033  0.257-  17 2.43 116 2.43 163 2.43  63 2.43  83 2.43  12 2.43  72 2.43 199 2.43
                           103 2.43 273 2.43 200 2.44 201 2.44
 214  0.687  0.785  0.390- 179 2.42  99 2.43  75 2.43  85 2.43  40 2.43 141 2.43  14 2.43  30 2.43
                           264 2.44 244 2.44 124 2.46 162 2.46
 215  0.313  0.370  0.435-  47 2.41 191 2.42   3 2.43  36 2.43  88 2.43 281 2.43 169 2.43 161 2.43
                            18 2.44 105 2.44 152 2.46  70 2.46
 216  0.563  0.377  0.654- 154 2.42  52 2.43  34 2.43  59 2.43 265 2.43   9 2.43 156 2.43 144 2.43
                            50 2.44  11 2.44 243 2.45 278 2.45
 217  0.188  0.785  0.390- 101 2.42 104 2.43 264 2.43 280 2.43 105 2.43 141 2.43 234 2.43 106 2.43
                           283 2.44 161 2.44 176 2.46 115 2.46
 218  0.938  0.962  0.832- 262 2.36 172 2.36 186 2.37  82 2.43  38 2.43 114 2.43  60 2.43 145 2.43
                           119 2.43  73 2.46 236 2.46 277 2.46
 219  0.937  0.958  0.565- 100 2.41  54 2.42  81 2.42 228 2.43 210 2.43  65 2.43  71 2.43 166 2.43
                            20 2.44  76 2.45 209 2.46 261 2.46
 220  0.563  0.212  0.832- 132 2.36  80 2.36   1 2.37 145 2.42 119 2.42  31 2.43 155 2.43 135 2.43
                            26 2.43 130 2.46 279 2.46 167 2.46
 221  0.062  0.204  0.479- 189 2.38 100 2.38 227 2.39  18 2.41 183 2.42 169 2.42  57 2.43  49 2.43
                           125 2.43  47 2.43 281 2.44 170 2.44
 222  0.688  0.955  0.479- 287 2.38  54 2.38  90 2.39 162 2.42 284 2.42 125 2.43 124 2.43 165 2.43
                            49 2.43 178 2.43  96 2.43 251 2.44
 223  0.562  0.712  0.832- 133 2.36  69 2.36 127 2.37  31 2.43  16 2.43  26 2.43  60 2.43 155 2.43
                           119 2.44 140 2.44 173 2.46 109 2.46
 224  0.938  0.616  0.168-  32 2.36 111 2.36 117 2.36  44 2.43 263 2.43 187 2.43 212 2.43   8 2.43
                           197 2.43 102 2.46 257 2.46 269 2.47
 225  0.437  0.623  0.521- 121 2.37 251 2.38 191 2.39 113 2.42  89 2.42 171 2.43 202 2.43 136 2.43
                           118 2.43 207 2.43 287 2.43  23 2.44
 226  0.188  0.296  0.743-  55 2.43  33 2.43 246 2.43 148 2.43 205 2.43 267 2.43 260 2.43 120 2.44
                           245 2.44  84 2.44 112 2.44  98 2.44
 227  0.062  0.373  0.521- 170 2.38 281 2.38 221 2.39 177 2.42 210 2.42 241 2.43 100 2.43 204 2.43
                           288 2.43 189 2.43 171 2.44 136 2.44
 228  0.812  0.208  0.565- 241 2.41 100 2.42  90 2.43 259 2.43 219 2.43 253 2.43  71 2.43 288 2.44
                           210 2.44 209 2.44 144 2.45 153 2.46
 229  0.562  0.042  0.610- 230 2.42 285 2.43  74 2.43 107 2.43  59 2.43 209 2.43   9 2.43 144 2.44
                           265 2.44 259 2.44 235 2.45  71 2.46
 230  0.562  0.877  0.654- 229 2.42  59 2.43 285 2.43  34 2.43 265 2.43 138 2.43  92 2.43 156 2.43
                            74 2.43 188 2.44 270 2.45  48 2.45
 231  0.438  0.449  0.213-  17 2.43 137 2.43 237 2.43 116 2.43  67 2.43 122 2.43 193 2.43  37 2.43
                           160 2.44 110 2.45  22 2.45  66 2.46
 232  0.437  0.951  0.346- 141 2.42 283 2.43 104 2.43 258 2.43 101 2.43  75 2.43  62 2.43 103 2.43
                            40 2.43 200 2.44 179 2.44  77 2.45
 233  0.438  0.282  0.126- 108 2.36 110 2.36  22 2.36  29 2.43 157 2.43 158 2.43  68 2.43 256 2.43
                           247 2.43
 234  0.063  0.535  0.390- 280 2.42  35 2.43   4 2.43 105 2.43 264 2.43  30 2.43  70 2.43  79 2.43
                           217 2.43  18 2.45  24 2.45 161 2.46
 235  0.438  0.957  0.565-  46 2.41 118 2.42 287 2.42 202 2.43  20 2.43  71 2.43 259 2.43  45 2.43
                            89 2.43  74 2.44 229 2.45 107 2.47
 236  0.812  0.879  0.787- 173 2.43 277 2.43 255 2.43  61 2.43 140 2.43 279 2.43 239 2.44 286 2.44
                            73 2.44  60 2.46 119 2.46 218 2.46
 237  0.687  0.449  0.213- 193 2.43 122 2.43 231 2.43 102 2.43 134 2.43 168 2.43 257 2.43  37 2.43
                            15 2.44 197 2.45 110 2.46   8 2.46
 238  0.063  0.543  0.610- 274 2.43 275 2.43 153 2.43 151 2.43 242 2.43  19 2.43  43 2.43  76 2.43
                            53 2.43  65 2.44 288 2.45 177 2.47
 239  0.937  0.794  0.743- 286 2.42 246 2.42 277 2.43  91 2.43  94 2.43 255 2.43  61 2.44 120 2.44
                           236 2.44  86 2.44  42 2.44 198 2.45
 240  0.688  0.451  0.346- 192 2.43  85 2.43  99 2.43   4 2.43 149 2.43  75 2.43 185 2.43  30 2.43
                           211 2.43  62 2.43  21 2.44 203 2.44
 241  0.813  0.373  0.521- 170 2.38 159 2.38  49 2.39 228 2.41 253 2.42 227 2.43 288 2.43 100 2.43
                            23 2.43  90 2.43 204 2.43 207 2.43
 242  0.188  0.793  0.610-  43 2.42 238 2.43  74 2.43 266 2.43 138 2.43 151 2.43  76 2.44 107 2.44
                           261 2.44  20 2.45 202 2.45  65 2.45
 243  0.562  0.211  0.698- 270 2.43 150 2.43  84 2.43  48 2.43  11 2.43 208 2.43 278 2.43 142 2.44
                            55 2.44 265 2.45 216 2.45  59 2.45
 244  0.688  0.620  0.435- 159 2.41 165 2.42 251 2.43 124 2.43 146 2.43 162 2.43  88 2.43  24 2.44
                            36 2.44 214 2.44  85 2.46  30 2.46
 245  0.187  0.129  0.787- 277 2.42 130 2.43 272 2.43  73 2.43  98 2.44 267 2.44 120 2.44 226 2.44
                           260 2.44 135 2.45 114 2.45  38 2.46
 246  0.063  0.546  0.743- 286 2.42 239 2.42  94 2.43  33 2.43 226 2.43  98 2.43  86 2.43 148 2.43
                            91 2.44  97 2.44 276 2.44 205 2.44
 247  0.187  0.282  0.126-  64 2.36 212 2.36  22 2.36 195 2.43  13 2.43 157 2.43  29 2.43 233 2.43
                           111 2.43
 248  0.812  0.546  0.874-  60 2.36 252 2.36  31 2.36   5 2.43  69 2.43 172 2.43 133 2.43  80 2.43
                            56 2.44
 249  0.188  0.127  0.654- 275 2.42 107 2.42 265 2.43  50 2.43 138 2.43 261 2.43  19 2.43 266 2.44
                           282 2.44  84 2.44 131 2.45 112 2.45
 250  0.063  0.201  0.346- 106 2.42  70 2.43  79 2.43  35 2.43 101 2.43 147 2.43 258 2.43 185 2.43
                             4 2.43 180 2.44 273 2.45  87 2.45
 251  0.562  0.704  0.479-  23 2.38 225 2.38 287 2.39 162 2.41 191 2.42 121 2.43 244 2.43 159 2.43
                           165 2.43  36 2.43 178 2.44 222 2.44
 252  0.938  0.462  0.832-   5 2.36  56 2.36 248 2.36  93 2.43 114 2.43  60 2.43  82 2.43  31 2.43
                           145 2.44  98 2.46   2 2.46 286 2.47
 253  0.687  0.457  0.565-  23 2.41 207 2.42 241 2.42 113 2.43  89 2.43 228 2.43 259 2.43 288 2.44
                           166 2.44 144 2.44 154 2.46  53 2.46
 254  0.313  0.367  0.302- 160 2.43  21 2.43 116 2.43  58 2.43 273 2.43  51 2.43 163 2.43 180 2.43
                           200 2.43 258 2.44 149 2.45  35 2.45
 255  0.687  0.795  0.743- 206 2.43 208 2.43 173 2.43 236 2.43 239 2.43  61 2.43  91 2.43 268 2.43
                           140 2.44 270 2.44  42 2.44 188 2.44
 256  0.563  0.532  0.126- 110 2.36   8 2.36  66 2.36 157 2.43 129 2.43 117 2.43  68 2.43 128 2.43
                           233 2.43
 257  0.937  0.449  0.213- 269 2.43 102 2.43 134 2.43  78 2.43 123 2.43 237 2.43 175 2.43  15 2.44
                           137 2.44 212 2.46 197 2.46 224 2.46
 258  0.313  0.201  0.346- 283 2.42  62 2.43 232 2.43 149 2.43  35 2.43  70 2.43 152 2.43 250 2.43
                           101 2.44 273 2.44 254 2.44 200 2.44
 259  0.563  0.207  0.565- 207 2.42  46 2.42  90 2.43  71 2.43 228 2.43 235 2.43 253 2.43 113 2.44
                            45 2.44 229 2.44 144 2.45   9 2.46
 260  0.312  0.045  0.743- 272 2.42  94 2.43 208 2.43 120 2.43  48 2.43 206 2.43 131 2.43  55 2.43
                           226 2.43  84 2.44 245 2.44 130 2.44
 261  0.062  0.043  0.610- 266 2.42 275 2.43 282 2.43 209 2.43 249 2.43 153 2.43 107 2.43  76 2.44
                           242 2.44 210 2.44 219 2.46  20 2.47
 262  0.062  0.046  0.874- 218 2.36 114 2.36  38 2.36  56 2.43 182 2.43 172 2.43 186 2.43  41 2.44
                           143 2.44
 263  0.187  0.616  0.168- 181 2.36 111 2.36 157 2.37 224 2.43 139 2.43  44 2.43 212 2.43  66 2.43
                            22 2.43 137 2.46  67 2.46 269 2.46
 264  0.938  0.785  0.390- 147 2.42 280 2.42  99 2.43 217 2.43 106 2.43 234 2.43  30 2.43  14 2.43
                           214 2.44  24 2.44 115 2.46 124 2.46
 265  0.437  0.127  0.654-   9 2.42 107 2.42 249 2.43  59 2.43  50 2.43 230 2.43 216 2.43 138 2.43
                           229 2.44  48 2.44 243 2.45  84 2.45
 266  0.063  0.877  0.654- 261 2.42 138 2.43 274 2.43 242 2.43 282 2.43  76 2.43  92 2.43  43 2.43
                           249 2.44 198 2.44  86 2.44 131 2.45
 267  0.313  0.379  0.787- 109 2.42 130 2.43  33 2.43  97 2.43 167 2.43 226 2.43  98 2.43  55 2.44
                           245 2.44 155 2.45 135 2.46  93 2.46
 268  0.562  0.545  0.743-  91 2.43 206 2.43  55 2.43  33 2.43 142 2.43 278 2.43 167 2.43 255 2.43
                           188 2.44  11 2.44 109 2.44 140 2.45
 269  0.063  0.698  0.213- 175 2.42 137 2.42  63 2.42  95 2.43  67 2.43 257 2.43 199 2.44 102 2.44
                           271 2.45 263 2.46 224 2.47  44 2.48
 270  0.688  0.961  0.698- 150 2.43 243 2.43  42 2.43 188 2.43 198 2.44 255 2.44 208 2.44  48 2.44
                            61 2.44  59 2.44  92 2.45 230 2.45
 271  0.937  0.950  0.213-  15 2.42  12 2.42  95 2.43 126 2.43  28 2.43  78 2.43 102 2.44 199 2.44
                           269 2.45 187 2.46   6 2.46  44 2.47
 272  0.313  0.879  0.787- 260 2.42 173 2.42 206 2.43 130 2.43  94 2.43 245 2.43 109 2.43  97 2.44
                           277 2.44  26 2.47  16 2.47  38 2.47
 273  0.188  0.117  0.302- 180 2.43 163 2.43 254 2.43 200 2.43 103 2.43 213 2.43  87 2.44  39 2.44
                           258 2.44 101 2.44  12 2.45 250 2.45
 274  0.937  0.627  0.654-  76 2.42  53 2.42 238 2.43 266 2.43  92 2.43  52 2.43  34 2.44  19 2.44
                            43 2.44  86 2.45  42 2.45 276 2.46
 275  0.187  0.293  0.610- 249 2.42 153 2.42 261 2.43  19 2.43 238 2.43 107 2.43 151 2.43  50 2.43
                             9 2.44 210 2.45 177 2.46  45 2.46
 276  0.937  0.461  0.699- 112 2.43 148 2.43 150 2.43  86 2.43  11 2.43 205 2.43  91 2.43  42 2.44
                           246 2.44  19 2.45  52 2.45 274 2.46
 277  0.062  0.880  0.787- 120 2.42 245 2.42  73 2.43 239 2.43  94 2.43 236 2.43  97 2.44 272 2.44
                           286 2.44 218 2.46  38 2.47  82 2.47
 278  0.437  0.461  0.698-  27 2.43  84 2.43  11 2.43  55 2.43 268 2.43 205 2.43 188 2.43 243 2.43
                            33 2.44 156 2.44  50 2.45 216 2.45
 279  0.687  0.129  0.787- 167 2.43 173 2.43 142 2.43 208 2.43 130 2.43  61 2.43 236 2.43   2 2.44
                            73 2.44 220 2.46 119 2.46 145 2.47
 280  0.063  0.700  0.346- 234 2.42 264 2.42   4 2.43 217 2.43 147 2.43  35 2.43 101 2.43 104 2.43
                            99 2.43  39 2.44 196 2.45  58 2.45
 281  0.188  0.455  0.479- 136 2.38 227 2.38 171 2.38 161 2.41  18 2.42 215 2.43 190 2.43  47 2.43
                           121 2.43 170 2.43 191 2.44 221 2.44
 282  0.938  0.127  0.654- 261 2.43 153 2.43  92 2.43  19 2.43 209 2.43 266 2.43 198 2.43  52 2.43
                            59 2.44 249 2.44 150 2.45 112 2.45
 283  0.313  0.035  0.390- 258 2.42 232 2.43 101 2.43 141 2.43 152 2.43  40 2.43  70 2.43 106 2.43
                           217 2.44 176 2.45   3 2.46 169 2.46
 284  0.688  0.120  0.434- 222 2.42 146 2.43  88 2.43  49 2.43 183 2.43 192 2.43   3 2.43 124 2.44
                           162 2.44  96 2.44  40 2.45  14 2.45
 285  0.687  0.793  0.610-  92 2.43 230 2.43  34 2.43 229 2.43  76 2.43  53 2.43  74 2.43 209 2.43
                           154 2.43  71 2.45 166 2.46  89 2.47
 286  0.937  0.628  0.787- 246 2.42 239 2.42   2 2.42  98 2.42  91 2.43  97 2.43 140 2.44 236 2.44
                           277 2.44  60 2.47 252 2.47  82 2.47
 287  0.562  0.873  0.521- 178 2.37 222 2.38 251 2.39  89 2.42 235 2.42  71 2.42  46 2.43 118 2.43
                            23 2.43 225 2.43  90 2.43  54 2.44
 288  0.938  0.458  0.565- 204 2.42 241 2.43  65 2.43 227 2.43 166 2.43 228 2.44 177 2.44 253 2.44
                           210 2.44 153 2.44 238 2.45  53 2.45
 
  LATTYP: Found a simple orthorhombic cell.
 ALAT       =     8.4235500000
 B/A-ratio  =     1.1547005716
 C/A-ratio  =     5.3421657140
  
  Lattice vectors:
  
 A1 = (   0.0000000000,  -8.4235500000,   0.0000000000)
 A2 = (  -9.7266780000,   0.0000000000,   0.0000000000)
 A3 = (   0.0000000000,   0.0000000000, -45.0000000000)


Analysis of symmetry for initial positions (statically):
=====================================================================
 Subroutine PRICEL returns:
 Original cell was already a primitive cell.
 

 Routine SETGRP: Setting up the symmetry group for a 
 simple orthorhombic supercell.


 Subroutine GETGRP returns: Found  1 space group operations
 (whereof  1 operations were pure point group operations)
 out of a pool of  8 trial point group operations.


The static configuration has the point symmetry C_1 .


Analysis of symmetry for dynamics (positions and initial velocities):
=====================================================================
 Subroutine PRICEL returns:
 Original cell was already a primitive cell.
 

 Routine SETGRP: Setting up the symmetry group for a 
 simple orthorhombic supercell.


 Subroutine GETGRP returns: Found  1 space group operations
 (whereof  1 operations were pure point group operations)
 out of a pool of  8 trial point group operations.


The dynamic configuration has the point symmetry C_1 .


 Subroutine INISYM returns: Found  1 space group operations
 (whereof  1 operations are pure point group operations),
 and found     1 'primitive' translations

 
 
 KPOINTS: Automatic mesh                          

Automatic generation of k-mesh.
Space group operators:
 irot       det(A)        alpha          n_x          n_y          n_z        tau_x        tau_y        tau_z
    1     1.000000     0.000001     1.000000     0.000000     0.000000     0.000000     0.000000     0.000000
 
 Subroutine IBZKPT returns following result:
 ===========================================
 
 Found      5 irreducible k-points:
 
 Following reciprocal coordinates:
            Coordinates               Weight
  0.000000  0.000000  0.000000      1.000000
  0.333333  0.000000  0.000000      2.000000
  0.000000  0.333333  0.000000      2.000000
  0.333333  0.333333  0.000000      2.000000
 -0.333333  0.333333  0.000000      2.000000
 
 Following cartesian coordinates:
            Coordinates               Weight
  0.000000  0.000000  0.000000      1.000000
  0.034270  0.000000  0.000000      2.000000
  0.000000  0.039572  0.000000      2.000000
  0.034270  0.039572  0.000000      2.000000
 -0.034270  0.039572  0.000000      2.000000
 


--------------------------------------------------------------------------------------------------------




 Dimension of arrays:
   k-points           NKPTS =      5   k-points in BZ     NKDIM =      5   number of bands    NBANDS=   1370
   number of dos      NEDOS =    301   number of ions     NIONS =    288
   non local maximal  LDIM  =      7   non local SUM 2l+1 LMDIM =     25
   total plane-waves  NPLWV = ******
   max r-space proj   IRMAX =   6210   max aug-charges    IRDMAX=  15157
   dimension x,y,z NGX =    72 NGY =   64 NGZ =  336
   dimension x,y,z NGXF=   144 NGYF=  128 NGZF=  672
   support grid    NGXF=   144 NGYF=  128 NGZF=  672
   ions per type =             268  20
   NGX,Y,Z   is equivalent  to a cutoff of  12.31, 12.63, 12.41 a.u.
   NGXF,Y,Z  is equivalent  to a cutoff of  24.61, 25.26, 24.83 a.u.

 SYSTEM =  unknown system                          
 POSCAR =  FeMn_288_20                             

 Startparameter for this run:
   NWRITE =      2    write-flag & timer
   PREC   = accura    normal or accurate (medium, high low for compatibility)
   ISTART =      0    job   : 0-new  1-cont  2-samecut
   ICHARG =      2    charge: 1-file 2-atom 10-const
   ISPIN  =      1    spin polarized calculation?
   LNONCOLLINEAR =      F non collinear calculations
   LSORBIT =      F    spin-orbit coupling
   INIWAV =      1    electr: 0-lowe 1-rand  2-diag
   LASPH  =      F    aspherical Exc in radial PAW
   METAGGA=      F    non-selfconsistent MetaGGA calc.

 Electronic Relaxation 1
   ENCUT  =  500.0 eV  36.75 Ry    6.06 a.u.  17.73 15.36 82.05*2*pi/ulx,y,z
   ENINI  =  500.0     initial cutoff
   ENAUG  =  838.4 eV  augmentation charge cutoff
   NELM   =    200;   NELMIN=  4; NELMDL=  0     # of ELM steps 
   EDIFF  = 0.1E-04   stopping-criterion for ELM
   LREAL  =      T    real-space projection
   NLSPLINE    = F    spline interpolate recip. space projectors
   LCOMPAT=      F    compatible to vasp.4.4
   GGA_COMPAT  = T    GGA compatible to vasp.4.4-vasp.4.6
   LMAXPAW     = -100 max onsite density
   LMAXMIX     =    2 max onsite mixed and CHGCAR
   VOSKOWN=      0    Vosko Wilk Nusair interpolation
   ROPT   =   -0.00025  -0.00025
 Ionic relaxation
   EDIFFG = 0.1E-03   stopping-criterion for IOM
   NSW    =    500    number of steps for IOM
   NBLOCK =      1;   KBLOCK =    500    inner block; outer block 
   IBRION =      2    ionic relax: 0-MD 1-quasi-New 2-CG
   NFREE  =      1    steps in history (QN), initial steepest desc. (CG)
   ISIF   =      2    stress and relaxation
   IWAVPR =     11    prediction:  0-non 1-charg 2-wave 3-comb
   ISYM   =      2    0-nonsym 1-usesym 2-fastsym
   LCORR  =      T    Harris-Foulkes like correction to forces

   POTIM  = 0.2500    time-step for ionic-motion
   TEIN   =    0.0    initial temperature
   TEBEG  =    0.0;   TEEND  =   0.0 temperature during run
   SMASS  =  -3.00    Nose mass-parameter (am)
   estimated Nose-frequenzy (Omega)   =  0.10E-29 period in steps =****** mass=  -0.216E-26a.u.
   SCALEE = 1.0000    scale energy and forces
   NPACO  =    256;   APACO  = 16.0  distance and # of slots for P.C.
   PSTRESS=    0.0 pullay stress

  Mass of Ions in am
   POMASS =  55.85 54.94
  Ionic Valenz
   ZVAL   =   8.00  7.00
  Atomic Wigner-Seitz radii
   RWIGS  =  -1.00 -1.00
  virtual crystal weights 
   VCA    =   1.00  1.00
   NELECT =    2284.0000    total number of electrons
   NUPDOWN=      -1.0000    fix difference up-down

 DOS related values:
   EMIN   =  10.00;   EMAX   =-10.00  energy-range for DOS
   EFERMI =   0.00
   ISMEAR =     0;   SIGMA  =   0.15  broadening in eV -4-tet -1-fermi 0-gaus

 Electronic relaxation 2 (details)
   IALGO  =     68    algorithm
   LDIAG  =      T    sub-space diagonalisation (order eigenvalues)
   LSUBROT=      F    optimize rotation matrix (better conditioning)
   TURBO    =      0    0=normal 1=particle mesh
   IRESTART =      0    0=no restart 2=restart with 2 vectors
   NREBOOT  =      0    no. of reboots
   NMIN     =      0    reboot dimension
   EREF     =   0.00    reference energy to select bands
   IMIX   =      4    mixing-type and parameters
     AMIX     =   0.40;   BMIX     =  1.00
     AMIX_MAG =   1.60;   BMIX_MAG =  1.00
     AMIN     =   0.10
     WC   =   100.;   INIMIX=   1;  MIXPRE=   1;  MAXMIX= -45

 Intra band minimization:
   WEIMIN = 0.0010     energy-eigenvalue tresh-hold
   EBREAK =  0.18E-08  absolut break condition
   DEPER  =   0.30     relativ break condition  

   TIME   =   0.40     timestep for ELM

  volume/ion in A,a.u.               =      12.80        86.39
  Fermi-wavevector in a.u.,A,eV,Ry     =   1.395563  2.637232 26.498655  1.947596
  Thomas-Fermi vector in A             =   2.519003
 
 Write flags
   LWAVE        =      F    write WAVECAR
   LDOWNSAMPLE  =      F    k-point downsampling of WAVECAR
   LCHARG       =      F    write CHGCAR
   LVTOT        =      F    write LOCPOT, total local potential
   LVHAR        =      F    write LOCPOT, Hartree potential only
   LELF         =      F    write electronic localiz. function (ELF)
   LORBIT       =      0    0 simple, 1 ext, 2 COOP (PROOUT), +10 PAW based schemes


 Dipole corrections
   LMONO  =      F    monopole corrections only (constant potential shift)
   LDIPOL =      F    correct potential (dipole corrections)
   IDIPOL =      0    1-x, 2-y, 3-z, 4-all directions 
   EPSILON=  1.0000000 bulk dielectric constant

 Exchange correlation treatment:
   GGA     =    --    GGA type
   LEXCH   =     8    internal setting for exchange type
   VOSKOWN=      0    Vosko Wilk Nusair interpolation
   LHFCALC =     F    Hartree Fock is set to
   LHFONE  =     F    Hartree Fock one center treatment
   AEXX    =    0.0000 exact exchange contribution

 Linear response parameters
   LEPSILON=     F    determine dielectric tensor
   LRPA    =     F    only Hartree local field effects (RPA)
   LNABLA  =     F    use nabla operator in PAW spheres
   LVEL    =     F    velocity operator in full k-point grid
   LINTERFAST=   F  fast interpolation
   KINTER  =     0    interpolate to denser k-point grid
   CSHIFT  =0.1000    complex shift for real part using Kramers Kronig
   OMEGAMAX=  -1.0    maximum frequency
   DEG_THRESHOLD= 0.2000000E-02 threshold for treating states as degnerate
   RTIME   =   -0.100 relaxation time in fs
  (WPLASMAI=    0.000 imaginary part of plasma frequency in eV, 0.658/RTIME)
   DFIELD  = 0.0000000 0.0000000 0.0000000 field for delta impulse in time
 
 Orbital magnetization related:
   ORBITALMAG=     F  switch on orbital magnetization
   LCHIMAG   =     F  perturbation theory with respect to B field
   DQ        =  0.001000  dq finite difference perturbation B field
   LLRAUG    =     F  two centre corrections for induced B field



--------------------------------------------------------------------------------------------------------


 conjugate gradient relaxation of ions
 charge density and potential will be updated during run
 non-spin polarized calculation
 RMM-DIIS sequential band-by-band and
  variant of blocked Davidson during initial phase
 perform sub-space diagonalisation
    before iterative eigenvector-optimisation
 modified Broyden-mixing scheme, WC =      100.0
 initial mixing is a Kerker type mixing with AMIX =  0.4000 and BMIX =      1.0000
 Hartree-type preconditioning will be used
 using additional bands           228
 real space projection scheme for non local part
 use partial core corrections
 calculate Harris-corrections to forces 
   (improved forces if not selfconsistent)
 use gradient corrections 
 use of overlap-Matrix (Vanderbilt PP)
 Gauss-broadening in eV      SIGMA  =   0.15


--------------------------------------------------------------------------------------------------------


  energy-cutoff  :      500.00
  volume of cell :     3686.99
      direct lattice vectors                 reciprocal lattice vectors
     9.726678000  0.000000000  0.000000000     0.102810024  0.000000000  0.000000000
     0.000000000  8.423550000  0.000000000     0.000000000  0.118714794  0.000000000
     0.000000000  0.000000000 45.000000000     0.000000000  0.000000000  0.022222222

  length of vectors
     9.726678000  8.423550000 45.000000000     0.102810024  0.118714794  0.022222222


 
 k-points in units of 2pi/SCALE and weight: Automatic mesh                          
   0.00000000  0.00000000  0.00000000       0.111
   0.03427001  0.00000000  0.00000000       0.222
   0.00000000  0.03957160  0.00000000       0.222
   0.03427001  0.03957160  0.00000000       0.222
  -0.03427001  0.03957160  0.00000000       0.222
 
 k-points in reciprocal lattice and weights: Automatic mesh                          
   0.00000000  0.00000000  0.00000000       0.111
   0.33333333  0.00000000  0.00000000       0.222
   0.00000000  0.33333333  0.00000000       0.222
   0.33333333  0.33333333  0.00000000       0.222
  -0.33333333  0.33333333  0.00000000       0.222
 
 position of ions in fractional coordinates (direct lattice) 
   0.43666730  0.29645515  0.87387252
   0.81252905  0.37925678  0.78686662
   0.43732142  0.12055814  0.43467915
   0.93737130  0.45093515  0.34603543
   0.06218838  0.54529501  0.87390591
   0.93742487  0.11595319  0.16839371
   0.31270393  0.54512859  0.87380029
   0.68728558  0.61594828  0.16848450
   0.43741551  0.29258305  0.60984065
   0.81254567  0.03213964  0.12626250
   0.68726058  0.46093222  0.69831711
   0.06248589  0.03271551  0.25727768
   0.93760878  0.28289642  0.12624341
   0.81263089  0.03491328  0.38998473
   0.81259018  0.19842628  0.21328447
   0.31241561  0.71252393  0.83163403
   0.31288036  0.19880979  0.21326004
   0.06222929  0.36994676  0.43486220
   0.06248946  0.37675711  0.65399590
   0.18788490  0.95764348  0.56511464
   0.56256724  0.36683847  0.30158717
   0.31246815  0.36599819  0.16848679
   0.68784469  0.62288164  0.52130664
   0.93804779  0.62011274  0.43469454
   0.81272428  0.86623554  0.30164714
   0.43711428  0.96206618  0.83179627
   0.31250182  0.71091468  0.69829275
   0.68748370  0.94876790  0.21330492
   0.31265272  0.03234394  0.12633193
   0.81270807  0.53517709  0.38999390
   0.68741358  0.46229072  0.83158806
   0.93767958  0.78238223  0.12616682
   0.31249556  0.54545845  0.74267573
   0.68688102  0.62748229  0.65415317
   0.18771548  0.45072011  0.34604157
   0.43692545  0.61995232  0.43456523
   0.56246970  0.53266501  0.25742065
   0.18759602  0.96146384  0.83175667
   0.06239175  0.86638567  0.30152170
   0.56285845  0.03489721  0.38999075
   0.31267381  0.04589234  0.87390296
   0.81221281  0.71142397  0.69835710
   0.18823127  0.62690928  0.65386380
   0.06207067  0.86586512  0.16831166
   0.31219702  0.20722802  0.56523440
   0.43750605  0.12325086  0.52134583
   0.31238627  0.20456218  0.47852686
   0.43664638  0.96112100  0.69838525
   0.81277657  0.20474325  0.47851795
   0.31237495  0.37697837  0.65399208
   0.43795848  0.61674092  0.30157805
   0.81227199  0.37702478  0.65384752
   0.81247002  0.54303784  0.60988424
   0.81289085  0.87274902  0.52130778
   0.43743266  0.29517882  0.74263261
   0.93803325  0.29555898  0.87393975
   0.18752787  0.95501907  0.47855090
   0.18763006  0.61664286  0.30158114
   0.68694149  0.12695843  0.65385364
   0.81269463  0.71180645  0.83165469
   0.81272029  0.04510877  0.74272990
   0.56249076  0.20079357  0.34607565
   0.18728627  0.78293047  0.25736931
   0.18735654  0.11625317  0.16849980
   0.06227493  0.70810553  0.56530839
   0.43735356  0.61586546  0.16846163
   0.31296727  0.69876208  0.21318318
   0.68744711  0.28199955  0.12632270
   0.68690699  0.79542372  0.87385858
   0.18755957  0.28485809  0.39004515
   0.68736878  0.95765089  0.56508133
   0.43765853  0.78274814  0.25740509
   0.93755051  0.12962041  0.78698885
   0.43743054  0.79276116  0.60978327
   0.56265778  0.70084932  0.34602047
   0.93727734  0.79262195  0.60985443
   0.56281827  0.86621603  0.30146814
   0.06264088  0.19920054  0.21326149
   0.93737081  0.28492914  0.39004202
   0.68732375  0.29570386  0.87399708
   0.06263904  0.87304684  0.52130732
   0.06226366  0.71217817  0.83172930
   0.56257706  0.03269518  0.25748090
   0.31237659  0.21166841  0.69832423
   0.56312012  0.53525447  0.38995371
   0.06212854  0.71080788  0.69836075
   0.93745317  0.11645881  0.30162391
   0.56236292  0.37010760  0.43468043
   0.56243079  0.70727771  0.56510362
   0.68746088  0.12330679  0.52119625
   0.81211624  0.54501231  0.74262096
   0.81233761  0.87708537  0.65390396
   0.18739642  0.46171056  0.83166466
   0.18732766  0.79524716  0.74269803
   0.93754693  0.78281077  0.25736192
   0.56240938  0.20489104  0.47861424
   0.18764095  0.62921276  0.78696368
   0.06228033  0.37902404  0.78691352
   0.81226804  0.70081072  0.34607563
   0.93731903  0.12304837  0.52134069
   0.18744030  0.95051345  0.34608520
   0.81219880  0.69869385  0.21319486
   0.31280581  0.86688791  0.30170929
   0.31272173  0.70076802  0.34609631
   0.31242551  0.53473034  0.39000878
   0.06259722  0.03482853  0.38997621
   0.31260832  0.04327705  0.61000243
   0.43744532  0.11596394  0.16857176
   0.43690647  0.62854250  0.78682259
   0.56233670  0.36586889  0.16850046
   0.06230972  0.53257945  0.12621288
   0.06264869  0.21163925  0.69836744
   0.43743019  0.45760339  0.56526290
   0.06235210  0.21206952  0.83161610
   0.06253386  0.87003300  0.43469955
   0.43743449  0.28268684  0.25745107
   0.81222833  0.53195701  0.12626875
   0.31208599  0.87284829  0.52138431
   0.68748573  0.96260135  0.83170977
   0.06236576  0.04504581  0.74264294
   0.31294943  0.70490957  0.47860542
   0.56275215  0.19887275  0.21327772
   0.93750480  0.28264030  0.25742952
   0.81261072  0.86992405  0.43462365
   0.93706152  0.95499088  0.47848985
   0.81233658  0.03263313  0.25748877
   0.43726683  0.79618803  0.87395056
   0.43768419  0.78183784  0.12628594
   0.68689403  0.78176290  0.12626951
   0.43713246  0.12951092  0.78698547
   0.18732827  0.96089330  0.69844409
   0.56298312  0.04635680  0.87398357
   0.56240338  0.54577306  0.87376316
   0.81241056  0.53249980  0.25735432
   0.31265078  0.21212662  0.83155766
   0.31262371  0.37260392  0.52125519
   0.18779563  0.44955771  0.21316725
   0.31236381  0.87710011  0.65396878
   0.31237460  0.86579204  0.16845480
   0.68704008  0.62872322  0.78706507
   0.43767677  0.78526499  0.38993298
   0.68733695  0.29503030  0.74256299
   0.18748123  0.29616882  0.87392708
   0.68743680  0.29270097  0.60972032
   0.81204392  0.21175279  0.83184919
   0.81289285  0.37011775  0.43469923
   0.93792632  0.95052934  0.34596036
   0.93749833  0.29523961  0.74266502
   0.43770534  0.45075960  0.34603543
   0.81220954  0.21079279  0.69839950
   0.31253947  0.54218981  0.60988017
   0.43823072  0.28473245  0.39006536
   0.93768047  0.29329736  0.60985683
   0.56221608  0.54283524  0.60994795
   0.43741299  0.46187784  0.83160184
   0.43734023  0.62725302  0.65391159
   0.31297510  0.53175894  0.12624170
   0.56245720  0.03196778  0.12637605
   0.68746644  0.45488071  0.47848295
   0.31258071  0.53283721  0.25742862
   0.18755393  0.62019638  0.43475592
   0.56238545  0.87009566  0.43489960
   0.18764372  0.28280794  0.25745067
   0.68737957  0.78286744  0.25743210
   0.81234001  0.70508183  0.47849584
   0.81211385  0.70812623  0.56508947
   0.56272256  0.37871386  0.78677361
   0.68750156  0.28262679  0.25748101
   0.18761309  0.12028741  0.43472758
   0.93722219  0.45525512  0.47860279
   0.18743515  0.62324811  0.52120330
   0.93749446  0.79560368  0.87397350
   0.56252822  0.87914454  0.78684538
   0.56227489  0.86577396  0.16859670
   0.06241042  0.53279446  0.25741610
   0.31273810  0.86994831  0.43470249
   0.18797321  0.45741085  0.56481479
   0.43767894  0.95512270  0.47859522
   0.68776985  0.95092420  0.34602493
   0.06274417  0.36620882  0.30169048
   0.18775496  0.78193331  0.12616755
   0.18780766  0.79642573  0.87394949
   0.93763532  0.12021536  0.43475476
[...]
      0.60724      7.35322     23.45792         0.036737     -0.006953      0.004095
      0.60480      5.99942     37.42522        -0.003356     -0.005522      0.007979
      5.47341      0.28073     11.58760        -0.003362      0.003983      0.011027
      3.03881      1.77601     31.42247         0.003431     -0.004922      0.001478
      5.47514      4.51471     17.54856         0.005815      0.002175      0.003846
      0.60590      5.98006     31.42269        -0.003141     -0.000531      0.006670
      9.11489      0.98779     13.57491         0.008777      0.004210      0.002353
      5.46970      3.12209     19.56135         0.002767     -0.001528     -0.002219
      5.47102      5.95388     25.42900         0.000837     -0.002104     -0.002305
      6.68732      1.03618     23.45385        -0.007884      0.010684     -0.005337
      7.89895      4.58685     33.41608        -0.003841     -0.007256     -0.006413
      7.90218      7.38273     29.42426        -0.004565     -0.005240      0.001172
      1.82202      3.89246     37.42045        -0.000600     -0.019388      0.014597
      1.82113      6.69548     33.41800         0.003048     -0.011241      0.001279
      9.12103      6.59858     11.58366        -0.003900      0.007047      0.004537
      5.46942      1.72763     21.53725         0.015508     -0.002709     -0.000046
      1.82568      5.29438     35.40993         0.000635      0.002705      0.001120
      0.60686      3.18720     35.40961        -0.004132     -0.004083     -0.003632
      7.90114      5.90736     15.57584        -0.003390      0.010185     -0.006523
      9.11806      1.03470     23.46098        -0.010396      0.008563     -0.012739
      1.82439      8.01248     15.57511        -0.005909      0.005340     -0.000543
      7.89882      5.89222      9.59565         0.004383     -0.000964      0.003836
      3.03982      7.31001     13.57874         0.008345      0.003871     -0.000270
      3.04297      5.90845     15.57618        -0.005581      0.007139     -0.002319
      3.03746      4.51057     17.55045         0.001527      0.000849      0.005980
      0.60701      0.29864     17.54976         0.003181      0.005192      0.000721
      3.04091      0.35741     27.44791         0.000841      0.000839      0.002456
      4.25754      0.97488      7.58877        -0.002007      0.013788     -0.016925
      4.25150      5.28700     35.40392        -0.004894      0.006323      0.002619
      5.47277      3.08160      7.58552        -0.006956      0.006611     -0.014630
      0.60624      4.48760      5.68113         0.001013      0.003740      0.016890
      0.61069      1.77359     31.42439        -0.005140      0.003889     -0.000871
      4.25603      3.85038     25.43795        -0.004802      0.000407     -0.004207
      0.60417      1.78617     37.42285         0.005661     -0.008456     -0.003012
      0.60883      7.33249     19.56254        -0.002552      0.005353     -0.007487
      4.25677      2.38583     11.58855        -0.006712      0.008247      0.003323
      7.89913      4.48304      5.68436         0.003631      0.001652      0.014611
      3.03695      7.34984     23.46140        -0.011214      0.011956      0.008370
      6.68485      8.10830     37.42376         0.005600     -0.007778      0.011018
      0.60719      0.37485     33.41746        -0.005077     -0.006016     -0.007239
      3.04490      5.94209     21.53669        -0.003686     -0.034293      0.004774
      5.47191      1.68284      9.59960         0.003586     -0.004702      0.001570
      9.12122      2.38438     11.58747        -0.006141      0.011130      0.003954
      7.90416      7.33270     19.55825        -0.001335      0.000181      0.004897
      9.11625      8.04544     21.53260        -0.025418      0.014571     -0.007723
      7.90340      0.27898     11.58821        -0.007356      0.006897      0.008728
      4.25419      6.70140     39.32349        -0.002601      0.007769     -0.002330
      4.25615      6.59068      5.68613         0.002447     -0.006361      0.011555
      6.68046      6.58848      5.68516         0.002269     -0.001904      0.011620
      4.25197      1.08483     35.41084         0.000868      0.001099      0.001646
      1.82329      8.08765     31.42861        -0.001854     -0.007976     -0.002837
      5.47614      0.38685     39.32689         0.002015      0.000621     -0.011220
      5.46972      4.59486     39.31832         0.005026     -0.003795     -0.017785
      7.90374      4.48996     11.58161        -0.003476      0.007239      0.013973
      3.03941      1.78772     37.41876         0.002799     -0.010820     -0.000207
      3.04089      3.13753     23.45732         0.008747     -0.003246     -0.009117
      1.82441      3.79358      9.59510         0.006892     -0.000144      0.001508
      3.03883      7.38264     29.42567        -0.001913     -0.004540      0.007707
      3.04086      7.29265      7.58307        -0.004100      0.007523     -0.013251
      6.68259      5.28987     35.41460         0.001213      0.001798      0.003108
      4.25562      6.62218     17.54838         0.001829     -0.001613     -0.001667
      6.68292      2.47905     33.41278         0.008231      0.001413     -0.002368
      1.82375      2.48987     39.32247        -0.000125      0.006467      0.000295
      6.68784      2.45888     27.43596        -0.002650     -0.000356      0.000627
      7.89803      1.78391     37.42877        -0.006715     -0.009272      0.014793
      7.90719      3.12135     19.56275        -0.004397     -0.001879     -0.011869
      9.12402      8.01089     15.56968        -0.004029      0.010993     -0.001795
      9.11824      2.48315     33.41690        -0.002113     -0.011049     -0.003548
      4.25828      3.80270     15.57261        -0.002758      0.002850     -0.001340
      7.90120      1.76786     31.42652        -0.001616     -0.002359      0.001492
      3.04054      4.56100     27.44207         0.002551     -0.004463      0.007711
      4.25996      2.40583     17.55348         0.005640     -0.005533      0.004613
      9.12070      2.46386     27.44309         0.003130     -0.000353     -0.002026
      5.46899      4.56623     27.44781        -0.003617     -0.002533     -0.005745
      4.25318      3.89221     37.41897         0.004948     -0.011822      0.010561
      4.25325      5.27874     29.42489         0.004249     -0.011259     -0.001556
      3.04303      4.48271      5.68386         0.007351     -0.003720      0.010765
      5.46915      0.27229      5.68844         0.007136      0.000577      0.022281
      6.68886      3.83378     21.53102        -0.030844     -0.004745      0.009966
      3.04165      4.49327     11.58600        -0.002600      0.004125      0.008093
      1.82448      5.22885     19.56366        -0.000494      0.000527      0.006823
      5.47065      7.33425     19.57187        -0.001659      0.001064     -0.009006
      1.82700      2.38640     11.58773        -0.003105      0.011295      0.006199
      6.68890      6.59910     11.58704        -0.008762      0.005055      0.004521
      7.90288      5.94032     21.53226        -0.017219      0.017878     -0.005259
      7.89941      5.96087     25.42830        -0.000451      0.000365      0.004052
      5.47437      3.18318     35.40296        -0.000735      0.003330     -0.001005
      6.68841      2.38575     11.58880        -0.002192      0.005091      0.006933
      1.82501      1.01768     19.56194         0.000193      0.000215      0.004211
      9.11462      3.83703     21.53581         0.031879     -0.005565      0.018106
      1.82459      5.24624     23.45461        -0.012580      0.033992     -0.011595
      9.11858      6.69691     39.32468        -0.000882      0.008057     -0.006753
      5.47121      7.39895     35.40616         0.002166      0.000465     -0.004353
      5.47122      7.29158      7.58931        -0.001275      0.014332     -0.014380
      0.60941      4.49250     11.58615        -0.007116      0.007953      0.004415
      3.04176      7.33224     19.56259         0.000539      0.004582     -0.008723
      1.82851      3.85027     25.41524         0.003290     -0.007078      0.010054
      4.25685      8.04583     21.53599         0.005668      0.024618      0.008892
      6.69059      8.01512     15.57196        -0.003858      0.007860      0.000956
      0.60752      3.09255     13.57841         0.006891      0.000919     -0.001139
      1.82539      6.59051      5.68103         0.002752     -0.002855      0.008958
      1.82710      6.70405     39.32392        -0.003006      0.004537     -0.004455
      9.12053      1.01669     19.56276        -0.003362     -0.001003      0.007309
      6.68809      0.97639      7.58744        -0.005202      0.008587     -0.020277
      7.90213      1.69855     15.57595        -0.000930      0.004796     -0.002099
      7.89845      0.38595     39.32766        -0.005536     -0.001987     -0.013436
      7.90760      7.29511      7.58159        -0.000413      0.009126     -0.010758
      5.47372      5.98621     31.42210         0.000390     -0.005347     -0.001306
      1.82374      1.03566     23.45839         0.018121     -0.021603     -0.001196
      0.60606      5.94169     21.53210         0.006816     -0.019449      0.011598
      4.25996      3.83544     21.53401        -0.016018      0.013461     -0.003000
      6.68637      2.41023     17.55380         0.005816     -0.004046      0.001453
      5.47184      5.89046      9.59915         0.003287     -0.004293      0.000642
      6.68422      0.99043     13.57586         0.003149      0.000454      0.002538
      0.60549      0.27854      5.68207         0.004857      0.001592      0.014675
      9.11491      5.19704     13.57637         0.001483      0.005744      0.002587
      7.90378      3.08245      7.58536        -0.005461      0.008218     -0.014085
      9.12494      8.09077     31.41935        -0.002936     -0.004511     -0.002958
      1.82467      8.00056      9.59824         0.006283     -0.001618      0.000272
      4.25694      0.99065     13.57307         0.004121      0.001829      0.001179
      4.25374      8.00100      9.59672         0.004519     -0.001979     -0.002274
      3.04204      5.95970     25.44008         0.001487     -0.001439     -0.001566
      7.90257      3.09466     13.57373         0.003856     -0.000365      0.001778
      9.11849      5.24612     23.45829         0.019548     -0.012380      0.004826
      1.82391      3.87784     31.42439        -0.001452     -0.004679     -0.006345
      4.25556      6.69090     33.41318         0.003563     -0.001529     -0.002212
      5.47048      3.14081     23.46124         0.026396      0.006276     -0.002071
      5.46750      0.37497     33.41943        -0.002352     -0.008402     -0.011303
      7.90528      0.35462     27.44322        -0.000825     -0.003281     -0.005042
      0.61076      1.74459     25.43540         0.005064      0.001208      0.007422
      6.68690      5.19867     13.57475         0.005861      0.005190      0.003987
      0.60919      3.08243      7.58245        -0.005323      0.006206     -0.006614
      3.04189      0.28046     11.58634        -0.003508      0.008071      0.009097
      6.68359      6.62064     17.55006         0.003688      0.000081      0.000406
      3.04429      3.12190     19.56244        -0.003164     -0.000936      0.009659
      5.47478      3.17287     29.42291        -0.005779     -0.003869     -0.000249
      1.82344      6.61700     17.55328         0.003446      0.002634      0.003558
      9.12049      8.10522     37.42466        -0.001784     -0.018047      0.012123
      9.11795      8.06736     25.42636        -0.001172     -0.003790      0.008197
      5.47242      1.78495     37.42704         0.010414     -0.005893      0.007424
      0.60757      1.72314     21.53279         0.000612      0.008779     -0.002703
      6.68825      8.04519     21.53284         0.022169      0.000973      0.000385
      5.47045      5.99894     37.41849         0.001593     -0.010058      0.010126
      9.12308      5.18791      7.58275        -0.009093      0.017454     -0.016408
      4.25033      5.24363     23.46001         0.001678      0.007845     -0.006141
      1.82366      2.48415     33.41856         0.006269     -0.004069     -0.010987
      0.60727      3.13842     23.45679        -0.039535      0.009426     -0.011778
      7.90141      1.74704     25.43097         0.003816      0.000329     -0.001560
      5.47110      0.34916     27.44042         0.000184     -0.001569     -0.004512
      5.46877      7.38574     29.42382         0.006016     -0.005870     -0.003811
      4.25305      3.78590      9.59970         0.006313     -0.001381      0.001705
      4.25420      8.01390     15.56775        -0.007078      0.007414      0.000882
      4.25606      2.37886      5.68772        -0.000519     -0.002692      0.010573
      0.60710      4.51091     17.55177         0.000593      0.002397      0.006110
      4.25640      8.06118     25.43048         0.002937     -0.000870     -0.008463
      7.90151      7.39654     35.40781        -0.002927     -0.003258      0.000630
      6.68400      3.78715      9.60094         0.001287     -0.000998     -0.000467
      0.61045      4.56553     27.43958         0.002581      0.000942      0.005713
      9.11590      6.68619     33.41906         0.006336     -0.003579     -0.003669
      6.68895      3.80356     15.56923        -0.003897      0.007876     -0.001317
      7.90431      3.14065     23.45968         0.006153     -0.007794      0.010063
      1.82544      6.66993     27.44438         0.000263      0.002181     -0.006827
      5.47008      1.76662     31.42589        -0.001657      0.001793      0.002717
      6.68962      5.22713     19.55912        -0.002332      0.007518      0.008597
      1.82416      1.07651     35.40857        -0.002472     -0.000280     -0.001733
      0.60773      4.59191     33.42229         0.003480     -0.007309     -0.009443
      1.82194      2.38102      5.68654         0.006134     -0.005123      0.010538
      7.90267      4.59486     39.32253        -0.006741     -0.001034     -0.017716
      1.82965      1.06534     29.42082        -0.000935     -0.008256     -0.003366
      0.61038      1.69535     15.57427        -0.003849      0.006653      0.000650
      5.46882      5.93721     21.53560         0.014599     -0.023709      0.007639
      9.11856      3.89169     37.42544         0.001145     -0.003633      0.015758
      6.68313      3.85007     25.42956         0.000088     -0.003818     -0.000700
      3.04017      3.09835     13.57048         0.003796      0.001631     -0.004621
      6.68587      6.69614     33.42135        -0.001592     -0.011041     -0.001049
      5.47065      4.48388      5.68414         0.003694     -0.004178      0.012115
      9.11677      3.78891      9.59962         0.004200     -0.000236      0.000345
      3.04407      1.69722     15.57174        -0.003591      0.004052     -0.000277
      5.47317      1.74094     25.43044        -0.001909      0.000799      0.003089
      3.03547      0.37397     33.41667         0.010221     -0.007426     -0.012301
      0.60724      0.35735     27.44381        -0.001341     -0.001043      0.006466
      0.60431      0.38271     39.32509        -0.004614     -0.006811     -0.015662
      1.82496      5.18792      7.57952        -0.008857      0.017012     -0.009727
      9.12031      6.61703     17.55072         0.004956      0.004274      0.002130
      4.25330      1.06784     29.42589         0.005597     -0.007474     -0.006310
      0.60845      7.38112     29.42377         0.002414     -0.006147      0.002629
      3.03956      3.18727     35.40554         0.003941      0.000696     -0.004531
      5.46878      4.58645     33.41372         0.001518     -0.005836     -0.008331
      0.61192      5.89074      9.60888         0.008024     -0.010617      0.000888
      6.68847      8.09031     31.42437         0.001504     -0.000610      0.004899
      9.11413      8.00495      9.60579         0.001470      0.000927      0.001096
      3.04971      7.39914     35.39383        -0.010676      0.005689     -0.003490
      1.82606      0.99154     13.57482         0.005567      0.005738      0.005001
      9.11715      5.27974     29.41515        -0.001885     -0.008200     -0.000956
      1.81843      2.45885     27.44657        -0.004132     -0.002903     -0.003000
      9.11841      3.87267     31.43257        -0.002874     -0.001439     -0.005660
      0.60388      7.40385     35.39540         0.000189      0.005491      0.001083
      4.25579      3.87860     31.42896         0.001655     -0.003745     -0.007209
      6.68532      1.08020     35.40094        -0.009350     -0.001539     -0.001274
      0.60866      5.90616     15.57458        -0.005505      0.004312     -0.000632
      1.82376      3.83473     21.53804         0.011313     -0.008418     -0.013388
      9.11756      1.06391     29.42723         0.004449     -0.010468     -0.004235
      3.04167      0.30104     17.54703         0.004145      0.007283     -0.000218
      6.68854      1.01873     19.55201        -0.001768      0.000190      0.004132
      6.68749      6.67186     27.44743        -0.002045      0.000148      0.007011
      9.11871      5.28422     35.39436        -0.002563     -0.002174     -0.005200
      5.47087      7.35063     23.45700        -0.013101      0.007618      0.007771
      9.12103      3.85499     25.43898        -0.003257     -0.000152     -0.009795
 -----------------------------------------------------------------------------------
    total drift:                               -0.007450      0.006948      0.009145


--------------------------------------------------------------------------------------------------------



  FREE ENERGIE OF THE ION-ELECTRON SYSTEM (eV)
  ---------------------------------------------------
  free  energy   TOTEN  =     -2330.10291587 eV

  energy  without entropy=    -2324.54777430  energy(sigma->0) =    -2327.32534509
 
 d Force = 0.7170890E-04[-0.101E-02, 0.115E-02]  d Energy = 0.2666123E-03-0.195E-03
 d Force =-0.4847969E+03[-0.485E+03,-0.485E+03]  d Ewald  =-0.4847969E+03-0.294E-04


--------------------------------------------------------------------------------------------------------


    POTLOK:  cpu time    0.2890: real time    0.2891


--------------------------------------------------------------------------------------------------------




--------------------------------------------------------------------------------------------------------


  
 reached required accuracy - stopping structural energy minimisation
     LOOP+:  cpu time  827.8492: real time  827.8459
    4ORBIT:  cpu time    0.0000: real time    0.0000

 total amount of memory used by VASP MPI-rank0   350227. kBytes
=======================================================================

   base      :      30000. kBytes
   nonlr-proj:      93352. kBytes
   fftplans  :      15944. kBytes
   grid      :      24815. kBytes
   one-center:       1440. kBytes
   wavefun   :     184676. kBytes
 
  
  
 General timing and accounting informations for this job:
 ========================================================
  
                  Total CPU time used (sec):    14377.767
                            User time (sec):    14369.336
                          System time (sec):        8.430
                         Elapsed time (sec):    14383.765
  
                   Maximum memory used (kb):      913152.
                   Average memory used (kb):           0.
  
                          Minor page faults:       291862
                          Major page faults:           22
                 Voluntary context switches:        11865
