 288 288   0   0
  0.1280206E+02  0.9726678E-09  0.8423550E-09  0.4500000E-08  0.2500000E-15
  1.000000000000000E-004
  CAR 
 unknown system                          
      6.75175801     -6.05848119  301      4.29858630      1.00000000
     -6.058  0.0000E+00  0.0000E+00
     -6.016  0.0000E+00  0.0000E+00
     -5.973  0.0000E+00  0.0000E+00
     -5.930  0.0000E+00  0.0000E+00
     -5.888  0.0000E+00  0.0000E+00
     -5.845  0.0000E+00  0.0000E+00
     -5.802  0.0000E+00  0.0000E+00
     -5.760  0.0000E+00  0.0000E+00
     -5.717  0.0000E+00  0.0000E+00
     -5.674  0.0000E+00  0.0000E+00
     -5.631  0.0000E+00  0.0000E+00
     -5.589  0.0000E+00  0.0000E+00
     -5.546  0.0000E+00  0.0000E+00
     -5.503  0.0000E+00  0.0000E+00
     -5.461  0.0000E+00  0.0000E+00
     -5.418  0.1625E-15  0.6939E-17
     -5.375  0.3803E-14  0.1693E-15
     -5.333  0.8151E-13  0.3650E-14
     -5.290  0.1486E-11  0.6712E-13
     -5.247  0.2310E-10  0.1053E-11
     -5.204  0.3057E-09  0.1411E-10
     -5.162  0.3448E-08  0.1614E-09
     -5.119  0.3315E-07  0.1577E-08
     -5.076  0.2718E-06  0.1318E-07
     -5.034  0.1901E-05  0.9435E-07
     -4.991  0.1135E-04  0.5792E-06
     -4.948  0.5799E-04  0.3055E-05
     -4.906  0.2538E-03  0.1389E-04
     -4.863  0.9549E-03  0.5467E-04
     -4.820  0.3102E-02  0.1871E-03
     -4.777  0.8759E-02  0.5611E-03
     -4.735  0.2169E-01  0.1487E-02
     -4.692  0.4767E-01  0.3523E-02
     -4.649  0.9415E-01  0.7543E-02
     -4.607  0.1694E+00  0.1477E-01
     -4.564  0.2806E+00  0.2675E-01
     -4.521  0.4316E+00  0.4519E-01
     -4.479  0.6204E+00  0.7168E-01
     -4.436  0.8370E+00  0.1074E+00
     -4.393  0.1065E+01  0.1529E+00
     -4.350  0.1284E+01  0.2077E+00
     -4.308  0.1474E+01  0.2707E+00
     -4.265  0.1623E+01  0.3400E+00
     -4.222  0.1730E+01  0.4138E+00
     -4.180  0.1810E+01  0.4911E+00
     -4.137  0.1887E+01  0.5716E+00
     -4.094  0.1988E+01  0.6565E+00
     -4.052  0.2134E+01  0.7477E+00
     -4.009  0.2330E+01  0.8472E+00
     -3.966  0.2560E+01  0.9565E+00
     -3.923  0.2792E+01  0.1076E+01
     -3.881  0.2988E+01  0.1203E+01
     -3.838  0.3118E+01  0.1336E+01
     -3.795  0.3169E+01  0.1472E+01
     -3.753  0.3154E+01  0.1606E+01
     -3.710  0.3111E+01  0.1739E+01
     -3.667  0.3084E+01  0.1871E+01
     -3.625  0.3115E+01  0.2004E+01
     -3.582  0.3221E+01  0.2141E+01
     -3.539  0.3396E+01  0.2287E+01
     -3.496  0.3612E+01  0.2441E+01
     -3.454  0.3831E+01  0.2604E+01
     -3.411  0.4014E+01  0.2776E+01
     -3.368  0.4136E+01  0.2952E+01
     -3.326  0.4191E+01  0.3131E+01
     -3.283  0.4195E+01  0.3310E+01
     -3.240  0.4179E+01  0.3489E+01
     -3.198  0.4188E+01  0.3668E+01
     -3.155  0.4257E+01  0.3850E+01
     -3.112  0.4404E+01  0.4038E+01
     -3.069  0.4618E+01  0.4235E+01
     -3.027  0.4864E+01  0.4442E+01
     -2.984  0.5094E+01  0.4660E+01
     -2.941  0.5264E+01  0.4885E+01
     -2.899  0.5351E+01  0.5113E+01
     -2.856  0.5366E+01  0.5342E+01
     -2.813  0.5357E+01  0.5571E+01
     -2.771  0.5382E+01  0.5801E+01
     -2.728  0.5471E+01  0.6035E+01
     -2.685  0.5601E+01  0.6274E+01
     -2.642  0.5703E+01  0.6517E+01
     -2.600  0.5715E+01  0.6761E+01
     -2.557  0.5630E+01  0.7002E+01
     -2.514  0.5520E+01  0.7237E+01
     -2.472  0.5509E+01  0.7473E+01
     -2.429  0.5703E+01  0.7716E+01
     -2.386  0.6132E+01  0.7978E+01
     -2.344  0.6711E+01  0.8265E+01
     -2.301  0.7259E+01  0.8575E+01
     -2.258  0.7581E+01  0.8898E+01
     -2.215  0.7576E+01  0.9222E+01
     -2.173  0.7304E+01  0.9534E+01
     -2.130  0.6964E+01  0.9831E+01
     -2.087  0.6784E+01  0.1012E+02
     -2.045  0.6907E+01  0.1042E+02
     -2.002  0.7331E+01  0.1073E+02
     -1.959  0.7917E+01  0.1107E+02
     -1.917  0.8464E+01  0.1143E+02
     -1.874  0.8806E+01  0.1180E+02
     -1.831  0.8891E+01  0.1218E+02
     -1.788  0.8802E+01  0.1256E+02
     -1.746  0.8692E+01  0.1293E+02
     -1.703  0.8682E+01  0.1330E+02
     -1.660  0.8808E+01  0.1368E+02
     -1.618  0.9031E+01  0.1406E+02
     -1.575  0.9294E+01  0.1446E+02
     -1.532  0.9564E+01  0.1487E+02
     -1.489  0.9836E+01  0.1529E+02
     -1.447  0.1010E+02  0.1572E+02
     -1.404  0.1033E+02  0.1616E+02
     -1.361  0.1050E+02  0.1661E+02
     -1.319  0.1064E+02  0.1706E+02
     -1.276  0.1086E+02  0.1753E+02
     -1.233  0.1136E+02  0.1801E+02
     -1.191  0.1222E+02  0.1853E+02
     -1.148  0.1334E+02  0.1910E+02
     -1.105  0.1444E+02  0.1972E+02
     -1.062  0.1521E+02  0.2037E+02
     -1.020  0.1552E+02  0.2103E+02
     -0.977  0.1552E+02  0.2170E+02
     -0.934  0.1560E+02  0.2236E+02
     -0.892  0.1614E+02  0.2305E+02
     -0.849  0.1732E+02  0.2379E+02
     -0.806  0.1909E+02  0.2461E+02
     -0.764  0.2130E+02  0.2552E+02
     -0.721  0.2393E+02  0.2654E+02
     -0.678  0.2714E+02  0.2770E+02
     -0.635  0.3105E+02  0.2902E+02
     -0.593  0.3555E+02  0.3054E+02
     -0.550  0.4019E+02  0.3226E+02
     -0.507  0.4439E+02  0.3415E+02
     -0.465  0.4778E+02  0.3619E+02
     -0.422  0.5034E+02  0.3834E+02
     -0.379  0.5231E+02  0.4058E+02
     -0.337  0.5394E+02  0.4288E+02
     -0.294  0.5534E+02  0.4524E+02
     -0.251  0.5645E+02  0.4765E+02
     -0.208  0.5717E+02  0.5009E+02
     -0.166  0.5749E+02  0.5255E+02
     -0.123  0.5754E+02  0.5501E+02
     -0.080  0.5758E+02  0.5746E+02
     -0.038  0.5782E+02  0.5993E+02
      0.005  0.5844E+02  0.6243E+02
      0.048  0.5960E+02  0.6497E+02
      0.090  0.6148E+02  0.6760E+02
      0.133  0.6416E+02  0.7034E+02
      0.176  0.6753E+02  0.7322E+02
      0.219  0.7122E+02  0.7626E+02
      0.261  0.7480E+02  0.7946E+02
      0.304  0.7797E+02  0.8279E+02
      0.347  0.8062E+02  0.8623E+02
      0.389  0.8277E+02  0.8976E+02
      0.432  0.8447E+02  0.9337E+02
      0.475  0.8570E+02  0.9703E+02
      0.517  0.8643E+02  0.1007E+03
      0.560  0.8663E+02  0.1044E+03
      0.603  0.8638E+02  0.1081E+03
      0.646  0.8579E+02  0.1118E+03
      0.688  0.8489E+02  0.1154E+03
      0.731  0.8361E+02  0.1190E+03
      0.774  0.8194E+02  0.1225E+03
      0.816  0.8005E+02  0.1259E+03
      0.859  0.7832E+02  0.1292E+03
      0.902  0.7710E+02  0.1325E+03
      0.944  0.7650E+02  0.1358E+03
      0.987  0.7632E+02  0.1390E+03
      1.030  0.7616E+02  0.1423E+03
      1.073  0.7570E+02  0.1455E+03
      1.115  0.7488E+02  0.1487E+03
      1.158  0.7394E+02  0.1519E+03
      1.201  0.7329E+02  0.1550E+03
      1.243  0.7323E+02  0.1581E+03
      1.286  0.7362E+02  0.1613E+03
      1.329  0.7394E+02  0.1644E+03
      1.371  0.7359E+02  0.1676E+03
      1.414  0.7236E+02  0.1707E+03
      1.457  0.7056E+02  0.1737E+03
      1.500  0.6885E+02  0.1766E+03
      1.542  0.6785E+02  0.1795E+03
      1.585  0.6789E+02  0.1824E+03
      1.628  0.6895E+02  0.1854E+03
      1.670  0.7080E+02  0.1884E+03
      1.713  0.7312E+02  0.1915E+03
      1.756  0.7561E+02  0.1947E+03
      1.798  0.7807E+02  0.1981E+03
      1.841  0.8035E+02  0.2015E+03
      1.884  0.8240E+02  0.2050E+03
      1.927  0.8422E+02  0.2086E+03
      1.969  0.8587E+02  0.2123E+03
      2.012  0.8744E+02  0.2160E+03
      2.055  0.8900E+02  0.2198E+03
      2.097  0.9058E+02  0.2237E+03
      2.140  0.9219E+02  0.2276E+03
      2.183  0.9382E+02  0.2316E+03
      2.225  0.9554E+02  0.2357E+03
      2.268  0.9753E+02  0.2399E+03
      2.311  0.1001E+03  0.2441E+03
      2.354  0.1034E+03  0.2486E+03
      2.396  0.1074E+03  0.2532E+03
      2.439  0.1119E+03  0.2579E+03
      2.482  0.1164E+03  0.2629E+03
      2.524  0.1206E+03  0.2681E+03
      2.567  0.1241E+03  0.2734E+03
      2.610  0.1267E+03  0.2788E+03
      2.652  0.1285E+03  0.2842E+03
      2.695  0.1295E+03  0.2898E+03
      2.738  0.1303E+03  0.2953E+03
      2.781  0.1313E+03  0.3009E+03
      2.823  0.1331E+03  0.3066E+03
      2.866  0.1361E+03  0.3124E+03
      2.909  0.1396E+03  0.3184E+03
      2.951  0.1423E+03  0.3245E+03
      2.994  0.1426E+03  0.3306E+03
      3.037  0.1392E+03  0.3365E+03
      3.079  0.1321E+03  0.3421E+03
      3.122  0.1226E+03  0.3474E+03
      3.165  0.1127E+03  0.3522E+03
      3.208  0.1040E+03  0.3566E+03
      3.250  0.9741E+02  0.3608E+03
      3.293  0.9324E+02  0.3648E+03
      3.336  0.9111E+02  0.3687E+03
      3.378  0.9037E+02  0.3725E+03
      3.421  0.9019E+02  0.3764E+03
      3.464  0.8978E+02  0.3802E+03
      3.506  0.8861E+02  0.3840E+03
      3.549  0.8670E+02  0.3877E+03
      3.592  0.8465E+02  0.3913E+03
      3.635  0.8336E+02  0.3949E+03
      3.677  0.8353E+02  0.3984E+03
      3.720  0.8526E+02  0.4021E+03
      3.763  0.8809E+02  0.4058E+03
      3.805  0.9128E+02  0.4097E+03
      3.848  0.9427E+02  0.4138E+03
      3.891  0.9683E+02  0.4179E+03
      3.934  0.9901E+02  0.4221E+03
      3.976  0.1009E+03  0.4264E+03
      4.019  0.1024E+03  0.4308E+03
      4.062  0.1034E+03  0.4352E+03
      4.104  0.1038E+03  0.4397E+03
      4.147  0.1035E+03  0.4441E+03
      4.190  0.1026E+03  0.4484E+03
      4.232  0.1014E+03  0.4528E+03
      4.275  0.1003E+03  0.4571E+03
      4.318  0.9955E+02  0.4613E+03
      4.361  0.9939E+02  0.4656E+03
      4.403  0.9974E+02  0.4698E+03
      4.446  0.1003E+03  0.4741E+03
      4.489  0.1007E+03  0.4784E+03
      4.531  0.1005E+03  0.4827E+03
      4.574  0.9984E+02  0.4869E+03
      4.617  0.9897E+02  0.4912E+03
      4.659  0.9847E+02  0.4954E+03
      4.702  0.9883E+02  0.4996E+03
      4.745  0.1003E+03  0.5039E+03
      4.788  0.1027E+03  0.5083E+03
      4.830  0.1058E+03  0.5128E+03
      4.873  0.1089E+03  0.5174E+03
      4.916  0.1118E+03  0.5222E+03
      4.958  0.1136E+03  0.5271E+03
      5.001  0.1135E+03  0.5319E+03
      5.044  0.1104E+03  0.5366E+03
      5.086  0.1032E+03  0.5410E+03
      5.129  0.9129E+02  0.5449E+03
      5.172  0.7536E+02  0.5481E+03
      5.215  0.5727E+02  0.5506E+03
      5.257  0.3958E+02  0.5523E+03
      5.300  0.2463E+02  0.5533E+03
      5.343  0.1367E+02  0.5539E+03
      5.385  0.6730E+01  0.5542E+03
      5.428  0.2919E+01  0.5543E+03
      5.471  0.1112E+01  0.5544E+03
      5.513  0.3701E+00  0.5544E+03
      5.556  0.1074E+00  0.5544E+03
      5.599  0.2714E-01  0.5544E+03
      5.642  0.5951E-02  0.5544E+03
      5.684  0.1131E-02  0.5544E+03
      5.727  0.1860E-03  0.5544E+03
      5.770  0.2644E-04  0.5544E+03
      5.812  0.3244E-05  0.5544E+03
      5.855  0.3432E-06  0.5544E+03
      5.898  0.3126E-07  0.5544E+03
      5.940  0.2450E-08  0.5544E+03
      5.983  0.1651E-09  0.5544E+03
      6.026  0.9550E-11  0.5544E+03
      6.069  0.4741E-12  0.5544E+03
      6.111  0.1898E-13  0.5544E+03
      6.154  0.3250E-15  0.5544E+03
      6.197  0.0000E+00  0.5544E+03
      6.239  0.0000E+00  0.5544E+03
      6.282  0.0000E+00  0.5544E+03
      6.325  0.0000E+00  0.5544E+03
      6.367  0.0000E+00  0.5544E+03
      6.410  0.0000E+00  0.5544E+03
      6.453  0.0000E+00  0.5544E+03
      6.496  0.0000E+00  0.5544E+03
      6.538  0.0000E+00  0.5544E+03
      6.581  0.0000E+00  0.5544E+03
      6.624  0.0000E+00  0.5544E+03
      6.666  0.0000E+00  0.5544E+03
      6.709  0.0000E+00  0.5544E+03
      6.752  0.0000E+00  0.5544E+03
