<?xml version="1.0" encoding="ISO-8859-1"?>
<modeling>
 <generator>
  <i name="program" type="string">vasp </i>
  <i name="version" type="string">5.4.4.18Apr17-6-g9f103f2a35  </i>
  <i name="subversion" type="string">(build Sep 27 2018 12:46:37) complex + VL-xray_ parallel </i>
  <i name="platform" type="string">LLNL_Quartz_ifc </i>
  <i name="date" type="string">2021 09 26 </i>
  <i name="time" type="string">19:25:37 </i>
 </generator>
 <incar>
  <i type="int" name="ISTART">     2</i>
  <i type="string" name="PREC">accurate</i>
  <i type="string" name="ALGO"> Fast</i>
  <i type="int" name="ICHARG">     2</i>
  <i type="int" name="INIWAV">     1</i>
  <i type="int" name="NELM">   100</i>
  <i type="int" name="NELMIN">     4</i>
  <i type="int" name="IBRION">     2</i>
  <i name="EDIFF">      0.00000100</i>
  <i type="int" name="NSW">     5</i>
  <i type="int" name="ISIF">     2</i>
  <i type="int" name="ISYM">     2</i>
  <i name="ENCUT">    450.00000000</i>
  <i name="POTIM">      0.25000000</i>
  <i type="string" name="LREAL"> Auto</i>
  <i type="int" name="ISMEAR">     0</i>
  <i name="SIGMA">      0.15000000</i>
  <i type="logical" name="LWAVE"> F  </i>
  <i type="logical" name="LCHARG"> F  </i>
  <i type="int" name="ICORELEVEL">     0</i>
  <i type="int" name="CLNT">     1</i>
  <i type="int" name="CLN">     1</i>
  <i type="int" name="INCAR     ">     0</i>
  <i name="CLZ">      0.00000000</i>
  <v type="int" name="KPOINT_BSE">    -1     0     0     0</v>
  <i type="int" name="NELM">   100</i>
 </incar>
 <structure name="primitive_cell" >
  <crystal>
   <varray name="basis" >
    <v>       9.72667804       0.00000000       0.00000000 </v>
    <v>       0.00000000       8.42355028       0.00000000 </v>
    <v>       0.00000000       0.00000000      45.00000000 </v>
   </varray>
   <i name="volume">   3686.99226691 </i>
   <varray name="rec_basis" >
    <v>       0.10281002       0.00000000       0.00000000 </v>
    <v>       0.00000000       0.11871479       0.00000000 </v>
    <v>       0.00000000       0.00000000       0.02222222 </v>
   </varray>
  </crystal>
  <varray name="positions" >
   <v>       0.06152737       0.03202625       0.12466413 </v>
   <v>      -0.05799911       0.11256359       0.16681013 </v>
   <v>      -0.05994994      -0.21087893       0.12486868 </v>
   <v>       0.06765604      -0.13633847       0.16688816 </v>
   <v>      -0.18564426       0.03343896       0.12454279 </v>
   <v>       0.19424360       0.11477054       0.16733246 </v>
   <v>       0.19095682      -0.21288872       0.12484101 </v>
   <v>       0.31266003       0.03274430       0.12462478 </v>
   <v>      -0.06032768       0.28695725       0.12456134 </v>
   <v>       0.19126297       0.28724679       0.12466390 </v>
   <v>      -0.18173771      -0.13615480       0.16686451 </v>
   <v>       0.06868035       0.36426933       0.16683864 </v>
   <v>       0.31857560      -0.13548693       0.16717619 </v>
   <v>      -0.18093600       0.36321634       0.16670294 </v>
   <v>      -0.30731544       0.11411281       0.16718603 </v>
   <v>      -0.30953710      -0.21339431       0.12487317 </v>
   <v>      -0.05712494      -0.38605015       0.16672992 </v>
   <v>       0.18630118      -0.04372640       0.21208749 </v>
   <v>      -0.06487291      -0.04470972       0.21196084 </v>
   <v>       0.19201112      -0.38601274       0.16687473 </v>
   <v>      -0.30908944       0.28758764       0.12464989 </v>
   <v>       0.06318632      -0.46683646       0.12449366 </v>
   <v>       0.06060368       0.20701697       0.21214388 </v>
   <v>       0.31948301       0.36449070       0.16648927 </v>
   <v>       0.43985026      -0.21197453       0.12458740 </v>
   <v>       0.44239524       0.11376034       0.16692901 </v>
   <v>       0.43991996       0.28784850       0.12454962 </v>
   <v>       0.05935248      -0.29393401       0.21188037 </v>
   <v>       0.31003202       0.20545988       0.21191285 </v>
   <v>      -0.43741203       0.03186827       0.12481941 </v>
   <v>      -0.18771766      -0.46713237       0.12462161 </v>
   <v>      -0.19057224       0.20605681       0.21207843 </v>
   <v>       0.31387731      -0.46850478       0.12444769 </v>
   <v>      -0.43219783      -0.13525455       0.16709185 </v>
   <v>       0.31012823      -0.29345891       0.21177194 </v>
   <v>      -0.30677380      -0.38573997       0.16702016 </v>
   <v>      -0.18986001      -0.29350852       0.21174618 </v>
   <v>       0.43535793      -0.04454800       0.21198873 </v>
   <v>      -0.31493649      -0.04423793       0.21200166 </v>
   <v>       0.18365357       0.45588635       0.21208603 </v>
   <v>      -0.06440488       0.45502359       0.21211883 </v>
   <v>       0.44234823      -0.38700538       0.16716666 </v>
   <v>      -0.43124036       0.36522345       0.16693883 </v>
   <v>       0.06597757       0.03781319       0.25609754 </v>
   <v>      -0.05847713      -0.21161451       0.25625518 </v>
   <v>      -0.18411749       0.03772998       0.25619985 </v>
   <v>       0.19098299      -0.21254298       0.25629228 </v>
   <v>      -0.05870688       0.28804083       0.25619283 </v>
   <v>       0.31514824       0.03833593       0.25615947 </v>
   <v>      -0.43946798       0.20627357       0.21196783 </v>
   <v>      -0.43732358      -0.46837920       0.12456919 </v>
   <v>       0.19225288       0.28847826       0.25611114 </v>
   <v>       0.43591445       0.45606388       0.21211248 </v>
   <v>      -0.31521540       0.45529138       0.21199604 </v>
   <v>      -0.44032881      -0.29419721       0.21183774 </v>
   <v>      -0.30885917      -0.21257066       0.25629790 </v>
   <v>       0.06648851      -0.46250344       0.25623828 </v>
   <v>      -0.30821652       0.28794724       0.25624322 </v>
   <v>       0.44157106      -0.21214249       0.25624030 </v>
   <v>       0.44125625       0.28756037       0.25630649 </v>
   <v>      -0.18440902      -0.46175368       0.25618915 </v>
   <v>      -0.43363655       0.03721494       0.25620115 </v>
   <v>       0.31561709      -0.46226842       0.25617195 </v>
   <v>       0.05443970      -0.12694575       0.30032894 </v>
   <v>       0.17976687       0.12326117       0.30033377 </v>
   <v>      -0.06959374       0.12376448       0.30047919 </v>
   <v>       0.30481924      -0.12676615       0.30045395 </v>
   <v>      -0.19525922      -0.12674731       0.30034656 </v>
   <v>       0.05450406       0.37328754       0.30046363 </v>
   <v>      -0.43347834      -0.46255170       0.25624483 </v>
   <v>       0.17994658      -0.37663459       0.30037022 </v>
   <v>       0.42965543       0.12314104       0.30041072 </v>
   <v>      -0.07032364      -0.37623572       0.30047123 </v>
   <v>       0.30477745       0.37308181       0.30039084 </v>
   <v>      -0.31982754       0.12347168       0.30045653 </v>
   <v>      -0.19537604       0.37295878       0.30041437 </v>
   <v>       0.43011087      -0.37608938       0.30044603 </v>
   <v>      -0.44567390      -0.12694020       0.30035600 </v>
   <v>      -0.31992085      -0.37607588       0.30037651 </v>
   <v>      -0.44523612       0.37309806       0.30043922 </v>
   <v>      -0.05834010      -0.04766524       0.34501698 </v>
   <v>       0.06654447       0.20229109       0.34508141 </v>
   <v>       0.19127406      -0.04773705       0.34510894 </v>
   <v>      -0.18347918       0.20193595       0.34500579 </v>
   <v>       0.06661800      -0.29770250       0.34505296 </v>
   <v>       0.31615581       0.20245305       0.34507659 </v>
   <v>      -0.18327360      -0.29756223       0.34514635 </v>
   <v>      -0.30891494      -0.04729835       0.34516555 </v>
   <v>       0.31675361      -0.29783137       0.34505312 </v>
   <v>      -0.05913865       0.45266100       0.34507676 </v>
   <v>       0.44132857      -0.04777447       0.34496630 </v>
   <v>       0.19166003       0.45197284       0.34501477 </v>
   <v>      -0.43351510       0.20179850       0.34497139 </v>
   <v>      -0.30843009       0.45221455       0.34504822 </v>
   <v>       0.44158218       0.45227796       0.34510382 </v>
   <v>       0.06215007       0.04067664      -0.12444835 </v>
   <v>      -0.43380421      -0.29741777       0.34507648 </v>
   <v>      -0.06190276      -0.20682629      -0.12436533 </v>
   <v>       0.18804779      -0.20670476      -0.12439829 </v>
   <v>      -0.18781430       0.04084176      -0.12446768 </v>
   <v>       0.31203737       0.04072190      -0.12447811 </v>
   <v>      -0.06163473       0.29353376      -0.12436466 </v>
   <v>       0.18788556       0.29297372      -0.12440968 </v>
   <v>       0.05855546       0.03749868       0.38901345 </v>
   <v>       0.06202506      -0.45938065      -0.12447339 </v>
   <v>      -0.31187878      -0.20651277      -0.12441118 </v>
   <v>       0.43820152      -0.20675880      -0.12440558 </v>
   <v>      -0.31160797       0.29313363      -0.12433472 </v>
   <v>       0.43806035       0.29321535      -0.12440599 </v>
   <v>       0.18354436      -0.21223412       0.38902768 </v>
   <v>      -0.06637545      -0.21245123       0.38907232 </v>
   <v>       0.30872407       0.03742746       0.38907793 </v>
   <v>       0.18360055       0.28764653       0.38908750 </v>
   <v>      -0.19168397       0.03755778       0.38908454 </v>
   <v>      -0.06642124       0.28758976       0.38906228 </v>
   <v>      -0.18770403      -0.45967160      -0.12445025 </v>
   <v>       0.31200056      -0.45938236      -0.12449962 </v>
   <v>      -0.43756540       0.04057646      -0.12447189 </v>
   <v>       0.43360069      -0.21247947       0.38904369 </v>
   <v>       0.05854304      -0.46233301       0.38906868 </v>
   <v>      -0.31636685      -0.21243316       0.38901886 </v>
   <v>       0.43362750       0.28769412       0.38906794 </v>
   <v>      -0.31745202       0.28767889       0.38902168 </v>
   <v>       0.30872052      -0.46227979       0.38907070 </v>
   <v>      -0.44142837       0.03736791       0.38905736 </v>
   <v>      -0.19147373      -0.46263807       0.38907078 </v>
   <v>      -0.43796889      -0.45947302      -0.12449889 </v>
   <v>       0.18341811      -0.03734264      -0.16683338 </v>
   <v>      -0.06661074      -0.03745844      -0.16684269 </v>
   <v>       0.05840803       0.21263542      -0.16686558 </v>
   <v>       0.05837426      -0.28730913      -0.16683853 </v>
   <v>       0.30840976       0.21258134      -0.16684521 </v>
   <v>      -0.19158427       0.21244198      -0.16686307 </v>
   <v>      -0.44120795      -0.46292368       0.38902920 </v>
   <v>       0.30847095      -0.28730697      -0.16684656 </v>
   <v>      -0.19156718      -0.28731950      -0.16682440 </v>
   <v>       0.43342364      -0.03742911      -0.16684708 </v>
   <v>      -0.31660183      -0.03744552      -0.16687355 </v>
   <v>       0.18327673       0.46293129      -0.16698091 </v>
   <v>      -0.06663259       0.46247439      -0.16690008 </v>
   <v>       0.06280559      -0.13051191       0.43445619 </v>
   <v>      -0.06174997       0.11962383       0.43447277 </v>
   <v>       0.18793953       0.11974851       0.43459738 </v>
   <v>      -0.44151911       0.21260168      -0.16687706 </v>
   <v>       0.43351660       0.46255988      -0.16690809 </v>
   <v>      -0.31648824       0.46254257      -0.16685520 </v>
   <v>      -0.18697222      -0.13041423       0.43444051 </v>
   <v>       0.31324721      -0.13030385       0.43446199 </v>
   <v>       0.06328771       0.36946679       0.43443110 </v>
   <v>      -0.44147692      -0.28735953      -0.16684591 </v>
   <v>      -0.06197840      -0.38009377       0.43445829 </v>
   <v>       0.18795866      -0.38034410       0.43444560 </v>
   <v>      -0.31202320       0.12034915       0.43445095 </v>
   <v>      -0.18709095       0.36959892       0.43444695 </v>
   <v>       0.43773603       0.11980141       0.43447136 </v>
   <v>       0.31257064       0.36986936       0.43442518 </v>
   <v>      -0.31202716      -0.37970135       0.43444616 </v>
   <v>      -0.43700741      -0.12991020       0.43447268 </v>
   <v>       0.43797251      -0.37966051       0.43442964 </v>
   <v>      -0.43675142       0.36930506       0.43448346 </v>
   <v>       0.06523208      -0.12769384      -0.21162872 </v>
   <v>      -0.05944426       0.12241564      -0.21155053 </v>
   <v>       0.19064343       0.12246556      -0.21158561 </v>
   <v>      -0.18479054      -0.12828269      -0.21165721 </v>
   <v>       0.31528022      -0.12772060      -0.21160613 </v>
   <v>       0.06524618       0.37182955      -0.21157818 </v>
   <v>      -0.05943364      -0.37753791      -0.21158774 </v>
   <v>       0.19072967      -0.37787517      -0.21149501 </v>
   <v>      -0.30948984       0.12263030      -0.21154563 </v>
   <v>       0.44093852       0.12215966      -0.21147833 </v>
   <v>      -0.18477349       0.37181519      -0.21170057 </v>
   <v>       0.31528585       0.37192421      -0.21162793 </v>
   <v>      -0.30945841      -0.37788295      -0.21161624 </v>
   <v>      -0.43468636      -0.12785867      -0.21163939 </v>
   <v>       0.44035291      -0.37751687      -0.21162256 </v>
   <v>      -0.06245857      -0.04424746       0.47860598 </v>
   <v>       0.18776594      -0.04434358       0.47857532 </v>
   <v>       0.06267759       0.20580252       0.47861425 </v>
   <v>      -0.43496619       0.37155131      -0.21171453 </v>
   <v>       0.06299630      -0.29451777       0.47859912 </v>
   <v>      -0.18714315       0.20561892       0.47861179 </v>
   <v>       0.31278587       0.20578735       0.47859800 </v>
   <v>      -0.18720161      -0.29420968       0.47863974 </v>
   <v>       0.31242248      -0.29459725       0.47860385 </v>
   <v>      -0.31220723      -0.04426783       0.47864115 </v>
   <v>       0.43780258      -0.04424001       0.47860845 </v>
   <v>       0.18773805       0.45562782       0.47861192 </v>
   <v>      -0.06236278       0.45571309       0.47865669 </v>
   <v>      -0.43729379       0.20556341       0.47862213 </v>
   <v>      -0.31215973       0.45578224       0.47863054 </v>
   <v>       0.43777340       0.45555227       0.47862885 </v>
   <v>      -0.43722903      -0.29426926       0.47861974 </v>
   <v>       0.05947830       0.04032706      -0.25606923 </v>
   <v>      -0.06515033      -0.20943393      -0.25601249 </v>
   <v>       0.18460394      -0.20975915      -0.25606590 </v>
   <v>       0.30967526       0.04036426      -0.25607937 </v>
   <v>      -0.19041147       0.04048515      -0.25614498 </v>
   <v>      -0.06536830       0.29033219      -0.25607272 </v>
   <v>       0.18473654       0.29047735      -0.25613826 </v>
   <v>       0.05947743      -0.45953506      -0.25605474 </v>
   <v>       0.43471550      -0.20940736      -0.25605403 </v>
   <v>      -0.31527967      -0.20951658      -0.25603880 </v>
   <v>       0.43491946       0.29053027      -0.25603276 </v>
   <v>      -0.31510247       0.29076818      -0.25603069 </v>
   <v>       0.30957827      -0.45977335      -0.25605119 </v>
   <v>      -0.19046790      -0.45957672      -0.25608701 </v>
   <v>      -0.44033745       0.04044815      -0.25613868 </v>
   <v>       0.06306031      -0.12879540      -0.47878395 </v>
   <v>       0.18855131       0.12148471      -0.47884065 </v>
   <v>      -0.06147167       0.12115303      -0.47875262 </v>
   <v>      -0.18660004      -0.12857434      -0.47873634 </v>
   <v>       0.31353673      -0.12870697      -0.47884868 </v>
   <v>       0.06343694       0.37140881      -0.47870833 </v>
   <v>      -0.06159397      -0.37856459      -0.47873033 </v>
   <v>       0.18838236      -0.37854956      -0.47872827 </v>
   <v>      -0.31160010       0.12147532      -0.47873668 </v>
   <v>       0.43824005       0.12110075      -0.47874257 </v>
   <v>      -0.18673017       0.37141347      -0.47872452 </v>
   <v>       0.31341096       0.37144568      -0.47873821 </v>
   <v>      -0.44062590      -0.45947951      -0.25610115 </v>
   <v>      -0.31161621      -0.37857812      -0.47874152 </v>
   <v>      -0.43665654      -0.12862870      -0.47874566 </v>
   <v>       0.43844849      -0.37866174      -0.47874702 </v>
   <v>      -0.43656930       0.37135922      -0.47873555 </v>
   <v>      -0.06165582      -0.04202911      -0.30037725 </v>
   <v>       0.18862879      -0.04372194      -0.30039291 </v>
   <v>       0.06362963       0.20767594      -0.30043800 </v>
   <v>       0.06351419      -0.29180037      -0.30042935 </v>
   <v>      -0.18678627       0.20806175      -0.30041543 </v>
   <v>       0.31274245       0.20764017      -0.30051948 </v>
   <v>      -0.18688141      -0.29211224      -0.30044411 </v>
   <v>       0.31296316      -0.29173939      -0.30043135 </v>
   <v>      -0.31172095      -0.04205880      -0.30040516 </v>
   <v>       0.43814719      -0.04210780      -0.30038883 </v>
   <v>      -0.06203453       0.45798683      -0.30047945 </v>
   <v>       0.18767361       0.45782172      -0.30059697 </v>
   <v>      -0.43704147       0.20814155      -0.30050000 </v>
   <v>      -0.31192622       0.45795591      -0.30041436 </v>
   <v>       0.43820551       0.45800924      -0.30046731 </v>
   <v>       0.18862110      -0.04323909      -0.43480045 </v>
   <v>      -0.06119458      -0.04263475      -0.43456238 </v>
   <v>       0.06321358       0.20717692      -0.43451744 </v>
   <v>      -0.43686671      -0.29214414      -0.30040266 </v>
   <v>       0.06372197      -0.29325334      -0.43450140 </v>
   <v>      -0.18613418       0.20699486      -0.43459379 </v>
   <v>       0.31387517       0.20719389      -0.43451732 </v>
   <v>      -0.18593370      -0.29278412      -0.43457782 </v>
   <v>      -0.31104441      -0.04269981      -0.43457074 </v>
   <v>       0.31373632      -0.29322029      -0.43451394 </v>
   <v>       0.43890489      -0.04258073      -0.43457098 </v>
   <v>      -0.06102591       0.45726631      -0.43457683 </v>
   <v>       0.18884466       0.45722494      -0.43454396 </v>
   <v>      -0.43667137       0.20700128      -0.43461172 </v>
   <v>      -0.31102336       0.45741740      -0.43459451 </v>
   <v>       0.43873026       0.45738926      -0.43458857 </v>
   <v>      -0.43637292      -0.29263955      -0.43458849 </v>
   <v>       0.06084777      -0.12482024      -0.34529919 </v>
   <v>       0.18661864       0.12496637      -0.34527959 </v>
   <v>      -0.06342340       0.12472300      -0.34530917 </v>
   <v>      -0.18933281      -0.12517168      -0.34526283 </v>
   <v>       0.31128252      -0.12478055      -0.34533745 </v>
   <v>       0.06010382       0.37502388      -0.34521034 </v>
   <v>       0.18582358      -0.37464353      -0.34524836 </v>
   <v>      -0.06418172      -0.37483291      -0.34532022 </v>
   <v>      -0.31330946       0.12507347      -0.34531768 </v>
   <v>       0.43684183       0.12510989      -0.34531331 </v>
   <v>       0.31006468       0.37530665      -0.34520453 </v>
   <v>      -0.18991620       0.37515938      -0.34523016 </v>
   <v>      -0.31385053      -0.37478902      -0.34527342 </v>
   <v>       0.43609824      -0.37482202      -0.34532338 </v>
   <v>      -0.43809803      -0.12502473      -0.34533133 </v>
   <v>       0.06343950       0.04046804      -0.38934947 </v>
   <v>      -0.43987135       0.37518987      -0.34523030 </v>
   <v>      -0.06167527      -0.20936884      -0.38936645 </v>
   <v>       0.18839440      -0.20890970      -0.38933924 </v>
   <v>      -0.18630120       0.04064963      -0.38935469 </v>
   <v>       0.31346783       0.04046231      -0.38936351 </v>
   <v>      -0.06138286       0.29064647      -0.38938236 </v>
   <v>       0.18840795       0.29069856      -0.38939891 </v>
   <v>       0.06328811      -0.45942322      -0.38937589 </v>
   <v>      -0.31152548      -0.20919460      -0.38933905 </v>
   <v>       0.43865068      -0.20930318      -0.38937519 </v>
   <v>      -0.31164559       0.29099021      -0.38934595 </v>
   <v>       0.43826579       0.29085188      -0.38938560 </v>
   <v>      -0.18633226      -0.45956492      -0.38933037 </v>
   <v>       0.31368998      -0.45930684      -0.38936456 </v>
   <v>      -0.43665364       0.04073919      -0.38937233 </v>
   <v>      -0.43665508      -0.45954457      -0.38934022 </v>
  </varray>
 </structure>
 <varray name="primitive_index" >
  <v type="int" >        1 </v>
  <v type="int" >       26 </v>
  <v type="int" >      286 </v>
  <v type="int" >       60 </v>
  <v type="int" >      202 </v>
  <v type="int" >      125 </v>
  <v type="int" >       83 </v>
  <v type="int" >      256 </v>
  <v type="int" >      155 </v>
  <v type="int" >      111 </v>
  <v type="int" >      102 </v>
  <v type="int" >       51 </v>
  <v type="int" >      192 </v>
  <v type="int" >       58 </v>
  <v type="int" >      166 </v>
  <v type="int" >      163 </v>
  <v type="int" >      104 </v>
  <v type="int" >      146 </v>
  <v type="int" >      212 </v>
  <v type="int" >       20 </v>
  <v type="int" >      145 </v>
  <v type="int" >      176 </v>
  <v type="int" >       50 </v>
  <v type="int" >      283 </v>
  <v type="int" >       55 </v>
  <v type="int" >      182 </v>
  <v type="int" >      117 </v>
  <v type="int" >      250 </v>
  <v type="int" >      123 </v>
  <v type="int" >      114 </v>
  <v type="int" >      205 </v>
  <v type="int" >      167 </v>
  <v type="int" >       91 </v>
  <v type="int" >      277 </v>
  <v type="int" >      276 </v>
  <v type="int" >       97 </v>
  <v type="int" >      213 </v>
  <v type="int" >      229 </v>
  <v type="int" >       92 </v>
  <v type="int" >      189 </v>
  <v type="int" >      175 </v>
  <v type="int" >      174 </v>
  <v type="int" >       30 </v>
  <v type="int" >      185 </v>
  <v type="int" >       52 </v>
  <v type="int" >       24 </v>
  <v type="int" >      200 </v>
  <v type="int" >      127 </v>
  <v type="int" >      179 </v>
  <v type="int" >      103 </v>
  <v type="int" >      164 </v>
  <v type="int" >      287 </v>
  <v type="int" >      139 </v>
  <v type="int" >      261 </v>
  <v type="int" >      243 </v>
  <v type="int" >      118 </v>
  <v type="int" >      168 </v>
  <v type="int" >      284 </v>
  <v type="int" >      137 </v>
  <v type="int" >      265 </v>
  <v type="int" >       81 </v>
  <v type="int" >      281 </v>
  <v type="int" >      275 </v>
  <v type="int" >      214 </v>
  <v type="int" >      215 </v>
  <v type="int" >      135 </v>
  <v type="int" >       98 </v>
  <v type="int" >       72 </v>
  <v type="int" >      226 </v>
  <v type="int" >       28 </v>
  <v type="int" >      263 </v>
  <v type="int" >      159 </v>
  <v type="int" >      178 </v>
  <v type="int" >      242 </v>
  <v type="int" >      109 </v>
  <v type="int" >      220 </v>
  <v type="int" >      101 </v>
  <v type="int" >      210 </v>
  <v type="int" >      130 </v>
  <v type="int" >      171 </v>
  <v type="int" >      194 </v>
  <v type="int" >       47 </v>
  <v type="int" >      258 </v>
  <v type="int" >      207 </v>
  <v type="int" >      216 </v>
  <v type="int" >       86 </v>
  <v type="int" >       73 </v>
  <v type="int" >       25 </v>
  <v type="int" >      208 </v>
  <v type="int" >       12 </v>
  <v type="int" >      172 </v>
  <v type="int" >      116 </v>
  <v type="int" >      219 </v>
  <v type="int" >      279 </v>
  <v type="int" >      206 </v>
  <v type="int" >       84 </v>
  <v type="int" >       62 </v>
  <v type="int" >      105 </v>
  <v type="int" >      268 </v>
  <v type="int" >       14 </v>
  <v type="int" >      245 </v>
  <v type="int" >      280 </v>
  <v type="int" >      120 </v>
  <v type="int" >      124 </v>
  <v type="int" >      266 </v>
  <v type="int" >       29 </v>
  <v type="int" >      150 </v>
  <v type="int" >      191 </v>
  <v type="int" >      255 </v>
  <v type="int" >        7 </v>
  <v type="int" >      190 </v>
  <v type="int" >      165 </v>
  <v type="int" >      248 </v>
  <v type="int" >       48 </v>
  <v type="int" >       13 </v>
  <v type="int" >      247 </v>
  <v type="int" >       18 </v>
  <v type="int" >      161 </v>
  <v type="int" >      264 </v>
  <v type="int" >      273 </v>
  <v type="int" >       45 </v>
  <v type="int" >        4 </v>
  <v type="int" >      282 </v>
  <v type="int" >       67 </v>
  <v type="int" >       16 </v>
  <v type="int" >      270 </v>
  <v type="int" >       64 </v>
  <v type="int" >      173 </v>
  <v type="int" >       17 </v>
  <v type="int" >      259 </v>
  <v type="int" >      134 </v>
  <v type="int" >       39 </v>
  <v type="int" >        6 </v>
  <v type="int" >      222 </v>
  <v type="int" >        5 </v>
  <v type="int" >      253 </v>
  <v type="int" >      110 </v>
  <v type="int" >       88 </v>
  <v type="int" >      181 </v>
  <v type="int" >       36 </v>
  <v type="int" >      204 </v>
  <v type="int" >      158 </v>
  <v type="int" >      160 </v>
  <v type="int" >      143 </v>
  <v type="int" >       74 </v>
  <v type="int" >       82 </v>
  <v type="int" >      235 </v>
  <v type="int" >       23 </v>
  <v type="int" >      218 </v>
  <v type="int" >      241 </v>
  <v type="int" >      131 </v>
  <v type="int" >      238 </v>
  <v type="int" >      257 </v>
  <v type="int" >       80 </v>
  <v type="int" >      201 </v>
  <v type="int" >      113 </v>
  <v type="int" >      232 </v>
  <v type="int" >       69 </v>
  <v type="int" >      249 </v>
  <v type="int" >      251 </v>
  <v type="int" >      197 </v>
  <v type="int" >      149 </v>
  <v type="int" >        3 </v>
  <v type="int" >      112 </v>
  <v type="int" >      224 </v>
  <v type="int" >      254 </v>
  <v type="int" >      132 </v>
  <v type="int" >      272 </v>
  <v type="int" >      188 </v>
  <v type="int" >       49 </v>
  <v type="int" >       57 </v>
  <v type="int" >      138 </v>
  <v type="int" >       66 </v>
  <v type="int" >       33 </v>
  <v type="int" >      184 </v>
  <v type="int" >      236 </v>
  <v type="int" >      288 </v>
  <v type="int" >      223 </v>
  <v type="int" >      106 </v>
  <v type="int" >      157 </v>
  <v type="int" >       21 </v>
  <v type="int" >      230 </v>
  <v type="int" >      234 </v>
  <v type="int" >       99 </v>
  <v type="int" >       75 </v>
  <v type="int" >      221 </v>
  <v type="int" >      244 </v>
  <v type="int" >      269 </v>
  <v type="int" >      237 </v>
  <v type="int" >      199 </v>
  <v type="int" >      156 </v>
  <v type="int" >      169 </v>
  <v type="int" >        9 </v>
  <v type="int" >       46 </v>
  <v type="int" >      262 </v>
  <v type="int" >      239 </v>
  <v type="int" >      151 </v>
  <v type="int" >      187 </v>
  <v type="int" >       11 </v>
  <v type="int" >      211 </v>
  <v type="int" >       31 </v>
  <v type="int" >       43 </v>
  <v type="int" >       71 </v>
  <v type="int" >       19 </v>
  <v type="int" >       94 </v>
  <v type="int" >       87 </v>
  <v type="int" >      267 </v>
  <v type="int" >        2 </v>
  <v type="int" >      140 </v>
  <v type="int" >       27 </v>
  <v type="int" >       10 </v>
  <v type="int" >      144 </v>
  <v type="int" >      107 </v>
  <v type="int" >      203 </v>
  <v type="int" >       68 </v>
  <v type="int" >       34 </v>
  <v type="int" >      119 </v>
  <v type="int" >      177 </v>
  <v type="int" >      183 </v>
  <v type="int" >      278 </v>
  <v type="int" >      195 </v>
  <v type="int" >       77 </v>
  <v type="int" >      252 </v>
  <v type="int" >      108 </v>
  <v type="int" >      225 </v>
  <v type="int" >      285 </v>
  <v type="int" >       37 </v>
  <v type="int" >      274 </v>
  <v type="int" >      233 </v>
  <v type="int" >       63 </v>
  <v type="int" >      141 </v>
  <v type="int" >      154 </v>
  <v type="int" >       54 </v>
  <v type="int" >       38 </v>
  <v type="int" >      152 </v>
  <v type="int" >      246 </v>
  <v type="int" >       53 </v>
  <v type="int" >       76 </v>
  <v type="int" >      193 </v>
  <v type="int" >      162 </v>
  <v type="int" >      129 </v>
  <v type="int" >      170 </v>
  <v type="int" >      133 </v>
  <v type="int" >       65 </v>
  <v type="int" >      271 </v>
  <v type="int" >       93 </v>
  <v type="int" >       32 </v>
  <v type="int" >       95 </v>
  <v type="int" >       90 </v>
  <v type="int" >       56 </v>
  <v type="int" >       42 </v>
  <v type="int" >       59 </v>
  <v type="int" >        8 </v>
  <v type="int" >      228 </v>
  <v type="int" >       70 </v>
  <v type="int" >      186 </v>
  <v type="int" >      196 </v>
  <v type="int" >      121 </v>
  <v type="int" >      122 </v>
  <v type="int" >       79 </v>
  <v type="int" >       44 </v>
  <v type="int" >      198 </v>
  <v type="int" >      153 </v>
  <v type="int" >      240 </v>
  <v type="int" >      209 </v>
  <v type="int" >      231 </v>
  <v type="int" >       85 </v>
  <v type="int" >       35 </v>
  <v type="int" >      227 </v>
  <v type="int" >       40 </v>
  <v type="int" >       89 </v>
  <v type="int" >      142 </v>
  <v type="int" >       78 </v>
  <v type="int" >      136 </v>
  <v type="int" >       15 </v>
  <v type="int" >      217 </v>
  <v type="int" >      148 </v>
  <v type="int" >      100 </v>
  <v type="int" >       61 </v>
  <v type="int" >      126 </v>
  <v type="int" >      180 </v>
  <v type="int" >       96 </v>
  <v type="int" >      147 </v>
  <v type="int" >      115 </v>
  <v type="int" >       22 </v>
  <v type="int" >       41 </v>
  <v type="int" >      260 </v>
  <v type="int" >      128 </v>
 </varray>
 <kpoints>
  <generation param="Gamma">
   <v type="int" name="divisions">       4        4        1 </v>
   <v name="usershift">      0.00000000       0.00000000       0.00000000 </v>
   <v name="genvec1">      0.25000000       0.00000000       0.00000000 </v>
   <v name="genvec2">      0.00000000       0.25000000       0.00000000 </v>
   <v name="genvec3">      0.00000000       0.00000000       1.00000000 </v>
   <v name="shift">      0.00000000       0.00000000       0.00000000 </v>
  </generation>
  <varray name="kpointlist" >
   <v>       0.00000000       0.00000000       0.00000000 </v>
   <v>       0.25000000       0.00000000       0.00000000 </v>
   <v>       0.50000000       0.00000000       0.00000000 </v>
   <v>       0.00000000       0.25000000       0.00000000 </v>
   <v>       0.25000000       0.25000000       0.00000000 </v>
   <v>       0.50000000       0.25000000       0.00000000 </v>
   <v>      -0.25000000       0.25000000       0.00000000 </v>
   <v>       0.00000000       0.50000000       0.00000000 </v>
   <v>       0.25000000       0.50000000       0.00000000 </v>
   <v>       0.50000000       0.50000000       0.00000000 </v>
  </varray>
  <varray name="weights" >
   <v>       0.06250000 </v>
   <v>       0.12500000 </v>
   <v>       0.06250000 </v>
   <v>       0.12500000 </v>
   <v>       0.12500000 </v>
   <v>       0.12500000 </v>
   <v>       0.12500000 </v>
   <v>       0.06250000 </v>
   <v>       0.12500000 </v>
   <v>       0.06250000 </v>
  </varray>
 </kpoints>
 <parameters>
  <separator name="general" >
   <i type="string" name="SYSTEM">unknown system</i>
   <i type="logical" name="LCOMPAT"> F  </i>
  </separator>
  <separator name="electronic" >
   <i type="string" name="PREC">accura</i>
   <i name="ENMAX">    450.00000000</i>
   <i name="ENAUG">    838.43500000</i>
   <i name="EDIFF">      0.00000100</i>
   <i type="int" name="IALGO">    68</i>
   <i type="int" name="IWAVPR">    11</i>
   <i type="int" name="NBANDS">  1386</i>
   <i name="NELECT">   2297.00000000</i>
   <i type="int" name="TURBO">     0</i>
   <i type="int" name="IRESTART">     0</i>
   <i type="int" name="NREBOOT">     0</i>
   <i type="int" name="NMIN">     0</i>
   <i name="EREF">      0.00000000</i>
   <separator name="electronic smearing" >
    <i type="int" name="ISMEAR">     0</i>
    <i name="SIGMA">      0.15000000</i>
    <i name="KSPACING">      0.50000000</i>
    <i type="logical" name="KGAMMA"> T  </i>
   </separator>
   <separator name="electronic projectors" >
    <i type="logical" name="LREAL"> T  </i>
    <v name="ROPT">     -0.00025000     -0.00025000</v>
    <i type="int" name="LMAXPAW">  -100</i>
    <i type="int" name="LMAXMIX">     2</i>
    <i type="logical" name="NLSPLINE"> F  </i>
   </separator>
   <separator name="electronic startup" >
    <i type="int" name="ISTART">     0</i>
    <i type="int" name="ICHARG">     2</i>
    <i type="int" name="INIWAV">     1</i>
   </separator>
   <separator name="electronic spin" >
    <i type="int" name="ISPIN">     1</i>
    <i type="logical" name="LNONCOLLINEAR"> F  </i>
    <v name="MAGMOM">      1.00000000      1.00000000      1.00000000      1.00000000      1.00000000      1.00000000      1.00000000      1.00000000      1.00000000      1.00000000      1.00000000      1.00000000      1.00000000      1.00000000      1.00000000      1.00000000      1.00000000      1.00000000      1.00000000      1.00000000
      1.00000000      1.00000000      1.00000000      1.00000000      1.00000000      1.00000000      1.00000000      1.00000000      1.00000000      1.00000000      1.00000000      1.00000000      1.00000000      1.00000000      1.00000000      1.00000000      1.00000000      1.00000000      1.00000000      1.00000000
      1.00000000      1.00000000      1.00000000      1.00000000      1.00000000      1.00000000      1.00000000      1.00000000      1.00000000      1.00000000      1.00000000      1.00000000      1.00000000      1.00000000      1.00000000      1.00000000      1.00000000      1.00000000      1.00000000      1.00000000
      1.00000000      1.00000000      1.00000000      1.00000000      1.00000000      1.00000000      1.00000000      1.00000000      1.00000000      1.00000000      1.00000000      1.00000000      1.00000000      1.00000000      1.00000000      1.00000000      1.00000000      1.00000000      1.00000000      1.00000000
      1.00000000      1.00000000      1.00000000      1.00000000      1.00000000      1.00000000      1.00000000      1.00000000      1.00000000      1.00000000      1.00000000      1.00000000      1.00000000      1.00000000      1.00000000      1.00000000      1.00000000      1.00000000      1.00000000      1.00000000
      1.00000000      1.00000000      1.00000000      1.00000000      1.00000000      1.00000000      1.00000000      1.00000000      1.00000000      1.00000000      1.00000000      1.00000000      1.00000000      1.00000000      1.00000000      1.00000000      1.00000000      1.00000000      1.00000000      1.00000000
      1.00000000      1.00000000      1.00000000      1.00000000      1.00000000      1.00000000      1.00000000      1.00000000      1.00000000      1.00000000      1.00000000      1.00000000      1.00000000      1.00000000      1.00000000      1.00000000      1.00000000      1.00000000      1.00000000      1.00000000
      1.00000000      1.00000000      1.00000000      1.00000000      1.00000000      1.00000000      1.00000000      1.00000000      1.00000000      1.00000000      1.00000000      1.00000000      1.00000000      1.00000000      1.00000000      1.00000000      1.00000000      1.00000000      1.00000000      1.00000000
      1.00000000      1.00000000      1.00000000      1.00000000      1.00000000      1.00000000      1.00000000      1.00000000      1.00000000      1.00000000      1.00000000      1.00000000      1.00000000      1.00000000      1.00000000      1.00000000      1.00000000      1.00000000      1.00000000      1.00000000
      1.00000000      1.00000000      1.00000000      1.00000000      1.00000000      1.00000000      1.00000000      1.00000000      1.00000000      1.00000000      1.00000000      1.00000000      1.00000000      1.00000000      1.00000000      1.00000000      1.00000000      1.00000000      1.00000000      1.00000000
      1.00000000      1.00000000      1.00000000      1.00000000      1.00000000      1.00000000      1.00000000      1.00000000      1.00000000      1.00000000      1.00000000      1.00000000      1.00000000      1.00000000      1.00000000      1.00000000      1.00000000      1.00000000      1.00000000      1.00000000
      1.00000000      1.00000000      1.00000000      1.00000000      1.00000000      1.00000000      1.00000000      1.00000000      1.00000000      1.00000000      1.00000000      1.00000000      1.00000000      1.00000000      1.00000000      1.00000000      1.00000000      1.00000000      1.00000000      1.00000000
      1.00000000      1.00000000      1.00000000      1.00000000      1.00000000      1.00000000      1.00000000      1.00000000      1.00000000      1.00000000      1.00000000      1.00000000      1.00000000      1.00000000      1.00000000      1.00000000      1.00000000      1.00000000      1.00000000      1.00000000
      1.00000000      1.00000000      1.00000000      1.00000000      1.00000000      1.00000000      1.00000000      1.00000000      1.00000000      1.00000000      1.00000000      1.00000000      1.00000000      1.00000000      1.00000000      1.00000000      1.00000000      1.00000000      1.00000000      1.00000000
      1.00000000      1.00000000      1.00000000      1.00000000      1.00000000      1.00000000      1.00000000      1.00000000</v>
    <i name="NUPDOWN">     -1.00000000</i>
    <i type="logical" name="LSORBIT"> F  </i>
    <v name="SAXIS">      0.00000000      0.00000000      1.00000000</v>
    <i type="logical" name="LSPIRAL"> F  </i>
    <v name="QSPIRAL">      0.00000000      0.00000000      0.00000000</v>
    <i type="logical" name="LZEROZ"> F  </i>
   </separator>
   <separator name="electronic exchange-correlation" >
    <i type="logical" name="LASPH"> F  </i>
    <i type="logical" name="LMETAGGA"> F  </i>
   </separator>
   <separator name="electronic convergence" >
    <i type="int" name="NELM">   100</i>
    <i type="int" name="NELMDL">     0</i>
    <i type="int" name="NELMIN">     4</i>
    <i name="ENINI">    450.00000000</i>
    <separator name="electronic convergence detail" >
     <i type="logical" name="LDIAG"> T  </i>
     <i type="logical" name="LSUBROT"> F  </i>
     <i name="WEIMIN">      0.00100000</i>
     <i name="EBREAK">      0.00000000</i>
     <i name="DEPER">      0.30000000</i>
     <i type="int" name="NRMM">     4</i>
     <i name="TIME">      0.40000000</i>
    </separator>
   </separator>
   <separator name="electronic mixer" >
    <i name="AMIX">      0.40000000</i>
    <i name="BMIX">      1.00000000</i>
    <i name="AMIN">      0.10000000</i>
    <i name="AMIX_MAG">      1.60000000</i>
    <i name="BMIX_MAG">      1.00000000</i>
    <separator name="electronic mixer details" >
     <i type="int" name="IMIX">     4</i>
     <i type="logical" name="MIXFIRST"> F  </i>
     <i type="int" name="MAXMIX">   -45</i>
     <i name="WC">    100.00000000</i>
     <i type="int" name="INIMIX">     1</i>
     <i type="int" name="MIXPRE">     1</i>
     <i type="int" name="MREMOVE">     5</i>
    </separator>
   </separator>
   <separator name="electronic dipolcorrection" >
    <i type="logical" name="LDIPOL"> F  </i>
    <i type="logical" name="LMONO"> F  </i>
    <i type="int" name="IDIPOL">     0</i>
    <i name="EPSILON">      1.00000000</i>
    <v name="DIPOL">   -100.00000000   -100.00000000   -100.00000000</v>
    <i name="EFIELD">      0.00000000</i>
   </separator>
  </separator>
  <separator name="grids" >
   <i type="int" name="NGX">    70</i>
   <i type="int" name="NGY">    60</i>
   <i type="int" name="NGZ">   320</i>
   <i type="int" name="NGXF">   140</i>
   <i type="int" name="NGYF">   120</i>
   <i type="int" name="NGZF">   640</i>
   <i type="logical" name="ADDGRID"> F  </i>
  </separator>
  <separator name="ionic" >
   <i type="int" name="NSW">     5</i>
   <i type="int" name="IBRION">     2</i>
   <i type="int" name="MDALGO">     0</i>
   <i type="int" name="ISIF">     2</i>
   <i name="PSTRESS">      0.00000000</i>
   <i name="EDIFFG">      0.00001000</i>
   <i type="int" name="NFREE">     1</i>
   <i name="POTIM">      0.25000000</i>
   <i name="SMASS">     -3.00000000</i>
   <i name="SCALEE">      1.00000000</i>
  </separator>
  <separator name="ionic md" >
   <i name="TEBEG">      0.00010000</i>
   <i name="TEEND">      0.00010000</i>
   <i type="int" name="NBLOCK">     1</i>
   <i type="int" name="KBLOCK">     5</i>
   <i type="int" name="NPACO">   256</i>
   <i name="APACO">     16.00000000</i>
  </separator>
  <separator name="symmetry" >
   <i type="int" name="ISYM">     2</i>
   <i name="SYMPREC">      0.00001000</i>
  </separator>
  <separator name="dos" >
   <i type="int" name="LORBIT">     0</i>
   <v name="RWIGS">     -1.00000000     -1.00000000</v>
   <i type="int" name="NEDOS">   301</i>
   <i name="EMIN">     10.00000000</i>
   <i name="EMAX">    -10.00000000</i>
   <i name="EFERMI">      0.00000000</i>
  </separator>
  <separator name="writing" >
   <i type="int" name="NWRITE">     2</i>
   <i type="logical" name="LWAVE"> F  </i>
   <i type="logical" name="LDOWNSAMPLE"> F  </i>
   <i type="logical" name="LCHARG"> F  </i>
   <i type="logical" name="LPARD"> F  </i>
   <i type="logical" name="LVTOT"> F  </i>
   <i type="logical" name="LVHAR"> F  </i>
   <i type="logical" name="LELF"> F  </i>
   <i type="logical" name="LOPTICS"> F  </i>
   <v name="STM">      0.00000000      0.00000000      0.00000000      0.00000000      0.00000000      0.00000000      0.00000000</v>
  </separator>
  <separator name="performance" >
   <i type="int" name="NPAR">    14</i>
   <i type="int" name="NSIM">     4</i>
   <i type="int" name="NBLK">    -1</i>
   <i type="logical" name="LPLANE"> T  </i>
   <i type="logical" name="LSCALAPACK"> T  </i>
   <i type="logical" name="LSCAAWARE"> T  </i>
   <i type="logical" name="LSCALU"> F  </i>
   <i type="logical" name="LASYNC"> F  </i>
   <i type="logical" name="LORBITALREAL"> F  </i>
  </separator>
  <separator name="miscellaneous" >
   <i type="int" name="IDIOT">     3</i>
   <i type="int" name="ISPECIAL">     0</i>
   <i type="logical" name="LMUSIC"> F  </i>
   <v name="POMASS">     55.84700000     54.93800000</v>
   <v name="DARWINR">      0.00000000      0.00000000</v>
   <v name="DARWINV">      1.00000000      1.00000000</v>
   <i type="logical" name="LCORR"> T  </i>
  </separator>
  <i type="logical" name="GGA_COMPAT"> T  </i>
  <i type="logical" name="LBERRY"> F  </i>
  <i type="int" name="ICORELEVEL">     0</i>
  <i type="logical" name="LDAU"> F  </i>
  <i type="int" name="I_CONSTRAINED_M">     0</i>
  <separator name="electronic exchange-correlation" >
   <i type="string" name="GGA">--</i>
   <i type="int" name="VOSKOWN">     0</i>
   <i type="logical" name="LHFCALC"> F  </i>
   <i type="string" name="PRECFOCK"></i>
   <i type="logical" name="LSYMGRAD"> F  </i>
   <i type="logical" name="LHFONE"> F  </i>
   <i type="logical" name="LRHFCALC"> F  </i>
   <i type="logical" name="LTHOMAS"> F  </i>
   <i type="logical" name="LMODELHF"> F  </i>
   <i name="ENCUT4O">     -1.00000000</i>
   <i type="int" name="EXXOEP">     0</i>
   <i type="int" name="FOURORBIT">     0</i>
   <i name="AEXX">      0.00000000</i>
   <i name="HFALPHA">      0.00000000</i>
   <i name="MCALPHA">      0.00000000</i>
   <i name="ALDAX">      1.00000000</i>
   <i name="AGGAX">      1.00000000</i>
   <i name="ALDAC">      1.00000000</i>
   <i name="AGGAC">      1.00000000</i>
   <i type="int" name="NKREDX">     1</i>
   <i type="int" name="NKREDY">     1</i>
   <i type="int" name="NKREDZ">     1</i>
   <i type="logical" name="SHIFTRED"> F  </i>
   <i type="logical" name="ODDONLY"> F  </i>
   <i type="logical" name="EVENONLY"> F  </i>
   <i type="int" name="LMAXFOCK">     0</i>
   <i type="int" name="NMAXFOCKAE">     0</i>
   <i type="logical" name="LFOCKAEDFT"> F  </i>
   <i name="HFSCREEN">      0.00000000</i>
   <i name="HFSCREENC">      0.00000000</i>
   <i type="int" name="NBANDSGWLOW">     0</i>
  </separator>
  <separator name="vdW DFT" >
   <i type="logical" name="LUSE_VDW"> F  </i>
   <i name="Zab_VDW">     -0.84910000</i>
   <i name="PARAM1">      0.12340000</i>
   <i name="PARAM2">      1.00000000</i>
   <i name="PARAM3">      0.00000000</i>
  </separator>
  <separator name="model GW" >
   <i type="int" name="MODEL_GW">     0</i>
   <i name="MODEL_EPS0">      7.68123389</i>
   <i name="MODEL_ALPHA">      1.00000000</i>
  </separator>
  <separator name="linear response parameters" >
   <i type="logical" name="LEPSILON"> F  </i>
   <i type="logical" name="LRPA"> F  </i>
   <i type="logical" name="LNABLA"> F  </i>
   <i type="logical" name="LVEL"> F  </i>
   <i type="int" name="KINTER">     0</i>
   <i name="CSHIFT">      0.10000000</i>
   <i name="OMEGAMAX">     -1.00000000</i>
   <i name="DEG_THRESHOLD">      0.00200000</i>
   <i name="RTIME">     -0.10000000</i>
   <i name="WPLASMAI">      0.00000000</i>
   <v name="DFIELD">      0.00000000      0.00000000      0.00000000</v>
   <v name="WPLASMA">      0.00000000      0.00000000      0.00000000      0.00000000      0.00000000      0.00000000      0.00000000      0.00000000      0.00000000</v>
  </separator>
  <separator name="orbital magnetization" >
   <i type="logical" name="NUCIND"> F  </i>
   <v name="MAGPOS">      0.00000000      0.00000000      0.00000000</v>
   <i type="logical" name="LNICSALL"> T  </i>
   <i type="logical" name="ORBITALMAG"> F  </i>
   <i type="logical" name="LMAGBLOCH"> F  </i>
   <i type="logical" name="LCHIMAG"> F  </i>
   <i type="logical" name="LGAUGE"> T  </i>
   <i type="int" name="MAGATOM">     0</i>
   <v name="MAGDIPOL">      0.00000000      0.00000000      0.00000000</v>
   <v name="AVECCONST">      0.00000000      0.00000000      0.00000000</v>
  </separator>
  <separator name="response functions" >
   <i type="logical" name="LADDER"> F  </i>
   <i type="logical" name="LRPAFORCE"> F  </i>
   <i type="logical" name="LFXC"> F  </i>
   <i type="logical" name="LHARTREE"> T  </i>
   <i type="int" name="IBSE">     0</i>
   <v type="int" name="KPOINT">    -1     0     0     0</v>
   <i type="logical" name="LTCTE"> F  </i>
   <i type="logical" name="LTETE"> F  </i>
   <i type="logical" name="LTRIPLET"> F  </i>
   <i type="logical" name="LFXCEPS"> F  </i>
   <i type="logical" name="LFXHEG"> F  </i>
   <i type="int" name="NATURALO">     2</i>
   <i type="logical" name="L2ORDER"> F  </i>
   <i type="logical" name="LMP2LT"> F  </i>
   <i type="logical" name="LUSEW"> F  </i>
   <i name="ENCUTGW">     -2.00000000</i>
   <i name="ENCUTGWSOFT">     -2.00000000</i>
   <i name="ENCUTLF">     -1.00000000</i>
   <i type="int" name="LMAXMP2">    -1</i>
   <i name="SCISSOR">      0.00000000</i>
   <i type="int" name="NOMEGA">     0</i>
   <i type="int" name="NOMEGAR">     0</i>
   <i type="int" name="NBANDSGW">    -1</i>
   <i type="int" name="NBANDSO">    -1</i>
   <i type="int" name="NBANDSV">    -1</i>
   <i type="int" name="NELM">   100</i>
   <i type="int" name="NELMHF">     1</i>
   <i type="int" name="DIM">     3</i>
   <i type="int" name="ANTIRES">     0</i>
   <i name="OMEGAMAX">    -30.00000000</i>
   <i name="OMEGAMIN">    -30.00000000</i>
   <i name="OMEGATL">   -200.00000000</i>
   <i type="int" name="OMEGAGRID">   140</i>
   <i name="CSHIFT">     -0.10000000</i>
   <i type="logical" name="SELFENERGY"> F  </i>
   <i type="logical" name="LSPECTRAL"> F  </i>
   <i type="logical" name="LSPECTRALGW"> F  </i>
   <i type="logical" name="LSINGLES"> F  </i>
   <i type="logical" name="LFERMIGW"> F  </i>
   <i type="logical" name="ODDONLYGW"> F  </i>
   <i type="logical" name="EVENONLYGW"> F  </i>
   <i type="int" name="NKREDLFX">     1</i>
   <i type="int" name="NKREDLFY">     1</i>
   <i type="int" name="NKREDLFZ">     1</i>
   <i type="int" name="MAXMEM">  2800</i>
   <i type="int" name="TELESCOPE">     0</i>
   <i type="int" name="TAUPAR">     1</i>
   <i type="int" name="OMEGAPAR">    -1</i>
   <i name="LAMBDA">      1.00000000</i>
  </separator>
  <separator name="External order field" >
   <i name="OFIELD_KAPPA">      0.00000000</i>
   <v name="OFIELD_K">      0.00000000      0.00000000      0.00000000</v>
   <i name="OFIELD_Q6_NEAR">      0.00000000</i>
   <i name="OFIELD_Q6_FAR">      0.00000000</i>
   <i name="OFIELD_A">      0.00000000</i>
  </separator>
 </parameters>
 <atominfo>
  <atoms>     288 </atoms>
  <types>       2 </types>
  <array name="atoms" >
   <dimension dim="1">ion</dimension>
   <field type="string">element</field>
   <field type="int">atomtype</field>
   <set>
    <rc><c>Fe</c><c>   1</c></rc>
    <rc><c>Fe</c><c>   1</c></rc>
    <rc><c>Fe</c><c>   1</c></rc>
    <rc><c>Fe</c><c>   1</c></rc>
    <rc><c>Fe</c><c>   1</c></rc>
    <rc><c>Fe</c><c>   1</c></rc>
    <rc><c>Fe</c><c>   1</c></rc>
    <rc><c>Fe</c><c>   1</c></rc>
    <rc><c>Fe</c><c>   1</c></rc>
    <rc><c>Fe</c><c>   1</c></rc>
    <rc><c>Fe</c><c>   1</c></rc>
    <rc><c>Fe</c><c>   1</c></rc>
    <rc><c>Fe</c><c>   1</c></rc>
    <rc><c>Fe</c><c>   1</c></rc>
    <rc><c>Fe</c><c>   1</c></rc>
    <rc><c>Fe</c><c>   1</c></rc>
    <rc><c>Fe</c><c>   1</c></rc>
    <rc><c>Fe</c><c>   1</c></rc>
    <rc><c>Fe</c><c>   1</c></rc>
    <rc><c>Fe</c><c>   1</c></rc>
    <rc><c>Fe</c><c>   1</c></rc>
    <rc><c>Fe</c><c>   1</c></rc>
    <rc><c>Fe</c><c>   1</c></rc>
    <rc><c>Fe</c><c>   1</c></rc>
    <rc><c>Fe</c><c>   1</c></rc>
    <rc><c>Fe</c><c>   1</c></rc>
    <rc><c>Fe</c><c>   1</c></rc>
    <rc><c>Fe</c><c>   1</c></rc>
    <rc><c>Fe</c><c>   1</c></rc>
    <rc><c>Fe</c><c>   1</c></rc>
    <rc><c>Fe</c><c>   1</c></rc>
    <rc><c>Fe</c><c>   1</c></rc>
    <rc><c>Fe</c><c>   1</c></rc>
    <rc><c>Fe</c><c>   1</c></rc>
    <rc><c>Fe</c><c>   1</c></rc>
    <rc><c>Fe</c><c>   1</c></rc>
    <rc><c>Fe</c><c>   1</c></rc>
    <rc><c>Fe</c><c>   1</c></rc>
    <rc><c>Fe</c><c>   1</c></rc>
    <rc><c>Fe</c><c>   1</c></rc>
    <rc><c>Fe</c><c>   1</c></rc>
    <rc><c>Fe</c><c>   1</c></rc>
    <rc><c>Fe</c><c>   1</c></rc>
    <rc><c>Fe</c><c>   1</c></rc>
    <rc><c>Fe</c><c>   1</c></rc>
    <rc><c>Fe</c><c>   1</c></rc>
    <rc><c>Fe</c><c>   1</c></rc>
    <rc><c>Fe</c><c>   1</c></rc>
    <rc><c>Fe</c><c>   1</c></rc>
    <rc><c>Fe</c><c>   1</c></rc>
    <rc><c>Fe</c><c>   1</c></rc>
    <rc><c>Fe</c><c>   1</c></rc>
    <rc><c>Fe</c><c>   1</c></rc>
    <rc><c>Fe</c><c>   1</c></rc>
    <rc><c>Fe</c><c>   1</c></rc>
    <rc><c>Fe</c><c>   1</c></rc>
    <rc><c>Fe</c><c>   1</c></rc>
    <rc><c>Fe</c><c>   1</c></rc>
    <rc><c>Fe</c><c>   1</c></rc>
    <rc><c>Fe</c><c>   1</c></rc>
    <rc><c>Fe</c><c>   1</c></rc>
    <rc><c>Fe</c><c>   1</c></rc>
    <rc><c>Fe</c><c>   1</c></rc>
    <rc><c>Fe</c><c>   1</c></rc>
    <rc><c>Fe</c><c>   1</c></rc>
    <rc><c>Fe</c><c>   1</c></rc>
    <rc><c>Fe</c><c>   1</c></rc>
    <rc><c>Fe</c><c>   1</c></rc>
    <rc><c>Fe</c><c>   1</c></rc>
    <rc><c>Fe</c><c>   1</c></rc>
    <rc><c>Fe</c><c>   1</c></rc>
    <rc><c>Fe</c><c>   1</c></rc>
    <rc><c>Fe</c><c>   1</c></rc>
    <rc><c>Fe</c><c>   1</c></rc>
    <rc><c>Fe</c><c>   1</c></rc>
    <rc><c>Fe</c><c>   1</c></rc>
    <rc><c>Fe</c><c>   1</c></rc>
    <rc><c>Fe</c><c>   1</c></rc>
    <rc><c>Fe</c><c>   1</c></rc>
    <rc><c>Fe</c><c>   1</c></rc>
    <rc><c>Fe</c><c>   1</c></rc>
    <rc><c>Fe</c><c>   1</c></rc>
    <rc><c>Fe</c><c>   1</c></rc>
    <rc><c>Fe</c><c>   1</c></rc>
    <rc><c>Fe</c><c>   1</c></rc>
    <rc><c>Fe</c><c>   1</c></rc>
    <rc><c>Fe</c><c>   1</c></rc>
    <rc><c>Fe</c><c>   1</c></rc>
    <rc><c>Fe</c><c>   1</c></rc>
    <rc><c>Fe</c><c>   1</c></rc>
    <rc><c>Fe</c><c>   1</c></rc>
    <rc><c>Fe</c><c>   1</c></rc>
    <rc><c>Fe</c><c>   1</c></rc>
    <rc><c>Fe</c><c>   1</c></rc>
    <rc><c>Fe</c><c>   1</c></rc>
    <rc><c>Fe</c><c>   1</c></rc>
    <rc><c>Fe</c><c>   1</c></rc>
    <rc><c>Fe</c><c>   1</c></rc>
    <rc><c>Fe</c><c>   1</c></rc>
    <rc><c>Fe</c><c>   1</c></rc>
    <rc><c>Fe</c><c>   1</c></rc>
    <rc><c>Fe</c><c>   1</c></rc>
    <rc><c>Fe</c><c>   1</c></rc>
    <rc><c>Fe</c><c>   1</c></rc>
    <rc><c>Fe</c><c>   1</c></rc>
    <rc><c>Fe</c><c>   1</c></rc>
    <rc><c>Fe</c><c>   1</c></rc>
    <rc><c>Fe</c><c>   1</c></rc>
    <rc><c>Fe</c><c>   1</c></rc>
    <rc><c>Fe</c><c>   1</c></rc>
    <rc><c>Fe</c><c>   1</c></rc>
    <rc><c>Fe</c><c>   1</c></rc>
    <rc><c>Fe</c><c>   1</c></rc>
    <rc><c>Fe</c><c>   1</c></rc>
    <rc><c>Fe</c><c>   1</c></rc>
    <rc><c>Fe</c><c>   1</c></rc>
    <rc><c>Fe</c><c>   1</c></rc>
    <rc><c>Fe</c><c>   1</c></rc>
    <rc><c>Fe</c><c>   1</c></rc>
    <rc><c>Fe</c><c>   1</c></rc>
    <rc><c>Fe</c><c>   1</c></rc>
    <rc><c>Fe</c><c>   1</c></rc>
    <rc><c>Fe</c><c>   1</c></rc>
    <rc><c>Fe</c><c>   1</c></rc>
    <rc><c>Fe</c><c>   1</c></rc>
    <rc><c>Fe</c><c>   1</c></rc>
    <rc><c>Fe</c><c>   1</c></rc>
    <rc><c>Fe</c><c>   1</c></rc>
    <rc><c>Fe</c><c>   1</c></rc>
    <rc><c>Fe</c><c>   1</c></rc>
    <rc><c>Fe</c><c>   1</c></rc>
    <rc><c>Fe</c><c>   1</c></rc>
    <rc><c>Fe</c><c>   1</c></rc>
    <rc><c>Fe</c><c>   1</c></rc>
    <rc><c>Fe</c><c>   1</c></rc>
    <rc><c>Fe</c><c>   1</c></rc>
    <rc><c>Fe</c><c>   1</c></rc>
    <rc><c>Fe</c><c>   1</c></rc>
    <rc><c>Fe</c><c>   1</c></rc>
    <rc><c>Fe</c><c>   1</c></rc>
    <rc><c>Fe</c><c>   1</c></rc>
    <rc><c>Fe</c><c>   1</c></rc>
    <rc><c>Fe</c><c>   1</c></rc>
    <rc><c>Fe</c><c>   1</c></rc>
    <rc><c>Fe</c><c>   1</c></rc>
    <rc><c>Fe</c><c>   1</c></rc>
    <rc><c>Fe</c><c>   1</c></rc>
    <rc><c>Fe</c><c>   1</c></rc>
    <rc><c>Fe</c><c>   1</c></rc>
    <rc><c>Fe</c><c>   1</c></rc>
    <rc><c>Fe</c><c>   1</c></rc>
    <rc><c>Fe</c><c>   1</c></rc>
    <rc><c>Fe</c><c>   1</c></rc>
    <rc><c>Fe</c><c>   1</c></rc>
    <rc><c>Fe</c><c>   1</c></rc>
    <rc><c>Fe</c><c>   1</c></rc>
    <rc><c>Fe</c><c>   1</c></rc>
    <rc><c>Fe</c><c>   1</c></rc>
    <rc><c>Fe</c><c>   1</c></rc>
    <rc><c>Fe</c><c>   1</c></rc>
    <rc><c>Fe</c><c>   1</c></rc>
    <rc><c>Fe</c><c>   1</c></rc>
    <rc><c>Fe</c><c>   1</c></rc>
    <rc><c>Fe</c><c>   1</c></rc>
    <rc><c>Fe</c><c>   1</c></rc>
    <rc><c>Fe</c><c>   1</c></rc>
    <rc><c>Fe</c><c>   1</c></rc>
    <rc><c>Fe</c><c>   1</c></rc>
    <rc><c>Fe</c><c>   1</c></rc>
    <rc><c>Fe</c><c>   1</c></rc>
    <rc><c>Fe</c><c>   1</c></rc>
    <rc><c>Fe</c><c>   1</c></rc>
    <rc><c>Fe</c><c>   1</c></rc>
    <rc><c>Fe</c><c>   1</c></rc>
    <rc><c>Fe</c><c>   1</c></rc>
    <rc><c>Fe</c><c>   1</c></rc>
    <rc><c>Fe</c><c>   1</c></rc>
    <rc><c>Fe</c><c>   1</c></rc>
    <rc><c>Fe</c><c>   1</c></rc>
    <rc><c>Fe</c><c>   1</c></rc>
    <rc><c>Fe</c><c>   1</c></rc>
    <rc><c>Fe</c><c>   1</c></rc>
    <rc><c>Fe</c><c>   1</c></rc>
    <rc><c>Fe</c><c>   1</c></rc>
    <rc><c>Fe</c><c>   1</c></rc>
    <rc><c>Fe</c><c>   1</c></rc>
    <rc><c>Fe</c><c>   1</c></rc>
    <rc><c>Fe</c><c>   1</c></rc>
    <rc><c>Fe</c><c>   1</c></rc>
    <rc><c>Fe</c><c>   1</c></rc>
    <rc><c>Fe</c><c>   1</c></rc>
    <rc><c>Fe</c><c>   1</c></rc>
    <rc><c>Fe</c><c>   1</c></rc>
    <rc><c>Fe</c><c>   1</c></rc>
    <rc><c>Fe</c><c>   1</c></rc>
    <rc><c>Fe</c><c>   1</c></rc>
    <rc><c>Fe</c><c>   1</c></rc>
    <rc><c>Fe</c><c>   1</c></rc>
    <rc><c>Fe</c><c>   1</c></rc>
    <rc><c>Fe</c><c>   1</c></rc>
    <rc><c>Fe</c><c>   1</c></rc>
    <rc><c>Fe</c><c>   1</c></rc>
    <rc><c>Fe</c><c>   1</c></rc>
    <rc><c>Fe</c><c>   1</c></rc>
    <rc><c>Fe</c><c>   1</c></rc>
    <rc><c>Fe</c><c>   1</c></rc>
    <rc><c>Fe</c><c>   1</c></rc>
    <rc><c>Fe</c><c>   1</c></rc>
    <rc><c>Fe</c><c>   1</c></rc>
    <rc><c>Fe</c><c>   1</c></rc>
    <rc><c>Fe</c><c>   1</c></rc>
    <rc><c>Fe</c><c>   1</c></rc>
    <rc><c>Fe</c><c>   1</c></rc>
    <rc><c>Fe</c><c>   1</c></rc>
    <rc><c>Fe</c><c>   1</c></rc>
    <rc><c>Fe</c><c>   1</c></rc>
    <rc><c>Fe</c><c>   1</c></rc>
    <rc><c>Fe</c><c>   1</c></rc>
    <rc><c>Fe</c><c>   1</c></rc>
    <rc><c>Fe</c><c>   1</c></rc>
    <rc><c>Fe</c><c>   1</c></rc>
    <rc><c>Fe</c><c>   1</c></rc>
    <rc><c>Fe</c><c>   1</c></rc>
    <rc><c>Fe</c><c>   1</c></rc>
    <rc><c>Fe</c><c>   1</c></rc>
    <rc><c>Fe</c><c>   1</c></rc>
    <rc><c>Fe</c><c>   1</c></rc>
    <rc><c>Fe</c><c>   1</c></rc>
    <rc><c>Fe</c><c>   1</c></rc>
    <rc><c>Fe</c><c>   1</c></rc>
    <rc><c>Fe</c><c>   1</c></rc>
    <rc><c>Fe</c><c>   1</c></rc>
    <rc><c>Fe</c><c>   1</c></rc>
    <rc><c>Fe</c><c>   1</c></rc>
    <rc><c>Fe</c><c>   1</c></rc>
    <rc><c>Fe</c><c>   1</c></rc>
    <rc><c>Fe</c><c>   1</c></rc>
    <rc><c>Fe</c><c>   1</c></rc>
    <rc><c>Fe</c><c>   1</c></rc>
    <rc><c>Fe</c><c>   1</c></rc>
    <rc><c>Fe</c><c>   1</c></rc>
    <rc><c>Fe</c><c>   1</c></rc>
    <rc><c>Fe</c><c>   1</c></rc>
    <rc><c>Fe</c><c>   1</c></rc>
    <rc><c>Fe</c><c>   1</c></rc>
    <rc><c>Fe</c><c>   1</c></rc>
    <rc><c>Fe</c><c>   1</c></rc>
    <rc><c>Fe</c><c>   1</c></rc>
    <rc><c>Fe</c><c>   1</c></rc>
    <rc><c>Fe</c><c>   1</c></rc>
    <rc><c>Fe</c><c>   1</c></rc>
    <rc><c>Fe</c><c>   1</c></rc>
    <rc><c>Fe</c><c>   1</c></rc>
    <rc><c>Fe</c><c>   1</c></rc>
    <rc><c>Fe</c><c>   1</c></rc>
    <rc><c>Fe</c><c>   1</c></rc>
    <rc><c>Fe</c><c>   1</c></rc>
    <rc><c>Fe</c><c>   1</c></rc>
    <rc><c>Fe</c><c>   1</c></rc>
    <rc><c>Fe</c><c>   1</c></rc>
    <rc><c>Fe</c><c>   1</c></rc>
    <rc><c>Fe</c><c>   1</c></rc>
    <rc><c>Fe</c><c>   1</c></rc>
    <rc><c>Fe</c><c>   1</c></rc>
    <rc><c>Fe</c><c>   1</c></rc>
    <rc><c>Fe</c><c>   1</c></rc>
    <rc><c>Fe</c><c>   1</c></rc>
    <rc><c>Fe</c><c>   1</c></rc>
    <rc><c>Fe</c><c>   1</c></rc>
    <rc><c>Fe</c><c>   1</c></rc>
    <rc><c>Fe</c><c>   1</c></rc>
    <rc><c>Fe</c><c>   1</c></rc>
    <rc><c>Fe</c><c>   1</c></rc>
    <rc><c>Fe</c><c>   1</c></rc>
    <rc><c>Fe</c><c>   1</c></rc>
    <rc><c>Fe</c><c>   1</c></rc>
    <rc><c>Fe</c><c>   1</c></rc>
    <rc><c>Fe</c><c>   1</c></rc>
    <rc><c>Fe</c><c>   1</c></rc>
    <rc><c>Fe</c><c>   1</c></rc>
    <rc><c>Fe</c><c>   1</c></rc>
    <rc><c>Mn</c><c>   2</c></rc>
    <rc><c>Mn</c><c>   2</c></rc>
    <rc><c>Mn</c><c>   2</c></rc>
    <rc><c>Mn</c><c>   2</c></rc>
    <rc><c>Mn</c><c>   2</c></rc>
    <rc><c>Mn</c><c>   2</c></rc>
    <rc><c>Mn</c><c>   2</c></rc>
   </set>
  </array>
  <array name="atomtypes" >
   <dimension dim="1">type</dimension>
   <field type="int">atomspertype</field>
   <field type="string">element</field>
   <field>mass</field>
   <field>valence</field>
   <field type="string">pseudopotential</field>
   <set>
    <rc><c> 281</c><c>Fe</c><c>     55.84700000</c><c>      8.00000000</c><c>  PAW_PBE Fe_GW 31Mar2010               </c></rc>
    <rc><c>   7</c><c>Mn</c><c>     54.93800000</c><c>      7.00000000</c><c>  PAW_PBE Mn_GW 31Mar2010               </c></rc>
   </set>
  </array>
 </atominfo>
 <structure name="initialpos" >
  <crystal>
   <varray name="basis" >
    <v>       9.72667804       0.00000000       0.00000000 </v>
    <v>       0.00000000       8.42355028       0.00000000 </v>
    <v>       0.00000000       0.00000000      45.00000000 </v>
   </varray>
   <i name="volume">   3686.99226691 </i>
   <varray name="rec_basis" >
    <v>       0.10281002       0.00000000       0.00000000 </v>
    <v>       0.00000000       0.11871479       0.00000000 </v>
    <v>       0.00000000       0.00000000       0.02222222 </v>
   </varray>
  </crystal>
  <varray name="positions" >
   <v>       0.06152737       0.03202625       0.12466413 </v>
   <v>       0.06306031       0.87120460       0.52121605 </v>
   <v>       0.19064343       0.12246556       0.78841439 </v>
   <v>       0.43362750       0.28769412       0.38906794 </v>
   <v>       0.30847095       0.71269303       0.83315344 </v>
   <v>       0.80841573       0.21244198       0.83313693 </v>
   <v>       0.18354436       0.78776588       0.38902768 </v>
   <v>       0.56332863       0.20700128       0.56538828 </v>
   <v>       0.05947830       0.04032706       0.74393077 </v>
   <v>       0.81339996       0.87142566       0.52126366 </v>
   <v>       0.18473654       0.29047735       0.74386174 </v>
   <v>       0.94086135       0.45266100       0.34507676 </v>
   <v>       0.93357876       0.28758976       0.38906228 </v>
   <v>       0.81218570       0.04084176       0.87553232 </v>
   <v>       0.18839440       0.79109030       0.61066076 </v>
   <v>       0.55857163       0.03736791       0.38905736 </v>
   <v>       0.93338926       0.96254156       0.83315731 </v>
   <v>       0.31200056       0.54061764       0.87550038 </v>
   <v>       0.68489753       0.29076818       0.74396931 </v>
   <v>       0.19201112       0.61398726       0.16687473 </v>
   <v>       0.81285685       0.20561892       0.47861179 </v>
   <v>       0.81366774       0.54043508       0.61066963 </v>
   <v>       0.31324721       0.86969615       0.43446199 </v>
   <v>       0.81588251       0.03772998       0.25619985 </v>
   <v>       0.69108506       0.95270165       0.34516555 </v>
   <v>       0.94200089       0.11256359       0.16681013 </v>
   <v>       0.93852833       0.12115303       0.52124738 </v>
   <v>       0.56652166       0.53744830       0.25624483 </v>
   <v>       0.68812122       0.79348723       0.87558882 </v>
   <v>       0.56875964       0.36522345       0.16693883 </v>
   <v>       0.43471550       0.79059264       0.74394597 </v>
   <v>       0.81406630       0.70721588       0.56542218 </v>
   <v>       0.56531364       0.87214133       0.78836061 </v>
   <v>       0.68839990       0.12147532       0.52126332 </v>
   <v>       0.81008380       0.37515938       0.65476984 </v>
   <v>       0.93336741       0.46247439       0.83309992 </v>
   <v>       0.06362963       0.20767594       0.69956200 </v>
   <v>       0.43814719       0.95789220       0.69961117 </v>
   <v>       0.30840976       0.21258134       0.83315479 </v>
   <v>       0.43609824       0.62517798       0.65467662 </v>
   <v>       0.31368998       0.54069316       0.61063544 </v>
   <v>       0.93897409       0.45726631       0.56542317 </v>
   <v>       0.68472033       0.79048342       0.74396120 </v>
   <v>       0.31128252       0.87521945       0.65466255 </v>
   <v>       0.68363315       0.78756684       0.38901886 </v>
   <v>       0.93484967       0.79056607       0.74398751 </v>
   <v>       0.06654447       0.20229109       0.34508141 </v>
   <v>       0.80831603       0.03755778       0.38908454 </v>
   <v>       0.44093852       0.12215966       0.78852167 </v>
   <v>       0.06060368       0.20701697       0.21214388 </v>
   <v>       0.06868035       0.36426933       0.16683864 </v>
   <v>       0.94152287       0.78838549       0.25625518 </v>
   <v>       0.56295853       0.20814155       0.69950000 </v>
   <v>       0.68827905       0.95794120       0.69959484 </v>
   <v>       0.43985026       0.78802547       0.12458740 </v>
   <v>       0.43890489       0.95741927       0.56542902 </v>
   <v>       0.81522651       0.37181519       0.78829943 </v>
   <v>       0.81906400       0.36321634       0.16670294 </v>
   <v>       0.18884466       0.45722494       0.56545604 </v>
   <v>       0.06765604       0.86366153       0.16688816 </v>
   <v>       0.18840795       0.29069856       0.61060109 </v>
   <v>       0.56619579       0.70258223       0.34507648 </v>
   <v>       0.31274245       0.20764017       0.69948052 </v>
   <v>       0.56203111       0.54052698       0.87550111 </v>
   <v>       0.06372197       0.70674666       0.56549860 </v>
   <v>       0.69054159       0.62211705       0.78838376 </v>
   <v>       0.30872052       0.53772021       0.38907070 </v>
   <v>       0.18838236       0.62145044       0.52127173 </v>
   <v>       0.56299259       0.87008980       0.43447268 </v>
   <v>       0.43873026       0.45738926       0.56541143 </v>
   <v>       0.43491946       0.29053027       0.74396724 </v>
   <v>       0.80474078       0.87325269       0.30034656 </v>
   <v>       0.81672640       0.70243777       0.34514635 </v>
   <v>       0.43351660       0.46255988       0.83309191 </v>
   <v>       0.68779277       0.95573217       0.47864115 </v>
   <v>       0.68807378       0.45795591       0.69958564 </v>
   <v>       0.56334346       0.87137130       0.52125434 </v>
   <v>       0.56012865       0.37518987       0.65476970 </v>
   <v>       0.81066719       0.87482832       0.65473717 </v>
   <v>       0.81290905       0.36959892       0.43444695 </v>
   <v>       0.81559098       0.53824632       0.25618915 </v>
   <v>       0.68351176       0.46254257       0.83314480 </v>
   <v>       0.19095682       0.78711128       0.12484101 </v>
   <v>       0.06215007       0.04067664       0.87555165 </v>
   <v>       0.31006468       0.37530665       0.65479547 </v>
   <v>       0.31615581       0.20245305       0.34507659 </v>
   <v>       0.80953210       0.54042328       0.74391299 </v>
   <v>       0.68339817       0.96255448       0.83312645 </v>
   <v>       0.56190197       0.87497527       0.65466867 </v>
   <v>       0.31373632       0.70677971       0.56548606 </v>
   <v>       0.31387731       0.53149522       0.12444769 </v>
   <v>       0.68506351       0.95576207       0.21200166 </v>
   <v>       0.31387517       0.20719389       0.56548268 </v>
   <v>       0.30957827       0.54022665       0.74394881 </v>
   <v>       0.68895559       0.95730019       0.56542926 </v>
   <v>       0.43865068       0.79069682       0.61062481 </v>
   <v>       0.69322620       0.61426003       0.16702016 </v>
   <v>       0.30481924       0.87323385       0.30045395 </v>
   <v>       0.31242248       0.70540275       0.47860385 </v>
   <v>       0.93861714       0.29064647       0.61061764 </v>
   <v>       0.43011087       0.62391062       0.30044603 </v>
   <v>       0.81826229       0.86384520       0.16686451 </v>
   <v>       0.56053202       0.20627357       0.21196783 </v>
   <v>       0.94287506       0.61394985       0.16672992 </v>
   <v>       0.93809724       0.79317371       0.87563467 </v>
   <v>       0.56503381       0.37155131       0.78828547 </v>
   <v>       0.06343694       0.37140881       0.52129167 </v>
   <v>       0.56343070       0.37135922       0.52126445 </v>
   <v>       0.68017246       0.12347168       0.30045653 </v>
   <v>       0.43342364       0.96257089       0.83315292 </v>
   <v>       0.19126297       0.28724679       0.12466390 </v>
   <v>       0.81520946       0.87171731       0.78834279 </v>
   <v>       0.31257064       0.36986936       0.43442518 </v>
   <v>       0.56258797       0.03186827       0.12481941 </v>
   <v>       0.43826579       0.29085188       0.61061440 </v>
   <v>       0.19166003       0.45197284       0.34501477 </v>
   <v>       0.43991996       0.28784850       0.12454962 </v>
   <v>       0.69114083       0.78742934       0.25629790 </v>
   <v>       0.43824005       0.12110075       0.52125743 </v>
   <v>       0.18788556       0.29297372       0.87559032 </v>
   <v>       0.18661864       0.12496637       0.65472041 </v>
   <v>       0.93657660       0.12472300       0.65469083 </v>
   <v>       0.31003202       0.20545988       0.21191285 </v>
   <v>       0.05855546       0.03749868       0.38901345 </v>
   <v>       0.19424360       0.11477054       0.16733246 </v>
   <v>       0.06328811       0.54057678       0.61062411 </v>
   <v>       0.94129312       0.28804083       0.25619283 </v>
   <v>       0.56334492       0.54045543       0.61065978 </v>
   <v>       0.93880542       0.95736525       0.56543762 </v>
   <v>       0.68007915       0.62392412       0.30037651 </v>
   <v>       0.93802160       0.61990623       0.43445829 </v>
   <v>       0.94056636       0.62246209       0.78841226 </v>
   <v>       0.56313329       0.70785586       0.69959734 </v>
   <v>       0.05837426       0.71269087       0.83316147 </v>
   <v>       0.93040626       0.12376448       0.30047919 </v>
   <v>       0.93832473       0.79063116       0.61063355 </v>
   <v>       0.44157106       0.78785751       0.25624030 </v>
   <v>       0.31528585       0.37192421       0.78837207 </v>
   <v>       0.43591445       0.45606388       0.21211248 </v>
   <v>       0.18855131       0.12148471       0.52115935 </v>
   <v>       0.81311859       0.70788776       0.69955589 </v>
   <v>       0.06343950       0.04046804       0.61065053 </v>
   <v>       0.55848089       0.21260168       0.83312294 </v>
   <v>       0.31353673       0.87129303       0.52115132 </v>
   <v>       0.69091056       0.28758764       0.12464989 </v>
   <v>       0.18630118       0.95627360       0.21208749 </v>
   <v>       0.68835441       0.29099021       0.61065405 </v>
   <v>       0.31346783       0.04046231       0.61063649 </v>
   <v>       0.94055574       0.12241564       0.78844947 </v>
   <v>       0.43820152       0.79324120       0.87559442 </v>
   <v>       0.80958853       0.04048515       0.74385502 </v>
   <v>       0.93796547       0.45798683       0.69952055 </v>
   <v>       0.18582358       0.62535647       0.65475164 </v>
   <v>       0.31296316       0.70826061       0.69956865 </v>
   <v>       0.93967232       0.28695725       0.12456134 </v>
   <v>       0.43777340       0.45555227       0.47862885 </v>
   <v>       0.06299630       0.70548223       0.47859912 </v>
   <v>       0.93825003       0.11962383       0.43447277 </v>
   <v>       0.42965543       0.12314104       0.30041072 </v>
   <v>       0.18793953       0.11974851       0.43459738 </v>
   <v>       0.56243460       0.04057646       0.87552811 </v>
   <v>       0.18862110       0.95676091       0.56519955 </v>
   <v>       0.69046290       0.78660569       0.12487317 </v>
   <v>       0.56267642       0.53162080       0.12456919 </v>
   <v>       0.30872407       0.03742746       0.38907793 </v>
   <v>       0.69268456       0.11411281       0.16718603 </v>
   <v>       0.80942776       0.20605681       0.21207843 </v>
   <v>       0.06648851       0.53749656       0.25623828 </v>
   <v>       0.56277097       0.70573074       0.47861974 </v>
   <v>       0.06321358       0.20717692       0.56548256 </v>
   <v>       0.55476388       0.37309806       0.30043922 </v>
   <v>       0.44132857       0.95222553       0.34496630 </v>
   <v>       0.18341811       0.96265736       0.83316662 </v>
   <v>       0.44234823       0.61299462       0.16716666 </v>
   <v>       0.93559512       0.45502359       0.21211883 </v>
   <v>       0.06318632       0.53316354       0.12449366 </v>
   <v>       0.81326983       0.37141347       0.52127548 </v>
   <v>       0.92967636       0.62376428       0.30047123 </v>
   <v>       0.31514824       0.03833593       0.25615947 </v>
   <v>       0.68847452       0.79080540       0.61066095 </v>
   <v>       0.18327673       0.46293129       0.83301909 </v>
   <v>       0.44239524       0.11376034       0.16692901 </v>
   <v>       0.31341096       0.37144568       0.52126179 </v>
   <v>       0.44035291       0.62248313       0.78837744 </v>
   <v>       0.06597757       0.03781319       0.25609754 </v>
   <v>       0.56362708       0.70736045       0.56541151 </v>
   <v>       0.93463170       0.29033219       0.74392728 </v>
   <v>       0.69051016       0.12263030       0.78845437 </v>
   <v>       0.18365357       0.45588635       0.21208603 </v>
   <v>       0.93362455       0.78754877       0.38907232 </v>
   <v>       0.68839203       0.29313363       0.87566528 </v>
   <v>       0.31857560       0.86451307       0.16717619 </v>
   <v>       0.43820551       0.45800924       0.69953269 </v>
   <v>       0.94165990       0.95233476       0.34501698 </v>
   <v>       0.68838379       0.62142188       0.52125848 </v>
   <v>       0.06084777       0.87517976       0.65470081 </v>
   <v>       0.06523208       0.87230616       0.78837128 </v>
   <v>       0.06010382       0.37502388       0.65478966 </v>
   <v>       0.68784027       0.45578224       0.47863054 </v>
   <v>       0.19098299       0.78745702       0.25629228 </v>
   <v>       0.43773603       0.11980141       0.43447136 </v>
   <v>       0.81435574       0.03343896       0.12454279 </v>
   <v>       0.93840603       0.62143541       0.52126967 </v>
   <v>       0.06280559       0.86948809       0.43445619 </v>
   <v>       0.81228234       0.53286763       0.12462161 </v>
   <v>       0.44158218       0.45227796       0.34510382 </v>
   <v>       0.81652082       0.20193595       0.34500579 </v>
   <v>       0.31675361       0.70216863       0.34505312 </v>
   <v>       0.68669054       0.12507347       0.65468232 </v>
   <v>       0.55432610       0.87305980       0.30035600 </v>
   <v>       0.05947743       0.54046494       0.74394526 </v>
   <v>       0.93512709       0.95529028       0.21196084 </v>
   <v>       0.81013999       0.70649148       0.21174618 </v>
   <v>       0.05443970       0.87305425       0.30032894 </v>
   <v>       0.17976687       0.12326117       0.30033377 </v>
   <v>       0.06661800       0.70229750       0.34505296 </v>
   <v>       0.81369880       0.04064963       0.61064531 </v>
   <v>       0.06328771       0.36946679       0.43443110 </v>
   <v>       0.56648490       0.20179850       0.34497139 </v>
   <v>       0.80462396       0.37295878       0.30041437 </v>
   <v>       0.43780258       0.95575999       0.47860845 </v>
   <v>       0.55879205       0.53707632       0.38902920 </v>
   <v>       0.06267759       0.20580252       0.47861425 </v>
   <v>       0.31528022       0.87227940       0.78839387 </v>
   <v>       0.93834418       0.95797089       0.69962275 </v>
   <v>       0.05450406       0.37328754       0.30046363 </v>
   <v>       0.68614947       0.62521098       0.65472658 </v>
   <v>       0.68897664       0.45741740       0.56540549 </v>
   <v>       0.43535793       0.95545200       0.21198873 </v>
   <v>       0.31278587       0.20578735       0.47859800 </v>
   <v>       0.43684183       0.12510989       0.65468669 </v>
   <v>       0.68797284       0.62029865       0.43444616 </v>
   <v>       0.81321373       0.20806175       0.69958457 </v>
   <v>       0.81279839       0.70579032       0.47863974 </v>
   <v>       0.81302778       0.86958577       0.43444051 </v>
   <v>       0.93754143       0.95575254       0.47860598 </v>
   <v>       0.56270621       0.20556341       0.47862213 </v>
   <v>       0.18795866       0.61965590       0.43444560 </v>
   <v>       0.30967526       0.04036426       0.74392063 </v>
   <v>       0.93581828       0.62516709       0.65467978 </v>
   <v>       0.55852308       0.71264047       0.83315409 </v>
   <v>       0.30477745       0.37308181       0.30039084 </v>
   <v>       0.55967119       0.70580279       0.21183774 </v>
   <v>       0.18773805       0.45562782       0.47861192 </v>
   <v>       0.31203737       0.04072190       0.87552189 </v>
   <v>       0.18767361       0.45782172       0.69940303 </v>
   <v>       0.81229597       0.54032840       0.87554975 </v>
   <v>       0.18360055       0.28764653       0.38908750 </v>
   <v>       0.43797251       0.62033949       0.43442964 </v>
   <v>       0.05935248       0.70606599       0.21188037 </v>
   <v>       0.56324858       0.36930506       0.43448346 </v>
   <v>       0.43844849       0.62133826       0.52125298 </v>
   <v>       0.80843282       0.71268050       0.83317560 </v>
   <v>       0.06524618       0.37182955       0.78842182 </v>
   <v>       0.43806035       0.29321535       0.87559401 </v>
   <v>       0.31266003       0.03274430       0.12462478 </v>
   <v>       0.68797680       0.12034915       0.43445095 </v>
   <v>       0.19127406       0.95226295       0.34510894 </v>
   <v>       0.05840803       0.21263542       0.83313442 </v>
   <v>       0.56334636       0.04073919       0.61062767 </v>
   <v>       0.68478460       0.45529138       0.21199604 </v>
   <v>       0.18460394       0.79024085       0.74393410 </v>
   <v>       0.17994658       0.62336541       0.30037022 </v>
   <v>       0.43360069       0.78752053       0.38904369 </v>
   <v>       0.44125625       0.28756037       0.25630649 </v>
   <v>       0.06202506       0.54061935       0.87552661 </v>
   <v>       0.55966255       0.04044815       0.74386132 </v>
   <v>       0.18804779       0.79329524       0.87560171 </v>
   <v>       0.93763722       0.45571309       0.47865669 </v>
   <v>       0.80852627       0.53736193       0.38907078 </v>
   <v>       0.81386582       0.20699486       0.56540621 </v>
   <v>       0.19072967       0.62212483       0.78850499 </v>
   <v>       0.05854304       0.53766699       0.38906868 </v>
   <v>       0.06351419       0.70819963       0.69957065 </v>
   <v>       0.31561709       0.53773158       0.25617195 </v>
   <v>       0.31012823       0.70654109       0.21177194 </v>
   <v>       0.56780217       0.86474545       0.16709185 </v>
   <v>       0.55937410       0.54052049       0.74389885 </v>
   <v>       0.69156991       0.45221455       0.34504822 </v>
   <v>       0.93836527       0.29353376       0.87563534 </v>
   <v>       0.56636345       0.03721494       0.25620115 </v>
   <v>       0.68254798       0.28767889       0.38902168 </v>
   <v>       0.31948301       0.36449070       0.16648927 </v>
   <v>       0.69178348       0.28794724       0.25624322 </v>
   <v>       0.18862879       0.95627806       0.69960709 </v>
   <v>       0.94005006       0.78912107       0.12486868 </v>
   <v>       0.19225288       0.28847826       0.25611114 </v>
   <v>       0.18776594       0.95565642       0.47857532 </v>
  </varray>
 </structure>
 <calculation>
  <scstep>
   <time name="dav">   53.91   53.93</time>
   <time name="total">   54.06   54.11</time>
   <energy>
    <i name="alphaZ">  16403.00255340 </i>
    <i name="ewald"> 734877.83278139 </i>
    <i name="hartreedc">-926521.41542817 </i>
    <i name="XCdc">  -6388.37926722 </i>
    <i name="pawpsdc"> 163151.95320885 </i>
    <i name="pawaedc">-160818.84594568 </i>
    <i name="eentropy">     -1.03552664 </i>
    <i name="bandstr">  38621.55437116 </i>
    <i name="atom"> 169914.59583762 </i>
    <i name="e_fr_energy">  29239.26258471 </i>
    <i name="e_wo_entrp">  29240.29811135 </i>
    <i name="e_0_energy">  29239.78034803 </i>
   </energy>
  </scstep>
  <scstep>
   <time name="dav">   53.39   53.43</time>
   <time name="total">   53.39   53.44</time>
   <energy>
    <i name="e_fr_energy">   1198.43436309 </i>
    <i name="e_wo_entrp">   1199.89829660 </i>
    <i name="e_0_energy">   1199.16632985 </i>
   </energy>
  </scstep>
  <scstep>
   <time name="dav">   70.22   70.26</time>
   <time name="total">   70.22   70.27</time>
   <energy>
    <i name="e_fr_energy">  -1940.61454972 </i>
    <i name="e_wo_entrp">  -1937.02407485 </i>
    <i name="e_0_energy">  -1938.81931228 </i>
   </energy>
  </scstep>
  <scstep>
   <time name="dav">   87.80   87.84</time>
   <time name="total">   87.81   87.85</time>
   <energy>
    <i name="e_fr_energy">  -2610.85194989 </i>
    <i name="e_wo_entrp">  -2607.30297446 </i>
    <i name="e_0_energy">  -2609.07746218 </i>
   </energy>
  </scstep>
  <scstep>
   <time name="dav">   83.85   83.90</time>
   <time name="total">   85.91   85.96</time>
   <energy>
    <i name="e_fr_energy">  -2731.24622504 </i>
    <i name="e_wo_entrp">  -2727.59239190 </i>
    <i name="e_0_energy">  -2729.41930847 </i>
   </energy>
  </scstep>
  <scstep>
   <time name="diag">    8.19    8.19</time>
   <time name="diis">   37.46   37.46</time>
   <time name="orth">    2.26    2.26</time>
   <time name="total">   50.04   50.08</time>
   <energy>
    <i name="e_fr_energy">  -5866.70155963 </i>
    <i name="e_wo_entrp">  -5863.56275055 </i>
    <i name="e_0_energy">  -5865.13215509 </i>
   </energy>
  </scstep>
  <scstep>
   <time name="diag">    8.21    8.21</time>
   <time name="diis">   37.09   37.10</time>
   <time name="orth">    2.26    2.26</time>
   <time name="total">   49.82   49.83</time>
[...]
       <r>     5.8123     0.0000  2772.0000 </r>
       <r>     5.8550     0.0000  2772.0000 </r>
       <r>     5.8977     0.0000  2772.0000 </r>
       <r>     5.9404     0.0000  2772.0000 </r>
       <r>     5.9831     0.0000  2772.0000 </r>
       <r>     6.0258     0.0000  2772.0000 </r>
       <r>     6.0685     0.0000  2772.0000 </r>
       <r>     6.1112     0.0000  2772.0000 </r>
       <r>     6.1539     0.0000  2772.0000 </r>
       <r>     6.1966     0.0000  2772.0000 </r>
       <r>     6.2393     0.0000  2772.0000 </r>
       <r>     6.2820     0.0000  2772.0000 </r>
       <r>     6.3248     0.0000  2772.0000 </r>
       <r>     6.3675     0.0000  2772.0000 </r>
       <r>     6.4102     0.0000  2772.0000 </r>
       <r>     6.4529     0.0000  2772.0000 </r>
       <r>     6.4956     0.0000  2772.0000 </r>
       <r>     6.5383     0.0000  2772.0000 </r>
       <r>     6.5810     0.0000  2772.0000 </r>
       <r>     6.6237     0.0000  2772.0000 </r>
       <r>     6.6664     0.0000  2772.0000 </r>
       <r>     6.7091     0.0000  2772.0000 </r>
       <r>     6.7518     0.0000  2772.0000 </r>
      </set>
     </set>
    </array>
   </total>
  </dos>
 </calculation>
 <structure name="finalpos" >
  <crystal>
   <varray name="basis" >
    <v>       9.72667804       0.00000000       0.00000000 </v>
    <v>       0.00000000       8.42355028       0.00000000 </v>
    <v>       0.00000000       0.00000000      45.00000000 </v>
   </varray>
   <i name="volume">   3686.99226691 </i>
   <varray name="rec_basis" >
    <v>       0.10281002       0.00000000       0.00000000 </v>
    <v>       0.00000000       0.11871479       0.00000000 </v>
    <v>       0.00000000       0.00000000       0.02222222 </v>
   </varray>
  </crystal>
  <varray name="positions" >
   <v>       0.06360705       0.03407575       0.12491784 </v>
   <v>       0.06327606       0.87249282       0.52151593 </v>
   <v>       0.18851928       0.12325012       0.78836819 </v>
   <v>       0.43505509       0.28735233       0.38950218 </v>
   <v>       0.30987968       0.71133383       0.83344805 </v>
   <v>       0.81014876       0.21057005       0.83342181 </v>
   <v>       0.18531973       0.78785257       0.38949203 </v>
   <v>       0.56321758       0.20668584       0.56555187 </v>
   <v>       0.06067424       0.04073301       0.74389274 </v>
   <v>       0.81339734       0.87270341       0.52164655 </v>
   <v>       0.18596232       0.29063408       0.74371041 </v>
   <v>       0.93805733       0.45354687       0.34529033 </v>
   <v>       0.93529187       0.28746481       0.38951496 </v>
   <v>       0.81166780       0.04223959       0.87531521 </v>
   <v>       0.18808734       0.79081885       0.61039674 </v>
   <v>       0.56040053       0.03721455       0.38949163 </v>
   <v>       0.93470992       0.96097376       0.83349154 </v>
   <v>       0.31172286       0.54250944       0.87521291 </v>
   <v>       0.68617413       0.29085335       0.74383873 </v>
   <v>       0.19090598       0.61588879       0.16663873 </v>
   <v>       0.81331789       0.20458158       0.47814874 </v>
   <v>       0.81312810       0.54041301       0.61039148 </v>
   <v>       0.31290821       0.87047711       0.43425472 </v>
   <v>       0.81362497       0.03702630       0.25616975 </v>
   <v>       0.68839488       0.95323659       0.34519377 </v>
   <v>       0.94164951       0.11463983       0.16669588 </v>
   <v>       0.93861656       0.12268144       0.52163885 </v>
   <v>       0.56385985       0.53803194       0.25620957 </v>
   <v>       0.68742522       0.79316480       0.87537521 </v>
   <v>       0.56704425       0.36642806       0.16679241 </v>
   <v>       0.43597188       0.79097219       0.74380765 </v>
   <v>       0.81360118       0.70649919       0.56560522 </v>
   <v>       0.56383833       0.87353883       0.78825646 </v>
   <v>       0.68821365       0.12263568       0.52164872 </v>
   <v>       0.81166682       0.37462450       0.65471196 </v>
   <v>       0.93463251       0.46092906       0.83345123 </v>
   <v>       0.06263705       0.20755543       0.69941999 </v>
   <v>       0.43804087       0.95755559       0.69943586 </v>
   <v>       0.30984959       0.21061904       0.83345245 </v>
   <v>       0.43662664       0.62475342       0.65476098 </v>
   <v>       0.31302471       0.54065585       0.61039105 </v>
   <v>       0.93854720       0.45636701       0.56560364 </v>
   <v>       0.68605483       0.79081147       0.74381700 </v>
   <v>       0.31167268       0.87485728       0.65476993 </v>
   <v>       0.68541120       0.78757637       0.38945483 </v>
   <v>       0.93595436       0.79083801       0.74382329 </v>
   <v>       0.06321632       0.20348171       0.34515236 </v>
   <v>       0.81017455       0.03749900       0.38948959 </v>
   <v>       0.43893451       0.12342368       0.78838529 </v>
   <v>       0.06180546       0.20405732       0.21179537 </v>
   <v>       0.06685568       0.36595035       0.16676468 </v>
   <v>       0.93869797       0.78790389       0.25616931 </v>
   <v>       0.56246468       0.20782084       0.69949004 </v>
   <v>       0.68775300       0.95767031       0.69951130 </v>
   <v>       0.44087670       0.78475552       0.12503637 </v>
   <v>       0.43850853       0.95676329       0.56561372 </v>
   <v>       0.81381880       0.37328087       0.78817187 </v>
   <v>       0.81733658       0.36552709       0.16685057 </v>
   <v>       0.18840906       0.45629073       0.56559780 </v>
   <v>       0.06562022       0.86563578       0.16684067 </v>
   <v>       0.18797574       0.29085826       0.61033581 </v>
   <v>       0.56356530       0.70354551       0.34512017 </v>
   <v>       0.31254139       0.20775913       0.69941553 </v>
   <v>       0.56194069       0.54250826       0.87525339 </v>
   <v>       0.06355982       0.70620529       0.56564188 </v>
   <v>       0.68898602       0.62355332       0.78825597 </v>
   <v>       0.31048703       0.53784497       0.38947696 </v>
   <v>       0.18818295       0.62295009       0.52160075 </v>
   <v>       0.56280049       0.87050931       0.43424200 </v>
   <v>       0.43852526       0.45641528       0.56559169 </v>
   <v>       0.43634600       0.29068489       0.74378466 </v>
   <v>       0.80820927       0.87242174       0.30053200 </v>
   <v>       0.81321380       0.70361227       0.34519743 </v>
   <v>       0.43487826       0.46094804       0.83345201 </v>
   <v>       0.68777840       0.95434567       0.47814703 </v>
   <v>       0.68747591       0.45763713       0.69953899 </v>
   <v>       0.56304643       0.87270020       0.52162348 </v>
   <v>       0.56146646       0.37467317       0.65469790 </v>
   <v>       0.81201473       0.87480787       0.65479943 </v>
   <v>       0.81279713       0.37074602       0.43424407 </v>
   <v>       0.81355828       0.53822472       0.25623864 </v>
   <v>       0.68491356       0.46078972       0.83348823 </v>
   <v>       0.19111158       0.78290886       0.12506883 </v>
   <v>       0.06151163       0.04209092       0.87530349 </v>
   <v>       0.31137893       0.37479792       0.65475576 </v>
   <v>       0.31348025       0.20313527       0.34511716 </v>
   <v>       0.81093109       0.54073254       0.74384379 </v>
   <v>       0.68502061       0.96091475       0.83350415 </v>
   <v>       0.56129918       0.87482351       0.65477957 </v>
   <v>       0.31344011       0.70640298       0.56561601 </v>
   <v>       0.31386362       0.53406748       0.12469579 </v>
   <v>       0.68614504       0.95539340       0.21208252 </v>
   <v>       0.31340196       0.20674972       0.56566214 </v>
   <v>       0.31084320       0.54062121       0.74378112 </v>
   <v>       0.68843856       0.95671987       0.56557967 </v>
   <v>       0.43822890       0.79064851       0.61031340 </v>
   <v>       0.69204014       0.61701961       0.16679630 </v>
   <v>       0.30849730       0.87228416       0.30041679 </v>
   <v>       0.31283165       0.70413492       0.47812893 </v>
   <v>       0.93809443       0.29083033       0.61038766 </v>
   <v>       0.43383278       0.62232554       0.30050715 </v>
   <v>       0.81787949       0.86561411       0.16683688 </v>
   <v>       0.56135000       0.20421843       0.21187009 </v>
   <v>       0.94105404       0.61721005       0.16686733 </v>
   <v>       0.93706030       0.79310046       0.87537010 </v>
   <v>       0.56383225       0.37328437       0.78819752 </v>
   <v>       0.06327982       0.37260653       0.52166161 </v>
   <v>       0.56305507       0.37255288       0.52164702 </v>
   <v>       0.68344160       0.12218094       0.30049695 </v>
   <v>       0.43477276       0.96100096       0.83352129 </v>
   <v>       0.19089166       0.28460587       0.12480957 </v>
   <v>       0.81380298       0.87354938       0.78829735 </v>
   <v>       0.31297296       0.37069523       0.43427490 </v>
   <v>       0.56418481       0.03315050       0.12491901 </v>
   <v>       0.43794513       0.29077024       0.61038233 </v>
   <v>       0.18834674       0.45311965       0.34526534 </v>
   <v>       0.44013361       0.28449157       0.12484200 </v>
   <v>       0.68874672       0.78755729       0.25623325 </v>
   <v>       0.43775589       0.12276421       0.52161574 </v>
   <v>       0.18715143       0.29199898       0.87533585 </v>
   <v>       0.18679591       0.12484041       0.65473521 </v>
   <v>       0.93712862       0.12472313       0.65478347 </v>
   <v>       0.31148602       0.20421177       0.21192065 </v>
   <v>       0.06014174       0.03707099       0.38950750 </v>
   <v>       0.19177136       0.11620865       0.16707207 </v>
   <v>       0.06309900       0.54051916       0.61039979 </v>
   <v>       0.93854594       0.28789041       0.25618029 </v>
   <v>       0.56319270       0.54044551       0.61038483 </v>
   <v>       0.93854860       0.95674082       0.56562638 </v>
   <v>       0.68345175       0.62258456       0.30039199 </v>
   <v>       0.93763877       0.62049196       0.43425351 </v>
   <v>       0.93881617       0.62364872       0.78830071 </v>
   <v>       0.56241877       0.70748149       0.69947430 </v>
   <v>       0.05975976       0.71128053       0.83342778 </v>
   <v>       0.93331773       0.12200972       0.30042782 </v>
   <v>       0.93810224       0.79055995       0.61032389 </v>
   <v>       0.43894256       0.78773091       0.25612646 </v>
   <v>       0.31360276       0.37315788       0.78824944 </v>
   <v>       0.43684324       0.45485257       0.21196584 </v>
   <v>       0.18802377       0.12288171       0.52155115 </v>
   <v>       0.81293389       0.70747286       0.69950509 </v>
   <v>       0.06339070       0.04078649       0.61037159 </v>
   <v>       0.56005945       0.21056318       0.83341466 </v>
   <v>       0.31326171       0.87232268       0.52156490 </v>
   <v>       0.69101251       0.28476835       0.12486931 </v>
   <v>       0.18667969       0.95515358       0.21202388 </v>
   <v>       0.68799335       0.29074147       0.61042362 </v>
   <v>       0.31300259       0.04086792       0.61037173 </v>
   <v>       0.93869300       0.12331984       0.78840830 </v>
   <v>       0.43748783       0.79313237       0.87538091 </v>
   <v>       0.81079609       0.04087987       0.74386933 </v>
   <v>       0.93744269       0.45733889       0.69950521 </v>
   <v>       0.18669445       0.62478439       0.65477604 </v>
   <v>       0.31285834       0.70740932       0.69942572 </v>
   <v>       0.93974331       0.28455025       0.12485350 </v>
   <v>       0.43806042       0.45475296       0.47820534 </v>
   <v>       0.06289203       0.70419309       0.47812754 </v>
   <v>       0.93767504       0.12054145       0.43419626 </v>
   <v>       0.43377967       0.12230176       0.30048019 </v>
   <v>       0.18787265       0.12069957       0.43425318 </v>
   <v>       0.56196784       0.04219953       0.87532634 </v>
   <v>       0.18856211       0.95675276       0.56528943 </v>
   <v>       0.68938159       0.78301530       0.12500804 </v>
   <v>       0.56432803       0.53442550       0.12479072 </v>
   <v>       0.31027128       0.03689170       0.38953869 </v>
   <v>       0.69120106       0.11561587       0.16706499 </v>
   <v>       0.81117997       0.20415619       0.21185911 </v>
   <v>       0.06340585       0.53830455       0.25621425 </v>
   <v>       0.56220390       0.70436911       0.47808888 </v>
   <v>       0.06347075       0.20671686       0.56564323 </v>
   <v>       0.55844635       0.37276762       0.30059236 </v>
   <v>       0.43844872       0.95337839       0.34508328 </v>
   <v>       0.18459642       0.96100988       0.83345504 </v>
   <v>       0.44138711       0.61566084       0.16693055 </v>
   <v>       0.93634952       0.45430732       0.21197962 </v>
   <v>       0.06515060       0.53466079       0.12471283 </v>
   <v>       0.81350988       0.37249639       0.52167327 </v>
   <v>       0.93326780       0.62240908       0.30053067 </v>
   <v>       0.31405110       0.03682779       0.25617484 </v>
   <v>       0.68815346       0.79055790       0.61036914 </v>
   <v>       0.18459152       0.46095783       0.83337646 </v>
   <v>       0.44118169       0.11583214       0.16684258 </v>
   <v>       0.31315566       0.37247655       0.52164156 </v>
   <v>       0.43874909       0.62372372       0.78827078 </v>
   <v>       0.06330362       0.03715625       0.25614336 </v>
   <v>       0.56339447       0.70651835       0.56558305 </v>
   <v>       0.93573001       0.29086115       0.74382740 </v>
   <v>       0.68903199       0.12325578       0.78830935 </v>
   <v>       0.18635384       0.45548004       0.21202458 </v>
   <v>       0.93532097       0.78741834       0.38945675 </v>
   <v>       0.68744615       0.29221496       0.87538937 </v>
   <v>       0.31741820       0.86588698       0.16680275 </v>
   <v>       0.43749316       0.45733696       0.69947654 </v>
   <v>       0.93801872       0.95348150       0.34508484 </v>
   <v>       0.68821807       0.62272850       0.52167414 </v>
   <v>       0.06176078       0.87488666       0.65477502 </v>
   <v>       0.06362931       0.87350801       0.78832603 </v>
   <v>       0.06154566       0.37479937       0.65477187 </v>
   <v>       0.68770236       0.45450244       0.47809525 </v>
   <v>       0.18883590       0.78762138       0.25615855 </v>
   <v>       0.43750988       0.12049750       0.43424009 </v>
   <v>       0.81398806       0.03553505       0.12484935 </v>
   <v>       0.93857361       0.62270636       0.52163185 </v>
   <v>       0.06246482       0.87034474       0.43426271 </v>
   <v>       0.81302966       0.53463070       0.12472265 </v>
   <v>       0.43862981       0.45354518       0.34523326 </v>
   <v>       0.81331332       0.20327873       0.34509102 </v>
   <v>       0.31369390       0.70312297       0.34512519 </v>
   <v>       0.68675950       0.12489422       0.65474300 </v>
   <v>       0.55867382       0.87241366       0.30041995 </v>
   <v>       0.06053492       0.54054507       0.74379964 </v>
   <v>       0.93660858       0.95506255       0.21193158 </v>
   <v>       0.81120545       0.70449387       0.21178073 </v>
   <v>       0.05835241       0.87220641       0.30045184 </v>
   <v>       0.18338539       0.12222427       0.30049195 </v>
   <v>       0.06317724       0.70320565       0.34506806 </v>
   <v>       0.81319475       0.04080377       0.61038837 </v>
   <v>       0.06239214       0.37078327       0.43425943 </v>
   <v>       0.56343234       0.20347261       0.34510967 </v>
   <v>       0.80825637       0.37258320       0.30048727 </v>
   <v>       0.43810718       0.95470513       0.47807028 </v>
   <v>       0.56025524       0.53727877       0.38943862 </v>
   <v>       0.06235539       0.20413933       0.47813033 </v>
   <v>       0.31349947       0.87348946       0.78831209 </v>
   <v>       0.93729250       0.95752408       0.69947871 </v>
   <v>       0.05813835       0.37281089       0.30060422 </v>
   <v>       0.68665128       0.62447308       0.65472556 </v>
   <v>       0.68850190       0.45666003       0.56559828 </v>
   <v>       0.43692530       0.95475420       0.21197335 </v>
   <v>       0.31342505       0.20431287       0.47811498 </v>
   <v>       0.43646214       0.12467705       0.65474017 </v>
   <v>       0.68775943       0.62049203       0.43423436 </v>
   <v>       0.81294339       0.20780927       0.69951045 </v>
   <v>       0.81336312       0.70435562       0.47809803 </v>
   <v>       0.81264145       0.87047086       0.43421372 </v>
   <v>       0.93775469       0.95455511       0.47807565 </v>
   <v>       0.56220829       0.20440686       0.47816725 </v>
   <v>       0.18761126       0.62093077       0.43428589 </v>
   <v>       0.31105633       0.04070152       0.74384257 </v>
   <v>       0.93678984       0.62454426       0.65475504 </v>
   <v>       0.56014971       0.71111750       0.83345052 </v>
   <v>       0.30873593       0.37248305       0.30049173 </v>
   <v>       0.56131328       0.70484646       0.21197005 </v>
   <v>       0.18781258       0.45473430       0.47819011 </v>
   <v>       0.31168030       0.04219665       0.87531813 </v>
   <v>       0.18743535       0.45755147       0.69944221 </v>
   <v>       0.81157292       0.54254565       0.87526897 </v>
   <v>       0.18505113       0.28769225       0.38942708 </v>
   <v>       0.43780383       0.62056026       0.43425969 </v>
   <v>       0.06144412       0.70490573       0.21185020 </v>
   <v>       0.56270527       0.37077421       0.43425079 </v>
   <v>       0.43790654       0.62281380       0.52159891 </v>
   <v>       0.80999418       0.71114523       0.83344472 </v>
   <v>       0.06342771       0.37311659       0.78823399 </v>
   <v>       0.43744202       0.29213957       0.87531188 </v>
   <v>       0.31415957       0.03486674       0.12503143 </v>
   <v>       0.68777982       0.12026630       0.43423067 </v>
   <v>       0.18835475       0.95321329       0.34517705 </v>
   <v>       0.05983763       0.21054216       0.83342918 </v>
   <v>       0.56320883       0.04086507       0.61037265 </v>
   <v>       0.68657555       0.45504252       0.21198554 </v>
   <v>       0.18587338       0.79058451       0.74391743 </v>
   <v>       0.18343459       0.62254720       0.30050825 </v>
   <v>       0.43507791       0.78739939       0.38940435 </v>
   <v>       0.43904097       0.28741056       0.25625712 </v>
   <v>       0.06146483       0.54262667       0.87520771 </v>
   <v>       0.56122612       0.04088172       0.74384706 </v>
   <v>       0.18708650       0.79321883       0.87536809 </v>
   <v>       0.93770607       0.45446553       0.47816931 </v>
   <v>       0.81047648       0.53729396       0.38950412 </v>
   <v>       0.81353799       0.20671591       0.56557647 </v>
   <v>       0.18850983       0.62345795       0.78838489 </v>
   <v>       0.05995010       0.53773127       0.38946029 </v>
   <v>       0.06221700       0.70736923       0.69944658 </v>
   <v>       0.31406288       0.53805204       0.25617895 </v>
   <v>       0.31136806       0.70459642       0.21190095 </v>
   <v>       0.56728448       0.86612701       0.16685405 </v>
   <v>       0.56110394       0.54079127       0.74382463 </v>
   <v>       0.68837948       0.45340465       0.34512156 </v>
   <v>       0.93716384       0.29224674       0.87530696 </v>
   <v>       0.56368362       0.03695865       0.25607803 </v>
   <v>       0.68498888       0.28740237       0.38936797 </v>
   <v>       0.31783752       0.36603221       0.16629420 </v>
   <v>       0.68952555       0.28743357       0.25615085 </v>
   <v>       0.18781544       0.95779232       0.69943779 </v>
   <v>       0.93981383       0.78541684       0.12512594 </v>
   <v>       0.18970032       0.28769446       0.25604602 </v>
   <v>       0.18761935       0.95436574       0.47831248 </v>
  </varray>
 </structure>
</modeling>
