unknown system                          
           1
     9.726678    0.000000    0.000000
     0.000000    8.423550    0.000000
     0.000000    0.000000   45.000000
   Fe   Mn
 281   7
Direct configuration=     1
   0.06152737  0.03202625  0.12466413
   0.06306031  0.87120460  0.52121605
   0.19064343  0.12246556  0.78841439
   0.43362750  0.28769412  0.38906794
   0.30847095  0.71269303  0.83315344
   0.80841573  0.21244198  0.83313693
   0.18354436  0.78776588  0.38902768
   0.56332863  0.20700128  0.56538828
   0.05947830  0.04032706  0.74393077
   0.81339996  0.87142566  0.52126366
   0.18473654  0.29047735  0.74386174
   0.94086135  0.45266100  0.34507676
   0.93357876  0.28758976  0.38906228
   0.81218570  0.04084176  0.87553232
   0.18839440  0.79109030  0.61066076
   0.55857163  0.03736791  0.38905736
   0.93338926  0.96254156  0.83315731
   0.31200056  0.54061764  0.87550038
   0.68489753  0.29076818  0.74396931
   0.19201112  0.61398726  0.16687473
   0.81285685  0.20561892  0.47861179
   0.81366774  0.54043508  0.61066963
   0.31324721  0.86969615  0.43446199
   0.81588251  0.03772998  0.25619985
   0.69108506  0.95270165  0.34516555
   0.94200089  0.11256359  0.16681013
   0.93852833  0.12115303  0.52124738
   0.56652166  0.53744830  0.25624483
   0.68812122  0.79348723  0.87558882
   0.56875964  0.36522345  0.16693883
   0.43471550  0.79059264  0.74394597
   0.81406630  0.70721588  0.56542218
   0.56531364  0.87214133  0.78836061
   0.68839990  0.12147532  0.52126332
   0.81008380  0.37515938  0.65476984
   0.93336741  0.46247439  0.83309992
   0.06362963  0.20767594  0.69956200
   0.43814719  0.95789220  0.69961117
   0.30840976  0.21258134  0.83315479
   0.43609824  0.62517798  0.65467662
   0.31368998  0.54069316  0.61063544
   0.93897409  0.45726631  0.56542317
   0.68472033  0.79048342  0.74396120
   0.31128252  0.87521945  0.65466255
   0.68363315  0.78756684  0.38901886
   0.93484967  0.79056607  0.74398751
   0.06654447  0.20229109  0.34508141
   0.80831603  0.03755778  0.38908454
   0.44093852  0.12215966  0.78852167
   0.06060368  0.20701697  0.21214388
   0.06868035  0.36426933  0.16683864
   0.94152287  0.78838549  0.25625518
   0.56295853  0.20814155  0.69950000
   0.68827905  0.95794120  0.69959484
   0.43985026  0.78802547  0.12458740
   0.43890489  0.95741927  0.56542902
   0.81522651  0.37181519  0.78829943
   0.81906400  0.36321634  0.16670294
   0.18884466  0.45722494  0.56545604
   0.06765604  0.86366153  0.16688816
   0.18840795  0.29069856  0.61060109
   0.56619579  0.70258223  0.34507648
   0.31274245  0.20764017  0.69948052
   0.56203111  0.54052698  0.87550111
   0.06372197  0.70674666  0.56549860
   0.69054159  0.62211705  0.78838376
   0.30872052  0.53772021  0.38907070
   0.18838236  0.62145044  0.52127173
   0.56299259  0.87008980  0.43447268
   0.43873026  0.45738926  0.56541143
   0.43491946  0.29053027  0.74396724
   0.80474078  0.87325269  0.30034656
   0.81672640  0.70243777  0.34514635
   0.43351660  0.46255988  0.83309191
   0.68779277  0.95573217  0.47864115
   0.68807378  0.45795591  0.69958564
   0.56334346  0.87137130  0.52125434
   0.56012865  0.37518987  0.65476970
   0.81066719  0.87482832  0.65473717
   0.81290905  0.36959892  0.43444695
   0.81559098  0.53824632  0.25618915
   0.68351176  0.46254257  0.83314480
   0.19095682  0.78711128  0.12484101
   0.06215007  0.04067664  0.87555165
   0.31006468  0.37530665  0.65479547
   0.31615581  0.20245305  0.34507659
   0.80953210  0.54042328  0.74391299
   0.68339817  0.96255448  0.83312645
   0.56190197  0.87497527  0.65466867
   0.31373632  0.70677971  0.56548606
   0.31387731  0.53149522  0.12444769
   0.68506351  0.95576207  0.21200166
   0.31387517  0.20719389  0.56548268
   0.30957827  0.54022665  0.74394881
   0.68895559  0.95730019  0.56542926
   0.43865068  0.79069682  0.61062481
   0.69322620  0.61426003  0.16702016
   0.30481924  0.87323385  0.30045395
   0.31242248  0.70540275  0.47860385
   0.93861714  0.29064647  0.61061764
   0.43011087  0.62391062  0.30044603
   0.81826229  0.86384520  0.16686451
   0.56053202  0.20627357  0.21196783
   0.94287506  0.61394985  0.16672992
   0.93809724  0.79317371  0.87563467
   0.56503381  0.37155131  0.78828547
   0.06343694  0.37140881  0.52129167
   0.56343070  0.37135922  0.52126445
   0.68017246  0.12347168  0.30045653
   0.43342364  0.96257089  0.83315292
   0.19126297  0.28724679  0.12466390
   0.81520946  0.87171731  0.78834279
   0.31257064  0.36986936  0.43442518
   0.56258797  0.03186827  0.12481941
   0.43826579  0.29085188  0.61061440
   0.19166003  0.45197284  0.34501477
   0.43991996  0.28784850  0.12454962
   0.69114083  0.78742934  0.25629790
   0.43824005  0.12110075  0.52125743
   0.18788556  0.29297372  0.87559032
   0.18661864  0.12496637  0.65472041
   0.93657660  0.12472300  0.65469083
   0.31003202  0.20545988  0.21191285
   0.05855546  0.03749868  0.38901345
   0.19424360  0.11477054  0.16733246
   0.06328811  0.54057678  0.61062411
   0.94129312  0.28804083  0.25619283
   0.56334492  0.54045543  0.61065978
   0.93880542  0.95736525  0.56543762
   0.68007915  0.62392412  0.30037651
   0.93802160  0.61990623  0.43445829
   0.94056636  0.62246209  0.78841226
   0.56313329  0.70785586  0.69959734
   0.05837426  0.71269087  0.83316147
   0.93040626  0.12376448  0.30047919
   0.93832473  0.79063116  0.61063355
   0.44157106  0.78785751  0.25624030
   0.31528585  0.37192421  0.78837207
   0.43591445  0.45606388  0.21211248
   0.18855131  0.12148471  0.52115935
   0.81311859  0.70788776  0.69955589
   0.06343950  0.04046804  0.61065053
   0.55848089  0.21260168  0.83312294
   0.31353673  0.87129303  0.52115132
   0.69091056  0.28758764  0.12464989
   0.18630118  0.95627360  0.21208749
   0.68835441  0.29099021  0.61065405
   0.31346783  0.04046231  0.61063649
   0.94055574  0.12241564  0.78844947
   0.43820152  0.79324120  0.87559442
   0.80958853  0.04048515  0.74385502
   0.93796547  0.45798683  0.69952055
   0.18582358  0.62535647  0.65475164
   0.31296316  0.70826061  0.69956865
   0.93967232  0.28695725  0.12456134
   0.43777340  0.45555227  0.47862885
   0.06299630  0.70548223  0.47859912
   0.93825003  0.11962383  0.43447277
   0.42965543  0.12314104  0.30041072
   0.18793953  0.11974851  0.43459738
   0.56243460  0.04057646  0.87552811
   0.18862110  0.95676091  0.56519955
   0.69046290  0.78660569  0.12487317
   0.56267642  0.53162080  0.12456919
   0.30872407  0.03742746  0.38907793
   0.69268456  0.11411281  0.16718603
   0.80942776  0.20605681  0.21207843
   0.06648851  0.53749656  0.25623828
   0.56277097  0.70573074  0.47861974
   0.06321358  0.20717692  0.56548256
   0.55476388  0.37309806  0.30043922
   0.44132857  0.95222553  0.34496630
   0.18341811  0.96265736  0.83316662
   0.44234823  0.61299462  0.16716666
   0.93559512  0.45502359  0.21211883
   0.06318632  0.53316354  0.12449366
   0.81326983  0.37141347  0.52127548
   0.92967636  0.62376428  0.30047123
   0.31514824  0.03833593  0.25615947
   0.68847452  0.79080540  0.61066095
   0.18327673  0.46293129  0.83301909
   0.44239524  0.11376034  0.16692901
   0.31341096  0.37144568  0.52126179
   0.44035291  0.62248313  0.78837744
   0.06597757  0.03781319  0.25609754
   0.56362708  0.70736045  0.56541151
   0.93463170  0.29033219  0.74392728
   0.69051016  0.12263030  0.78845437
   0.18365357  0.45588635  0.21208603
   0.93362455  0.78754877  0.38907232
   0.68839203  0.29313363  0.87566528
   0.31857560  0.86451307  0.16717619
   0.43820551  0.45800924  0.69953269
   0.94165990  0.95233476  0.34501698
   0.68838379  0.62142188  0.52125848
   0.06084777  0.87517976  0.65470081
   0.06523208  0.87230616  0.78837128
   0.06010382  0.37502388  0.65478966
   0.68784027  0.45578224  0.47863054
   0.19098299  0.78745702  0.25629228
   0.43773603  0.11980141  0.43447136
   0.81435574  0.03343896  0.12454279
   0.93840603  0.62143541  0.52126967
   0.06280559  0.86948809  0.43445619
   0.81228234  0.53286763  0.12462161
   0.44158218  0.45227796  0.34510382
   0.81652082  0.20193595  0.34500579
   0.31675361  0.70216863  0.34505312
   0.68669054  0.12507347  0.65468232
   0.55432610  0.87305980  0.30035600
   0.05947743  0.54046494  0.74394526
   0.93512709  0.95529028  0.21196084
   0.81013999  0.70649148  0.21174618
   0.05443970  0.87305425  0.30032894
   0.17976687  0.12326117  0.30033377
   0.06661800  0.70229750  0.34505296
   0.81369880  0.04064963  0.61064531
   0.06328771  0.36946679  0.43443110
   0.56648490  0.20179850  0.34497139
   0.80462396  0.37295878  0.30041437
   0.43780258  0.95575999  0.47860845
   0.55879205  0.53707632  0.38902920
   0.06267759  0.20580252  0.47861425
   0.31528022  0.87227940  0.78839387
   0.93834418  0.95797089  0.69962275
   0.05450406  0.37328754  0.30046363
   0.68614947  0.62521098  0.65472658
   0.68897664  0.45741740  0.56540549
   0.43535793  0.95545200  0.21198873
   0.31278587  0.20578735  0.47859800
   0.43684183  0.12510989  0.65468669
   0.68797284  0.62029865  0.43444616
   0.81321373  0.20806175  0.69958457
   0.81279839  0.70579032  0.47863974
   0.81302778  0.86958577  0.43444051
   0.93754143  0.95575254  0.47860598
   0.56270621  0.20556341  0.47862213
   0.18795866  0.61965590  0.43444560
   0.30967526  0.04036426  0.74392063
   0.93581828  0.62516709  0.65467978
   0.55852308  0.71264047  0.83315409
   0.30477745  0.37308181  0.30039084
   0.55967119  0.70580279  0.21183774
   0.18773805  0.45562782  0.47861192
   0.31203737  0.04072190  0.87552189
   0.18767361  0.45782172  0.69940303
   0.81229597  0.54032840  0.87554975
   0.18360055  0.28764653  0.38908750
   0.43797251  0.62033949  0.43442964
   0.05935248  0.70606599  0.21188037
   0.56324858  0.36930506  0.43448346
   0.43844849  0.62133826  0.52125298
   0.80843282  0.71268050  0.83317560
   0.06524618  0.37182955  0.78842182
   0.43806035  0.29321535  0.87559401
   0.31266003  0.03274430  0.12462478
   0.68797680  0.12034915  0.43445095
   0.19127406  0.95226295  0.34510894
   0.05840803  0.21263542  0.83313442
   0.56334636  0.04073919  0.61062767
   0.68478460  0.45529138  0.21199604
   0.18460394  0.79024085  0.74393410
   0.17994658  0.62336541  0.30037022
   0.43360069  0.78752053  0.38904369
   0.44125625  0.28756037  0.25630649
   0.06202506  0.54061935  0.87552661
   0.55966255  0.04044815  0.74386132
   0.18804779  0.79329524  0.87560171
   0.93763722  0.45571309  0.47865669
   0.80852627  0.53736193  0.38907078
   0.81386582  0.20699486  0.56540621
   0.19072967  0.62212483  0.78850499
   0.05854304  0.53766699  0.38906868
   0.06351419  0.70819963  0.69957065
   0.31561709  0.53773158  0.25617195
   0.31012823  0.70654109  0.21177194
   0.56780217  0.86474545  0.16709185
   0.55937410  0.54052049  0.74389885
   0.69156991  0.45221455  0.34504822
   0.93836527  0.29353376  0.87563534
   0.56636345  0.03721494  0.25620115
   0.68254798  0.28767889  0.38902168
   0.31948301  0.36449070  0.16648927
   0.69178348  0.28794724  0.25624322
   0.18862879  0.95627806  0.69960709
   0.94005006  0.78912107  0.12486868
   0.19225288  0.28847826  0.25611114
   0.18776594  0.95565642  0.47857532
Direct configuration=     2
   0.06189755  0.03239106  0.12470929
   0.06309871  0.87143390  0.52126942
   0.19026533  0.12260521  0.78840617
   0.43388160  0.28763328  0.38914523
   0.30872170  0.71245110  0.83320588
   0.80872420  0.21210878  0.83318764
   0.18386037  0.78778131  0.38911033
   0.56330886  0.20694513  0.56541740
   0.05969117  0.04039932  0.74392400
   0.81339949  0.87165310  0.52133181
   0.18495473  0.29050525  0.74383481
   0.94036225  0.45281868  0.34511478
   0.93388369  0.28756752  0.38914285
   0.81209352  0.04109057  0.87549368
   0.18833974  0.79104198  0.61061377
   0.55889717  0.03734061  0.38913466
   0.93362433  0.96226250  0.83321680
   0.31195113  0.54095437  0.87544921
   0.68512476  0.29078334  0.74394607
   0.19181441  0.61432573  0.16683272
   0.81293891  0.20543428  0.47852937
   0.81357169  0.54043115  0.61062012
   0.31318687  0.86983516  0.43442510
   0.81548068  0.03760473  0.25619449
   0.69060621  0.95279687  0.34517058
   0.94193834  0.11293315  0.16678979
   0.93854403  0.12142508  0.52131706
   0.56604786  0.53755218  0.25623855
   0.68799733  0.79342984  0.87555080
   0.56845431  0.36543787  0.16691277
   0.43493913  0.79066020  0.74392135
   0.81398351  0.70708831  0.56545476
   0.56505104  0.87239008  0.78834207
   0.68836675  0.12168186  0.52133192
   0.81036557  0.37506418  0.65475954
   0.93359260  0.46219932  0.83316245
   0.06345295  0.20765449  0.69953672
   0.43812826  0.95783229  0.69957996
   0.30866605  0.21223205  0.83320777
   0.43619229  0.62510241  0.65469164
   0.31357156  0.54068652  0.61059194
   0.93889811  0.45710624  0.56545529
   0.68495787  0.79054181  0.74393553
   0.31135197  0.87515498  0.65468166
   0.68394964  0.78756854  0.38909646
   0.93504630  0.79061447  0.74395828
   0.06595207  0.20250302  0.34509403
   0.80864684  0.03754732  0.38915664
   0.44058182  0.12238465  0.78849739
   0.06081759  0.20649016  0.21208185
   0.06835557  0.36456855  0.16682548
   0.94102005  0.78829976  0.25623990
   0.56287063  0.20808446  0.69949823
   0.68818541  0.95789298  0.69957997
   0.44003296  0.78744343  0.12466732
   0.43883434  0.95730250  0.56546190
   0.81497594  0.37207607  0.78827672
   0.81875653  0.36362765  0.16672922
   0.18876712  0.45705865  0.56548127
   0.06729367  0.86401294  0.16687971
   0.18833102  0.29072699  0.61055387
   0.56572757  0.70275369  0.34508425
   0.31270666  0.20766135  0.69946895
   0.56201502  0.54087964  0.87545701
   0.06369311  0.70665030  0.56552410
   0.69026470  0.62237270  0.78836102
   0.30903495  0.53774241  0.38914301
   0.18834687  0.62171737  0.52133029
   0.56295839  0.87016447  0.43443162
   0.43869377  0.45721590  0.56544352
   0.43517338  0.29055779  0.74393474
   0.80535816  0.87310479  0.30037957
   0.81610117  0.70264682  0.34515544
   0.43375897  0.46227297  0.83315601
   0.68779021  0.95548538  0.47855320
   0.68796736  0.45789917  0.69957733
   0.56329059  0.87160784  0.52132005
   0.56036677  0.37509790  0.65475692
   0.81090705  0.87482468  0.65474825
   0.81288913  0.36980310  0.43441084
   0.81522916  0.53824248  0.25619796
   0.68376128  0.46223057  0.83320593
   0.19098437  0.78636326  0.12488156
   0.06203643  0.04092837  0.87550748
   0.31029862  0.37521610  0.65478840
   0.31567957  0.20257448  0.34508381
   0.80978112  0.54047833  0.74390067
   0.68368696  0.96226261  0.83319368
   0.56179468  0.87494826  0.65468841
   0.31368360  0.70671266  0.56550919
   0.31387487  0.53195307  0.12449185
   0.68525602  0.95569644  0.21201605
   0.31379094  0.20711483  0.56551463
   0.30980343  0.54029688  0.74391896
   0.68886356  0.95719690  0.56545603
   0.43857560  0.79068822  0.61056938
   0.69301509  0.61475123  0.16698031
   0.30547393  0.87306481  0.30044734
   0.31249531  0.70517708  0.47851932
   0.93852410  0.29067920  0.61057670
   0.43077336  0.62362848  0.30045691
   0.81819415  0.86416006  0.16685960
   0.56067761  0.20590776  0.21195043
   0.94255092  0.61453015  0.16675438
   0.93791267  0.79316067  0.87558758
   0.56481994  0.37185979  0.78826982
   0.06340898  0.37162200  0.52135752
   0.56336384  0.37157169  0.52133255
   0.68075435  0.12324193  0.30046373
   0.43366378  0.96229145  0.83321848
   0.19119688  0.28677672  0.12468983
   0.81495911  0.87204341  0.78833471
   0.31264225  0.37001636  0.43439843
   0.56287220  0.03209650  0.12483713
   0.43820872  0.29083735  0.61057309
   0.19107028  0.45217697  0.34505937
   0.43995799  0.28725098  0.12460167
   0.69071468  0.78745212  0.25628639
   0.43815387  0.12139684  0.52132121
   0.18775489  0.29280022  0.87554502
   0.18665020  0.12494395  0.65472304
   0.93667486  0.12472302  0.65470732
   0.31029083  0.20523772  0.21191424
   0.05883782  0.03742255  0.38910139
   0.19380355  0.11502652  0.16728611
   0.06325445  0.54056652  0.61058418
   0.94080413  0.28801406  0.25619059
   0.56331783  0.54045367  0.61061084
   0.93875971  0.95725411  0.56547122
   0.68067946  0.62368568  0.30037927
   0.93795345  0.62001049  0.43442184
   0.94025484  0.62267330  0.78839241
   0.56300610  0.70778922  0.69957544
   0.05862087  0.71243983  0.83320887
   0.93092450  0.12345214  0.30047005
   0.93828513  0.79061848  0.61057843
   0.44110320  0.78783497  0.25622004
   0.31498626  0.37214380  0.78835025
   0.43607977  0.45584827  0.21208638
   0.18845741  0.12173337  0.52122909
   0.81308571  0.70781391  0.69954685
   0.06343081  0.04052473  0.61060088
   0.55876187  0.21223883  0.83317486
   0.31348778  0.87147631  0.52122493
   0.69092871  0.28708582  0.12468895
   0.18636855  0.95607424  0.21207616
   0.68829014  0.29094594  0.61061304
   0.31338502  0.04053450  0.61058937
   0.94022418  0.12257658  0.78844214
   0.43807448  0.79322183  0.87555642
   0.80980347  0.04055541  0.74385757
   0.93787242  0.45787150  0.69951782
   0.18597859  0.62525464  0.65475599
   0.31294450  0.70810909  0.69954321
   0.93968496  0.28652882  0.12461334
   0.43782449  0.45541000  0.47855347
   0.06297774  0.70525277  0.47851518
   0.93814769  0.11978717  0.43442355
   0.43038953  0.12299165  0.30042308
   0.18792763  0.11991779  0.43453611
   0.56235152  0.04086536  0.87549220
   0.18861060  0.95675946  0.56521555
   0.69027043  0.78596661  0.12489718
   0.56297040  0.53212003  0.12460863
   0.30899947  0.03733210  0.38915994
   0.69242050  0.11438035  0.16716448
   0.80973965  0.20571850  0.21203939
   0.06593980  0.53764038  0.25623400
   0.56267004  0.70548837  0.47852525
   0.06325935  0.20709503  0.56551116
   0.55541935  0.37303924  0.30046648
   0.44081597  0.95243073  0.34498712
   0.18362785  0.96236411  0.83321796
   0.44217715  0.61346920  0.16712464
   0.93572940  0.45489610  0.21209405
   0.06353595  0.53343004  0.12453267
   0.81331256  0.37160623  0.52134628
   0.93031563  0.62352306  0.30048181
   0.31495295  0.03806748  0.25616221
   0.68841737  0.79076135  0.61060901
   0.18351076  0.46258002  0.83308270
   0.44217924  0.11412911  0.16691362
   0.31336552  0.37162917  0.52132939
   0.44006744  0.62270395  0.78835845
   0.06550161  0.03769626  0.25610569
   0.56358567  0.70721056  0.56544204
   0.93482719  0.29042634  0.74390950
   0.69024705  0.12274163  0.78842856
   0.18413421  0.45581403  0.21207509
   0.93392651  0.78752555  0.38914075
   0.68822367  0.29297011  0.87561617
   0.31836959  0.86475763  0.16710972
   0.43807871  0.45788958  0.69952269
   0.94101178  0.95253887  0.34502906
   0.68835429  0.62165446  0.52133247
   0.06101028  0.87512759  0.65471402
   0.06494679  0.87252009  0.78836322
   0.06036046  0.37498392  0.65478649
   0.68781573  0.45555444  0.47853526
   0.19060082  0.78748628  0.25626848
   0.43769578  0.11992531  0.43443019
   0.81429029  0.03381206  0.12459736
   0.93843585  0.62166163  0.52133413
   0.06274493  0.86964057  0.43442175
   0.81241536  0.53318145  0.12463959
   0.44105666  0.45250352  0.34512686
   0.81594990  0.20217496  0.34502096
   0.31620899  0.70233850  0.34506595
   0.68670281  0.12504157  0.65469312
   0.55509998  0.87294479  0.30036738
   0.05966566  0.54047920  0.74391934
   0.93539079  0.95524974  0.21195563
   0.81032964  0.70613592  0.21175233
   0.05513615  0.87290334  0.30035082
   0.18041096  0.12307661  0.30036193
   0.06600555  0.70245914  0.34505565
   0.81360908  0.04067707  0.61059957
   0.06312830  0.36970112  0.43440054
   0.56594156  0.20209648  0.34499600
   0.80527052  0.37289193  0.30042734
   0.43785679  0.95557223  0.47851266
   0.55905250  0.53711235  0.38910207
   0.06262024  0.20550648  0.47852811
   0.31496325  0.87249479  0.78837932
   0.93815698  0.95789136  0.69959711
   0.05515095  0.37320270  0.30048866
   0.68623879  0.62507963  0.65472640
   0.68889214  0.45728259  0.56543980
   0.43563692  0.95532779  0.21198599
   0.31289964  0.20552489  0.47851202
   0.43677425  0.12503285  0.65469621
   0.68793485  0.62033307  0.43440846
   0.81316561  0.20801681  0.69957138
   0.81289891  0.70553495  0.47854332
   0.81295901  0.86974332  0.43440014
   0.93757939  0.95553940  0.47851158
   0.56261759  0.20535755  0.47854117
   0.18789683  0.61988282  0.43441717
   0.30992109  0.04042429  0.74390674
   0.93599121  0.62505623  0.65469318
   0.55881262  0.71236938  0.83320685
   0.30548205  0.37297524  0.30040880
   0.55996347  0.70563257  0.21186129
   0.18775132  0.45546877  0.47853684
   0.31197381  0.04098440  0.87548562
   0.18763120  0.45777361  0.69941001
   0.81216727  0.54072306  0.87549977
   0.18385875  0.28765467  0.38914795
   0.43794248  0.62037879  0.43439939
   0.05972478  0.70585947  0.21187500
   0.56315188  0.36956656  0.43444204
   0.43835203  0.62160090  0.52131456
   0.80871074  0.71240723  0.83322350
   0.06492250  0.37205864  0.78838839
   0.43795029  0.29302387  0.87554379
   0.31292694  0.03312209  0.12469716
   0.68794174  0.12033440  0.43441174
   0.19075443  0.95243211  0.34512107
   0.05866249  0.21226283  0.83318689
   0.56332188  0.04076160  0.61058228
   0.68510338  0.45524708  0.21199417
   0.18482989  0.79030202  0.74393113
   0.18056744  0.62321977  0.30039479
   0.43386363  0.78749897  0.38910789
   0.44086193  0.28753371  0.25629770
   0.06192534  0.54097664  0.87546984
   0.55994086  0.04052532  0.74385878
   0.18787668  0.79328164  0.87556013
   0.93764947  0.45549103  0.47856994
   0.80887340  0.53734983  0.38914791
   0.81380746  0.20694521  0.56543652
   0.19033454  0.62236212  0.78848361
   0.05879349  0.53767843  0.38913839
   0.06328330  0.70805182  0.69954857
   0.31534044  0.53778862  0.25617320
   0.31034891  0.70619494  0.21179491
   0.56771002  0.86499136  0.16704952
   0.55968200  0.54056869  0.74388564
   0.69100202  0.45242638  0.34506127
   0.93815142  0.29330468  0.87557689
   0.56588645  0.03716932  0.25617924
   0.68298245  0.28762967  0.38908332
   0.31919012  0.36476509  0.16645454
   0.69138158  0.28785581  0.25622678
   0.18848402  0.95654759  0.69957696
   0.94000801  0.78846173  0.12491447
   0.19179854  0.28833875  0.25609954
   0.18773984  0.95542668  0.47852854
Direct configuration=     3
   0.06300808  0.03348547  0.12484477
   0.06321392  0.87212179  0.52142956
   0.18913106  0.12302415  0.78838150
   0.43464393  0.28745077  0.38937711
   0.30947395  0.71172530  0.83336320
   0.80964963  0.21110919  0.83333977
   0.18480840  0.78782760  0.38935829
   0.56324957  0.20677669  0.56550476
   0.06032979  0.04061609  0.74390369
   0.81339810  0.87233540  0.52153627
   0.18560928  0.29058894  0.74375400
   0.93886492  0.45329173  0.34522882
   0.93479847  0.28750080  0.38938458
   0.81181696  0.04183699  0.87537774
   0.18817578  0.79089703  0.61047278
   0.55987378  0.03725872  0.38936656
   0.93432955  0.96142531  0.83339528
   0.31180284  0.54196458  0.87529570
   0.68580645  0.29082882  0.74387634
   0.19122427  0.61534113  0.16670670
   0.81318510  0.20488035  0.47828210
   0.81328352  0.54041937  0.61047159
   0.31300584  0.87025218  0.43431442
   0.81427517  0.03722897  0.25617842
   0.68916968  0.95308252  0.34518564
   0.94175071  0.11404185  0.16672879
   0.93859115  0.12224124  0.52152610
   0.56462649  0.53786384  0.25621973
   0.68762567  0.79325767  0.87543673
   0.56753831  0.36608112  0.16683458
   0.43561003  0.79086288  0.74384749
   0.81373514  0.70670560  0.56555250
   0.56426324  0.87313633  0.78828645
   0.68826729  0.12230148  0.52153772
   0.81121089  0.37477856  0.65472863
   0.93426815  0.46137413  0.83335005
   0.06292292  0.20759014  0.69946089
   0.43807149  0.95765254  0.69948635
   0.30943490  0.21118420  0.83336672
   0.43647446  0.62487570  0.65473669
   0.31321632  0.54066659  0.61046144
   0.93867015  0.45662602  0.56555166
   0.68567048  0.79071699  0.74385853
   0.31156031  0.87496159  0.65473900
   0.68489910  0.78757363  0.38932926
   0.93563620  0.79075969  0.74387059
   0.06417487  0.20313880  0.34513192
   0.80963927  0.03751593  0.38937293
   0.43951169  0.12305963  0.78842457
   0.06145933  0.20490974  0.21189575
   0.06738121  0.36546620  0.16678598
   0.93951158  0.78804259  0.25619404
   0.56260691  0.20791321  0.69949291
   0.68790451  0.95774833  0.69953536
   0.44058107  0.78569730  0.12490706
   0.43862269  0.95695222  0.56556052
   0.81422424  0.37285874  0.78820861
   0.81783410  0.36486157  0.16680805
   0.18853452  0.45655980  0.56555697
   0.06620657  0.86506717  0.16685435
   0.18810022  0.29081226  0.61041222
   0.56432291  0.70326807  0.34510759
   0.31259930  0.20772487  0.69943425
   0.56196673  0.54193762  0.87532473
   0.06360652  0.70636121  0.56560061
   0.68943404  0.62313966  0.78829278
   0.30997826  0.53780903  0.38935995
   0.18824039  0.62251817  0.52150599
   0.56285582  0.87038848  0.43430844
   0.43858430  0.45669580  0.56553978
   0.43593514  0.29064036  0.74383725
   0.80721030  0.87266106  0.30047859
   0.81422547  0.70327400  0.34518272
   0.43448609  0.46141227  0.83334830
   0.68778254  0.95474500  0.47828934
   0.68764810  0.45772894  0.69955242
   0.56313198  0.87231746  0.52151717
   0.56108115  0.37482199  0.65471858
   0.81162662  0.87481376  0.65478150
   0.81282936  0.37041564  0.43430250
   0.81414372  0.53823094  0.25622439
   0.68450983  0.46129456  0.83338931
   0.19106700  0.78411921  0.12500322
   0.06169551  0.04168359  0.87537496
   0.31100041  0.37494444  0.65476720
   0.31425084  0.20293878  0.34510547
   0.81052817  0.54064347  0.74386372
   0.68455333  0.96138701  0.83339537
   0.56147279  0.87486722  0.65474763
   0.31352542  0.70651149  0.56557859
   0.31386756  0.53332663  0.12462433
   0.68583355  0.95549958  0.21205923
   0.31353825  0.20687765  0.56561046
   0.31047889  0.54050758  0.74382942
   0.68858747  0.95688701  0.56553635
   0.43835038  0.79066242  0.61040309
   0.69238174  0.61622482  0.16686077
   0.30743798  0.87255768  0.30042750
   0.31271380  0.70450007  0.47826571
   0.93824498  0.29077738  0.61045390
   0.43276083  0.62278206  0.30048955
   0.81798974  0.86510464  0.16684484
   0.56111441  0.20481034  0.21189824
   0.94157852  0.61627107  0.16682776
   0.93735895  0.79312156  0.87544630
   0.56417831  0.37278523  0.78822285
   0.06332508  0.37226157  0.52155507
   0.56316325  0.37220909  0.52153683
   0.68250005  0.12255269  0.30048531
   0.43438420  0.96145312  0.83341519
   0.19099860  0.28536649  0.12476761
   0.81420806  0.87302172  0.78831044
   0.31285708  0.37045737  0.43431818
   0.56372490  0.03278120  0.12489032
   0.43803748  0.29079375  0.61044917
   0.18930101  0.45278935  0.34519317
   0.44007208  0.28545841  0.12475779
   0.68943625  0.78752044  0.25625187
   0.43789533  0.12228511  0.52151255
   0.18736287  0.29227972  0.87540914
   0.18674486  0.12487669  0.65473095
   0.93696963  0.12472309  0.65475679
   0.31106725  0.20457124  0.21191840
   0.05968487  0.03719417  0.38936521
   0.19248340  0.11579446  0.16714707
   0.06315346  0.54053575  0.61046440
   0.93933716  0.28793373  0.25618390
   0.56323654  0.54044837  0.61046402
   0.93862257  0.95692066  0.56557202
   0.68248040  0.62297037  0.30038754
   0.93774903  0.62032326  0.43431249
   0.93932025  0.62330695  0.78833284
   0.56262456  0.70758931  0.69950974
   0.05936072  0.71168672  0.83335108
   0.93247919  0.12251511  0.30044262
   0.93816632  0.79058046  0.61041308
   0.43969960  0.78776737  0.25615925
   0.31408751  0.37280257  0.78828476
   0.43657574  0.45520144  0.21200808
   0.18817571  0.12247935  0.52143830
   0.81298708  0.70759235  0.69951972
   0.06340475  0.04069478  0.61045193
   0.55960481  0.21115030  0.83333064
   0.31334092  0.87202613  0.52144578
   0.69098315  0.28558034  0.12480611
   0.18657067  0.95547616  0.21204220
   0.68809734  0.29081311  0.61048999
   0.31313659  0.04075110  0.61044799
   0.93922949  0.12305942  0.78842016
   0.43769338  0.79316371  0.87544240
   0.81044830  0.04076619  0.74386521
   0.93759326  0.45752550  0.69950963
   0.18644363  0.62494916  0.65476901
   0.31288853  0.70765450  0.69946688
   0.93972287  0.28524350  0.12476936
   0.43797776  0.45498317  0.47832731
   0.06292206  0.70456438  0.47826336
   0.93784065  0.12027717  0.43427589
   0.43259184  0.12254349  0.30046018
   0.18789191  0.12042565  0.43435231
   0.56210227  0.04173207  0.87538445
   0.18857910  0.95675511  0.56526354
   0.68969302  0.78404938  0.12496920
   0.56385235  0.53361771  0.12472692
   0.30982567  0.03704600  0.38940599
   0.69162833  0.11518297  0.16709985
   0.81067532  0.20470359  0.21192228
   0.06429369  0.53807184  0.25622117
   0.56236722  0.70476127  0.47824177
   0.06339668  0.20684936  0.56559695
   0.55738575  0.37286279  0.30054825
   0.43927816  0.95304635  0.34504959
   0.18425705  0.96148437  0.83337197
   0.44166393  0.61489294  0.16699856
   0.93613224  0.45451361  0.21201972
   0.06458487  0.53422956  0.12464971
   0.81344074  0.37218449  0.52155870
   0.93223343  0.62279940  0.30051355
   0.31436709  0.03726215  0.25617041
   0.68824593  0.79062919  0.61045319
   0.18421284  0.46152621  0.83327353
   0.44153121  0.11523544  0.16686747
   0.31322919  0.37217965  0.52153218
   0.43921101  0.62336641  0.78830150
   0.06407375  0.03734546  0.25613016
   0.56346147  0.70676089  0.56553364
   0.93541368  0.29070880  0.74385617
   0.68945772  0.12307563  0.78835112
   0.18557613  0.45559706  0.21204228
   0.93483238  0.78745590  0.38934603
   0.68771857  0.29247955  0.87546883
   0.31775154  0.86549128  0.16691030
   0.43769832  0.45753058  0.69949271
   0.93906742  0.95315122  0.34506529
   0.68826580  0.62235218  0.52155443
   0.06149782  0.87497108  0.65475365
   0.06409093  0.87316187  0.78833906
   0.06113039  0.37486403  0.65477699
   0.68774208  0.45487104  0.47824942
   0.18945429  0.78757405  0.25619707
   0.43757502  0.12029702  0.43430670
   0.81409396  0.03493135  0.12476106
   0.93852534  0.62234031  0.52152753
   0.06256296  0.87009802  0.43431843
   0.81281442  0.53412291  0.12469355
   0.43948013  0.45318021  0.34519598