       N       E                     dE             d eps       ncg     rms          rms(c)
DAV:   1     0.302122175193E+05    0.30212E+05   -0.91142E+05 13790   0.214E+03
DAV:   2     0.155288432809E+04   -0.28659E+05   -0.28076E+05 13700   0.616E+02
DAV:   3    -0.188916230782E+04   -0.34420E+04   -0.30005E+04 19130   0.299E+02
DAV:   4    -0.261645559896E+04   -0.72729E+03   -0.66389E+03 25120   0.105E+02
DAV:   5    -0.274871508876E+04   -0.13226E+03   -0.12375E+03 23900   0.429E+01    0.208E+02
RMM:   6    -0.624311024326E+04   -0.34944E+04   -0.13835E+04 23827   0.263E+02    0.723E+02
RMM:   7    -0.492523103618E+04    0.13179E+04   -0.55709E+03 24762   0.109E+02    0.485E+02
RMM:   8    -0.989915479164E+04   -0.49739E+04   -0.24800E+04 24372   0.409E+02    0.126E+03
RMM:   9    -0.118465878100E+05   -0.19474E+04   -0.22964E+04 24683   0.215E+02    0.105E+03
RMM:  10    -0.957486276414E+04    0.22717E+04   -0.10696E+04 24497   0.183E+02    0.828E+02
RMM:  11    -0.798947587866E+04    0.15854E+04   -0.72801E+03 18317   0.160E+02    0.592E+02
RMM:  12    -0.746889490798E+04    0.52058E+03   -0.82158E+03 17070   0.274E+02    0.671E+02
RMM:  13    -0.466741943160E+04    0.28015E+04   -0.36825E+03 21443   0.120E+02    0.432E+02
RMM:  14    -0.578322119802E+04   -0.11158E+04   -0.24600E+03 16387   0.123E+02    0.456E+02
RMM:  15    -0.321932257070E+04    0.25639E+04   -0.26946E+03 13704   0.126E+02    0.317E+02
RMM:  16    -0.370321693899E+04   -0.48389E+03   -0.25919E+03 18229   0.841E+01    0.333E+02
RMM:  17    -0.270846861674E+04    0.99475E+03   -0.10004E+03 14055   0.652E+01    0.262E+02
RMM:  18    -0.262805243543E+04    0.80416E+02   -0.47656E+02 14488   0.433E+01    0.221E+02
RMM:  19    -0.242887353556E+04    0.19918E+03   -0.94038E+02 20407   0.315E+01    0.145E+02
RMM:  20    -0.238520622690E+04    0.43667E+02   -0.63041E+02 20250   0.250E+01    0.111E+02
RMM:  21    -0.239497796263E+04   -0.97717E+01   -0.50346E+02 21037   0.196E+01    0.901E+01
RMM:  22    -0.239628811370E+04   -0.13102E+01   -0.27944E+02 18497   0.158E+01    0.959E+01
RMM:  23    -0.241220501284E+04   -0.15917E+02   -0.20607E+02 17812   0.138E+01    0.877E+01
RMM:  24    -0.236674706873E+04    0.45458E+02   -0.59726E+01 19547   0.766E+00    0.707E+01
RMM:  25    -0.236186890935E+04    0.48782E+01   -0.39222E+01 15609   0.839E+00    0.692E+01
RMM:  26    -0.235483395939E+04    0.70349E+01   -0.54082E+01 20767   0.537E+00    0.595E+01
RMM:  27    -0.235400443355E+04    0.82953E+00   -0.29408E+01 16234   0.644E+00    0.598E+01
RMM:  28    -0.235704331106E+04   -0.30389E+01   -0.21910E+01 16472   0.613E+00    0.593E+01
RMM:  29    -0.235305058620E+04    0.39927E+01   -0.15052E+01 19910   0.313E+00    0.549E+01
RMM:  30    -0.235291806564E+04    0.13252E+00   -0.61686E+00 16797   0.266E+00    0.554E+01
RMM:  31    -0.235010687077E+04    0.28112E+01   -0.38098E+00 21367   0.128E+00    0.523E+01
RMM:  32    -0.234869622162E+04    0.14106E+01   -0.53021E+00 14885   0.400E+00    0.509E+01
RMM:  33    -0.234694103204E+04    0.17552E+01   -0.67291E+00 19272   0.281E+00    0.467E+01
RMM:  34    -0.234582630572E+04    0.11147E+01   -0.29133E+00 20389   0.141E+00    0.452E+01
RMM:  35    -0.234587722738E+04   -0.50922E-01   -0.16685E+00 15427   0.210E+00    0.456E+01
RMM:  36    -0.234340020969E+04    0.24770E+01   -0.25402E+00 16745   0.206E+00    0.417E+01
RMM:  37    -0.234005768099E+04    0.33425E+01   -0.27128E+00 14068   0.336E+00    0.356E+01
RMM:  38    -0.233773612839E+04    0.23216E+01   -0.51600E+00 15510   0.357E+00    0.321E+01
RMM:  39    -0.233735024446E+04    0.38588E+00   -0.46221E+00 16681   0.314E+00    0.292E+01
RMM:  40    -0.233675073505E+04    0.59951E+00   -0.26065E+00 19539   0.185E+00    0.263E+01
RMM:  41    -0.233679414315E+04   -0.43408E-01   -0.10745E+00 17760   0.124E+00    0.260E+01
RMM:  42    -0.233701500849E+04   -0.22087E+00   -0.99308E-01 18359   0.116E+00    0.262E+01
RMM:  43    -0.233693682374E+04    0.78185E-01   -0.38574E-01 15541   0.965E-01    0.259E+01
RMM:  44    -0.233641029261E+04    0.52653E+00   -0.89290E-01 15374   0.154E+00    0.251E+01
RMM:  45    -0.233580271238E+04    0.60758E+00   -0.88893E-01 15241   0.157E+00    0.251E+01
RMM:  46    -0.233551450204E+04    0.28821E+00   -0.83718E-01 17181   0.116E+00    0.246E+01
RMM:  47    -0.233520035136E+04    0.31415E+00   -0.64477E-01 20146   0.799E-01    0.232E+01
RMM:  48    -0.233504534858E+04    0.15500E+00   -0.39156E-01 18742   0.641E-01    0.225E+01
RMM:  49    -0.233498487879E+04    0.60470E-01   -0.23035E-01 18541   0.525E-01    0.221E+01
RMM:  50    -0.233498464417E+04    0.23463E-03   -0.11823E-01 16105   0.462E-01    0.222E+01
RMM:  51    -0.237383642043E+04   -0.38852E+02   -0.21665E+01 14801   0.838E+00    0.766E+01
RMM:  52    -0.237044129040E+04    0.33951E+01   -0.17977E+01 15862   0.649E+00    0.758E+01
RMM:  53    -0.236992482075E+04    0.51647E+00   -0.11726E+01 15952   0.517E+00    0.751E+01
RMM:  54    -0.236494061612E+04    0.49842E+01   -0.68637E+00 16202   0.395E+00    0.697E+01
RMM:  55    -0.235991408104E+04    0.50265E+01   -0.42131E+00 14541   0.390E+00    0.637E+01
RMM:  56    -0.236335689705E+04   -0.34428E+01   -0.18878E+01 14749   0.775E+00    0.723E+01
RMM:  57    -0.235160341030E+04    0.11753E+02   -0.18566E+01 17530   0.553E+00    0.558E+01
RMM:  58    -0.234476373457E+04    0.68397E+01   -0.65230E+00 15403   0.412E+00    0.450E+01
RMM:  59    -0.234331887324E+04    0.14449E+01   -0.45246E+00 13877   0.456E+00    0.422E+01
RMM:  60    -0.234039137781E+04    0.29275E+01   -0.69415E+00 13755   0.552E+00    0.339E+01
RMM:  61    -0.234443370865E+04   -0.40423E+01   -0.15947E+01 14346   0.762E+00    0.432E+01
RMM:  62    -0.234531234355E+04   -0.87863E+00   -0.87882E+00 15454   0.459E+00    0.457E+01
RMM:  63    -0.234624300562E+04   -0.93066E+00   -0.66674E+00 19097   0.285E+00    0.476E+01
RMM:  64    -0.234645591190E+04   -0.21291E+00   -0.26911E+00 15197   0.275E+00    0.478E+01
RMM:  65    -0.234481936653E+04    0.16365E+01   -0.26936E+00 16203   0.248E+00    0.443E+01
RMM:  66    -0.233861038431E+04    0.62090E+01   -0.38717E+00 13724   0.408E+00    0.283E+01
RMM:  67    -0.233701696909E+04    0.15934E+01   -0.48016E+00 13736   0.476E+00    0.220E+01
RMM:  68    -0.233513992708E+04    0.18770E+01   -0.23655E+00 13796   0.353E+00    0.130E+01
RMM:  69    -0.233502789243E+04    0.11203E+00   -0.28828E+00 17118   0.208E+00    0.110E+01
RMM:  70    -0.233483853116E+04    0.18936E+00   -0.11707E+00 17287   0.141E+00    0.888E+00
RMM:  71    -0.233571655692E+04   -0.87803E+00   -0.11380E+00 13986   0.219E+00    0.155E+01
RMM:  72    -0.233483353181E+04    0.88303E+00   -0.47835E-01 13985   0.161E+00    0.874E+00
RMM:  73    -0.233484800737E+04   -0.14476E-01   -0.36563E-01 14251   0.129E+00    0.911E+00
RMM:  74    -0.233501305840E+04   -0.16505E+00   -0.30455E-01 14265   0.112E+00    0.104E+01
RMM:  75    -0.233480090295E+04    0.21216E+00   -0.17192E-01 14893   0.721E-01    0.826E+00
RMM:  76    -0.233498119004E+04   -0.18029E+00   -0.56531E-01 13852   0.155E+00    0.104E+01
RMM:  77    -0.233481546069E+04    0.16573E+00   -0.31458E-01 13701   0.151E+00    0.855E+00
RMM:  78    -0.233478467844E+04    0.30782E-01   -0.11844E-01 14381   0.682E-01    0.821E+00
RMM:  79    -0.233469792878E+04    0.86750E-01   -0.10132E-01 17138   0.377E-01    0.720E+00
RMM:  80    -0.233462495249E+04    0.72976E-01   -0.68701E-02 15359   0.419E-01    0.626E+00
RMM:  81    -0.233465962716E+04   -0.34675E-01   -0.24137E-01 14101   0.983E-01    0.671E+00
RMM:  82    -0.233452665661E+04    0.13297E+00   -0.10265E-01 13731   0.815E-01    0.463E+00
RMM:  83    -0.233449416991E+04    0.32487E-01   -0.96917E-02 14469   0.595E-01    0.389E+00
RMM:  84    -0.233448073431E+04    0.13436E-01   -0.65720E-02 14230   0.528E-01    0.344E+00
RMM:  85    -0.233448413850E+04   -0.34042E-02   -0.77316E-02 14245   0.552E-01    0.342E+00
RMM:  86    -0.233451914654E+04   -0.35008E-01   -0.13188E-01 13710   0.820E-01    0.419E+00
RMM:  87    -0.233445298748E+04    0.66159E-01   -0.74727E-02 13700   0.680E-01    0.227E+00
RMM:  88    -0.233444281445E+04    0.10173E-01   -0.46724E-02 14187   0.434E-01    0.185E+00
RMM:  89    -0.233445057421E+04   -0.77598E-02   -0.57039E-02 15843   0.351E-01    0.203E+00
RMM:  90    -0.233444835749E+04    0.22167E-02   -0.22540E-02 14571   0.287E-01    0.191E+00
RMM:  91    -0.233443820451E+04    0.10153E-01   -0.31371E-02 15716   0.270E-01    0.127E+00
RMM:  92    -0.233443105228E+04    0.71522E-02   -0.89709E-03 13770   0.226E-01    0.644E-01
RMM:  93    -0.233443080144E+04    0.25084E-03   -0.98315E-03 17186   0.120E-01    0.546E-01
RMM:  94    -0.233443039005E+04    0.41139E-03   -0.35195E-03 15359   0.956E-02    0.427E-01
RMM:  95    -0.233443038356E+04    0.64876E-05   -0.29190E-03 17459   0.644E-02    0.371E-01
RMM:  96    -0.233443045110E+04   -0.67535E-04   -0.23385E-03 16599   0.649E-02    0.336E-01
RMM:  97    -0.233443066733E+04   -0.21623E-03   -0.13433E-03 15050   0.642E-02    0.362E-01
RMM:  98    -0.233443051530E+04    0.15203E-03   -0.99192E-04 15727   0.488E-02    0.295E-01
RMM:  99    -0.233443033813E+04    0.17717E-03   -0.46994E-04 14485   0.433E-02    0.209E-01
RMM: 100    -0.233443026694E+04    0.71188E-04   -0.34110E-04 14932   0.327E-02    0.136E-01
RMM: 101    -0.233443060088E+04   -0.33394E-03   -0.49346E-04 14582   0.423E-02    0.274E-01
RMM: 102    -0.233443050566E+04    0.95228E-04   -0.32972E-04 14209   0.363E-02    0.197E-01
RMM: 103    -0.233443039535E+04    0.11030E-03   -0.18444E-04 14197   0.264E-02    0.905E-02
RMM: 104    -0.233443038556E+04    0.97989E-05   -0.12125E-04 12674   0.157E-02    0.542E-02
RMM: 105    -0.233443040651E+04   -0.20951E-04   -0.56570E-05 10738   0.112E-02    0.475E-02
RMM: 106    -0.233443047987E+04   -0.73367E-04   -0.79297E-05 12083   0.152E-02    0.778E-02
RMM: 107    -0.233443046605E+04    0.13822E-04   -0.26608E-05  8836   0.129E-02    0.302E-02
RMM: 108    -0.233443050574E+04   -0.39689E-04   -0.15290E-05  8448   0.692E-03    0.254E-02
RMM: 109    -0.233443053637E+04   -0.30624E-04   -0.13456E-05  7893   0.804E-03    0.211E-02
RMM: 110    -0.233443056453E+04   -0.28160E-04   -0.10432E-05  7737   0.544E-03    0.250E-02
RMM: 111    -0.233443056129E+04    0.32403E-05   -0.93279E-06  7685   0.663E-03
   1 F= -.23344306E+04 E0= -.23316851E+04  d E =-.233443E+04
       N       E                     dE             d eps       ncg     rms          rms(c)
DAV:   1    -0.233443103945E+04   -0.47492E-03   -0.11610E-01 15220   0.359E-01    0.611E-02
RMM:   2    -0.233443646609E+04   -0.54266E-02   -0.26105E-03 13825   0.103E-01    0.983E-01
RMM:   3    -0.233443478262E+04    0.16835E-02   -0.16036E-03 20520   0.369E-02    0.791E-01
RMM:   4    -0.233443210186E+04    0.26808E-02   -0.57943E-04 13690   0.551E-02    0.397E-01
RMM:   5    -0.233443292652E+04   -0.82466E-03   -0.58794E-04 17960   0.305E-02    0.545E-01
RMM:   6    -0.233443160017E+04    0.13263E-02   -0.42015E-04 15761   0.322E-02    0.240E-01
RMM:   7    -0.233443187296E+04   -0.27279E-03   -0.58105E-04 13848   0.459E-02    0.341E-01
RMM:   8    -0.233443197653E+04   -0.10358E-03   -0.52215E-04 17028   0.301E-02    0.372E-01
RMM:   9    -0.233443128924E+04    0.68730E-03   -0.18468E-04 13551   0.317E-02    0.813E-02
RMM:  10    -0.233443126212E+04    0.27113E-04   -0.13511E-04 13945   0.179E-02    0.664E-02
RMM:  11    -0.233443130429E+04   -0.42171E-04   -0.12723E-04 13609   0.165E-02    0.966E-02
RMM:  12    -0.233443129616E+04    0.81321E-05   -0.57403E-05 10669   0.147E-02
   2 F= -.23344313E+04 E0= -.23316860E+04  d E =-.734877E-03
       N       E                     dE             d eps       ncg     rms          rms(c)
DAV:   1    -0.233443086210E+04    0.44219E-03   -0.10445E+00 14380   0.108E+00    0.179E-01
RMM:   2    -0.233446052145E+04   -0.29659E-01   -0.21676E-02 13791   0.299E-01    0.227E+00
RMM:   3    -0.233446213832E+04   -0.16169E-02   -0.11615E-02 20403   0.102E-01    0.233E+00
RMM:   4    -0.233445224117E+04    0.98971E-02   -0.41321E-03 13726   0.145E-01    0.187E+00
RMM:   5    -0.233443503540E+04    0.17206E-01   -0.27992E-03 16689   0.807E-02    0.693E-01
RMM:   6    -0.233444425982E+04   -0.92244E-02   -0.61315E-03 16109   0.111E-01    0.152E+00
RMM:   7    -0.233443861478E+04    0.56450E-02   -0.58340E-03 15187   0.128E-01    0.105E+00
RMM:   8    -0.233443637467E+04    0.22401E-02   -0.29376E-03 13715   0.111E-01    0.841E-01
RMM:   9    -0.233443276165E+04    0.36130E-02   -0.12763E-03 13718   0.818E-02    0.346E-01
RMM:  10    -0.233443226776E+04    0.49389E-03   -0.10679E-03 16735   0.433E-02    0.193E-01
RMM:  11    -0.233443253152E+04   -0.26376E-03   -0.93266E-04 14542   0.543E-02    0.289E-01
RMM:  12    -0.233443218630E+04    0.34522E-03   -0.36653E-04 13795   0.432E-02    0.134E-01
RMM:  13    -0.233443211023E+04    0.76070E-04   -0.16881E-04 13954   0.276E-02    0.788E-02
RMM:  14    -0.233443213221E+04   -0.21988E-04   -0.19414E-04 15056   0.195E-02    0.901E-02
RMM:  15    -0.233443212698E+04    0.52328E-05   -0.95526E-05 12499   0.185E-02
   3 F= -.23344321E+04 E0= -.23316872E+04  d E =-.156570E-02
       N       E                     dE             d eps       ncg     rms          rms(c)
DAV:   1    -0.233443230515E+04   -0.17294E-03   -0.21816E-01 14440   0.494E-01    0.835E-02
RMM:   2    -0.233443658414E+04   -0.42790E-02   -0.48789E-03 13743   0.153E-01    0.854E-01
RMM:   3    -0.233443921369E+04   -0.26296E-02   -0.20623E-03 19781   0.457E-02    0.110E+00
RMM:   4    -0.233443728160E+04    0.19321E-02   -0.84506E-04 13839   0.622E-02    0.920E-01
RMM:   5    -0.233443417776E+04    0.31038E-02   -0.80391E-04 16238   0.427E-02    0.513E-01
RMM:   6    -0.233443316795E+04    0.10098E-02   -0.87161E-04 13764   0.576E-02    0.323E-01
RMM:   7    -0.233443451921E+04   -0.13513E-02   -0.18642E-03 18129   0.521E-02    0.591E-01
RMM:   8    -0.233443398235E+04    0.53686E-03   -0.88618E-04 14386   0.527E-02    0.495E-01
RMM:   9    -0.233443309567E+04    0.88668E-03   -0.41728E-04 13614   0.424E-02    0.303E-01
RMM:  10    -0.233443259815E+04    0.49751E-03   -0.21228E-04 13591   0.339E-02    0.935E-02
RMM:  11    -0.233443258960E+04    0.85538E-05   -0.23157E-04 15198   0.230E-02    0.881E-02
RMM:  12    -0.233443261917E+04   -0.29569E-04   -0.28507E-04 16716   0.212E-02    0.992E-02
RMM:  13    -0.233443257553E+04    0.43637E-04   -0.78675E-05 12057   0.171E-02    0.505E-02
RMM:  14    -0.233443257321E+04    0.23260E-05   -0.42168E-05  9882   0.940E-03
   4 F= -.23344326E+04 E0= -.23316878E+04  d E =-.446224E-03
       N       E                     dE             d eps       ncg     rms          rms(c)
DAV:   1    -0.233443194585E+04    0.62968E-03   -0.10271E+00 13980   0.107E+00    0.161E-01
RMM:   2    -0.233445984646E+04   -0.27901E-01   -0.17467E-02 13869   0.279E-01    0.223E+00
RMM:   3    -0.233444213747E+04    0.17709E-01   -0.65495E-03 19222   0.102E-01    0.123E+00
RMM:   4    -0.233444880303E+04   -0.66656E-02   -0.24591E-03 13707   0.113E-01    0.170E+00
RMM:   5    -0.233443526054E+04    0.13542E-01   -0.20903E-03 18932   0.512E-02    0.570E-01
RMM:   6    -0.233444050892E+04   -0.52484E-02   -0.45853E-03 14179   0.128E-01    0.114E+00
RMM:   7    -0.233443894647E+04    0.15624E-02   -0.37921E-03 16079   0.965E-02    0.105E+00
RMM:   8    -0.233443592979E+04    0.30167E-02   -0.16336E-03 13716   0.888E-02    0.710E-01
RMM:   9    -0.233443331850E+04    0.26113E-02   -0.72866E-04 13735   0.598E-02    0.237E-01
RMM:  10    -0.233443322857E+04    0.89926E-04   -0.68414E-04 15929   0.416E-02    0.218E-01
RMM:  11    -0.233443325286E+04   -0.24293E-04   -0.62614E-04 14960   0.407E-02    0.218E-01
RMM:  12    -0.233443313132E+04    0.12154E-03   -0.36836E-04 14221   0.363E-02    0.157E-01
RMM:  13    -0.233443302055E+04    0.11077E-03   -0.15852E-04 13643   0.263E-02    0.826E-02
RMM:  14    -0.233443301089E+04    0.96601E-05   -0.14304E-04 13804   0.146E-02    0.651E-02
RMM:  15    -0.233443300935E+04    0.15460E-05   -0.73868E-05 11982   0.149E-02
   5 F= -.23344330E+04 E0= -.23316883E+04  d E =-.882364E-03
       N       E                     dE             d eps       ncg     rms          rms(c)
DAV:   1    -0.233443308474E+04   -0.73844E-04   -0.39239E-01 14040   0.661E-01    0.101E-01
RMM:   2    -0.233444180835E+04   -0.87236E-02   -0.72092E-03 13815   0.190E-01    0.124E+00
RMM:   3    -0.233444049138E+04    0.13170E-02   -0.27607E-03 19466   0.625E-02    0.111E+00
RMM:   4    -0.233444651007E+04   -0.60187E-02   -0.97531E-04 14414   0.582E-02    0.155E+00
RMM:   5    -0.233443572783E+04    0.10782E-01   -0.88383E-04 13770   0.593E-02    0.583E-01
RMM:   6    -0.233443497942E+04    0.74841E-03   -0.11014E-03 14625   0.585E-02    0.527E-01
RMM:   7    -0.233443709593E+04   -0.21165E-02   -0.29445E-03 15947   0.785E-02    0.807E-01
RMM:   8    -0.233443451709E+04    0.25788E-02   -0.13165E-03 14142   0.701E-02    0.395E-01
RMM:   9    -0.233443368641E+04    0.83067E-03   -0.52869E-04 13696   0.544E-02    0.214E-01
RMM:  10    -0.233443350695E+04    0.17946E-03   -0.22852E-04 13869   0.299E-02    0.123E-01
RMM:  11    -0.233443349622E+04    0.10737E-04   -0.28644E-04 15691   0.229E-02    0.110E-01
RMM:  12    -0.233443350073E+04   -0.45173E-05   -0.24800E-04 15832   0.227E-02    0.107E-01
RMM:  13    -0.233443345750E+04    0.43235E-04   -0.77200E-05 11907   0.186E-02    0.649E-02
RMM:  14    -0.233443344624E+04    0.11254E-04   -0.39914E-05  9813   0.107E-02    0.483E-02
RMM:  15    -0.233443344211E+04    0.41344E-05   -0.23867E-05  8109   0.988E-03
   6 F= -.23344334E+04 E0= -.23316887E+04  d E =-.432765E-03
       N       E                     dE             d eps       ncg     rms          rms(c)
DAV:   1    -0.233443198813E+04    0.14581E-02   -0.22975E+00 13780   0.160E+00    0.235E-01
RMM:   2    -0.233456675296E+04   -0.13476E+00   -0.41141E-02 13995   0.431E-01    0.493E+00
RMM:   3    -0.233445001640E+04    0.11674E+00   -0.13399E-02 17656   0.175E-01    0.151E+00
RMM:   4    -0.233446558919E+04   -0.15573E-01   -0.58989E-03 13708   0.180E-01    0.240E+00
RMM:   5    -0.233444212208E+04    0.23467E-01   -0.44316E-03 19143   0.766E-02    0.114E+00
RMM:   6    -0.233444992344E+04   -0.78014E-02   -0.93749E-03 14440   0.168E-01    0.166E+00
RMM:   7    -0.233444326697E+04    0.66565E-02   -0.68958E-03 13858   0.167E-01    0.125E+00
RMM:   8    -0.233444330270E+04   -0.35722E-04   -0.31923E-03 13783   0.118E-01    0.130E+00
RMM:   9    -0.233443466059E+04    0.86421E-02   -0.13632E-03 13720   0.910E-02    0.285E-01
RMM:  10    -0.233443430359E+04    0.35700E-03   -0.81966E-04 13812   0.615E-02    0.265E-01
RMM:  11    -0.233443458692E+04   -0.28333E-03   -0.12011E-03 14955   0.562E-02    0.342E-01
RMM:  12    -0.233443423282E+04    0.35410E-03   -0.61197E-04 14029   0.491E-02    0.221E-01
RMM:  13    -0.233443399854E+04    0.23428E-03   -0.27135E-04 13756   0.374E-02    0.107E-01
RMM:  14    -0.233443397259E+04    0.25947E-04   -0.21747E-04 15198   0.203E-02    0.788E-02
RMM:  15    -0.233443398220E+04   -0.96066E-05   -0.15697E-04 14547   0.182E-02    0.837E-02
RMM:  16    -0.233443394943E+04    0.32769E-04   -0.46638E-05 10055   0.155E-02    0.362E-02
RMM:  17    -0.233443394604E+04    0.33894E-05   -0.20299E-05  8486   0.901E-03
   7 F= -.23344339E+04 E0= -.23316886E+04  d E =-.936694E-03
       N       E                     dE             d eps       ncg     rms          rms(c)
DAV:   1    -0.233443408317E+04   -0.13374E-03   -0.40646E-01 13900   0.672E-01    0.951E-02
RMM:   2    -0.233444090832E+04   -0.68251E-02   -0.60073E-03 13932   0.168E-01    0.110E+00
RMM:   3    -0.233443874043E+04    0.21679E-02   -0.19804E-03 19493   0.484E-02    0.869E-01
RMM:   4    -0.233443969311E+04   -0.95267E-03   -0.87789E-04 13739   0.639E-02    0.971E-01
RMM:   5    -0.233443556081E+04    0.41323E-02   -0.66881E-04 15688   0.419E-02    0.414E-01
RMM:   6    -0.233443742167E+04   -0.18609E-02   -0.16791E-03 14987   0.658E-02    0.728E-01
RMM:   7    -0.233443706368E+04    0.35799E-03   -0.14891E-03 14994   0.653E-02    0.705E-01
RMM:   8    -0.233443552415E+04    0.15395E-02   -0.80399E-04 14141   0.530E-02    0.420E-01
RMM:   9    -0.233443469204E+04    0.83211E-03   -0.41353E-04 13662   0.482E-02    0.213E-01
RMM:  10    -0.233443446732E+04    0.22472E-03   -0.21700E-04 14462   0.273E-02    0.102E-01
RMM:  11    -0.233443447880E+04   -0.11482E-04   -0.24378E-04 15844   0.212E-02    0.106E-01
RMM:  12    -0.233443446549E+04    0.13309E-04   -0.13512E-04 13845   0.197E-02    0.892E-02
RMM:  13    -0.233443442826E+04    0.37238E-04   -0.45998E-05  9951   0.150E-02    0.470E-02
RMM:  14    -0.233443442462E+04    0.36317E-05   -0.23394E-05  8443   0.905E-03
   8 F= -.23344344E+04 E0= -.23316893E+04  d E =-.478585E-03
       N       E                     dE             d eps       ncg     rms          rms(c)
DAV:   1    -0.233443252956E+04    0.18987E-02   -0.36571E+00 13700   0.202E+00    0.275E-01
RMM:   2    -0.233456376875E+04   -0.13124E+00   -0.54236E-02 13951   0.511E-01    0.486E+00
RMM:   3    -0.233444935124E+04    0.11442E+00   -0.13205E-02 17823   0.178E-01    0.140E+00
RMM:   4    -0.233453763786E+04   -0.88287E-01   -0.59460E-03 14229   0.146E-01    0.432E+00
RMM:   5    -0.233444684064E+04    0.90797E-01   -0.59075E-03 14271   0.141E-01    0.120E+00
RMM:   6    -0.233446500630E+04   -0.18166E-01   -0.15376E-02 14292   0.224E-01    0.224E+00
RMM:   7    -0.233445539589E+04    0.96104E-02   -0.99625E-03 13856   0.205E-01    0.186E+00
RMM:   8    -0.233444324361E+04    0.12152E-01   -0.41540E-03 13759   0.136E-01    0.112E+00
RMM:   9    -0.233443637266E+04    0.68709E-02   -0.20931E-03 13722   0.115E-01    0.369E-01
RMM:  10    -0.233443617965E+04    0.19301E-03   -0.14205E-03 14064   0.746E-02    0.363E-01
RMM:  11    -0.233443638452E+04   -0.20488E-03   -0.18495E-03 15385   0.703E-02    0.395E-01
RMM:  12    -0.233443570295E+04    0.68158E-03   -0.65988E-04 13705   0.580E-02    0.190E-01
RMM:  13    -0.233443554768E+04    0.15527E-03   -0.33259E-04 14513   0.327E-02    0.107E-01
RMM:  14    -0.233443556429E+04   -0.16605E-04   -0.32403E-04 17316   0.202E-02    0.111E-01
RMM:  15    -0.233443553065E+04    0.33638E-04   -0.11713E-04 13523   0.203E-02    0.703E-02
RMM:  16    -0.233443551084E+04    0.19805E-04   -0.48634E-05 10545   0.152E-02    0.421E-02
RMM:  17    -0.233443551031E+04    0.53586E-06   -0.25708E-05  8719   0.973E-03
   9 F= -.23344355E+04 E0= -.23316905E+04  d E =-.156427E-02
       N       E                     dE             d eps       ncg     rms          rms(c)
DAV:   1    -0.233442418044E+04    0.11330E-01   -0.14626E+01 13700   0.403E+00    0.548E-01
RMM:   2    -0.233471271108E+04   -0.28853E+00   -0.20789E-01 13948   0.101E+00    0.717E+00
RMM:   3    -0.233449492622E+04    0.21778E+00   -0.53185E-02 18983   0.312E-01    0.303E+00
RMM:   4    -0.233482428737E+04   -0.32936E+00   -0.23848E-02 14192   0.293E-01    0.835E+00
RMM:   5    -0.233447114121E+04    0.35315E+00   -0.21605E-02 14542   0.264E-01    0.207E+00
RMM:   6    -0.233456423264E+04   -0.93091E-01   -0.68189E-02 14648   0.441E-01    0.478E+00
RMM:   7    -0.233449938934E+04    0.64843E-01   -0.34178E-02 13863   0.380E-01    0.328E+00
RMM:   8    -0.233446694410E+04    0.32445E-01   -0.15938E-02 13769   0.265E-01    0.224E+00
RMM:   9    -0.233444021377E+04    0.26730E-01   -0.77405E-03 13737   0.214E-01    0.786E-01
RMM:  10    -0.233444035420E+04   -0.14042E-03   -0.73222E-03 14303   0.161E-01    0.860E-01
RMM:  11    -0.233444053677E+04   -0.18257E-03   -0.74929E-03 15111   0.144E-01    0.854E-01
RMM:  12    -0.233443707846E+04    0.34583E-02   -0.25474E-03 13704   0.119E-01    0.366E-01
RMM:  13    -0.233443657354E+04    0.50492E-03   -0.15053E-03 15224   0.611E-02    0.236E-01
RMM:  14    -0.233443665418E+04   -0.80640E-04   -0.13175E-03 17636   0.445E-02    0.248E-01
RMM:  15    -0.233443642368E+04    0.23049E-03   -0.42999E-04 14211   0.403E-02    0.124E-01
RMM:  16    -0.233443637372E+04    0.49964E-04   -0.27868E-04 15348   0.260E-02    0.796E-02
RMM:  17    -0.233443638749E+04   -0.13767E-04   -0.21626E-04 15461   0.189E-02    0.833E-02
RMM:  18    -0.233443638099E+04    0.64936E-05   -0.10389E-04 13000   0.186E-02    0.716E-02
RMM:  19    -0.233443635943E+04    0.21558E-04   -0.42287E-05 10073   0.138E-02    0.352E-02
RMM:  20    -0.233443635946E+04   -0.24447E-07   -0.26120E-05  9150   0.829E-03
  10 F= -.23344364E+04 E0= -.23316917E+04  d E =-.241342E-02
       N       E                     dE             d eps       ncg     rms          rms(c)
DAV:   1    -0.233443647423E+04   -0.11480E-03   -0.17444E-01 13940   0.440E-01    0.656E-02
RMM:   2    -0.233447242703E+04   -0.35953E-01   -0.35287E-03 14031   0.122E-01    0.256E+00
RMM:   3    -0.233443837090E+04    0.34056E-01   -0.10733E-03 15677   0.579E-02    0.345E-01
RMM:   4    -0.233444235658E+04   -0.39857E-02   -0.11709E-03 13732   0.790E-02    0.101E+00
RMM:   5    -0.233443807841E+04    0.42782E-02   -0.97527E-04 17544   0.427E-02    0.496E-01
RMM:   6    -0.233444136092E+04   -0.32825E-02   -0.15578E-03 14405   0.684E-02    0.947E-01
RMM:   7    -0.233443727700E+04    0.40839E-02   -0.69773E-04 13852   0.541E-02    0.303E-01
RMM:   8    -0.233443693180E+04    0.34520E-03   -0.40269E-04 13695   0.493E-02    0.224E-01
RMM:   9    -0.233443672452E+04    0.20728E-03   -0.16390E-04 13780   0.248E-02    0.140E-01
RMM:  10    -0.233443669568E+04    0.28838E-04   -0.17983E-04 14681   0.216E-02    0.114E-01
RMM:  11    -0.233443672768E+04   -0.32004E-04   -0.13038E-04 13528   0.201E-02    0.137E-01
RMM:  12    -0.233443663653E+04    0.91151E-04   -0.49562E-05 10236   0.173E-02    0.468E-02
RMM:  13    -0.233443662552E+04    0.11011E-04   -0.16290E-05  8028   0.879E-03    0.258E-02
RMM:  14    -0.233443662549E+04    0.31083E-07   -0.11875E-05  7804   0.721E-03
  11 F= -.23344366E+04 E0= -.23316921E+04  d E =-.266033E-03
       N       E                     dE             d eps       ncg     rms          rms(c)
DAV:   1    -0.233443613577E+04    0.48975E-03   -0.15701E+00 13700   0.132E+00    0.177E-01
RMM:   2    -0.233448095485E+04   -0.44819E-01   -0.21710E-02 13949   0.325E-01    0.283E+00
RMM:   3    -0.233444455827E+04    0.36397E-01   -0.49858E-03 18481   0.102E-01    0.106E+00
RMM:   4    -0.233446284200E+04   -0.18284E-01   -0.23019E-03 15120   0.759E-02    0.214E+00
RMM:   5    -0.233444066599E+04    0.22176E-01   -0.28660E-03 13720   0.112E-01    0.672E-01
RMM:   6    -0.233445560006E+04   -0.14934E-01   -0.79652E-03 15299   0.140E-01    0.182E+00
RMM:   7    -0.233444441933E+04    0.11181E-01   -0.36690E-03 13792   0.123E-01    0.111E+00
RMM:   8    -0.233443950974E+04    0.49096E-02   -0.17315E-03 13750   0.893E-02    0.569E-01
RMM:   9    -0.233443768791E+04    0.18218E-02   -0.95007E-04 13732   0.738E-02    0.232E-01
RMM:  10    -0.233443750115E+04    0.18676E-03   -0.78370E-04 14596   0.492E-02    0.162E-01
RMM:  11    -0.233443764843E+04   -0.14728E-03   -0.84645E-04 16312   0.409E-02    0.226E-01
RMM:  12    -0.233443748890E+04    0.15953E-03   -0.24090E-04 13796   0.313E-02    0.147E-01
RMM:  13    -0.233443741749E+04    0.71407E-04   -0.17016E-04 14222   0.186E-02    0.919E-02
RMM:  14    -0.233443740693E+04    0.10567E-04   -0.96389E-05 12618   0.134E-02    0.797E-02
RMM:  15    -0.233443739115E+04    0.15780E-04   -0.63442E-05 11281   0.144E-02    0.533E-02
RMM:  16    -0.233443737911E+04    0.12039E-04   -0.23916E-05  8022   0.111E-02    0.268E-02
RMM:  17    -0.233443737979E+04   -0.68767E-06   -0.14871E-05  7848   0.746E-03
  12 F= -.23344374E+04 E0= -.23316930E+04  d E =-.102034E-02
       N       E                     dE             d eps       ncg     rms          rms(c)
DAV:   1    -0.233443366665E+04    0.37125E-02   -0.62799E+00 13700   0.264E+00    0.350E-01
RMM:   2    -0.233457218914E+04   -0.13852E+00   -0.85330E-02 13946   0.650E-01    0.497E+00
RMM:   3    -0.233445957691E+04    0.11261E+00   -0.18557E-02 18463   0.198E-01    0.179E+00
RMM:   4    -0.233456718499E+04   -0.10761E+00   -0.88950E-03 15293   0.146E-01    0.482E+00
RMM:   5    -0.233445710043E+04    0.11008E+00   -0.11760E-02 13744   0.220E-01    0.159E+00
RMM:   6    -0.233449457339E+04   -0.37473E-01   -0.24654E-02 14909   0.263E-01    0.318E+00
RMM:   7    -0.233447934856E+04    0.15225E-01   -0.14743E-02 13792   0.248E-01    0.270E+00
RMM:   8    -0.233444429602E+04    0.35053E-01   -0.57855E-03 13710   0.180E-01    0.861E-01
RMM:   9    -0.233443999538E+04    0.43006E-02   -0.29352E-03 13788   0.127E-01    0.481E-01
RMM:  10    -0.233444013263E+04   -0.13726E-03   -0.33304E-03 14271   0.107E-01    0.505E-01
RMM:  11    -0.233444020201E+04   -0.69371E-04   -0.23739E-03 15024   0.817E-02    0.516E-01
RMM:  12    -0.233443896182E+04    0.12402E-02   -0.82380E-04 13719   0.662E-02    0.217E-01
RMM:  13    -0.233443881825E+04    0.14357E-03   -0.55481E-04 15777   0.346E-02    0.160E-01
RMM:  14    -0.233443883942E+04   -0.21174E-04   -0.45795E-04 17199   0.269E-02    0.161E-01
RMM:  15    -0.233443875461E+04    0.84809E-04   -0.17255E-04 14115   0.236E-02    0.921E-02
RMM:  16    -0.233443871762E+04    0.36991E-04   -0.73036E-05 11963   0.168E-02    0.481E-02
RMM:  17    -0.233443872092E+04   -0.32991E-05   -0.46637E-05 10339   0.109E-02
  13 F= -.23344387E+04 E0= -.23316946E+04  d E =-.236146E-02
       N       E                     dE             d eps       ncg     rms          rms(c)
DAV:   1    -0.233441968018E+04    0.19037E-01   -0.25113E+01 13700   0.528E+00    0.715E-01
RMM:   2    -0.233485791326E+04   -0.43823E+00   -0.35128E-01 13946   0.133E+00    0.882E+00
RMM:   3    -0.233451477843E+04    0.34313E+00   -0.77904E-02 18622   0.397E-01    0.336E+00
RMM:   4    -0.233499583982E+04   -0.48106E+00   -0.46556E-02 13987   0.431E-01    0.999E+00
RMM:   5    -0.233453672938E+04    0.45911E+00   -0.53979E-02 18043   0.295E-01    0.384E+00
RMM:   6    -0.233464850957E+04   -0.11178E+00   -0.98271E-02 14351   0.552E-01    0.605E+00
RMM:   7    -0.233450665678E+04    0.14185E+00   -0.42431E-02 13708   0.479E-01    0.334E+00
RMM:   8    -0.233447502833E+04    0.31628E-01   -0.17574E-02 13901   0.268E-01    0.243E+00
RMM:   9    -0.233444987772E+04    0.25151E-01   -0.12379E-02 13727   0.245E-01    0.126E+00
RMM:  10    -0.233445042489E+04   -0.54717E-03   -0.15770E-02 13925   0.248E-01    0.131E+00
RMM:  11    -0.233444598230E+04    0.44426E-02   -0.73364E-03 13766   0.179E-01    0.971E-01
RMM:  12    -0.233444115861E+04    0.48237E-02   -0.27964E-03 13718   0.130E-01    0.355E-01
RMM:  13    -0.233444076248E+04    0.39614E-03   -0.17918E-03 15562   0.613E-02    0.260E-01
RMM:  14    -0.233444092039E+04   -0.15792E-03   -0.15531E-03 16764   0.556E-02    0.296E-01
RMM:  15    -0.233444052586E+04    0.39453E-03   -0.48178E-04 13866   0.459E-02    0.110E-01
RMM:  16    -0.233444051603E+04    0.98279E-05   -0.41809E-04 16997   0.275E-02    0.893E-02
RMM:  17    -0.233444055097E+04   -0.34933E-04   -0.29816E-04 15528   0.263E-02    0.107E-01
RMM:  18    -0.233444051657E+04    0.34393E-04   -0.13039E-04 13601   0.229E-02    0.700E-02
RMM:  19    -0.233444050397E+04    0.12598E-04   -0.76334E-05 11758   0.144E-02    0.483E-02
RMM:  20    -0.233444051176E+04   -0.77835E-05   -0.54338E-05 10790   0.119E-02
  14 F= -.23344405E+04 E0= -.23316970E+04  d E =-.415230E-02
       N       E                     dE             d eps       ncg     rms          rms(c)
DAV:   1    -0.233434763982E+04    0.92864E-01   -0.10038E+02 13700   0.106E+01    0.153E+00
RMM:   2    -0.233637575483E+04   -0.20281E+01   -0.16065E+00 13934   0.283E+00    0.190E+01
RMM:   3    -0.233492280735E+04    0.14529E+01   -0.36015E-01 18548   0.858E-01    0.875E+00
RMM:   4    -0.233823340330E+04   -0.33106E+01   -0.23367E-01 15027   0.766E-01    0.258E+01
RMM:   5    -0.233485803784E+04    0.33754E+01   -0.24051E-01 14143   0.914E-01    0.743E+00
RMM:   6    -0.233533451470E+04   -0.47648E+00   -0.37100E-01 13942   0.116E+00    0.126E+01
RMM:   7    -0.233489050748E+04    0.44401E+00   -0.19517E-01 13716   0.101E+00    0.897E+00
RMM:   8    -0.233459398147E+04    0.29653E+00   -0.81895E-02 13783   0.629E-01    0.490E+00
RMM:   9    -0.233451670303E+04    0.77278E-01   -0.87678E-02 13744   0.655E-01    0.361E+00
RMM:  10    -0.233448718356E+04    0.29519E-01   -0.72777E-02 13749   0.586E-01    0.276E+00
RMM:  11    -0.233445917539E+04    0.28008E-01   -0.27111E-02 13711   0.402E-01    0.180E+00
RMM:  12    -0.233444387177E+04    0.15304E-01   -0.92406E-03 13784   0.228E-01    0.806E-01
RMM:  13    -0.233444275945E+04    0.11123E-02   -0.65774E-03 14472   0.148E-01    0.719E-01
RMM:  14    -0.233444295824E+04   -0.19879E-03   -0.72225E-03 15717   0.131E-01    0.709E-01
RMM:  15    -0.233444110402E+04    0.18542E-02   -0.26035E-03 13838   0.111E-01    0.409E-01
RMM:  16    -0.233444066370E+04    0.44031E-03   -0.18846E-03 15420   0.676E-02    0.294E-01
RMM:  17    -0.233444084774E+04   -0.18403E-03   -0.22241E-03 16674   0.650E-02    0.306E-01
RMM:  18    -0.233444040227E+04    0.44547E-03   -0.73491E-04 14113   0.552E-02    0.138E-01
RMM:  19    -0.233444040284E+04   -0.57556E-06   -0.70644E-04 18028   0.281E-02    0.115E-01
RMM:  20    -0.233444041902E+04   -0.16176E-04   -0.30932E-04 15629   0.266E-02    0.122E-01
RMM:  21    -0.233444037362E+04    0.45397E-04   -0.19661E-04 14731   0.223E-02    0.698E-02
RMM:  22    -0.233444037511E+04   -0.14927E-05   -0.13488E-04 13740   0.128E-02    0.623E-02
RMM:  23    -0.233444037840E+04   -0.32829E-05   -0.57724E-05 11336   0.143E-02
  15 F= -.23344404E+04 E0= -.23316982E+04  d E =-.401894E-02
       N       E                     dE             d eps       ncg     rms          rms(c)
DAV:   1    -0.233441117762E+04    0.29197E-01   -0.35212E+01 13700   0.625E+00    0.850E-01
RMM:   2    -0.233488696257E+04   -0.47578E+00   -0.48536E-01 13942   0.156E+00    0.903E+00
RMM:   3    -0.233453578591E+04    0.35118E+00   -0.10354E-01 19106   0.426E-01    0.390E+00
RMM:   4    -0.233534299354E+04   -0.80721E+00   -0.55755E-02 15133   0.369E-01    0.129E+01
RMM:   5    -0.233457450360E+04    0.76849E+00   -0.72588E-02 13950   0.515E-01    0.426E+00
RMM:   6    -0.233467605315E+04   -0.10155E+00   -0.13068E-01 14290   0.654E-01    0.625E+00
RMM:   7    -0.233447384497E+04    0.20221E+00   -0.51125E-02 13701   0.574E-01    0.221E+00
RMM:   8    -0.233448260941E+04   -0.87644E-02   -0.20206E-02 13826   0.319E-01    0.282E+00
RMM:   9    -0.233446134161E+04    0.21268E-01   -0.14495E-02 14191   0.227E-01    0.182E+00
RMM:  10    -0.233445899791E+04    0.23437E-02   -0.19970E-02 13736   0.292E-01    0.175E+00
RMM:  11    -0.233444811271E+04    0.10885E-01   -0.99275E-03 13729   0.226E-01    0.108E+00
RMM:  12    -0.233444164537E+04    0.64673E-02   -0.35210E-03 13711   0.155E-01    0.333E-01
RMM:  13    -0.233444143672E+04    0.20865E-03   -0.19359E-03 14878   0.726E-02    0.297E-01
RMM:  14    -0.233444156205E+04   -0.12534E-03   -0.20662E-03 16379   0.661E-02    0.325E-01
RMM:  15    -0.233444115286E+04    0.40919E-03   -0.69259E-04 13877   0.552E-02    0.164E-01
RMM:  16    -0.233444111693E+04    0.35932E-04   -0.60304E-04 16789   0.327E-02    0.135E-01
RMM:  17    -0.233444113133E+04   -0.14405E-04   -0.39155E-04 16333   0.277E-02    0.128E-01
RMM:  18    -0.233444107056E+04    0.60777E-04   -0.16131E-04 14019   0.241E-02    0.748E-02
RMM:  19    -0.233444106160E+04    0.89566E-05   -0.10948E-04 13074   0.157E-02    0.567E-02
RMM:  20    -0.233444107627E+04   -0.14672E-04   -0.86486E-05 12493   0.148E-02    0.720E-02
RMM:  21    -0.233444106320E+04    0.13070E-04   -0.38971E-05  9663   0.143E-02    0.513E-02
RMM:  22    -0.233444105673E+04    0.64704E-05   -0.17016E-05  8064   0.897E-03
  16 F= -.23344411E+04 E0= -.23316982E+04  d E =-.469727E-02
       N       E                     dE             d eps       ncg     rms          rms(c)
DAV:   1    -0.233443780206E+04    0.32611E-02   -0.64979E+00 13700   0.268E+00    0.367E-01
RMM:   2    -0.233472098502E+04   -0.28318E+00   -0.98888E-02 13954   0.685E-01    0.727E+00
RMM:   3    -0.233448934680E+04    0.23164E+00   -0.24151E-02 17221   0.251E-01    0.261E+00
RMM:   4    -0.233455845754E+04   -0.69111E-01   -0.99511E-03 14400   0.182E-01    0.453E+00
RMM:   5    -0.233446897712E+04    0.89480E-01   -0.10819E-02 14180   0.192E-01    0.194E+00
RMM:   6    -0.233446965472E+04   -0.67761E-03   -0.24510E-02 13745   0.316E-01    0.215E+00
RMM:   7    -0.233452412836E+04   -0.54474E-01   -0.29493E-02 15664   0.264E-01    0.392E+00
RMM:   8    -0.233445107843E+04    0.73050E-01   -0.10284E-02 13703   0.240E-01    0.980E-01
RMM:   9    -0.233444373701E+04    0.73414E-02   -0.41786E-03 13765   0.152E-01    0.379E-01
RMM:  10    -0.233444451298E+04   -0.77597E-03   -0.45085E-03 15405   0.109E-01    0.522E-01
RMM:  11    -0.233444472657E+04   -0.21358E-03   -0.33560E-03 15986   0.864E-02    0.554E-01
RMM:  12    -0.233444333896E+04    0.13876E-02   -0.10399E-03 13717   0.697E-02    0.247E-01
RMM:  13    -0.233444318355E+04    0.15541E-03   -0.93427E-04 16984   0.390E-02    0.178E-01
RMM:  14    -0.233444317227E+04    0.11284E-04   -0.57238E-04 17359   0.305E-02    0.164E-01
RMM:  15    -0.233444307974E+04    0.92524E-04   -0.20029E-04 14193   0.272E-02    0.989E-02
RMM:  16    -0.233444306024E+04    0.19502E-04   -0.11474E-04 13413   0.163E-02    0.767E-02
RMM:  17    -0.233444305417E+04    0.60661E-05   -0.59620E-05 11213   0.125E-02
  17 F= -.23344431E+04 E0= -.23316999E+04  d E =-.199744E-02
       N       E                     dE             d eps       ncg     rms          rms(c)
DAV:   1    -0.233441719927E+04    0.25861E-01   -0.32979E+01 13700   0.604E+00    0.845E-01
RMM:   2    -0.233558069505E+04   -0.11635E+01   -0.51334E-01 13942   0.158E+00    0.146E+01
RMM:   3    -0.233457813269E+04    0.10026E+01   -0.11953E-01 17449   0.552E-01    0.416E+00
RMM:   4    -0.233477302733E+04   -0.19489E+00   -0.62756E-02 13760   0.532E-01    0.764E+00
RMM:   5    -0.233482936579E+04   -0.56338E-01   -0.95178E-02 20139   0.308E-01    0.821E+00
RMM:   6    -0.233457069816E+04    0.25867E+00   -0.10565E-01 13759   0.640E-01    0.441E+00
RMM:   7    -0.233449573065E+04    0.74968E-01   -0.62107E-02 13702   0.588E-01    0.280E+00
RMM:   8    -0.233449693112E+04   -0.12005E-02   -0.25895E-02 13749   0.375E-01    0.311E+00
RMM:   9    -0.233446167625E+04    0.35255E-01   -0.11585E-02 13947   0.215E-01    0.170E+00
RMM:  10    -0.233445510236E+04    0.65739E-02   -0.20238E-02 13803   0.297E-01    0.127E+00
RMM:  11    -0.233444896048E+04    0.61419E-02   -0.84992E-03 13706   0.215E-01    0.843E-01
RMM:  12    -0.233444616398E+04    0.27965E-02   -0.37896E-03 14237   0.128E-01    0.479E-01
RMM:  13    -0.233444560209E+04    0.56190E-03   -0.25869E-03 16218   0.650E-02    0.332E-01
RMM:  14    -0.233444561234E+04   -0.10259E-04   -0.21196E-03 15873   0.692E-02    0.312E-01
RMM:  15    -0.233444520825E+04    0.40410E-03   -0.78861E-04 14346   0.571E-02    0.156E-01
RMM:  16    -0.233444517782E+04    0.30429E-04   -0.59554E-04 16041   0.340E-02    0.125E-01
RMM:  17    -0.233444522208E+04   -0.44264E-04   -0.47500E-04 16327   0.309E-02    0.137E-01
RMM:  18    -0.233444517030E+04    0.51787E-04   -0.18460E-04 13948   0.277E-02    0.917E-02
RMM:  19    -0.233444514688E+04    0.23415E-04   -0.11286E-04 13018   0.179E-02    0.620E-02
RMM:  20    -0.233444514972E+04   -0.28398E-05   -0.83196E-05 11788   0.119E-02
  18 F= -.23344451E+04 E0= -.23317018E+04  d E =-.409299E-02
       N       E                     dE             d eps       ncg     rms          rms(c)
DAV:   1    -0.233444266752E+04    0.24794E-02   -0.50079E+00 13700   0.235E+00    0.322E-01
RMM:   2    -0.233449740488E+04   -0.54737E-01   -0.71387E-02 13940   0.586E-01    0.319E+00
RMM:   3    -0.233450015240E+04   -0.27475E-02   -0.20668E-02 19202   0.193E-01    0.297E+00
RMM:   4    -0.233446745682E+04    0.32696E-01   -0.54574E-03 13721   0.153E-01    0.184E+00
RMM:   5    -0.233450924955E+04   -0.41793E-01   -0.76650E-03 17703   0.109E-01    0.334E+00
RMM:   6    -0.233447002198E+04    0.39228E-01   -0.11737E-02 13998   0.207E-01    0.200E+00
RMM:   7    -0.233447769295E+04   -0.76710E-02   -0.25189E-02 18004   0.204E-01    0.237E+00
RMM:   8    -0.233445202620E+04    0.25667E-01   -0.92501E-03 13703   0.214E-01    0.883E-01
RMM:   9    -0.233444822288E+04    0.38033E-02   -0.38829E-03 13728   0.143E-01    0.529E-01
RMM:  10    -0.233444759431E+04    0.62857E-03   -0.26856E-03 16411   0.785E-02    0.387E-01
RMM:  11    -0.233444760114E+04   -0.68363E-05   -0.25914E-03 15055   0.826E-02    0.367E-01
RMM:  12    -0.233444715453E+04    0.44661E-03   -0.95398E-04 13752   0.644E-02    0.248E-01
RMM:  13    -0.233444696563E+04    0.18890E-03   -0.73255E-04 16184   0.366E-02    0.158E-01
RMM:  14    -0.233444694969E+04    0.15948E-04   -0.39353E-04 17189   0.245E-02    0.147E-01
RMM:  15    -0.233444687939E+04    0.70297E-04   -0.14379E-04 13668   0.224E-02    0.891E-02
RMM:  16    -0.233444684056E+04    0.38834E-04   -0.55113E-05 10834   0.165E-02    0.398E-02
RMM:  17    -0.233444683693E+04    0.36258E-05   -0.27839E-05  8940   0.101E-02
  19 F= -.23344468E+04 E0= -.23317034E+04  d E =-.168721E-02
       N       E                     dE             d eps       ncg     rms          rms(c)
DAV:   1    -0.233444506606E+04    0.17745E-02   -0.30189E+00 13700   0.183E+00    0.253E-01
RMM:   2    -0.233458764093E+04   -0.14257E+00   -0.47569E-02 13978   0.467E-01    0.514E+00
RMM:   3    -0.233446356864E+04    0.12407E+00   -0.11742E-02 16923   0.179E-01    0.144E+00
RMM:   4    -0.233450097534E+04   -0.37407E-01   -0.49481E-03 13791   0.145E-01    0.311E+00
RMM:   5    -0.233446334334E+04    0.37632E-01   -0.58628E-03 17228   0.103E-01    0.157E+00
RMM:   6    -0.233445763516E+04    0.57082E-02   -0.10338E-02 13737   0.205E-01    0.130E+00
RMM:   7    -0.233448269785E+04   -0.25063E-01   -0.11285E-02 14592   0.186E-01    0.257E+00
RMM:   8    -0.233445115013E+04    0.31548E-01   -0.39491E-03 13716   0.140E-01    0.667E-01
RMM:   9    -0.233444794612E+04    0.32040E-02   -0.20603E-03 13709   0.117E-01    0.277E-01
RMM:  10    -0.233444803883E+04   -0.92704E-04   -0.15697E-03 14518   0.721E-02    0.300E-01
RMM:  11    -0.233444806266E+04   -0.23834E-04   -0.12806E-03 15398   0.591E-02    0.302E-01
RMM:  12    -0.233444760586E+04    0.45680E-03   -0.42959E-04 13720   0.478E-02    0.117E-01
RMM:  13    -0.233444760848E+04   -0.26204E-05   -0.42966E-04 18084   0.190E-02    0.104E-01
RMM:  14    -0.233444759733E+04    0.11152E-04   -0.13711E-04 14289   0.186E-02    0.933E-02
RMM:  15    -0.233444757368E+04    0.23653E-04   -0.90660E-05 12781   0.181E-02    0.648E-02
RMM:  16    -0.233444756083E+04    0.12844E-04   -0.35979E-05  9533   0.123E-02    0.448E-02
RMM:  17    -0.233444755975E+04    0.10841E-05   -0.24465E-05  8472   0.978E-03
  20 F= -.23344476E+04 E0= -.23317041E+04  d E =-.241003E-02
       N       E                     dE             d eps       ncg     rms          rms(c)
DAV:   1    -0.233443727215E+04    0.10289E-01   -0.12073E+01 13700   0.366E+00    0.502E-01
RMM:   2    -0.233469572313E+04   -0.25845E+00   -0.17649E-01 13948   0.919E-01    0.696E+00
RMM:   3    -0.233452248902E+04    0.17323E+00   -0.46627E-02 18695   0.307E-01    0.336E+00
RMM:   4    -0.233449452954E+04    0.27959E-01   -0.14652E-02 13710   0.262E-01    0.290E+00
RMM:   5    -0.233464518958E+04   -0.15066E+00   -0.28975E-02 19977   0.169E-01    0.593E+00
RMM:   6    -0.233450697744E+04    0.13821E+00   -0.34164E-02 13771   0.360E-01    0.311E+00
RMM:   7    -0.233454579041E+04   -0.38813E-01   -0.54844E-02 16501   0.333E-01    0.424E+00
RMM:   8    -0.233445871243E+04    0.87078E-01   -0.20994E-02 13701   0.337E-01    0.123E+00
RMM:   9    -0.233444985777E+04    0.88547E-02   -0.92600E-03 13747   0.222E-01    0.734E-01
RMM:  10    -0.233445273096E+04   -0.28732E-02   -0.10947E-02 16382   0.149E-01    0.983E-01
RMM:  11    -0.233445007474E+04    0.26562E-02   -0.53872E-03 14285   0.136E-01    0.685E-01
RMM:  12    -0.233444795169E+04    0.21230E-02   -0.23209E-03 13802   0.108E-01    0.342E-01
RMM:  13    -0.233444766617E+04    0.28552E-03   -0.21999E-03 17765   0.513E-02    0.233E-01
RMM:  14    -0.233444762480E+04    0.41374E-04   -0.98251E-04 16391   0.426E-02    0.203E-01
RMM:  15    -0.233444748766E+04    0.13714E-03   -0.40277E-04 14764   0.356E-02    0.124E-01
RMM:  16    -0.233444743588E+04    0.51778E-04   -0.20461E-04 14582   0.240E-02    0.758E-02
RMM:  17    -0.233444744894E+04   -0.13054E-04   -0.19661E-04 15188   0.175E-02    0.795E-02
RMM:  18    -0.233444744906E+04   -0.12433E-06   -0.95176E-05 12883   0.176E-02
  21 F= -.23344474E+04 E0= -.23317040E+04  d E =-.229934E-02
       N       E                     dE             d eps       ncg     rms          rms(c)
DAV:   1    -0.233444392525E+04    0.35237E-02   -0.45806E+00 13700   0.225E+00    0.303E-01
RMM:   2    -0.233447163852E+04   -0.27713E-01   -0.61910E-02 13941   0.549E-01    0.217E+00
RMM:   3    -0.233448504387E+04   -0.13405E-01   -0.15806E-02 19139   0.168E-01    0.254E+00
RMM:   4    -0.233446703563E+04    0.18008E-01   -0.42573E-03 13737   0.132E-01    0.180E+00
RMM:   5    -0.233452387697E+04   -0.56841E-01   -0.96346E-03 18980   0.108E-01    0.366E+00
RMM:   6    -0.233445995121E+04    0.63926E-01   -0.12174E-02 13726   0.220E-01    0.133E+00
RMM:   7    -0.233449498147E+04   -0.35030E-01   -0.13782E-02 14567   0.205E-01    0.298E+00
RMM:   8    -0.233445364360E+04    0.41338E-01   -0.62398E-03 13717   0.177E-01    0.905E-01
RMM:   9    -0.233444905875E+04    0.45849E-02   -0.33251E-03 13733   0.141E-01    0.480E-01
RMM:  10    -0.233444870559E+04    0.35316E-03   -0.22519E-03 14566   0.823E-02    0.428E-01
RMM:  11    -0.233444845502E+04    0.25057E-03   -0.21395E-03 14337   0.843E-02    0.346E-01
RMM:  12    -0.233444791225E+04    0.54277E-03   -0.80921E-04 13772   0.666E-02    0.175E-01
RMM:  13    -0.233444776391E+04    0.14835E-03   -0.35850E-04 14547   0.354E-02    0.865E-02
RMM:  14    -0.233444778151E+04   -0.17604E-04   -0.33503E-04 16487   0.191E-02    0.872E-02
RMM:  15    -0.233444778375E+04   -0.22409E-05   -0.14984E-04 14415   0.197E-02    0.846E-02
RMM:  16    -0.233444776001E+04    0.23741E-04   -0.58251E-05 10813   0.147E-02    0.527E-02
RMM:  17    -0.233444775813E+04    0.18823E-05   -0.34051E-05  9551   0.892E-03
  22 F= -.23344478E+04 E0= -.23317042E+04  d E =-.260841E-02
       N       E                     dE             d eps       ncg     rms          rms(c)
DAV:   1    -0.233444474541E+04    0.30146E-02   -0.51372E+00 13700   0.238E+00    0.322E-01
RMM:   2    -0.233447373894E+04   -0.28994E-01   -0.70028E-02 13939   0.584E-01    0.216E+00
RMM:   3    -0.233450539415E+04   -0.31655E-01   -0.18301E-02 19620   0.151E-01    0.318E+00
RMM:   4    -0.233446280467E+04    0.42589E-01   -0.79151E-03 13708   0.198E-01    0.152E+00
RMM:   5    -0.233450625944E+04   -0.43455E-01   -0.13369E-02 18281   0.149E-01    0.318E+00
RMM:   6    -0.233447950591E+04    0.26754E-01   -0.15463E-02 16589   0.182E-01    0.221E+00
RMM:   7    -0.233449390139E+04   -0.14395E-01   -0.14258E-02 14170   0.222E-01    0.289E+00
RMM:   8    -0.233445691327E+04    0.36988E-01   -0.71362E-03 13824   0.179E-01    0.107E+00
RMM:   9    -0.233445105916E+04    0.58541E-02   -0.38275E-03 13707   0.153E-01    0.590E-01
RMM:  10    -0.233445001105E+04    0.10481E-02   -0.22434E-03 14129   0.905E-02    0.432E-01
RMM:  11    -0.233445032741E+04   -0.31635E-03   -0.31556E-03 15604   0.865E-02    0.480E-01
RMM:  12    -0.233444941485E+04    0.91256E-03   -0.11574E-03 13751   0.714E-02    0.258E-01
RMM:  13    -0.233444915080E+04    0.26405E-03   -0.64546E-04 14648   0.451E-02    0.163E-01
RMM:  14    -0.233444914364E+04    0.71535E-05   -0.58975E-04 18600   0.241E-02    0.142E-01
RMM:  15    -0.233444909517E+04    0.48477E-04   -0.20051E-04 14929   0.230E-02    0.989E-02
RMM:  16    -0.233444904972E+04    0.45450E-04   -0.74686E-05 11904   0.181E-02    0.474E-02
RMM:  17    -0.233444904694E+04    0.27786E-05   -0.38864E-05  9852   0.972E-03
  23 F= -.23344490E+04 E0= -.23317059E+04  d E =-.128881E-02
       N       E                     dE             d eps       ncg     rms          rms(c)
DAV:   1    -0.233444758681E+04    0.14629E-02   -0.20481E+00 13700   0.151E+00    0.207E-01
RMM:   2    -0.233447100355E+04   -0.23417E-01   -0.28907E-02 13936   0.371E-01    0.202E+00
RMM:   3    -0.233446844772E+04    0.25558E-02   -0.83876E-03 19627   0.103E-01    0.183E+00
RMM:   4    -0.233448034548E+04   -0.11898E-01   -0.37080E-03 14008   0.122E-01    0.236E+00
RMM:   5    -0.233445441304E+04    0.25932E-01   -0.29914E-03 14687   0.988E-02    0.835E-01
RMM:   6    -0.233446002415E+04   -0.56111E-02   -0.66129E-03 14581   0.141E-01    0.135E+00
RMM:   7    -0.233445842886E+04    0.15953E-02   -0.56506E-03 14221   0.143E-01    0.129E+00
RMM:   8    -0.233445476758E+04    0.36613E-02   -0.29231E-03 14420   0.973E-02    0.971E-01
RMM:   9    -0.233445020257E+04    0.45650E-02   -0.15605E-03 13701   0.979E-02    0.376E-01
RMM:  10    -0.233444970585E+04    0.49672E-03   -0.88530E-04 14810   0.505E-02    0.277E-01
RMM:  11    -0.233444975337E+04   -0.47517E-04   -0.10111E-03 16161   0.472E-02    0.285E-01
RMM:  12    -0.233444946912E+04    0.28425E-03   -0.38716E-04 13724   0.408E-02    0.172E-01
RMM:  13    -0.233444936651E+04    0.10261E-03   -0.18880E-04 13879   0.272E-02    0.117E-01
RMM:  14    -0.233444935516E+04    0.11348E-04   -0.16580E-04 14720   0.173E-02    0.103E-01
RMM:  15    -0.233444932756E+04    0.27598E-04   -0.85518E-05 12404   0.166E-02    0.696E-02
RMM:  16    -0.233444930351E+04    0.24051E-04   -0.32963E-05  8994   0.135E-02    0.319E-02
RMM:  17    -0.233444930035E+04    0.31600E-05   -0.15328E-05  7984   0.750E-03
  24 F= -.23344493E+04 E0= -.23317065E+04  d E =-.154222E-02
       N       E                     dE             d eps       ncg     rms          rms(c)
DAV:   1    -0.233444772423E+04    0.15793E-02   -0.29250E+00 13700   0.180E+00    0.248E-01
RMM:   2    -0.233446122475E+04   -0.13501E-01   -0.41287E-02 13933   0.444E-01    0.145E+00
RMM:   3    -0.233450603833E+04   -0.44814E-01   -0.12927E-02 19622   0.144E-01    0.316E+00
RMM:   4    -0.233447669799E+04    0.29340E-01   -0.28451E-03 13719   0.115E-01    0.217E+00
RMM:   5    -0.233446250364E+04    0.14194E-01   -0.35034E-03 15187   0.981E-02    0.144E+00
RMM:   6    -0.233446781878E+04   -0.53151E-02   -0.75442E-03 15609   0.132E-01    0.180E+00
RMM:   7    -0.233445827303E+04    0.95457E-02   -0.92049E-03 13760   0.190E-01    0.113E+00
RMM:   8    -0.233445283948E+04    0.54335E-02   -0.35239E-03 13700   0.149E-01    0.662E-01
RMM:   9    -0.233445088302E+04    0.19565E-02   -0.11432E-03 13758   0.824E-02    0.347E-01
RMM:  10    -0.233445118417E+04   -0.30115E-03   -0.79614E-04 14345   0.505E-02    0.405E-01
RMM:  11    -0.233445072870E+04    0.45547E-03   -0.76369E-04 14494   0.494E-02    0.323E-01
RMM:  12    -0.233445045493E+04    0.27376E-03   -0.58442E-04 13976   0.478E-02    0.222E-01
RMM:  13    -0.233445023938E+04    0.21556E-03   -0.24787E-04 13659   0.378E-02    0.121E-01
RMM:  14    -0.233445021488E+04    0.24495E-04   -0.16205E-04 14438   0.196E-02    0.101E-01
RMM:  15    -0.233445020011E+04    0.14776E-04   -0.12897E-04 13760   0.178E-02    0.787E-02
RMM:  16    -0.233445017112E+04    0.28984E-04   -0.41820E-05  9802   0.150E-02    0.356E-02
RMM:  17    -0.233445016596E+04    0.51650E-05   -0.18179E-05  8094   0.884E-03
  25 F= -.23344502E+04 E0= -.23317074E+04  d E =-.865608E-03
       N       E                     dE             d eps       ncg     rms          rms(c)
DAV:   1    -0.233445002819E+04    0.14293E-03   -0.30796E-01 13800   0.584E-01    0.827E-02
RMM:   2    -0.233445421490E+04   -0.41867E-02   -0.46765E-03 13920   0.147E-01    0.841E-01
RMM:   3    -0.233445355658E+04    0.65832E-03   -0.14773E-03 19433   0.428E-02    0.768E-01
RMM:   4    -0.233445692312E+04   -0.33665E-02   -0.57893E-04 14120   0.461E-02    0.109E+00
RMM:   5    -0.233445107532E+04    0.58478E-02   -0.46855E-04 13734   0.437E-02    0.342E-01
RMM:   6    -0.233445242879E+04   -0.13535E-02   -0.11398E-03 16561   0.483E-02    0.635E-01
RMM:   7    -0.233445140400E+04    0.10248E-02   -0.11690E-03 14077   0.631E-02    0.418E-01
RMM:   8    -0.233445089081E+04    0.51319E-03   -0.55495E-04 13640   0.521E-02    0.315E-01
RMM:   9    -0.233445052904E+04    0.36177E-03   -0.24025E-04 13594   0.366E-02    0.198E-01
RMM:  10    -0.233445035518E+04    0.17386E-03   -0.11028E-04 12941   0.215E-02    0.105E-01
RMM:  11    -0.233445033722E+04    0.17956E-04   -0.10131E-04 13181   0.185E-02    0.850E-02
RMM:  12    -0.233445033874E+04   -0.15113E-05   -0.11575E-04 13412   0.173E-02    0.863E-02
RMM:  13    -0.233445030487E+04    0.33867E-04   -0.35256E-05  9059   0.140E-02    0.421E-02
RMM:  14    -0.233445030218E+04    0.26858E-05   -0.18920E-05  7892   0.921E-03
  26 F= -.23344503E+04 E0= -.23317076E+04  d E =-.100183E-02
       N       E                     dE             d eps       ncg     rms          rms(c)
DAV:   1    -0.233445014215E+04    0.16272E-03   -0.70091E-01 13700   0.883E-01    0.135E-01
RMM:   2    -0.233446052607E+04   -0.10384E-01   -0.12397E-02 13838   0.238E-01    0.133E+00
RMM:   3    -0.233447171314E+04   -0.11187E-01   -0.51498E-03 19836   0.797E-02    0.194E+00
RMM:   4    -0.233446571270E+04    0.60004E-02   -0.19097E-03 13824   0.895E-02    0.160E+00
RMM:   5    -0.233445421580E+04    0.11497E-01   -0.12957E-03 14178   0.674E-02    0.762E-01
RMM:   6    -0.233445399893E+04    0.21688E-03   -0.16335E-03 14854   0.684E-02    0.779E-01
RMM:   7    -0.233445270510E+04    0.12938E-02   -0.32408E-03 13983   0.107E-01    0.556E-01
RMM:   8    -0.233445168606E+04    0.10190E-02   -0.13369E-03 13701   0.853E-02    0.389E-01
RMM:   9    -0.233445121668E+04    0.46939E-03   -0.48345E-04 13696   0.476E-02    0.283E-01
RMM:  10    -0.233445091490E+04    0.30177E-03   -0.28197E-04 14016   0.323E-02    0.162E-01
RMM:  11    -0.233445094295E+04   -0.28051E-04   -0.37248E-04 16694   0.255E-02    0.183E-01
RMM:  12    -0.233445087083E+04    0.72128E-04   -0.22098E-04 13928   0.288E-02    0.135E-01
RMM:  13    -0.233445077981E+04    0.91019E-04   -0.90540E-05 12627   0.226E-02    0.564E-02
RMM:  14    -0.233445076960E+04    0.10205E-04   -0.37257E-05  9619   0.115E-02    0.385E-02
RMM:  15    -0.233445077181E+04   -0.22083E-05   -0.33947E-05  9302   0.120E-02
  27 F= -.23344508E+04 E0= -.23317079E+04  d E =-.469628E-03
       N       E                     dE             d eps       ncg     rms          rms(c)
DAV:   1    -0.233445064484E+04    0.12476E-03   -0.20434E-01 13800   0.477E-01    0.733E-02
RMM:   2    -0.233445243859E+04   -0.17938E-02   -0.35787E-03 13892   0.127E-01    0.533E-01
RMM:   3    -0.233445338471E+04   -0.94612E-03   -0.97108E-04 17255   0.496E-02    0.680E-01
RMM:   4    -0.233445293501E+04    0.44970E-03   -0.50016E-04 15606   0.325E-02    0.603E-01
RMM:   5    -0.233445339280E+04   -0.45779E-03   -0.31497E-04 13956   0.326E-02    0.672E-01
RMM:   6    -0.233445176320E+04    0.16296E-02   -0.37217E-04 16651   0.264E-02    0.401E-01
RMM:   7    -0.233445197117E+04   -0.20798E-03   -0.85723E-04 14316   0.533E-02    0.421E-01
RMM:   8    -0.233445145422E+04    0.51696E-03   -0.66713E-04 14983   0.435E-02    0.321E-01
RMM:   9    -0.233445093954E+04    0.51468E-03   -0.26838E-04 13636   0.408E-02    0.119E-01
RMM:  10    -0.233445087305E+04    0.66485E-04   -0.12282E-04 13146   0.241E-02    0.747E-02
RMM:  11    -0.233445087364E+04   -0.59151E-06   -0.13305E-04 13280   0.165E-02    0.659E-02
RMM:  12    -0.233445086452E+04    0.91266E-05   -0.52021E-05 10499   0.151E-02
  28 F= -.23344509E+04 E0= -.23317079E+04  d E =-.562333E-03
       N       E                     dE             d eps       ncg     rms          rms(c)
DAV:   1    -0.233445054680E+04    0.32684E-03   -0.73199E-01 13700   0.902E-01    0.137E-01
RMM:   2    -0.233455960883E+04   -0.10906E+00   -0.17061E-02 14185   0.265E-01    0.447E+00
RMM:   3    -0.233445804329E+04    0.10157E+00   -0.43787E-03 14505   0.134E-01    0.807E-01
RMM:   4    -0.233447976922E+04   -0.21726E-01   -0.24720E-03 13907   0.100E-01    0.227E+00
RMM:   5    -0.233445895394E+04    0.20815E-01   -0.25081E-03 15814   0.743E-02    0.111E+00
RMM:   6    -0.233445683794E+04    0.21160E-02   -0.34951E-03 13772   0.120E-01    0.102E+00
RMM:   7    -0.233446045479E+04   -0.36169E-02   -0.65110E-03 17074   0.107E-01    0.130E+00
RMM:   8    -0.233445269426E+04    0.77605E-02   -0.27430E-03 13716   0.116E-01    0.471E-01
RMM:   9    -0.233445178227E+04    0.91199E-03   -0.11656E-03 13706   0.782E-02    0.329E-01
RMM:  10    -0.233445135663E+04    0.42564E-03   -0.78206E-04 15675   0.434E-02    0.189E-01
RMM:  11    -0.233445135128E+04    0.53482E-05   -0.63961E-04 15319   0.394E-02    0.176E-01
RMM:  12    -0.233445126017E+04    0.91110E-04   -0.23757E-04 13812   0.299E-02    0.116E-01
RMM:  13    -0.233445120907E+04    0.51100E-04   -0.10996E-04 12533   0.201E-02    0.731E-02
RMM:  14    -0.233445120392E+04    0.51477E-05   -0.70422E-05 11171   0.111E-02
  29 F= -.23344512E+04 E0= -.23317086E+04  d E =-.339408E-03
       N       E                     dE             d eps       ncg     rms          rms(c)
DAV:   1    -0.233445091075E+04    0.29833E-03   -0.39565E-01 13700   0.664E-01    0.104E-01
RMM:   2    -0.233450725956E+04   -0.56349E-01   -0.81359E-03 14142   0.182E-01    0.320E+00
RMM:   3    -0.233445730931E+04    0.49950E-01   -0.32119E-03 18154   0.792E-02    0.890E-01
RMM:   4    -0.233445679327E+04    0.51604E-03   -0.17464E-03 13709   0.934E-02    0.102E+00
RMM:   5    -0.233445920772E+04   -0.24144E-02   -0.21111E-03 17285   0.621E-02    0.113E+00
RMM:   6    -0.233445357677E+04    0.56309E-02   -0.21337E-03 14090   0.868E-02    0.632E-01
RMM:   7    -0.233445893407E+04   -0.53573E-02   -0.29762E-03 14901   0.910E-02    0.119E+00
RMM:   8    -0.233445246282E+04    0.64712E-02   -0.10653E-03 13808   0.671E-02    0.425E-01
RMM:   9    -0.233445161170E+04    0.85112E-03   -0.59419E-04 13716   0.612E-02    0.247E-01
RMM:  10    -0.233445149651E+04    0.11519E-03   -0.40095E-04 14989   0.328E-02    0.206E-01
RMM:  11    -0.233445143885E+04    0.57666E-04   -0.31683E-04 15112   0.293E-02    0.174E-01
RMM:  12    -0.233445132111E+04    0.11774E-03   -0.12635E-04 13069   0.240E-02    0.994E-02
RMM:  13    -0.233445127810E+04    0.43013E-04   -0.55669E-05 10341   0.129E-02    0.516E-02
RMM:  14    -0.233445127707E+04    0.10305E-05   -0.37978E-05  9628   0.117E-02
  30 F= -.23344513E+04 E0= -.23317088E+04  d E =-.412552E-03
       N       E                     dE             d eps       ncg     rms          rms(c)
DAV:   1    -0.233445075335E+04    0.52475E-03   -0.95533E-01 13700   0.103E+00    0.147E-01
RMM:   2    -0.233445682586E+04   -0.60725E-02   -0.14168E-02 13926   0.259E-01    0.103E+00
RMM:   3    -0.233446834591E+04   -0.11520E-01   -0.43259E-03 19041   0.897E-02    0.174E+00
RMM:   4    -0.233445853238E+04    0.98135E-02   -0.11263E-03 13746   0.666E-02    0.109E+00
RMM:   5    -0.233446134144E+04   -0.28091E-02   -0.16977E-03 15848   0.593E-02    0.128E+00
RMM:   6    -0.233445456104E+04    0.67804E-02   -0.22273E-03 13943   0.900E-02    0.676E-01
RMM:   7    -0.233445959498E+04   -0.50339E-02   -0.41228E-03 14811   0.108E-01    0.121E+00
RMM:   8    -0.233445439087E+04    0.52041E-02   -0.20241E-03 14726   0.802E-02    0.685E-01
RMM:   9    -0.233445210721E+04    0.22837E-02   -0.10445E-03 13704   0.797E-02    0.304E-01
RMM:  10    -0.233445178419E+04    0.32302E-03   -0.51044E-04 14444   0.427E-02    0.208E-01
RMM:  11    -0.233445169212E+04    0.92065E-04   -0.52515E-04 15403   0.340E-02    0.162E-01
RMM:  12    -0.233445167583E+04    0.16295E-04   -0.36388E-04 14980   0.319E-02    0.144E-01
RMM:  13    -0.233445157650E+04    0.99322E-04   -0.12752E-04 13255   0.253E-02    0.688E-02
RMM:  14    -0.233445156529E+04    0.11215E-04   -0.75986E-05 11611   0.125E-02    0.534E-02
RMM:  15    -0.233445156005E+04    0.52416E-05   -0.41034E-05  9505   0.126E-02
  31 F= -.23344516E+04 E0= -.23317090E+04  d E =-.282980E-03
       N       E                     dE             d eps       ncg     rms          rms(c)
DAV:   1    -0.233445134348E+04    0.22181E-03   -0.31083E-01 13760   0.587E-01    0.865E-02
RMM:   2    -0.233446492818E+04   -0.13585E-01   -0.53815E-03 13951   0.158E-01    0.159E+00
RMM:   3    -0.233445433373E+04    0.10594E-01   -0.16143E-03 17792   0.604E-02    0.634E-01
RMM:   4    -0.233445421066E+04    0.12307E-03   -0.58320E-04 13644   0.532E-02    0.685E-01
RMM:   5    -0.233445544047E+04   -0.12298E-02   -0.83714E-04 19401   0.305E-02    0.812E-01
RMM:   6    -0.233445294733E+04    0.24931E-02   -0.10163E-03 13748   0.636E-02    0.464E-01
RMM:   7    -0.233445489598E+04   -0.19487E-02   -0.18243E-03 16964   0.588E-02    0.773E-01
RMM:   8    -0.233445231124E+04    0.25847E-02   -0.76595E-04 13742   0.572E-02    0.327E-01
RMM:   9    -0.233445180062E+04    0.51062E-03   -0.37785E-04 13681   0.464E-02    0.185E-01
RMM:  10    -0.233445168009E+04    0.12053E-03   -0.19480E-04 13868   0.270E-02    0.116E-01
RMM:  11    -0.233445166967E+04    0.10416E-04   -0.26295E-04 15510   0.226E-02    0.101E-01
RMM:  12    -0.233445166119E+04    0.84818E-05   -0.13108E-04 13487   0.194E-02    0.895E-02
RMM:  13    -0.233445161973E+04    0.41466E-04   -0.47352E-05 10169   0.161E-02    0.364E-02
RMM:  14    -0.233445161715E+04    0.25799E-05   -0.20936E-05  8574   0.817E-03
  32 F= -.23344516E+04 E0= -.23317091E+04  d E =-.340079E-03
       N       E                     dE             d eps       ncg     rms          rms(c)
DAV:   1    -0.233445108508E+04    0.53464E-03   -0.90647E-01 13700   0.100E+00    0.150E-01
RMM:   2    -0.233447438670E+04   -0.23302E-01   -0.14932E-02 13885   0.267E-01    0.203E+00
RMM:   3    -0.233446391736E+04    0.10469E-01   -0.56733E-03 19797   0.787E-02    0.146E+00
RMM:   4    -0.233445487241E+04    0.90450E-02   -0.26479E-03 13702   0.120E-01    0.713E-01
RMM:   5    -0.233445950811E+04   -0.46357E-02   -0.25609E-03 19375   0.577E-02    0.116E+00
RMM:   6    -0.233445840598E+04    0.11021E-02   -0.35457E-03 14651   0.103E-01    0.104E+00
RMM:   7    -0.233445729697E+04    0.11090E-02   -0.38547E-03 15355   0.101E-01    0.993E-01
RMM:   8    -0.233445581769E+04    0.14793E-02   -0.17917E-03 13965   0.812E-02    0.813E-01
RMM:   9    -0.233445237687E+04    0.34408E-02   -0.92455E-04 13706   0.725E-02    0.285E-01
RMM:  10    -0.233445201234E+04    0.36453E-03   -0.57198E-04 13835   0.496E-02    0.193E-01
RMM:  11    -0.233445211265E+04   -0.10032E-03   -0.78111E-04 17119   0.347E-02    0.224E-01
RMM:  12    -0.233445198163E+04    0.13103E-03   -0.40356E-04 14301   0.361E-02    0.151E-01
RMM:  13    -0.233445188232E+04    0.99310E-04   -0.16910E-04 13724   0.273E-02    0.932E-02
RMM:  14    -0.233445187349E+04    0.88315E-05   -0.13752E-04 13604   0.142E-02    0.808E-02
RMM:  15    -0.233445185663E+04    0.16858E-04   -0.56986E-05 11062   0.142E-02    0.588E-02
RMM:  16    -0.233445184023E+04    0.16404E-04   -0.29111E-05  8241   0.123E-02    0.249E-02
RMM:  17    -0.233445183944E+04    0.78592E-06   -0.16897E-05  7675   0.749E-03
  33 F= -.23344518E+04 E0= -.23317091E+04  d E =-.222293E-03
       N       E                     dE             d eps       ncg     rms          rms(c)
DAV:   1    -0.233445182442E+04    0.15801E-04   -0.25645E-02 13860   0.169E-01    0.335E-02
RMM:   2    -0.233445382795E+04   -0.20035E-02   -0.79279E-04 13890   0.570E-02    0.599E-01
RMM:   3    -0.233445280197E+04    0.10260E-02   -0.42506E-04 18228   0.259E-02    0.404E-01
RMM:   4    -0.233445308460E+04   -0.28263E-03   -0.12969E-04 13307   0.251E-02    0.485E-01
RMM:   5    -0.233445256986E+04    0.51474E-03   -0.15548E-04 14485   0.177E-02    0.347E-01
RMM:   6    -0.233445194513E+04    0.62473E-03   -0.11555E-04 13326   0.218E-02    0.123E-01
RMM:   7    -0.233445206459E+04   -0.11946E-03   -0.26828E-04 14790   0.272E-02    0.198E-01
RMM:   8    -0.233445202612E+04    0.38471E-04   -0.21750E-04 15185   0.218E-02    0.166E-01
RMM:   9    -0.233445187675E+04    0.14936E-03   -0.74978E-05 11782   0.204E-02    0.678E-02
RMM:  10    -0.233445185373E+04    0.23018E-04   -0.26118E-05  8308   0.117E-02    0.400E-02
RMM:  11    -0.233445185269E+04    0.10444E-05   -0.16399E-05  7765   0.702E-03
  34 F= -.23344519E+04 E0= -.23317091E+04  d E =-.235544E-03
       N       E                     dE             d eps       ncg     rms          rms(c)
DAV:   1    -0.233445157067E+04    0.28306E-03   -0.49819E-01 13700   0.740E-01    0.122E-01
RMM:   2    -0.233446569920E+04   -0.14129E-01   -0.10036E-02 13840   0.214E-01    0.158E+00
RMM:   3    -0.233446515555E+04    0.54365E-03   -0.50026E-03 19502   0.836E-02    0.153E+00
RMM:   4    -0.233446463137E+04    0.52418E-03   -0.15790E-03 13703   0.908E-02    0.151E+00
RMM:   5    -0.233445362707E+04    0.11004E-01   -0.12286E-03 17108   0.495E-02    0.478E-01
RMM:   6    -0.233445528583E+04   -0.16588E-02   -0.21753E-03 13767   0.931E-02    0.782E-01
RMM:   7    -0.233445582681E+04   -0.54098E-03   -0.35169E-03 18278   0.735E-02    0.828E-01
RMM:   8    -0.233445449035E+04    0.13365E-02   -0.15287E-03 13732   0.787E-02    0.644E-01
RMM:   9    -0.233445235259E+04    0.21378E-02   -0.67959E-04 13714   0.553E-02    0.236E-01
RMM:  10    -0.233445208292E+04    0.26967E-03   -0.45830E-04 16051   0.314E-02    0.145E-01
RMM:  11    -0.233445210899E+04   -0.26067E-04   -0.41277E-04 15786   0.304E-02    0.157E-01
RMM:  12    -0.233445207633E+04    0.32659E-04   -0.36243E-04 15707   0.282E-02    0.123E-01
RMM:  13    -0.233445199445E+04    0.81879E-04   -0.10383E-04 12924   0.229E-02    0.550E-02
RMM:  14    -0.233445198808E+04    0.63723E-05   -0.47899E-05 10328   0.107E-02
  35 F= -.23344520E+04 E0= -.23317090E+04  d E =-.135388E-03
       N       E                     dE             d eps       ncg     rms          rms(c)
DAV:   1    -0.233445196437E+04    0.30083E-04   -0.27302E-02 13800   0.175E-01    0.500E-02
RMM:   2    -0.233447207714E+04   -0.20113E-01   -0.28425E-03 15320   0.845E-02    0.190E+00
RMM:   3    -0.233445542304E+04    0.16654E-01   -0.10659E-03 16849   0.489E-02    0.740E-01
RMM:   4    -0.233445964367E+04   -0.42206E-02   -0.94221E-04 14417   0.534E-02    0.117E+00
RMM:   5    -0.233445229806E+04    0.73456E-02   -0.56705E-04 13680   0.520E-02    0.157E-01
RMM:   6    -0.233445296602E+04   -0.66797E-03   -0.11697E-03 14690   0.593E-02    0.419E-01
RMM:   7    -0.233445337187E+04   -0.40585E-03   -0.11471E-03 17247   0.466E-02    0.501E-01
RMM:   8    -0.233445271917E+04    0.65270E-03   -0.42188E-04 13820   0.386E-02    0.359E-01
RMM:   9    -0.233445218331E+04    0.53586E-03   -0.23841E-04 13591   0.321E-02    0.185E-01
RMM:  10    -0.233445203931E+04    0.14401E-03   -0.18773E-04 14949   0.189E-02    0.101E-01
RMM:  11    -0.233445203239E+04    0.69152E-05   -0.12901E-04 14048   0.164E-02    0.958E-02
RMM:  12    -0.233445199836E+04    0.34035E-04   -0.54581E-05 10718   0.134E-02    0.518E-02
RMM:  13    -0.233445198694E+04    0.11419E-04   -0.25206E-05  7793   0.116E-02    0.295E-02
RMM:  14    -0.233445198670E+04    0.23202E-06   -0.16549E-05  7658   0.786E-03
  36 F= -.23344520E+04 E0= -.23317090E+04  d E =-.134014E-03
       N       E                     dE             d eps       ncg     rms          rms(c)
DAV:   1    -0.233445167663E+04    0.31031E-03   -0.49426E-01 13700   0.736E-01    0.110E-01
RMM:   2    -0.233450051412E+04   -0.48837E-01   -0.95751E-03 14003   0.208E-01    0.300E+00
RMM:   3    -0.233445650172E+04    0.44012E-01   -0.27653E-03 15518   0.954E-02    0.734E-01
RMM:   4    -0.233446951444E+04   -0.13013E-01   -0.13446E-03 13857   0.741E-02    0.178E+00
RMM:   5    -0.233445495664E+04    0.14558E-01   -0.11218E-03 14886   0.568E-02    0.638E-01
RMM:   6    -0.233445407777E+04    0.87887E-03   -0.21058E-03 13758   0.941E-02    0.571E-01
RMM:   7    -0.233445540492E+04   -0.13271E-02   -0.19387E-03 13874   0.883E-02    0.762E-01
RMM:   8    -0.233445404888E+04    0.13560E-02   -0.82893E-04 13754   0.591E-02    0.591E-01
RMM:   9    -0.233445228823E+04    0.17607E-02   -0.38009E-04 13693   0.489E-02    0.168E-01
RMM:  10    -0.233445217989E+04    0.10834E-03   -0.19589E-04 13775   0.297E-02    0.129E-01
RMM:  11    -0.233445218023E+04   -0.34680E-06   -0.23271E-04 13919   0.279E-02    0.124E-01
RMM:  12    -0.233445215106E+04    0.29178E-04   -0.15358E-04 13651   0.231E-02    0.995E-02
RMM:  13    -0.233445210045E+04    0.50605E-04   -0.53975E-05 10739   0.175E-02    0.443E-02
RMM:  14    -0.233445209483E+04    0.56184E-05   -0.22897E-05  8463   0.962E-03
  37 F= -.23344521E+04 E0= -.23317091E+04  d E =-.108128E-03
       N       E                     dE             d eps       ncg     rms          rms(c)
DAV:   1    -0.233445209353E+04    0.69194E-05   -0.77172E-03 13900   0.944E-02    0.380E-02
RMM:   2    -0.233446899494E+04   -0.16901E-01   -0.17008E-03 15285   0.645E-02    0.176E+00
RMM:   3    -0.233445414324E+04    0.14852E-01   -0.70086E-04 16255   0.416E-02    0.543E-01
RMM:   4    -0.233445718184E+04   -0.30386E-02   -0.70773E-04 14332   0.471E-02    0.954E-01
RMM:   5    -0.233445246156E+04    0.47203E-02   -0.42355E-04 13680   0.437E-02    0.207E-01
RMM:   6    -0.233445291275E+04   -0.45118E-03   -0.81884E-04 15808   0.440E-02    0.376E-01
RMM:   7    -0.233445264929E+04    0.26346E-03   -0.62418E-04 14809   0.435E-02    0.310E-01
RMM:   8    -0.233445296437E+04   -0.31509E-03   -0.44294E-04 15089   0.315E-02    0.400E-01
RMM:   9    -0.233445217771E+04    0.78666E-03   -0.16355E-04 13469   0.295E-02    0.104E-01
RMM:  10    -0.233445211670E+04    0.61017E-04   -0.68975E-05 11291   0.161E-02    0.667E-02
RMM:  11    -0.233445210701E+04    0.96863E-05   -0.54869E-05 10436   0.114E-02
  38 F= -.23344521E+04 E0= -.23317092E+04  d E =-.120305E-03
       N       E                     dE             d eps       ncg     rms          rms(c)
DAV:   1    -0.233445176734E+04    0.34936E-03   -0.49990E-01 13700   0.740E-01    0.119E-01
RMM:   2    -0.233451271808E+04   -0.60951E-01   -0.11802E-02 14038   0.227E-01    0.332E+00
RMM:   3    -0.233445696584E+04    0.55752E-01   -0.39977E-03 16470   0.106E-01    0.762E-01
RMM:   4    -0.233445567930E+04    0.12865E-02   -0.21573E-03 13707   0.110E-01    0.769E-01
RMM:   5    -0.233446629060E+04   -0.10611E-01   -0.18663E-03 18816   0.539E-02    0.160E+00
RMM:   6    -0.233445531621E+04    0.10974E-01   -0.12577E-03 15166   0.589E-02    0.732E-01
RMM:   7    -0.233445914006E+04   -0.38239E-02   -0.36872E-03 15701   0.888E-02    0.113E+00
RMM:   8    -0.233445382617E+04    0.53139E-02   -0.17224E-03 13741   0.876E-02    0.495E-01
RMM:   9    -0.233445258781E+04    0.12384E-02   -0.74928E-04 13702   0.676E-02    0.264E-01
RMM:  10    -0.233445226697E+04    0.32084E-03   -0.33597E-04 14637   0.321E-02    0.124E-01
RMM:  11    -0.233445236771E+04   -0.10074E-03   -0.40819E-04 14660   0.351E-02    0.183E-01
RMM:  12    -0.233445224576E+04    0.12196E-03   -0.19504E-04 13657   0.284E-02    0.103E-01
RMM:  13    -0.233445219226E+04    0.53491E-04   -0.78296E-05 11942   0.193E-02    0.502E-02
RMM:  14    -0.233445218433E+04    0.79301E-05   -0.57633E-05 10520   0.103E-02
  39 F= -.23344522E+04 E0= -.23317092E+04  d E =-.773253E-04
       N       E                     dE             d eps       ncg     rms          rms(c)
DAV:   1    -0.233445218855E+04    0.37190E-05   -0.10466E-03 14810   0.404E-02    0.402E-02
RMM:   2    -0.233446101977E+04   -0.88312E-02   -0.19873E-03 14951   0.723E-02    0.122E+00
RMM:   3    -0.233445449321E+04    0.65266E-02   -0.82194E-04 16413   0.436E-02    0.637E-01
RMM:   4    -0.233445814903E+04   -0.36558E-02   -0.48693E-04 13784   0.448E-02    0.104E+00
RMM:   5    -0.233445283870E+04    0.53103E-02   -0.41965E-04 15589   0.313E-02    0.299E-01
RMM:   6    -0.233445248417E+04    0.35453E-03   -0.27660E-04 13803   0.333E-02    0.236E-01
RMM:   7    -0.233445303090E+04   -0.54673E-03   -0.71441E-04 17504   0.346E-02    0.393E-01
RMM:   8    -0.233445247297E+04    0.55793E-03   -0.41055E-04 14940   0.342E-02    0.218E-01
RMM:   9    -0.233445223455E+04    0.23842E-03   -0.15682E-04 13398   0.302E-02    0.951E-02
RMM:  10    -0.233445219095E+04    0.43591E-04   -0.54975E-05 10565   0.142E-02    0.500E-02
RMM:  11    -0.233445218410E+04    0.68590E-05   -0.24716E-05  8471   0.841E-03
  40 F= -.23344522E+04 E0= -.23317092E+04  d E =-.770865E-04
