 288 288   0   0
  0.1280206E+02  0.9726678E-09  0.8423550E-09  0.4500000E-08  0.2500000E-15
  1.000000000000000E-004
  CAR 
 unknown system                          
      6.82215766     -6.06066116  301      4.30059124      1.00000000
     -6.061  0.0000E+00  0.0000E+00
     -6.018  0.0000E+00  0.0000E+00
     -5.975  0.0000E+00  0.0000E+00
     -5.932  0.0000E+00  0.0000E+00
     -5.889  0.0000E+00  0.0000E+00
     -5.846  0.0000E+00  0.0000E+00
     -5.803  0.0000E+00  0.0000E+00
     -5.760  0.0000E+00  0.0000E+00
     -5.717  0.0000E+00  0.0000E+00
     -5.674  0.0000E+00  0.0000E+00
     -5.631  0.0000E+00  0.0000E+00
     -5.588  0.0000E+00  0.0000E+00
     -5.545  0.0000E+00  0.0000E+00
     -5.502  0.0000E+00  0.0000E+00
     -5.459  0.0000E+00  0.0000E+00
     -5.417  0.1939E-15  0.8327E-17
     -5.374  0.5041E-14  0.2248E-15
     -5.331  0.1080E-12  0.4864E-14
     -5.288  0.1971E-11  0.8952E-13
     -5.245  0.3059E-10  0.1403E-11
     -5.202  0.4037E-09  0.1874E-10
     -5.159  0.4532E-08  0.2133E-09
     -5.116  0.4328E-07  0.2072E-08
     -5.073  0.3518E-06  0.1718E-07
     -5.030  0.2436E-05  0.1218E-06
     -4.987  0.1438E-04  0.7392E-06
     -4.944  0.7244E-04  0.3850E-05
     -4.901  0.3123E-03  0.1726E-04
     -4.858  0.1156E-02  0.6690E-04
     -4.815  0.3689E-02  0.2253E-03
     -4.772  0.1023E-01  0.6646E-03
     -4.729  0.2488E-01  0.1733E-02
     -4.686  0.5370E-01  0.4039E-02
     -4.644  0.1043E+00  0.8518E-02
     -4.601  0.1848E+00  0.1645E-01
     -4.558  0.3018E+00  0.2941E-01
     -4.515  0.4583E+00  0.4910E-01
     -4.472  0.6507E+00  0.7704E-01
     -4.429  0.8681E+00  0.1143E+00
     -4.386  0.1094E+01  0.1613E+00
     -4.343  0.1307E+01  0.2174E+00
     -4.300  0.1489E+01  0.2813E+00
     -4.257  0.1630E+01  0.3513E+00
     -4.214  0.1732E+01  0.4257E+00
     -4.171  0.1811E+01  0.5035E+00
     -4.128  0.1892E+01  0.5847E+00
     -4.085  0.2000E+01  0.6706E+00
     -4.042  0.2154E+01  0.7631E+00
     -3.999  0.2355E+01  0.8642E+00
     -3.956  0.2587E+01  0.9753E+00
     -3.914  0.2816E+01  0.1096E+01
     -3.871  0.3006E+01  0.1225E+01
     -3.828  0.3128E+01  0.1360E+01
     -3.785  0.3171E+01  0.1496E+01
     -3.742  0.3151E+01  0.1631E+01
     -3.699  0.3104E+01  0.1764E+01
     -3.656  0.3075E+01  0.1896E+01
     -3.613  0.3105E+01  0.2030E+01
     -3.570  0.3212E+01  0.2168E+01
     -3.527  0.3390E+01  0.2313E+01
     -3.484  0.3613E+01  0.2468E+01
     -3.441  0.3841E+01  0.2633E+01
     -3.398  0.4035E+01  0.2807E+01
     -3.355  0.4164E+01  0.2985E+01
     -3.312  0.4220E+01  0.3167E+01
     -3.269  0.4218E+01  0.3348E+01
     -3.226  0.4194E+01  0.3528E+01
     -3.183  0.4198E+01  0.3708E+01
     -3.141  0.4270E+01  0.3892E+01
     -3.098  0.4426E+01  0.4082E+01
     -3.055  0.4654E+01  0.4281E+01
     -3.012  0.4914E+01  0.4492E+01
     -2.969  0.5153E+01  0.4714E+01
     -2.926  0.5322E+01  0.4942E+01
     -2.883  0.5398E+01  0.5174E+01
     -2.840  0.5399E+01  0.5406E+01
     -2.797  0.5379E+01  0.5637E+01
     -2.754  0.5397E+01  0.5869E+01
     -2.711  0.5477E+01  0.6104E+01
     -2.668  0.5588E+01  0.6344E+01
     -2.625  0.5664E+01  0.6587E+01
     -2.582  0.5659E+01  0.6830E+01
     -2.539  0.5585E+01  0.7070E+01
     -2.496  0.5527E+01  0.7307E+01
     -2.453  0.5596E+01  0.7548E+01
     -2.411  0.5876E+01  0.7800E+01
     -2.368  0.6362E+01  0.8073E+01
     -2.325  0.6934E+01  0.8371E+01
     -2.282  0.7400E+01  0.8689E+01
     -2.239  0.7589E+01  0.9015E+01
     -2.196  0.7457E+01  0.9335E+01
     -2.153  0.7126E+01  0.9641E+01
     -2.110  0.6827E+01  0.9934E+01
     -2.067  0.6772E+01  0.1022E+02
     -2.024  0.7052E+01  0.1053E+02
     -1.981  0.7598E+01  0.1085E+02
     -1.938  0.8222E+01  0.1121E+02
     -1.895  0.8709E+01  0.1158E+02
     -1.852  0.8923E+01  0.1196E+02
     -1.809  0.8873E+01  0.1235E+02
     -1.766  0.8701E+01  0.1272E+02
     -1.723  0.8583E+01  0.1309E+02
     -1.681  0.8629E+01  0.1346E+02
     -1.638  0.8839E+01  0.1384E+02
     -1.595  0.9145E+01  0.1423E+02
     -1.552  0.9467E+01  0.1464E+02
     -1.509  0.9762E+01  0.1506E+02
     -1.466  0.1002E+02  0.1549E+02
     -1.423  0.1024E+02  0.1593E+02
     -1.380  0.1041E+02  0.1637E+02
     -1.337  0.1054E+02  0.1683E+02
     -1.294  0.1073E+02  0.1729E+02
     -1.251  0.1112E+02  0.1776E+02
     -1.208  0.1183E+02  0.1827E+02
     -1.165  0.1285E+02  0.1882E+02
     -1.122  0.1397E+02  0.1942E+02
     -1.079  0.1487E+02  0.2006E+02
     -1.036  0.1535E+02  0.2072E+02
     -0.993  0.1544E+02  0.2138E+02
     -0.950  0.1547E+02  0.2205E+02
     -0.908  0.1584E+02  0.2273E+02
     -0.865  0.1679E+02  0.2345E+02
     -0.822  0.1833E+02  0.2424E+02
     -0.779  0.2033E+02  0.2511E+02
     -0.736  0.2273E+02  0.2609E+02
     -0.693  0.2565E+02  0.2719E+02
     -0.650  0.2928E+02  0.2845E+02
     -0.607  0.3359E+02  0.2989E+02
     -0.564  0.3826E+02  0.3153E+02
     -0.521  0.4271E+02  0.3337E+02
     -0.478  0.4645E+02  0.3536E+02
     -0.435  0.4930E+02  0.3748E+02
     -0.392  0.5141E+02  0.3968E+02
     -0.349  0.5309E+02  0.4196E+02
     -0.306  0.5454E+02  0.4431E+02
     -0.263  0.5579E+02  0.4670E+02
     -0.220  0.5675E+02  0.4914E+02
     -0.178  0.5732E+02  0.5160E+02
     -0.135  0.5755E+02  0.5407E+02
     -0.092  0.5762E+02  0.5655E+02
     -0.049  0.5778E+02  0.5903E+02
     -0.006  0.5824E+02  0.6153E+02
      0.037  0.5919E+02  0.6407E+02
      0.080  0.6080E+02  0.6668E+02
      0.123  0.6319E+02  0.6940E+02
      0.166  0.6629E+02  0.7224E+02
      0.209  0.6983E+02  0.7524E+02
      0.252  0.7343E+02  0.7839E+02
      0.295  0.7672E+02  0.8169E+02
      0.338  0.7952E+02  0.8510E+02
      0.381  0.8178E+02  0.8862E+02
      0.424  0.8356E+02  0.9220E+02
      0.467  0.8489E+02  0.9585E+02
      0.510  0.8581E+02  0.9953E+02
      0.553  0.8632E+02  0.1032E+03
      0.595  0.8644E+02  0.1070E+03
      0.638  0.8618E+02  0.1107E+03
      0.681  0.8552E+02  0.1143E+03
      0.724  0.8440E+02  0.1180E+03
      0.767  0.8280E+02  0.1215E+03
      0.810  0.8087E+02  0.1250E+03
      0.853  0.7896E+02  0.1284E+03
      0.896  0.7744E+02  0.1317E+03
      0.939  0.7649E+02  0.1350E+03
      0.982  0.7605E+02  0.1382E+03
      1.025  0.7584E+02  0.1415E+03
      1.068  0.7554E+02  0.1447E+03
      1.111  0.7500E+02  0.1480E+03
      1.154  0.7430E+02  0.1512E+03
      1.197  0.7374E+02  0.1543E+03
      1.240  0.7356E+02  0.1575E+03
      1.283  0.7374E+02  0.1606E+03
      1.325  0.7393E+02  0.1638E+03
      1.368  0.7362E+02  0.1670E+03
      1.411  0.7255E+02  0.1701E+03
      1.454  0.7091E+02  0.1731E+03
      1.497  0.6926E+02  0.1761E+03
      1.540  0.6823E+02  0.1791E+03
      1.583  0.6821E+02  0.1820E+03
      1.626  0.6927E+02  0.1850E+03
      1.669  0.7120E+02  0.1880E+03
      1.712  0.7363E+02  0.1912E+03
      1.755  0.7619E+02  0.1944E+03
      1.798  0.7865E+02  0.1978E+03
      1.841  0.8089E+02  0.2013E+03
      1.884  0.8287E+02  0.2049E+03
      1.927  0.8461E+02  0.2085E+03
      1.970  0.8617E+02  0.2122E+03
      2.013  0.8764E+02  0.2160E+03
      2.056  0.8910E+02  0.2198E+03
      2.098  0.9061E+02  0.2237E+03
      2.141  0.9219E+02  0.2276E+03
      2.184  0.9383E+02  0.2317E+03
      2.227  0.9557E+02  0.2358E+03
      2.270  0.9760E+02  0.2400E+03
      2.313  0.1002E+03  0.2443E+03
      2.356  0.1036E+03  0.2487E+03
      2.399  0.1077E+03  0.2533E+03
      2.442  0.1122E+03  0.2581E+03
      2.485  0.1167E+03  0.2632E+03
      2.528  0.1207E+03  0.2683E+03
      2.571  0.1241E+03  0.2737E+03
      2.614  0.1265E+03  0.2791E+03
      2.657  0.1281E+03  0.2846E+03
      2.700  0.1289E+03  0.2901E+03
      2.743  0.1296E+03  0.2957E+03
      2.786  0.1307E+03  0.3013E+03
      2.828  0.1326E+03  0.3070E+03
      2.871  0.1355E+03  0.3128E+03
      2.914  0.1389E+03  0.3188E+03
      2.957  0.1414E+03  0.3249E+03
      3.000  0.1412E+03  0.3309E+03
      3.043  0.1375E+03  0.3368E+03
      3.086  0.1303E+03  0.3424E+03
      3.129  0.1210E+03  0.3476E+03
      3.172  0.1114E+03  0.3524E+03
      3.215  0.1032E+03  0.3568E+03
      3.258  0.9721E+02  0.3610E+03
      3.301  0.9364E+02  0.3650E+03
      3.344  0.9198E+02  0.3690E+03
      3.387  0.9147E+02  0.3729E+03
      3.430  0.9124E+02  0.3768E+03
      3.473  0.9056E+02  0.3807E+03
      3.516  0.8907E+02  0.3845E+03
      3.559  0.8696E+02  0.3883E+03
      3.601  0.8489E+02  0.3919E+03
      3.644  0.8373E+02  0.3955E+03
      3.687  0.8409E+02  0.3991E+03
      3.730  0.8604E+02  0.4028E+03
      3.773  0.8905E+02  0.4066E+03
      3.816  0.9233E+02  0.4106E+03
      3.859  0.9527E+02  0.4147E+03
      3.902  0.9765E+02  0.4189E+03
      3.945  0.9960E+02  0.4232E+03
      3.988  0.1013E+03  0.4275E+03
      4.031  0.1027E+03  0.4319E+03
      4.074  0.1035E+03  0.4364E+03
      4.117  0.1037E+03  0.4408E+03
      4.160  0.1030E+03  0.4453E+03
      4.203  0.1018E+03  0.4496E+03
      4.246  0.1005E+03  0.4539E+03
      4.289  0.9937E+02  0.4582E+03
      4.331  0.9883E+02  0.4625E+03
      4.374  0.9896E+02  0.4667E+03
      4.417  0.9959E+02  0.4710E+03
      4.460  0.1004E+03  0.4753E+03
      4.503  0.1008E+03  0.4796E+03
      4.546  0.1006E+03  0.4839E+03
      4.589  0.9998E+02  0.4882E+03
      4.632  0.9925E+02  0.4925E+03
      4.675  0.9903E+02  0.4967E+03
      4.718  0.9978E+02  0.5010E+03
      4.761  0.1016E+03  0.5054E+03
      4.804  0.1044E+03  0.5099E+03
      4.847  0.1075E+03  0.5145E+03
      4.890  0.1104E+03  0.5192E+03
      4.933  0.1126E+03  0.5241E+03
      4.976  0.1133E+03  0.5289E+03
      5.019  0.1117E+03  0.5337E+03
      5.062  0.1066E+03  0.5383E+03
      5.104  0.9746E+02  0.5425E+03
      5.147  0.8416E+02  0.5461E+03
      5.190  0.6776E+02  0.5490E+03
      5.233  0.5023E+02  0.5512E+03
      5.276  0.3392E+02  0.5526E+03
      5.319  0.2068E+02  0.5535E+03
      5.362  0.1129E+02  0.5540E+03
      5.405  0.5494E+01  0.5542E+03
      5.448  0.2372E+01  0.5543E+03
      5.491  0.9069E+00  0.5544E+03
      5.534  0.3065E+00  0.5544E+03
      5.577  0.9157E-01  0.5544E+03
      5.620  0.2419E-01  0.5544E+03
      5.663  0.5653E-02  0.5544E+03
      5.706  0.1169E-02  0.5544E+03
      5.749  0.2139E-03  0.5544E+03
      5.792  0.3458E-04  0.5544E+03
      5.834  0.4927E-05  0.5544E+03
      5.877  0.6166E-06  0.5544E+03
      5.920  0.6750E-07  0.5544E+03
      5.963  0.6436E-08  0.5544E+03
      6.006  0.5323E-09  0.5544E+03
      6.049  0.3803E-10  0.5544E+03
      6.092  0.2340E-11  0.5544E+03
      6.135  0.1231E-12  0.5544E+03
      6.178  0.5365E-14  0.5544E+03
      6.221  0.1939E-15  0.5544E+03
      6.264  0.0000E+00  0.5544E+03
      6.307  0.0000E+00  0.5544E+03
      6.350  0.0000E+00  0.5544E+03
      6.393  0.0000E+00  0.5544E+03
      6.436  0.0000E+00  0.5544E+03
      6.479  0.0000E+00  0.5544E+03
      6.522  0.0000E+00  0.5544E+03
      6.565  0.0000E+00  0.5544E+03
      6.607  0.0000E+00  0.5544E+03
      6.650  0.0000E+00  0.5544E+03
      6.693  0.0000E+00  0.5544E+03
      6.736  0.0000E+00  0.5544E+03
      6.779  0.0000E+00  0.5544E+03
      6.822  0.0000E+00  0.5544E+03
