 288 288   0   0
  0.1280206E+02  0.9726678E-09  0.8423550E-09  0.4500000E-08  0.2500000E-15
  1.000000000000000E-004
  CAR 
 unknown system                          
      6.74381575     -6.05735178  301      4.29890419      1.00000000
     -6.057  0.0000E+00  0.0000E+00
     -6.015  0.0000E+00  0.0000E+00
     -5.972  0.0000E+00  0.0000E+00
     -5.929  0.0000E+00  0.0000E+00
     -5.887  0.0000E+00  0.0000E+00
     -5.844  0.0000E+00  0.0000E+00
     -5.801  0.0000E+00  0.0000E+00
     -5.759  0.0000E+00  0.0000E+00
     -5.716  0.0000E+00  0.0000E+00
     -5.673  0.0000E+00  0.0000E+00
     -5.631  0.0000E+00  0.0000E+00
     -5.588  0.0000E+00  0.0000E+00
     -5.545  0.0000E+00  0.0000E+00
     -5.503  0.0000E+00  0.0000E+00
     -5.460  0.0000E+00  0.0000E+00
     -5.417  0.1626E-15  0.6939E-17
     -5.375  0.3675E-14  0.1638E-15
     -5.332  0.7867E-13  0.3521E-14
     -5.289  0.1435E-11  0.6474E-13
     -5.247  0.2230E-10  0.1016E-11
     -5.204  0.2953E-09  0.1362E-10
     -5.161  0.3333E-08  0.1558E-09
     -5.119  0.3207E-07  0.1524E-08
     -5.076  0.2632E-06  0.1275E-07
     -5.033  0.1843E-05  0.9141E-07
     -4.991  0.1103E-04  0.5620E-06
     -4.948  0.5644E-04  0.2971E-05
     -4.905  0.2476E-03  0.1354E-04
     -4.863  0.9341E-03  0.5339E-04
     -4.820  0.3044E-02  0.1833E-03
     -4.777  0.8624E-02  0.5513E-03
     -4.735  0.2144E-01  0.1466E-02
     -4.692  0.4730E-01  0.3484E-02
     -4.649  0.9382E-01  0.7488E-02
     -4.607  0.1695E+00  0.1472E-01
     -4.564  0.2819E+00  0.2675E-01
     -4.521  0.4354E+00  0.4533E-01
     -4.479  0.6281E+00  0.7213E-01
     -4.436  0.8500E+00  0.1084E+00
     -4.393  0.1084E+01  0.1546E+00
     -4.351  0.1308E+01  0.2105E+00
     -4.308  0.1500E+01  0.2745E+00
     -4.265  0.1646E+01  0.3447E+00
     -4.223  0.1745E+01  0.4192E+00
     -4.180  0.1811E+01  0.4964E+00
     -4.137  0.1871E+01  0.5763E+00
     -4.095  0.1958E+01  0.6598E+00
     -4.052  0.2096E+01  0.7492E+00
     -4.009  0.2295E+01  0.8472E+00
     -3.966  0.2540E+01  0.9555E+00
     -3.924  0.2796E+01  0.1075E+01
     -3.881  0.3018E+01  0.1204E+01
     -3.838  0.3166E+01  0.1339E+01
     -3.796  0.3218E+01  0.1476E+01
     -3.753  0.3187E+01  0.1612E+01
     -3.710  0.3110E+01  0.1745E+01
     -3.668  0.3045E+01  0.1875E+01
     -3.625  0.3046E+01  0.2005E+01
     -3.582  0.3144E+01  0.2139E+01
     -3.540  0.3335E+01  0.2281E+01
     -3.497  0.3588E+01  0.2434E+01
     -3.454  0.3849E+01  0.2598E+01
     -3.412  0.4065E+01  0.2772E+01
     -3.369  0.4198E+01  0.2951E+01
     -3.326  0.4239E+01  0.3132E+01
     -3.284  0.4210E+01  0.3312E+01
     -3.241  0.4159E+01  0.3489E+01
     -3.198  0.4142E+01  0.3666E+01
     -3.156  0.4205E+01  0.3845E+01
     -3.113  0.4365E+01  0.4031E+01
     -3.070  0.4602E+01  0.4228E+01
     -3.028  0.4871E+01  0.4436E+01
     -2.985  0.5117E+01  0.4654E+01
     -2.942  0.5293E+01  0.4880E+01
     -2.900  0.5375E+01  0.5109E+01
     -2.857  0.5382E+01  0.5339E+01
     -2.814  0.5363E+01  0.5568E+01
     -2.772  0.5378E+01  0.5797E+01
     -2.729  0.5456E+01  0.6030E+01
     -2.686  0.5573E+01  0.6268E+01
     -2.644  0.5663E+01  0.6509E+01
     -2.601  0.5666E+01  0.6751E+01
     -2.558  0.5579E+01  0.6989E+01
     -2.516  0.5479E+01  0.7223E+01
     -2.473  0.5488E+01  0.7457E+01
     -2.430  0.5711E+01  0.7701E+01
     -2.388  0.6170E+01  0.7964E+01
     -2.345  0.6771E+01  0.8253E+01
     -2.302  0.7320E+01  0.8565E+01
     -2.260  0.7618E+01  0.8890E+01
     -2.217  0.7568E+01  0.9213E+01
     -2.174  0.7247E+01  0.9523E+01
     -2.132  0.6873E+01  0.9816E+01
     -2.089  0.6693E+01  0.1010E+02
     -2.046  0.6851E+01  0.1039E+02
     -2.004  0.7331E+01  0.1071E+02
     -1.961  0.7969E+01  0.1105E+02
     -1.918  0.8544E+01  0.1141E+02
     -1.876  0.8877E+01  0.1179E+02
     -1.833  0.8922E+01  0.1217E+02
     -1.790  0.8780E+01  0.1255E+02
     -1.748  0.8627E+01  0.1291E+02
     -1.705  0.8603E+01  0.1328E+02
     -1.662  0.8747E+01  0.1365E+02
     -1.620  0.9008E+01  0.1404E+02
     -1.577  0.9308E+01  0.1444E+02
     -1.534  0.9595E+01  0.1484E+02
     -1.492  0.9859E+01  0.1527E+02
     -1.449  0.1010E+02  0.1570E+02
     -1.406  0.1032E+02  0.1614E+02
     -1.364  0.1048E+02  0.1658E+02
     -1.321  0.1063E+02  0.1704E+02
     -1.278  0.1087E+02  0.1750E+02
     -1.236  0.1138E+02  0.1799E+02
     -1.193  0.1224E+02  0.1851E+02
     -1.150  0.1335E+02  0.1908E+02
     -1.108  0.1445E+02  0.1970E+02
     -1.065  0.1520E+02  0.2034E+02
     -1.022  0.1548E+02  0.2100E+02
     -0.980  0.1546E+02  0.2166E+02
     -0.937  0.1553E+02  0.2233E+02
     -0.894  0.1609E+02  0.2301E+02
     -0.852  0.1731E+02  0.2375E+02
     -0.809  0.1911E+02  0.2457E+02
     -0.766  0.2133E+02  0.2548E+02
     -0.724  0.2396E+02  0.2650E+02
     -0.681  0.2714E+02  0.2766E+02
     -0.638  0.3102E+02  0.2898E+02
     -0.596  0.3548E+02  0.3050E+02
     -0.553  0.4009E+02  0.3221E+02
     -0.510  0.4426E+02  0.3410E+02
     -0.468  0.4762E+02  0.3613E+02
     -0.425  0.5014E+02  0.3827E+02
     -0.382  0.5209E+02  0.4049E+02
     -0.339  0.5372E+02  0.4278E+02
     -0.297  0.5513E+02  0.4513E+02
     -0.254  0.5627E+02  0.4754E+02
     -0.211  0.5705E+02  0.4997E+02
     -0.169  0.5743E+02  0.5242E+02
     -0.126  0.5754E+02  0.5487E+02
     -0.083  0.5762E+02  0.5733E+02
     -0.041  0.5788E+02  0.5980E+02
      0.002  0.5849E+02  0.6230E+02
      0.045  0.5963E+02  0.6484E+02
      0.087  0.6145E+02  0.6747E+02
      0.130  0.6405E+02  0.7020E+02
      0.173  0.6732E+02  0.7307E+02
      0.215  0.7090E+02  0.7610E+02
      0.258  0.7437E+02  0.7927E+02
      0.301  0.7745E+02  0.8257E+02
      0.343  0.8003E+02  0.8599E+02
      0.386  0.8213E+02  0.8949E+02
      0.429  0.8383E+02  0.9307E+02
      0.471  0.8514E+02  0.9670E+02
      0.514  0.8604E+02  0.1004E+03
      0.557  0.8647E+02  0.1041E+03
      0.599  0.8647E+02  0.1078E+03
      0.642  0.8606E+02  0.1114E+03
      0.685  0.8524E+02  0.1151E+03
      0.727  0.8396E+02  0.1186E+03
      0.770  0.8222E+02  0.1222E+03
      0.813  0.8020E+02  0.1256E+03
      0.855  0.7831E+02  0.1289E+03
      0.898  0.7693E+02  0.1322E+03
      0.941  0.7619E+02  0.1355E+03
      0.983  0.7594E+02  0.1387E+03
      1.026  0.7580E+02  0.1419E+03
      1.069  0.7547E+02  0.1451E+03
      1.111  0.7483E+02  0.1483E+03
      1.154  0.7407E+02  0.1515E+03
      1.197  0.7352E+02  0.1546E+03
      1.239  0.7343E+02  0.1578E+03
      1.282  0.7372E+02  0.1609E+03
      1.325  0.7396E+02  0.1641E+03
      1.367  0.7363E+02  0.1672E+03
      1.410  0.7249E+02  0.1703E+03
      1.453  0.7079E+02  0.1733E+03
      1.495  0.6912E+02  0.1763E+03
      1.538  0.6809E+02  0.1792E+03
      1.581  0.6808E+02  0.1821E+03
      1.623  0.6915E+02  0.1850E+03
      1.666  0.7104E+02  0.1881E+03
      1.709  0.7342E+02  0.1912E+03
      1.751  0.7593E+02  0.1944E+03
      1.794  0.7835E+02  0.1978E+03
      1.837  0.8056E+02  0.2012E+03
      1.879  0.8254E+02  0.2047E+03
      1.922  0.8432E+02  0.2083E+03
      1.965  0.8595E+02  0.2120E+03
      2.007  0.8752E+02  0.2157E+03
      2.050  0.8906E+02  0.2195E+03
      2.093  0.9059E+02  0.2234E+03
      2.135  0.9209E+02  0.2273E+03
      2.178  0.9358E+02  0.2313E+03
      2.221  0.9515E+02  0.2354E+03
      2.263  0.9701E+02  0.2395E+03
      2.306  0.9944E+02  0.2438E+03
      2.349  0.1026E+03  0.2482E+03
      2.391  0.1066E+03  0.2527E+03
      2.434  0.1111E+03  0.2574E+03
      2.477  0.1156E+03  0.2624E+03
      2.519  0.1200E+03  0.2675E+03
      2.562  0.1237E+03  0.2728E+03
      2.605  0.1265E+03  0.2782E+03
      2.647  0.1284E+03  0.2837E+03
      2.690  0.1294E+03  0.2892E+03
      2.733  0.1301E+03  0.2947E+03
      2.775  0.1308E+03  0.3003E+03
      2.818  0.1324E+03  0.3060E+03
      2.861  0.1350E+03  0.3117E+03
      2.903  0.1384E+03  0.3176E+03
      2.946  0.1412E+03  0.3237E+03
      2.989  0.1419E+03  0.3297E+03
      3.031  0.1390E+03  0.3356E+03
      3.074  0.1326E+03  0.3413E+03
      3.117  0.1235E+03  0.3466E+03
      3.159  0.1138E+03  0.3514E+03
      3.202  0.1050E+03  0.3559E+03
      3.245  0.9825E+02  0.3601E+03
      3.288  0.9390E+02  0.3641E+03
      3.330  0.9161E+02  0.3680E+03
      3.373  0.9075E+02  0.3719E+03
      3.416  0.9050E+02  0.3757E+03
      3.458  0.9009E+02  0.3796E+03
      3.501  0.8898E+02  0.3834E+03
      3.544  0.8713E+02  0.3871E+03
      3.586  0.8503E+02  0.3907E+03
      3.629  0.8356E+02  0.3943E+03
      3.672  0.8349E+02  0.3979E+03
      3.714  0.8510E+02  0.4015E+03
      3.757  0.8801E+02  0.4052E+03
      3.800  0.9145E+02  0.4091E+03
      3.842  0.9467E+02  0.4132E+03
      3.885  0.9732E+02  0.4173E+03
      3.928  0.9942E+02  0.4216E+03
      3.970  0.1011E+03  0.4259E+03
      4.013  0.1025E+03  0.4303E+03
      4.056  0.1034E+03  0.4347E+03
      4.098  0.1036E+03  0.4391E+03
      4.141  0.1032E+03  0.4435E+03
      4.184  0.1022E+03  0.4479E+03
      4.226  0.1009E+03  0.4522E+03
      4.269  0.9970E+02  0.4564E+03
      4.312  0.9882E+02  0.4607E+03
      4.354  0.9852E+02  0.4649E+03
      4.397  0.9885E+02  0.4691E+03
      4.440  0.9954E+02  0.4733E+03
      4.482  0.1002E+03  0.4776E+03
      4.525  0.1003E+03  0.4819E+03
      4.568  0.9988E+02  0.4861E+03
      4.610  0.9907E+02  0.4904E+03
      4.653  0.9846E+02  0.4946E+03
      4.696  0.9865E+02  0.4988E+03
      4.738  0.9997E+02  0.5030E+03
      4.781  0.1024E+03  0.5074E+03
      4.824  0.1055E+03  0.5119E+03
      4.866  0.1088E+03  0.5166E+03
      4.909  0.1119E+03  0.5213E+03
      4.952  0.1141E+03  0.5262E+03
      4.994  0.1147E+03  0.5311E+03
      5.037  0.1123E+03  0.5359E+03
      5.080  0.1058E+03  0.5404E+03
      5.122  0.9435E+02  0.5444E+03
      5.165  0.7855E+02  0.5478E+03
      5.208  0.6018E+02  0.5503E+03
      5.250  0.4192E+02  0.5521E+03
      5.293  0.2627E+02  0.5533E+03
      5.336  0.1469E+02  0.5539E+03
      5.378  0.7280E+01  0.5542E+03
      5.421  0.3179E+01  0.5543E+03
      5.464  0.1219E+01  0.5544E+03
      5.506  0.4085E+00  0.5544E+03
      5.549  0.1194E+00  0.5544E+03
      5.592  0.3036E-01  0.5544E+03
      5.634  0.6702E-02  0.5544E+03
      5.677  0.1283E-02  0.5544E+03
      5.720  0.2124E-03  0.5544E+03
      5.762  0.3040E-04  0.5544E+03
      5.805  0.3756E-05  0.5544E+03
      5.848  0.4001E-06  0.5544E+03
      5.890  0.3670E-07  0.5544E+03
      5.933  0.2897E-08  0.5544E+03
      5.976  0.1965E-09  0.5544E+03
      6.018  0.1145E-10  0.5544E+03
      6.061  0.5721E-12  0.5544E+03
      6.104  0.2348E-13  0.5544E+03
      6.146  0.4553E-15  0.5544E+03
      6.189  0.0000E+00  0.5544E+03
      6.232  0.0000E+00  0.5544E+03
      6.274  0.0000E+00  0.5544E+03
      6.317  0.0000E+00  0.5544E+03
      6.360  0.0000E+00  0.5544E+03
      6.402  0.0000E+00  0.5544E+03
      6.445  0.0000E+00  0.5544E+03
      6.488  0.0000E+00  0.5544E+03
      6.530  0.0000E+00  0.5544E+03
      6.573  0.0000E+00  0.5544E+03
      6.616  0.0000E+00  0.5544E+03
      6.658  0.0000E+00  0.5544E+03
      6.701  0.0000E+00  0.5544E+03
      6.744  0.0000E+00  0.5544E+03
