<?xml version="1.0" encoding="ISO-8859-1"?>
<modeling>
 <generator>
  <i name="program" type="string">vasp </i>
  <i name="version" type="string">5.4.4.18Apr17-6-g9f103f2a35  </i>
  <i name="subversion" type="string">(build Sep 27 2018 12:46:37) complex + VL-xray_ parallel </i>
  <i name="platform" type="string">LLNL_Quartz_ifc </i>
  <i name="date" type="string">2021 09 26 </i>
  <i name="time" type="string">19:25:38 </i>
 </generator>
 <incar>
  <i type="int" name="ISTART">     2</i>
  <i type="string" name="PREC">accurate</i>
  <i type="string" name="ALGO"> Fast</i>
  <i type="int" name="ICHARG">     2</i>
  <i type="int" name="INIWAV">     1</i>
  <i type="int" name="NELM">   100</i>
  <i type="int" name="NELMIN">     4</i>
  <i type="int" name="IBRION">     2</i>
  <i name="EDIFF">      0.00000100</i>
  <i type="int" name="NSW">     5</i>
  <i type="int" name="ISIF">     2</i>
  <i type="int" name="ISYM">     2</i>
  <i name="ENCUT">    450.00000000</i>
  <i name="POTIM">      0.25000000</i>
  <i type="string" name="LREAL"> Auto</i>
  <i type="int" name="ISMEAR">     0</i>
  <i name="SIGMA">      0.15000000</i>
  <i type="logical" name="LWAVE"> F  </i>
  <i type="logical" name="LCHARG"> F  </i>
  <i type="int" name="ICORELEVEL">     0</i>
  <i type="int" name="CLNT">     1</i>
  <i type="int" name="CLN">     1</i>
  <i type="int" name="INCAR     ">     0</i>
  <i name="CLZ">      0.00000000</i>
  <v type="int" name="KPOINT_BSE">    -1     0     0     0</v>
  <i type="int" name="NELM">   100</i>
 </incar>
 <structure name="primitive_cell" >
  <crystal>
   <varray name="basis" >
    <v>       9.72667804       0.00000000       0.00000000 </v>
    <v>       0.00000000       8.42355028       0.00000000 </v>
    <v>       0.00000000       0.00000000      45.00000000 </v>
   </varray>
   <i name="volume">   3686.99226691 </i>
   <varray name="rec_basis" >
    <v>       0.10281002       0.00000000       0.00000000 </v>
    <v>       0.00000000       0.11871479       0.00000000 </v>
    <v>       0.00000000       0.00000000       0.02222222 </v>
   </varray>
  </crystal>
  <varray name="positions" >
   <v>       0.06169210       0.03150854       0.12465333 </v>
   <v>      -0.05834309       0.11239724       0.16683635 </v>
   <v>      -0.05956501      -0.21100457       0.12490428 </v>
   <v>       0.06796969      -0.13649383       0.16690073 </v>
   <v>      -0.18605982       0.03277935       0.12451659 </v>
   <v>       0.19134276      -0.21268550       0.12478905 </v>
   <v>       0.19412766       0.11472247       0.16733583 </v>
   <v>       0.31250344       0.03255107       0.12458846 </v>
   <v>      -0.06020972       0.28728243       0.12459243 </v>
   <v>       0.19128262       0.28729319       0.12471280 </v>
   <v>      -0.18166748      -0.13677067       0.16689247 </v>
   <v>       0.06870769       0.36467764       0.16686532 </v>
   <v>       0.31831895      -0.13595417       0.16711708 </v>
   <v>      -0.18045005       0.36300200       0.16651081 </v>
   <v>      -0.30711201       0.11427519       0.16719111 </v>
   <v>      -0.30955240      -0.21300743       0.12479847 </v>
   <v>       0.18576908      -0.04436083       0.21202098 </v>
   <v>      -0.05717224      -0.38656599       0.16675655 </v>
   <v>      -0.06510611      -0.04487878       0.21201688 </v>
   <v>       0.05964326       0.20606284       0.21197393 </v>
   <v>       0.19234231      -0.38607545       0.16695291 </v>
   <v>       0.06319405      -0.46706246       0.12448530 </v>
   <v>      -0.30918058       0.28770581       0.12466100 </v>
   <v>       0.31950958       0.36413223       0.16659062 </v>
   <v>       0.43980432      -0.21210376       0.12454747 </v>
   <v>       0.44192948       0.11349516       0.16696003 </v>
   <v>       0.43991689       0.28771733       0.12461702 </v>
   <v>       0.05919362      -0.29454967       0.21180554 </v>
   <v>       0.30936440       0.20545369       0.21188672 </v>
   <v>      -0.18739203      -0.46745278       0.12465863 </v>
   <v>      -0.43752340       0.03170705       0.12477419 </v>
   <v>      -0.19047929       0.20535147       0.21192544 </v>
   <v>       0.31351109      -0.46866131       0.12448549 </v>
   <v>      -0.43235209      -0.13556159       0.16709087 </v>
   <v>       0.30992967      -0.29403837       0.21186403 </v>
   <v>      -0.30671542      -0.38632647       0.16702230 </v>
   <v>      -0.18986052      -0.29431674       0.21182284 </v>
   <v>       0.43491305      -0.04468292       0.21197773 </v>
   <v>      -0.31515480      -0.04472471       0.21194711 </v>
   <v>       0.18352918       0.45566975       0.21194475 </v>
   <v>      -0.06450121       0.45493297       0.21210441 </v>
   <v>       0.44222982      -0.38706500       0.16720148 </v>
   <v>      -0.43151254       0.36496768       0.16691244 </v>
   <v>       0.06623821       0.03759337       0.25597787 </v>
   <v>      -0.05833232      -0.21255060       0.25631672 </v>
   <v>      -0.18354213       0.03743604       0.25620008 </v>
   <v>       0.19129572      -0.21283783       0.25624071 </v>
   <v>      -0.05860213       0.28754824       0.25601571 </v>
   <v>      -0.44012440       0.20553593       0.21185583 </v>
   <v>       0.31601557       0.03772513       0.25619427 </v>
   <v>       0.19134273       0.28738945       0.25605602 </v>
   <v>      -0.43745868      -0.46847127       0.12461663 </v>
   <v>       0.43572213       0.45602382       0.21209127 </v>
   <v>      -0.31555075       0.45487683       0.21199786 </v>
   <v>      -0.44054266      -0.29441279       0.21191204 </v>
   <v>      -0.30865930      -0.21274620       0.25624517 </v>
   <v>       0.06628384      -0.46241913       0.25618689 </v>
   <v>      -0.30863076       0.28727938       0.25620410 </v>
   <v>       0.44152926      -0.21274636       0.25621992 </v>
   <v>       0.44146619       0.28735099       0.25626001 </v>
   <v>      -0.18426685      -0.46240705       0.25607675 </v>
   <v>      -0.43321062       0.03729971       0.25601045 </v>
   <v>       0.31609698      -0.46334719       0.25615071 </v>
   <v>       0.05422885      -0.12698537       0.30035456 </v>
   <v>       0.17960588       0.12313956       0.30032037 </v>
   <v>      -0.07035347       0.12309858       0.30044161 </v>
   <v>       0.30454856      -0.12669043       0.30033214 </v>
   <v>      -0.19543768      -0.12697054       0.30033912 </v>
   <v>       0.05461676       0.37294480       0.30044046 </v>
   <v>      -0.43381125      -0.46283651       0.25623561 </v>
   <v>       0.17962993      -0.37704457       0.30033881 </v>
   <v>       0.42934242       0.12273990       0.30035435 </v>
   <v>      -0.07030092      -0.37699995       0.30042004 </v>
   <v>       0.30449013       0.37292452       0.30037418 </v>
   <v>      -0.32018403       0.12315163       0.30035848 </v>
   <v>      -0.19531102       0.37278452       0.30046785 </v>
   <v>       0.42963194      -0.37696215       0.30039768 </v>
   <v>      -0.44564221      -0.12702674       0.30033433 </v>
   <v>      -0.32050357      -0.37662599       0.30024878 </v>
   <v>      -0.44538040       0.37280525       0.30042377 </v>
   <v>      -0.05851685      -0.04774306       0.34500476 </v>
   <v>       0.19120853      -0.04770292       0.34503648 </v>
   <v>       0.06657590       0.20219994       0.34505655 </v>
   <v>       0.06641327      -0.29814807       0.34496603 </v>
   <v>      -0.18350377       0.20192280       0.34497157 </v>
   <v>       0.31614839       0.20242750       0.34503809 </v>
   <v>      -0.18365330      -0.29762464       0.34512098 </v>
   <v>      -0.30898702      -0.04734962       0.34514142 </v>
   <v>       0.31630565      -0.29814913       0.34495834 </v>
   <v>      -0.05895944       0.45242692       0.34501974 </v>
   <v>       0.44122859      -0.04791156       0.34498953 </v>
   <v>       0.19159967       0.45195467       0.34505446 </v>
   <v>      -0.43359123       0.20186385       0.34494666 </v>
   <v>      -0.30836458       0.45226928       0.34505567 </v>
   <v>       0.44122840       0.45235284       0.34503734 </v>
   <v>       0.06266349       0.04149856      -0.12449283 </v>
   <v>      -0.43372615      -0.29758641       0.34497861 </v>
   <v>      -0.06161939      -0.20644377      -0.12442322 </v>
   <v>       0.18850582      -0.20617263      -0.12439830 </v>
   <v>      -0.18739796       0.04159016      -0.12448093 </v>
   <v>       0.31247452       0.04144081      -0.12449464 </v>
   <v>      -0.06133822       0.29399608      -0.12439906 </v>
   <v>       0.18858004       0.29370438      -0.12435938 </v>
   <v>       0.05846634       0.03743838       0.38905009 </v>
   <v>       0.06256141      -0.45852450      -0.12449312 </v>
   <v>      -0.31159709      -0.20607427      -0.12447553 </v>
   <v>       0.43851237      -0.20625141      -0.12442023 </v>
   <v>      -0.31153296       0.29384815      -0.12430578 </v>
   <v>       0.43848096       0.29399426      -0.12440212 </v>
   <v>       0.18359083      -0.21221440       0.38906481 </v>
   <v>      -0.06631395      -0.21247788       0.38907315 </v>
   <v>       0.30867305       0.03730316       0.38907678 </v>
   <v>       0.18340294       0.28768379       0.38907100 </v>
   <v>      -0.19162718       0.03744723       0.38906662 </v>
   <v>      -0.06650044       0.28763035       0.38905580 </v>
   <v>      -0.18752963      -0.45862694      -0.12449821 </v>
   <v>       0.31275175      -0.45853354      -0.12450168 </v>
   <v>      -0.43710341       0.04163754      -0.12447852 </v>
   <v>       0.43359574      -0.21247702       0.38907239 </v>
   <v>       0.05859502      -0.46234023       0.38908086 </v>
   <v>       0.43361346       0.28761019       0.38905868 </v>
   <v>      -0.31631723      -0.21246129       0.38906461 </v>
   <v>      -0.31724909       0.28799555       0.38898473 </v>
   <v>       0.30855990      -0.46229010       0.38906890 </v>
   <v>      -0.44135014       0.03716098       0.38902474 </v>
   <v>      -0.19154873      -0.46271186       0.38908820 </v>
   <v>      -0.43754688      -0.45847525      -0.12450593 </v>
   <v>       0.18343234      -0.03753210      -0.16685793 </v>
   <v>      -0.06661812      -0.03728272      -0.16684454 </v>
   <v>       0.05848462       0.21267558      -0.16684786 </v>
   <v>       0.05832909      -0.28726241      -0.16685171 </v>
   <v>       0.30838171       0.21259510      -0.16682991 </v>
   <v>      -0.19169157       0.21268586      -0.16684788 </v>
   <v>      -0.44131390      -0.46297734       0.38904533 </v>
   <v>       0.30842407      -0.28725289      -0.16682256 </v>
   <v>      -0.19164342      -0.28738567      -0.16683945 </v>
   <v>       0.43343472      -0.03741119      -0.16685454 </v>
   <v>      -0.31662444      -0.03740615      -0.16685472 </v>
   <v>      -0.06661017       0.46251681      -0.16682528 </v>
   <v>       0.18336184       0.46292804      -0.16694020 </v>
   <v>       0.06292237      -0.13055184       0.43445921 </v>
   <v>      -0.06167142       0.11960729       0.43447508 </v>
   <v>       0.18807969       0.11965293       0.43457672 </v>
   <v>      -0.44155807       0.21268406      -0.16686388 </v>
   <v>       0.43350291       0.46275302      -0.16685410 </v>
   <v>      -0.31662348       0.46257686      -0.16688339 </v>
   <v>      -0.18695795      -0.13023834       0.43444541 </v>
   <v>       0.31335385      -0.13043892       0.43441970 </v>
   <v>       0.06331601       0.36978230       0.43432822 </v>
   <v>      -0.44155877      -0.28727863      -0.16685929 </v>
   <v>       0.18798504      -0.38002237       0.43439194 </v>
   <v>      -0.06200149      -0.38023830       0.43446131 </v>
   <v>      -0.31201341       0.12038961       0.43443889 </v>
   <v>      -0.18698708       0.36949619       0.43443848 </v>
   <v>       0.43758725       0.11991244       0.43448087 </v>
   <v>       0.31257385       0.37028256       0.43444668 </v>
   <v>      -0.31193732      -0.37962359       0.43443357 </v>
   <v>       0.43791411      -0.37989551       0.43444498 </v>
   <v>      -0.43703717      -0.12995462       0.43448385 </v>
   <v>      -0.43686804       0.36938184       0.43447836 </v>
   <v>       0.06571123      -0.12733187      -0.21160662 </v>
   <v>      -0.05905337       0.12217774      -0.21148638 </v>
   <v>       0.19105173       0.12242565      -0.21155690 </v>
   <v>      -0.18419091      -0.12749795      -0.21161555 </v>
   <v>       0.31577156      -0.12741425      -0.21154506 </v>
   <v>       0.06599047       0.37211177      -0.21151411 </v>
   <v>      -0.05901387      -0.37728621      -0.21159071 </v>
   <v>       0.19107055      -0.37785524      -0.21148063 </v>
   <v>      -0.30909218       0.12242387      -0.21153913 </v>
   <v>      -0.18416104       0.37267992      -0.21162126 </v>
   <v>       0.44141642       0.12206649      -0.21148575 </v>
   <v>       0.31576280       0.37230950      -0.21156277 </v>
   <v>      -0.30878303      -0.37762621      -0.21158169 </v>
   <v>      -0.43437667      -0.12743078      -0.21162912 </v>
   <v>       0.44085657      -0.37751470      -0.21162409 </v>
   <v>       0.18779269      -0.04438535       0.47856770 </v>
   <v>      -0.06227703      -0.04428625       0.47861682 </v>
   <v>       0.06268485       0.20585262       0.47859862 </v>
   <v>      -0.43433505       0.37222686      -0.21159689 </v>
   <v>       0.06302705      -0.29462883       0.47860376 </v>
   <v>      -0.18709177       0.20552940       0.47858420 </v>
   <v>       0.31276736       0.20581531       0.47860807 </v>
   <v>      -0.18720817      -0.29422452       0.47863776 </v>
   <v>       0.31251787      -0.29460441       0.47865134 </v>
   <v>      -0.31221861      -0.04432143       0.47864792 </v>
   <v>       0.43786274      -0.04438369       0.47858655 </v>
   <v>       0.18784600       0.45568446       0.47860941 </v>
   <v>      -0.06238382       0.45555960       0.47867180 </v>
   <v>      -0.43728466       0.20548234       0.47860541 </v>
   <v>      -0.31221287       0.45572605       0.47863865 </v>
   <v>       0.43780579       0.45561879       0.47863642 </v>
   <v>      -0.43720175      -0.29424545       0.47863881 </v>
   <v>       0.05936714       0.04067373      -0.25606995 </v>
   <v>      -0.06472206      -0.20922796      -0.25593208 </v>
   <v>       0.18466042      -0.20965328      -0.25600840 </v>
   <v>       0.30965334       0.04065887      -0.25609734 </v>
   <v>      -0.19049417       0.04046727      -0.25601102 </v>
   <v>      -0.06511095       0.29058533      -0.25597366 </v>
   <v>       0.18463098       0.29016758      -0.25609315 </v>
   <v>       0.06001008      -0.45940493      -0.25599251 </v>
   <v>       0.43485621      -0.20955674      -0.25602525 </v>
   <v>      -0.31518342      -0.20943757      -0.25597859 </v>
   <v>       0.43505592       0.29031830      -0.25598066 </v>
   <v>      -0.31488061       0.29098096      -0.25590608 </v>
   <v>       0.30981222      -0.45956958      -0.25600094 </v>
   <v>      -0.19029837      -0.45951775      -0.25608862 </v>
   <v>      -0.44018596       0.04070931      -0.25615566 </v>
   <v>       0.06288421      -0.12875245      -0.47877322 </v>
   <v>      -0.06155761       0.12120877      -0.47876262 </v>
   <v>       0.18839168       0.12176863      -0.47878549 </v>
   <v>      -0.18657328      -0.12858135      -0.47872602 </v>
   <v>       0.31353933      -0.12871703      -0.47881870 </v>
   <v>       0.06333627       0.37149248      -0.47874027 </v>
   <v>      -0.06154334      -0.37876531      -0.47878134 </v>
   <v>       0.18838130      -0.37850567      -0.47873945 </v>
   <v>      -0.31159576       0.12139977      -0.47873879 </v>
   <v>       0.43817758       0.12130734      -0.47874225 </v>
   <v>      -0.18671327       0.37139024      -0.47874026 </v>
   <v>       0.31343282       0.37167457      -0.47871881 </v>
   <v>      -0.44065464      -0.45933719      -0.25606786 </v>
   <v>      -0.31158071      -0.37869593      -0.47874953 </v>
   <v>      -0.43660350      -0.12854154      -0.47873580 </v>
   <v>       0.43846679      -0.37867957      -0.47875733 </v>
   <v>      -0.43656089       0.37134275      -0.47874883 </v>
   <v>      -0.06159020      -0.04202584      -0.30036945 </v>
   <v>       0.18842973      -0.04383529      -0.30032668 </v>
   <v>       0.06377377       0.20767801      -0.30037530 </v>
   <v>       0.06372365      -0.29162215      -0.30041630 </v>
   <v>       0.31312527       0.20809430      -0.30035885 </v>
   <v>      -0.18676581       0.20835246      -0.30044389 </v>
   <v>      -0.18660721      -0.29227595      -0.30036137 </v>
   <v>       0.31303610      -0.29176392      -0.30039664 </v>
   <v>      -0.31171005      -0.04207165      -0.30038076 </v>
   <v>       0.43851281      -0.04221096      -0.30035346 </v>
   <v>      -0.06171397       0.45785241      -0.30034246 </v>
   <v>       0.18801819       0.45778421      -0.30064005 </v>
   <v>      -0.43691045       0.20810489      -0.30042866 </v>
   <v>      -0.31178807       0.45783430      -0.30036101 </v>
   <v>       0.43806175       0.45774136      -0.30048253 </v>
   <v>       0.18870788      -0.04333937      -0.43477916 </v>
   <v>      -0.06108953      -0.04247065      -0.43460290 </v>
   <v>       0.06359759       0.20746816      -0.43458814 </v>
   <v>      -0.43677067      -0.29210991      -0.30037144 </v>
   <v>       0.06374947      -0.29307270      -0.43454068 </v>
   <v>      -0.18624276       0.20719521      -0.43457827 </v>
   <v>       0.31384832       0.20723337      -0.43452750 </v>
   <v>      -0.18585675      -0.29245201      -0.43465314 </v>
   <v>      -0.31129888      -0.04268391      -0.43464910 </v>
   <v>       0.31369347      -0.29310417      -0.43448025 </v>
   <v>       0.43891622      -0.04270898      -0.43457428 </v>
   <v>      -0.06098253       0.45722349      -0.43458978 </v>
   <v>       0.18880689       0.45719806      -0.43457557 </v>
   <v>      -0.43716177       0.20737718      -0.43467331 </v>
   <v>      -0.31120939       0.45719595      -0.43460194 </v>
   <v>       0.43875427       0.45736278      -0.43460816 </v>
   <v>      -0.43642465      -0.29246418      -0.43460304 </v>
   <v>       0.06017873      -0.12410944      -0.34516331 </v>
   <v>      -0.06512925       0.12530046      -0.34519133 </v>
   <v>       0.18649552       0.12481118      -0.34526366 </v>
   <v>       0.31029024      -0.12429940      -0.34525265 </v>
   <v>      -0.19006276      -0.12499884      -0.34520684 </v>
   <v>       0.05980045       0.37579777      -0.34514545 </v>
   <v>       0.18527237      -0.37414019      -0.34513286 </v>
   <v>      -0.06486013      -0.37530976      -0.34522041 </v>
   <v>       0.43643969       0.12488382      -0.34526122 </v>
   <v>      -0.31289121       0.12568746      -0.34527762 </v>
   <v>       0.30985589       0.37537982      -0.34517195 </v>
   <v>      -0.18999874       0.37531067      -0.34547446 </v>
   <v>       0.43544029      -0.37414860      -0.34523220 </v>
   <v>      -0.31426333      -0.37560793      -0.34523775 </v>
   <v>      -0.44013744      -0.12471504      -0.34520032 </v>
   <v>       0.06372137       0.04064821      -0.38935776 </v>
   <v>      -0.44005517       0.37555842      -0.34519292 </v>
   <v>      -0.06191114      -0.20880413      -0.38937331 </v>
   <v>       0.18861166      -0.20913157      -0.38934306 </v>
   <v>      -0.18639238       0.04089300      -0.38931500 </v>
   <v>       0.31337520       0.04040144      -0.38935740 </v>
   <v>      -0.06155351       0.29107409      -0.38939446 </v>
   <v>       0.18879082       0.29054380      -0.38935670 </v>
   <v>       0.06298247      -0.45905673      -0.38934075 </v>
   <v>      -0.31158847      -0.20885680      -0.38937116 </v>
   <v>       0.43856626      -0.20913485      -0.38939740 </v>
   <v>      -0.31138441       0.29106065      -0.38935646 </v>
   <v>       0.43811143       0.29094496      -0.38932983 </v>
   <v>      -0.18639745      -0.45921548      -0.38934836 </v>
   <v>       0.31369252      -0.45942347      -0.38936818 </v>
   <v>      -0.43693354       0.04105953      -0.38939306 </v>
   <v>      -0.43643127      -0.45943072      -0.38930660 </v>
  </varray>
 </structure>
 <varray name="primitive_index" >
  <v type="int" >        1 </v>
  <v type="int" >       26 </v>
  <v type="int" >      286 </v>
  <v type="int" >       60 </v>
  <v type="int" >      202 </v>
  <v type="int" >       83 </v>
  <v type="int" >      125 </v>
  <v type="int" >      256 </v>
  <v type="int" >      155 </v>
  <v type="int" >      111 </v>
  <v type="int" >      102 </v>
  <v type="int" >       51 </v>
  <v type="int" >      192 </v>
  <v type="int" >      284 </v>
  <v type="int" >      166 </v>
  <v type="int" >      163 </v>
  <v type="int" >      146 </v>
  <v type="int" >      104 </v>
  <v type="int" >      212 </v>
  <v type="int" >       50 </v>
  <v type="int" >       20 </v>
  <v type="int" >      176 </v>
  <v type="int" >      145 </v>
  <v type="int" >      283 </v>
  <v type="int" >       55 </v>
  <v type="int" >      182 </v>
  <v type="int" >      117 </v>
  <v type="int" >      250 </v>
  <v type="int" >      123 </v>
  <v type="int" >      205 </v>
  <v type="int" >      114 </v>
  <v type="int" >      167 </v>
  <v type="int" >       91 </v>
  <v type="int" >      277 </v>
  <v type="int" >      276 </v>
  <v type="int" >       97 </v>
  <v type="int" >      213 </v>
  <v type="int" >      229 </v>
  <v type="int" >       92 </v>
  <v type="int" >      189 </v>
  <v type="int" >      175 </v>
  <v type="int" >      174 </v>
  <v type="int" >       30 </v>
  <v type="int" >      185 </v>
  <v type="int" >       52 </v>
  <v type="int" >       24 </v>
  <v type="int" >      200 </v>
  <v type="int" >      127 </v>
  <v type="int" >      103 </v>
  <v type="int" >      179 </v>
  <v type="int" >       35 </v>
  <v type="int" >      164 </v>
  <v type="int" >      139 </v>
  <v type="int" >      261 </v>
  <v type="int" >      243 </v>
  <v type="int" >      118 </v>
  <v type="int" >      168 </v>
  <v type="int" >       58 </v>
  <v type="int" >      137 </v>
  <v type="int" >      265 </v>
  <v type="int" >       81 </v>
  <v type="int" >      281 </v>
  <v type="int" >      275 </v>
  <v type="int" >      214 </v>
  <v type="int" >      215 </v>
  <v type="int" >      135 </v>
  <v type="int" >       98 </v>
  <v type="int" >       72 </v>
  <v type="int" >      226 </v>
  <v type="int" >       28 </v>
  <v type="int" >      263 </v>
  <v type="int" >      159 </v>
  <v type="int" >      178 </v>
  <v type="int" >      242 </v>
  <v type="int" >      109 </v>
  <v type="int" >      220 </v>
  <v type="int" >      101 </v>
  <v type="int" >      210 </v>
  <v type="int" >      130 </v>
  <v type="int" >      171 </v>
  <v type="int" >      194 </v>
  <v type="int" >      258 </v>
  <v type="int" >       47 </v>
  <v type="int" >      216 </v>
  <v type="int" >      207 </v>
  <v type="int" >       86 </v>
  <v type="int" >       73 </v>
  <v type="int" >       25 </v>
  <v type="int" >      208 </v>
  <v type="int" >       12 </v>
  <v type="int" >      172 </v>
  <v type="int" >      116 </v>
  <v type="int" >      219 </v>
  <v type="int" >      279 </v>
  <v type="int" >      206 </v>
  <v type="int" >       84 </v>
  <v type="int" >       62 </v>
  <v type="int" >      105 </v>
  <v type="int" >      268 </v>
  <v type="int" >       14 </v>
  <v type="int" >      245 </v>
  <v type="int" >      280 </v>
  <v type="int" >      120 </v>
  <v type="int" >      124 </v>
  <v type="int" >      266 </v>
  <v type="int" >       29 </v>
  <v type="int" >      150 </v>
  <v type="int" >      191 </v>
  <v type="int" >      255 </v>
  <v type="int" >        7 </v>
  <v type="int" >      190 </v>
  <v type="int" >      165 </v>
  <v type="int" >      248 </v>
  <v type="int" >       48 </v>
  <v type="int" >       13 </v>
  <v type="int" >      247 </v>
  <v type="int" >       18 </v>
  <v type="int" >      161 </v>
  <v type="int" >      264 </v>
  <v type="int" >      273 </v>
  <v type="int" >        4 </v>
  <v type="int" >       45 </v>
  <v type="int" >      282 </v>
  <v type="int" >       67 </v>
  <v type="int" >       16 </v>
  <v type="int" >      270 </v>
  <v type="int" >       64 </v>
  <v type="int" >      173 </v>
  <v type="int" >       17 </v>
  <v type="int" >      259 </v>
  <v type="int" >      134 </v>
  <v type="int" >       39 </v>
  <v type="int" >        6 </v>
  <v type="int" >      222 </v>
  <v type="int" >        5 </v>
  <v type="int" >      253 </v>
  <v type="int" >      110 </v>
  <v type="int" >       88 </v>
  <v type="int" >       36 </v>
  <v type="int" >      181 </v>
  <v type="int" >      204 </v>
  <v type="int" >      158 </v>
  <v type="int" >      160 </v>
  <v type="int" >      143 </v>
  <v type="int" >       74 </v>
  <v type="int" >       82 </v>
  <v type="int" >      235 </v>
  <v type="int" >       23 </v>
  <v type="int" >      218 </v>
  <v type="int" >      241 </v>
  <v type="int" >      238 </v>
  <v type="int" >      131 </v>
  <v type="int" >      257 </v>
  <v type="int" >       80 </v>
  <v type="int" >      201 </v>
  <v type="int" >      113 </v>
  <v type="int" >      232 </v>
  <v type="int" >      249 </v>
  <v type="int" >       69 </v>
  <v type="int" >      251 </v>
  <v type="int" >      197 </v>
  <v type="int" >      149 </v>
  <v type="int" >        3 </v>
  <v type="int" >      112 </v>
  <v type="int" >      224 </v>
  <v type="int" >      254 </v>
  <v type="int" >      132 </v>
  <v type="int" >      272 </v>
  <v type="int" >      188 </v>
  <v type="int" >       57 </v>
  <v type="int" >       49 </v>
  <v type="int" >      138 </v>
  <v type="int" >       66 </v>
  <v type="int" >       33 </v>
  <v type="int" >      184 </v>
  <v type="int" >      288 </v>
  <v type="int" >      236 </v>
  <v type="int" >      223 </v>
  <v type="int" >      106 </v>
  <v type="int" >      157 </v>
  <v type="int" >       21 </v>
  <v type="int" >      230 </v>
  <v type="int" >      234 </v>
  <v type="int" >       99 </v>
  <v type="int" >       75 </v>
  <v type="int" >      221 </v>
  <v type="int" >      244 </v>
  <v type="int" >      269 </v>
  <v type="int" >      237 </v>
  <v type="int" >      199 </v>
  <v type="int" >      156 </v>
  <v type="int" >      169 </v>
  <v type="int" >        9 </v>
  <v type="int" >       46 </v>
  <v type="int" >      262 </v>
  <v type="int" >      239 </v>
  <v type="int" >      151 </v>
  <v type="int" >      187 </v>
  <v type="int" >       11 </v>
  <v type="int" >      211 </v>
  <v type="int" >       31 </v>
  <v type="int" >       43 </v>
  <v type="int" >       71 </v>
  <v type="int" >       19 </v>
  <v type="int" >       94 </v>
  <v type="int" >       87 </v>
  <v type="int" >      267 </v>
  <v type="int" >        2 </v>
  <v type="int" >       27 </v>
  <v type="int" >      140 </v>
  <v type="int" >       10 </v>
  <v type="int" >      144 </v>
  <v type="int" >      107 </v>
  <v type="int" >      203 </v>
  <v type="int" >       68 </v>
  <v type="int" >       34 </v>
  <v type="int" >      119 </v>
  <v type="int" >      177 </v>
  <v type="int" >      183 </v>
  <v type="int" >      278 </v>
  <v type="int" >      195 </v>
  <v type="int" >       77 </v>
  <v type="int" >      252 </v>
  <v type="int" >      108 </v>
  <v type="int" >      225 </v>
  <v type="int" >      285 </v>
  <v type="int" >       37 </v>
  <v type="int" >      274 </v>
  <v type="int" >       63 </v>
  <v type="int" >      233 </v>
  <v type="int" >      141 </v>
  <v type="int" >      154 </v>
  <v type="int" >       54 </v>
  <v type="int" >       38 </v>
  <v type="int" >      152 </v>
  <v type="int" >      246 </v>
  <v type="int" >       53 </v>
  <v type="int" >       76 </v>
  <v type="int" >      193 </v>
  <v type="int" >      162 </v>
  <v type="int" >      129 </v>
  <v type="int" >      170 </v>
  <v type="int" >      133 </v>
  <v type="int" >       65 </v>
  <v type="int" >      271 </v>
  <v type="int" >       93 </v>
  <v type="int" >       32 </v>
  <v type="int" >       95 </v>
  <v type="int" >       90 </v>
  <v type="int" >       56 </v>
  <v type="int" >       42 </v>
  <v type="int" >       59 </v>
  <v type="int" >        8 </v>
  <v type="int" >      228 </v>
  <v type="int" >       70 </v>
  <v type="int" >      186 </v>
  <v type="int" >      196 </v>
  <v type="int" >      122 </v>
  <v type="int" >      121 </v>
  <v type="int" >       44 </v>
  <v type="int" >       79 </v>
  <v type="int" >      198 </v>
  <v type="int" >      153 </v>
  <v type="int" >      240 </v>
  <v type="int" >      231 </v>
  <v type="int" >      209 </v>
  <v type="int" >       85 </v>
  <v type="int" >      287 </v>
  <v type="int" >       40 </v>
  <v type="int" >      227 </v>
  <v type="int" >       89 </v>
  <v type="int" >      142 </v>
  <v type="int" >       78 </v>
  <v type="int" >      136 </v>
  <v type="int" >       15 </v>
  <v type="int" >      217 </v>
  <v type="int" >      148 </v>
  <v type="int" >      100 </v>
  <v type="int" >       61 </v>
  <v type="int" >      126 </v>
  <v type="int" >      180 </v>
  <v type="int" >       96 </v>
  <v type="int" >      147 </v>
  <v type="int" >      115 </v>
  <v type="int" >       22 </v>
  <v type="int" >       41 </v>
  <v type="int" >      260 </v>
  <v type="int" >      128 </v>
 </varray>
 <kpoints>
  <generation param="Gamma">
   <v type="int" name="divisions">       4        4        1 </v>
   <v name="usershift">      0.00000000       0.00000000       0.00000000 </v>
   <v name="genvec1">      0.25000000       0.00000000       0.00000000 </v>
   <v name="genvec2">      0.00000000       0.25000000       0.00000000 </v>
   <v name="genvec3">      0.00000000       0.00000000       1.00000000 </v>
   <v name="shift">      0.00000000       0.00000000       0.00000000 </v>
  </generation>
  <varray name="kpointlist" >
   <v>       0.00000000       0.00000000       0.00000000 </v>
   <v>       0.25000000       0.00000000       0.00000000 </v>
   <v>       0.50000000       0.00000000       0.00000000 </v>
   <v>       0.00000000       0.25000000       0.00000000 </v>
   <v>       0.25000000       0.25000000       0.00000000 </v>
   <v>       0.50000000       0.25000000       0.00000000 </v>
   <v>      -0.25000000       0.25000000       0.00000000 </v>
   <v>       0.00000000       0.50000000       0.00000000 </v>
   <v>       0.25000000       0.50000000       0.00000000 </v>
   <v>       0.50000000       0.50000000       0.00000000 </v>
  </varray>
  <varray name="weights" >
   <v>       0.06250000 </v>
   <v>       0.12500000 </v>
   <v>       0.06250000 </v>
   <v>       0.12500000 </v>
   <v>       0.12500000 </v>
   <v>       0.12500000 </v>
   <v>       0.12500000 </v>
   <v>       0.06250000 </v>
   <v>       0.12500000 </v>
   <v>       0.06250000 </v>
  </varray>
 </kpoints>
 <parameters>
  <separator name="general" >
   <i type="string" name="SYSTEM">unknown system</i>
   <i type="logical" name="LCOMPAT"> F  </i>
  </separator>
  <separator name="electronic" >
   <i type="string" name="PREC">accura</i>
   <i name="ENMAX">    450.00000000</i>
   <i name="ENAUG">    838.43500000</i>
   <i name="EDIFF">      0.00000100</i>
   <i type="int" name="IALGO">    68</i>
   <i type="int" name="IWAVPR">    11</i>
   <i type="int" name="NBANDS">  1386</i>
   <i name="NELECT">   2297.00000000</i>
   <i type="int" name="TURBO">     0</i>
   <i type="int" name="IRESTART">     0</i>
   <i type="int" name="NREBOOT">     0</i>
   <i type="int" name="NMIN">     0</i>
   <i name="EREF">      0.00000000</i>
   <separator name="electronic smearing" >
    <i type="int" name="ISMEAR">     0</i>
    <i name="SIGMA">      0.15000000</i>
    <i name="KSPACING">      0.50000000</i>
    <i type="logical" name="KGAMMA"> T  </i>
   </separator>
   <separator name="electronic projectors" >
    <i type="logical" name="LREAL"> T  </i>
    <v name="ROPT">     -0.00025000     -0.00025000</v>
    <i type="int" name="LMAXPAW">  -100</i>
    <i type="int" name="LMAXMIX">     2</i>
    <i type="logical" name="NLSPLINE"> F  </i>
   </separator>
   <separator name="electronic startup" >
    <i type="int" name="ISTART">     0</i>
    <i type="int" name="ICHARG">     2</i>
    <i type="int" name="INIWAV">     1</i>
   </separator>
   <separator name="electronic spin" >
    <i type="int" name="ISPIN">     1</i>
    <i type="logical" name="LNONCOLLINEAR"> F  </i>
    <v name="MAGMOM">      1.00000000      1.00000000      1.00000000      1.00000000      1.00000000      1.00000000      1.00000000      1.00000000      1.00000000      1.00000000      1.00000000      1.00000000      1.00000000      1.00000000      1.00000000      1.00000000      1.00000000      1.00000000      1.00000000      1.00000000
      1.00000000      1.00000000      1.00000000      1.00000000      1.00000000      1.00000000      1.00000000      1.00000000      1.00000000      1.00000000      1.00000000      1.00000000      1.00000000      1.00000000      1.00000000      1.00000000      1.00000000      1.00000000      1.00000000      1.00000000
      1.00000000      1.00000000      1.00000000      1.00000000      1.00000000      1.00000000      1.00000000      1.00000000      1.00000000      1.00000000      1.00000000      1.00000000      1.00000000      1.00000000      1.00000000      1.00000000      1.00000000      1.00000000      1.00000000      1.00000000
      1.00000000      1.00000000      1.00000000      1.00000000      1.00000000      1.00000000      1.00000000      1.00000000      1.00000000      1.00000000      1.00000000      1.00000000      1.00000000      1.00000000      1.00000000      1.00000000      1.00000000      1.00000000      1.00000000      1.00000000
      1.00000000      1.00000000      1.00000000      1.00000000      1.00000000      1.00000000      1.00000000      1.00000000      1.00000000      1.00000000      1.00000000      1.00000000      1.00000000      1.00000000      1.00000000      1.00000000      1.00000000      1.00000000      1.00000000      1.00000000
      1.00000000      1.00000000      1.00000000      1.00000000      1.00000000      1.00000000      1.00000000      1.00000000      1.00000000      1.00000000      1.00000000      1.00000000      1.00000000      1.00000000      1.00000000      1.00000000      1.00000000      1.00000000      1.00000000      1.00000000
      1.00000000      1.00000000      1.00000000      1.00000000      1.00000000      1.00000000      1.00000000      1.00000000      1.00000000      1.00000000      1.00000000      1.00000000      1.00000000      1.00000000      1.00000000      1.00000000      1.00000000      1.00000000      1.00000000      1.00000000
      1.00000000      1.00000000      1.00000000      1.00000000      1.00000000      1.00000000      1.00000000      1.00000000      1.00000000      1.00000000      1.00000000      1.00000000      1.00000000      1.00000000      1.00000000      1.00000000      1.00000000      1.00000000      1.00000000      1.00000000
      1.00000000      1.00000000      1.00000000      1.00000000      1.00000000      1.00000000      1.00000000      1.00000000      1.00000000      1.00000000      1.00000000      1.00000000      1.00000000      1.00000000      1.00000000      1.00000000      1.00000000      1.00000000      1.00000000      1.00000000
      1.00000000      1.00000000      1.00000000      1.00000000      1.00000000      1.00000000      1.00000000      1.00000000      1.00000000      1.00000000      1.00000000      1.00000000      1.00000000      1.00000000      1.00000000      1.00000000      1.00000000      1.00000000      1.00000000      1.00000000
      1.00000000      1.00000000      1.00000000      1.00000000      1.00000000      1.00000000      1.00000000      1.00000000      1.00000000      1.00000000      1.00000000      1.00000000      1.00000000      1.00000000      1.00000000      1.00000000      1.00000000      1.00000000      1.00000000      1.00000000
      1.00000000      1.00000000      1.00000000      1.00000000      1.00000000      1.00000000      1.00000000      1.00000000      1.00000000      1.00000000      1.00000000      1.00000000      1.00000000      1.00000000      1.00000000      1.00000000      1.00000000      1.00000000      1.00000000      1.00000000
      1.00000000      1.00000000      1.00000000      1.00000000      1.00000000      1.00000000      1.00000000      1.00000000      1.00000000      1.00000000      1.00000000      1.00000000      1.00000000      1.00000000      1.00000000      1.00000000      1.00000000      1.00000000      1.00000000      1.00000000
      1.00000000      1.00000000      1.00000000      1.00000000      1.00000000      1.00000000      1.00000000      1.00000000      1.00000000      1.00000000      1.00000000      1.00000000      1.00000000      1.00000000      1.00000000      1.00000000      1.00000000      1.00000000      1.00000000      1.00000000
      1.00000000      1.00000000      1.00000000      1.00000000      1.00000000      1.00000000      1.00000000      1.00000000</v>
    <i name="NUPDOWN">     -1.00000000</i>
    <i type="logical" name="LSORBIT"> F  </i>
    <v name="SAXIS">      0.00000000      0.00000000      1.00000000</v>
    <i type="logical" name="LSPIRAL"> F  </i>
    <v name="QSPIRAL">      0.00000000      0.00000000      0.00000000</v>
    <i type="logical" name="LZEROZ"> F  </i>
   </separator>
   <separator name="electronic exchange-correlation" >
    <i type="logical" name="LASPH"> F  </i>
    <i type="logical" name="LMETAGGA"> F  </i>
   </separator>
   <separator name="electronic convergence" >
    <i type="int" name="NELM">   100</i>
    <i type="int" name="NELMDL">     0</i>
    <i type="int" name="NELMIN">     4</i>
    <i name="ENINI">    450.00000000</i>
    <separator name="electronic convergence detail" >
     <i type="logical" name="LDIAG"> T  </i>
     <i type="logical" name="LSUBROT"> F  </i>
     <i name="WEIMIN">      0.00100000</i>
     <i name="EBREAK">      0.00000000</i>
     <i name="DEPER">      0.30000000</i>
     <i type="int" name="NRMM">     4</i>
     <i name="TIME">      0.40000000</i>
    </separator>
   </separator>
   <separator name="electronic mixer" >
    <i name="AMIX">      0.40000000</i>
    <i name="BMIX">      1.00000000</i>
    <i name="AMIN">      0.10000000</i>
    <i name="AMIX_MAG">      1.60000000</i>
    <i name="BMIX_MAG">      1.00000000</i>
    <separator name="electronic mixer details" >
     <i type="int" name="IMIX">     4</i>
     <i type="logical" name="MIXFIRST"> F  </i>
     <i type="int" name="MAXMIX">   -45</i>
     <i name="WC">    100.00000000</i>
     <i type="int" name="INIMIX">     1</i>
     <i type="int" name="MIXPRE">     1</i>
     <i type="int" name="MREMOVE">     5</i>
    </separator>
   </separator>
   <separator name="electronic dipolcorrection" >
    <i type="logical" name="LDIPOL"> F  </i>
    <i type="logical" name="LMONO"> F  </i>
    <i type="int" name="IDIPOL">     0</i>
    <i name="EPSILON">      1.00000000</i>
    <v name="DIPOL">   -100.00000000   -100.00000000   -100.00000000</v>
    <i name="EFIELD">      0.00000000</i>
   </separator>
  </separator>
  <separator name="grids" >
   <i type="int" name="NGX">    70</i>
   <i type="int" name="NGY">    60</i>
   <i type="int" name="NGZ">   320</i>
   <i type="int" name="NGXF">   140</i>
   <i type="int" name="NGYF">   120</i>
   <i type="int" name="NGZF">   640</i>
   <i type="logical" name="ADDGRID"> F  </i>
  </separator>
  <separator name="ionic" >
   <i type="int" name="NSW">     5</i>
   <i type="int" name="IBRION">     2</i>
   <i type="int" name="MDALGO">     0</i>
   <i type="int" name="ISIF">     2</i>
   <i name="PSTRESS">      0.00000000</i>
   <i name="EDIFFG">      0.00001000</i>
   <i type="int" name="NFREE">     1</i>
   <i name="POTIM">      0.25000000</i>
   <i name="SMASS">     -3.00000000</i>
   <i name="SCALEE">      1.00000000</i>
  </separator>
  <separator name="ionic md" >
   <i name="TEBEG">      0.00010000</i>
   <i name="TEEND">      0.00010000</i>
   <i type="int" name="NBLOCK">     1</i>
   <i type="int" name="KBLOCK">     5</i>
   <i type="int" name="NPACO">   256</i>
   <i name="APACO">     16.00000000</i>
  </separator>
  <separator name="symmetry" >
   <i type="int" name="ISYM">     2</i>
   <i name="SYMPREC">      0.00001000</i>
  </separator>
  <separator name="dos" >
   <i type="int" name="LORBIT">     0</i>
   <v name="RWIGS">     -1.00000000     -1.00000000</v>
   <i type="int" name="NEDOS">   301</i>
   <i name="EMIN">     10.00000000</i>
   <i name="EMAX">    -10.00000000</i>
   <i name="EFERMI">      0.00000000</i>
  </separator>
  <separator name="writing" >
   <i type="int" name="NWRITE">     2</i>
   <i type="logical" name="LWAVE"> F  </i>
   <i type="logical" name="LDOWNSAMPLE"> F  </i>
   <i type="logical" name="LCHARG"> F  </i>
   <i type="logical" name="LPARD"> F  </i>
   <i type="logical" name="LVTOT"> F  </i>
   <i type="logical" name="LVHAR"> F  </i>
   <i type="logical" name="LELF"> F  </i>
   <i type="logical" name="LOPTICS"> F  </i>
   <v name="STM">      0.00000000      0.00000000      0.00000000      0.00000000      0.00000000      0.00000000      0.00000000</v>
  </separator>
  <separator name="performance" >
   <i type="int" name="NPAR">    14</i>
   <i type="int" name="NSIM">     4</i>
   <i type="int" name="NBLK">    -1</i>
   <i type="logical" name="LPLANE"> T  </i>
   <i type="logical" name="LSCALAPACK"> T  </i>
   <i type="logical" name="LSCAAWARE"> T  </i>
   <i type="logical" name="LSCALU"> F  </i>
   <i type="logical" name="LASYNC"> F  </i>
   <i type="logical" name="LORBITALREAL"> F  </i>
  </separator>
  <separator name="miscellaneous" >
   <i type="int" name="IDIOT">     3</i>
   <i type="int" name="ISPECIAL">     0</i>
   <i type="logical" name="LMUSIC"> F  </i>
   <v name="POMASS">     55.84700000     54.93800000</v>
   <v name="DARWINR">      0.00000000      0.00000000</v>
   <v name="DARWINV">      1.00000000      1.00000000</v>
   <i type="logical" name="LCORR"> T  </i>
  </separator>
  <i type="logical" name="GGA_COMPAT"> T  </i>
  <i type="logical" name="LBERRY"> F  </i>
  <i type="int" name="ICORELEVEL">     0</i>
  <i type="logical" name="LDAU"> F  </i>
  <i type="int" name="I_CONSTRAINED_M">     0</i>
  <separator name="electronic exchange-correlation" >
   <i type="string" name="GGA">--</i>
   <i type="int" name="VOSKOWN">     0</i>
   <i type="logical" name="LHFCALC"> F  </i>
   <i type="string" name="PRECFOCK"></i>
   <i type="logical" name="LSYMGRAD"> F  </i>
   <i type="logical" name="LHFONE"> F  </i>
   <i type="logical" name="LRHFCALC"> F  </i>
   <i type="logical" name="LTHOMAS"> F  </i>
   <i type="logical" name="LMODELHF"> F  </i>
   <i name="ENCUT4O">     -1.00000000</i>
   <i type="int" name="EXXOEP">     0</i>
   <i type="int" name="FOURORBIT">     0</i>
   <i name="AEXX">      0.00000000</i>
   <i name="HFALPHA">      0.00000000</i>
   <i name="MCALPHA">      0.00000000</i>
   <i name="ALDAX">      1.00000000</i>
   <i name="AGGAX">      1.00000000</i>
   <i name="ALDAC">      1.00000000</i>
   <i name="AGGAC">      1.00000000</i>
   <i type="int" name="NKREDX">     1</i>
   <i type="int" name="NKREDY">     1</i>
   <i type="int" name="NKREDZ">     1</i>
   <i type="logical" name="SHIFTRED"> F  </i>
   <i type="logical" name="ODDONLY"> F  </i>
   <i type="logical" name="EVENONLY"> F  </i>
   <i type="int" name="LMAXFOCK">     0</i>
   <i type="int" name="NMAXFOCKAE">     0</i>
   <i type="logical" name="LFOCKAEDFT"> F  </i>
   <i name="HFSCREEN">      0.00000000</i>
   <i name="HFSCREENC">      0.00000000</i>
   <i type="int" name="NBANDSGWLOW">     0</i>
  </separator>
  <separator name="vdW DFT" >
   <i type="logical" name="LUSE_VDW"> F  </i>
   <i name="Zab_VDW">     -0.84910000</i>
   <i name="PARAM1">      0.12340000</i>
   <i name="PARAM2">      1.00000000</i>
   <i name="PARAM3">      0.00000000</i>
  </separator>
  <separator name="model GW" >
   <i type="int" name="MODEL_GW">     0</i>
   <i name="MODEL_EPS0">      7.68123389</i>
   <i name="MODEL_ALPHA">      1.00000000</i>
  </separator>
  <separator name="linear response parameters" >
   <i type="logical" name="LEPSILON"> F  </i>
   <i type="logical" name="LRPA"> F  </i>
   <i type="logical" name="LNABLA"> F  </i>
   <i type="logical" name="LVEL"> F  </i>
   <i type="int" name="KINTER">     0</i>
   <i name="CSHIFT">      0.10000000</i>
   <i name="OMEGAMAX">     -1.00000000</i>
   <i name="DEG_THRESHOLD">      0.00200000</i>
   <i name="RTIME">     -0.10000000</i>
   <i name="WPLASMAI">      0.00000000</i>
   <v name="DFIELD">      0.00000000      0.00000000      0.00000000</v>
   <v name="WPLASMA">      0.00000000      0.00000000      0.00000000      0.00000000      0.00000000      0.00000000      0.00000000      0.00000000      0.00000000</v>
  </separator>
  <separator name="orbital magnetization" >
   <i type="logical" name="NUCIND"> F  </i>
   <v name="MAGPOS">      0.00000000      0.00000000      0.00000000</v>
   <i type="logical" name="LNICSALL"> T  </i>
   <i type="logical" name="ORBITALMAG"> F  </i>
   <i type="logical" name="LMAGBLOCH"> F  </i>
   <i type="logical" name="LCHIMAG"> F  </i>
   <i type="logical" name="LGAUGE"> T  </i>
   <i type="int" name="MAGATOM">     0</i>
   <v name="MAGDIPOL">      0.00000000      0.00000000      0.00000000</v>
   <v name="AVECCONST">      0.00000000      0.00000000      0.00000000</v>
  </separator>
  <separator name="response functions" >
   <i type="logical" name="LADDER"> F  </i>
   <i type="logical" name="LRPAFORCE"> F  </i>
   <i type="logical" name="LFXC"> F  </i>
   <i type="logical" name="LHARTREE"> T  </i>
   <i type="int" name="IBSE">     0</i>
   <v type="int" name="KPOINT">    -1     0     0     0</v>
   <i type="logical" name="LTCTE"> F  </i>
   <i type="logical" name="LTETE"> F  </i>
   <i type="logical" name="LTRIPLET"> F  </i>
   <i type="logical" name="LFXCEPS"> F  </i>
   <i type="logical" name="LFXHEG"> F  </i>
   <i type="int" name="NATURALO">     2</i>
   <i type="logical" name="L2ORDER"> F  </i>
   <i type="logical" name="LMP2LT"> F  </i>
   <i type="logical" name="LUSEW"> F  </i>
   <i name="ENCUTGW">     -2.00000000</i>
   <i name="ENCUTGWSOFT">     -2.00000000</i>
   <i name="ENCUTLF">     -1.00000000</i>
   <i type="int" name="LMAXMP2">    -1</i>
   <i name="SCISSOR">      0.00000000</i>
   <i type="int" name="NOMEGA">     0</i>
   <i type="int" name="NOMEGAR">     0</i>
   <i type="int" name="NBANDSGW">    -1</i>
   <i type="int" name="NBANDSO">    -1</i>
   <i type="int" name="NBANDSV">    -1</i>
   <i type="int" name="NELM">   100</i>
   <i type="int" name="NELMHF">     1</i>
   <i type="int" name="DIM">     3</i>
   <i type="int" name="ANTIRES">     0</i>
   <i name="OMEGAMAX">    -30.00000000</i>
   <i name="OMEGAMIN">    -30.00000000</i>
   <i name="OMEGATL">   -200.00000000</i>
   <i type="int" name="OMEGAGRID">   140</i>
   <i name="CSHIFT">     -0.10000000</i>
   <i type="logical" name="SELFENERGY"> F  </i>
   <i type="logical" name="LSPECTRAL"> F  </i>
   <i type="logical" name="LSPECTRALGW"> F  </i>
   <i type="logical" name="LSINGLES"> F  </i>
   <i type="logical" name="LFERMIGW"> F  </i>
   <i type="logical" name="ODDONLYGW"> F  </i>
   <i type="logical" name="EVENONLYGW"> F  </i>
   <i type="int" name="NKREDLFX">     1</i>
   <i type="int" name="NKREDLFY">     1</i>
   <i type="int" name="NKREDLFZ">     1</i>
   <i type="int" name="MAXMEM">  2800</i>
   <i type="int" name="TELESCOPE">     0</i>
   <i type="int" name="TAUPAR">     1</i>
   <i type="int" name="OMEGAPAR">    -1</i>
   <i name="LAMBDA">      1.00000000</i>
  </separator>
  <separator name="External order field" >
   <i name="OFIELD_KAPPA">      0.00000000</i>
   <v name="OFIELD_K">      0.00000000      0.00000000      0.00000000</v>
   <i name="OFIELD_Q6_NEAR">      0.00000000</i>
   <i name="OFIELD_Q6_FAR">      0.00000000</i>
   <i name="OFIELD_A">      0.00000000</i>
  </separator>
 </parameters>
 <atominfo>
  <atoms>     288 </atoms>
  <types>       2 </types>
  <array name="atoms" >
   <dimension dim="1">ion</dimension>
   <field type="string">element</field>
   <field type="int">atomtype</field>
   <set>
    <rc><c>Fe</c><c>   1</c></rc>
    <rc><c>Fe</c><c>   1</c></rc>
    <rc><c>Fe</c><c>   1</c></rc>
    <rc><c>Fe</c><c>   1</c></rc>
    <rc><c>Fe</c><c>   1</c></rc>
    <rc><c>Fe</c><c>   1</c></rc>
    <rc><c>Fe</c><c>   1</c></rc>
    <rc><c>Fe</c><c>   1</c></rc>
    <rc><c>Fe</c><c>   1</c></rc>
    <rc><c>Fe</c><c>   1</c></rc>
    <rc><c>Fe</c><c>   1</c></rc>
    <rc><c>Fe</c><c>   1</c></rc>
    <rc><c>Fe</c><c>   1</c></rc>
    <rc><c>Fe</c><c>   1</c></rc>
    <rc><c>Fe</c><c>   1</c></rc>
    <rc><c>Fe</c><c>   1</c></rc>
    <rc><c>Fe</c><c>   1</c></rc>
    <rc><c>Fe</c><c>   1</c></rc>
    <rc><c>Fe</c><c>   1</c></rc>
    <rc><c>Fe</c><c>   1</c></rc>
    <rc><c>Fe</c><c>   1</c></rc>
    <rc><c>Fe</c><c>   1</c></rc>
    <rc><c>Fe</c><c>   1</c></rc>
    <rc><c>Fe</c><c>   1</c></rc>
    <rc><c>Fe</c><c>   1</c></rc>
    <rc><c>Fe</c><c>   1</c></rc>
    <rc><c>Fe</c><c>   1</c></rc>
    <rc><c>Fe</c><c>   1</c></rc>
    <rc><c>Fe</c><c>   1</c></rc>
    <rc><c>Fe</c><c>   1</c></rc>
    <rc><c>Fe</c><c>   1</c></rc>
    <rc><c>Fe</c><c>   1</c></rc>
    <rc><c>Fe</c><c>   1</c></rc>
    <rc><c>Fe</c><c>   1</c></rc>
    <rc><c>Fe</c><c>   1</c></rc>
    <rc><c>Fe</c><c>   1</c></rc>
    <rc><c>Fe</c><c>   1</c></rc>
    <rc><c>Fe</c><c>   1</c></rc>
    <rc><c>Fe</c><c>   1</c></rc>
    <rc><c>Fe</c><c>   1</c></rc>
    <rc><c>Fe</c><c>   1</c></rc>
    <rc><c>Fe</c><c>   1</c></rc>
    <rc><c>Fe</c><c>   1</c></rc>
    <rc><c>Fe</c><c>   1</c></rc>
    <rc><c>Fe</c><c>   1</c></rc>
    <rc><c>Fe</c><c>   1</c></rc>
    <rc><c>Fe</c><c>   1</c></rc>
    <rc><c>Fe</c><c>   1</c></rc>
    <rc><c>Fe</c><c>   1</c></rc>
    <rc><c>Fe</c><c>   1</c></rc>
    <rc><c>Fe</c><c>   1</c></rc>
    <rc><c>Fe</c><c>   1</c></rc>
    <rc><c>Fe</c><c>   1</c></rc>
    <rc><c>Fe</c><c>   1</c></rc>
    <rc><c>Fe</c><c>   1</c></rc>
    <rc><c>Fe</c><c>   1</c></rc>
    <rc><c>Fe</c><c>   1</c></rc>
    <rc><c>Fe</c><c>   1</c></rc>
    <rc><c>Fe</c><c>   1</c></rc>
    <rc><c>Fe</c><c>   1</c></rc>
    <rc><c>Fe</c><c>   1</c></rc>
    <rc><c>Fe</c><c>   1</c></rc>
    <rc><c>Fe</c><c>   1</c></rc>
    <rc><c>Fe</c><c>   1</c></rc>
    <rc><c>Fe</c><c>   1</c></rc>
    <rc><c>Fe</c><c>   1</c></rc>
    <rc><c>Fe</c><c>   1</c></rc>
    <rc><c>Fe</c><c>   1</c></rc>
    <rc><c>Fe</c><c>   1</c></rc>
    <rc><c>Fe</c><c>   1</c></rc>
    <rc><c>Fe</c><c>   1</c></rc>
    <rc><c>Fe</c><c>   1</c></rc>
    <rc><c>Fe</c><c>   1</c></rc>
    <rc><c>Fe</c><c>   1</c></rc>
    <rc><c>Fe</c><c>   1</c></rc>
    <rc><c>Fe</c><c>   1</c></rc>
    <rc><c>Fe</c><c>   1</c></rc>
    <rc><c>Fe</c><c>   1</c></rc>
    <rc><c>Fe</c><c>   1</c></rc>
    <rc><c>Fe</c><c>   1</c></rc>
    <rc><c>Fe</c><c>   1</c></rc>
    <rc><c>Fe</c><c>   1</c></rc>
    <rc><c>Fe</c><c>   1</c></rc>
    <rc><c>Fe</c><c>   1</c></rc>
    <rc><c>Fe</c><c>   1</c></rc>
    <rc><c>Fe</c><c>   1</c></rc>
    <rc><c>Fe</c><c>   1</c></rc>
    <rc><c>Fe</c><c>   1</c></rc>
    <rc><c>Fe</c><c>   1</c></rc>
    <rc><c>Fe</c><c>   1</c></rc>
    <rc><c>Fe</c><c>   1</c></rc>
    <rc><c>Fe</c><c>   1</c></rc>
    <rc><c>Fe</c><c>   1</c></rc>
    <rc><c>Fe</c><c>   1</c></rc>
    <rc><c>Fe</c><c>   1</c></rc>
    <rc><c>Fe</c><c>   1</c></rc>
    <rc><c>Fe</c><c>   1</c></rc>
    <rc><c>Fe</c><c>   1</c></rc>
    <rc><c>Fe</c><c>   1</c></rc>
    <rc><c>Fe</c><c>   1</c></rc>
    <rc><c>Fe</c><c>   1</c></rc>
    <rc><c>Fe</c><c>   1</c></rc>
    <rc><c>Fe</c><c>   1</c></rc>
    <rc><c>Fe</c><c>   1</c></rc>
    <rc><c>Fe</c><c>   1</c></rc>
    <rc><c>Fe</c><c>   1</c></rc>
    <rc><c>Fe</c><c>   1</c></rc>
    <rc><c>Fe</c><c>   1</c></rc>
    <rc><c>Fe</c><c>   1</c></rc>
    <rc><c>Fe</c><c>   1</c></rc>
    <rc><c>Fe</c><c>   1</c></rc>
    <rc><c>Fe</c><c>   1</c></rc>
    <rc><c>Fe</c><c>   1</c></rc>
    <rc><c>Fe</c><c>   1</c></rc>
    <rc><c>Fe</c><c>   1</c></rc>
    <rc><c>Fe</c><c>   1</c></rc>
    <rc><c>Fe</c><c>   1</c></rc>
    <rc><c>Fe</c><c>   1</c></rc>
    <rc><c>Fe</c><c>   1</c></rc>
    <rc><c>Fe</c><c>   1</c></rc>
    <rc><c>Fe</c><c>   1</c></rc>
    <rc><c>Fe</c><c>   1</c></rc>
    <rc><c>Fe</c><c>   1</c></rc>
    <rc><c>Fe</c><c>   1</c></rc>
    <rc><c>Fe</c><c>   1</c></rc>
    <rc><c>Fe</c><c>   1</c></rc>
    <rc><c>Fe</c><c>   1</c></rc>
    <rc><c>Fe</c><c>   1</c></rc>
    <rc><c>Fe</c><c>   1</c></rc>
    <rc><c>Fe</c><c>   1</c></rc>
    <rc><c>Fe</c><c>   1</c></rc>
    <rc><c>Fe</c><c>   1</c></rc>
    <rc><c>Fe</c><c>   1</c></rc>
    <rc><c>Fe</c><c>   1</c></rc>
    <rc><c>Fe</c><c>   1</c></rc>
    <rc><c>Fe</c><c>   1</c></rc>
    <rc><c>Fe</c><c>   1</c></rc>
    <rc><c>Fe</c><c>   1</c></rc>
    <rc><c>Fe</c><c>   1</c></rc>
    <rc><c>Fe</c><c>   1</c></rc>
    <rc><c>Fe</c><c>   1</c></rc>
    <rc><c>Fe</c><c>   1</c></rc>
    <rc><c>Fe</c><c>   1</c></rc>
    <rc><c>Fe</c><c>   1</c></rc>
    <rc><c>Fe</c><c>   1</c></rc>
    <rc><c>Fe</c><c>   1</c></rc>
    <rc><c>Fe</c><c>   1</c></rc>
    <rc><c>Fe</c><c>   1</c></rc>
    <rc><c>Fe</c><c>   1</c></rc>
    <rc><c>Fe</c><c>   1</c></rc>
    <rc><c>Fe</c><c>   1</c></rc>
    <rc><c>Fe</c><c>   1</c></rc>
    <rc><c>Fe</c><c>   1</c></rc>
    <rc><c>Fe</c><c>   1</c></rc>
    <rc><c>Fe</c><c>   1</c></rc>
    <rc><c>Fe</c><c>   1</c></rc>
    <rc><c>Fe</c><c>   1</c></rc>
    <rc><c>Fe</c><c>   1</c></rc>
    <rc><c>Fe</c><c>   1</c></rc>
    <rc><c>Fe</c><c>   1</c></rc>
    <rc><c>Fe</c><c>   1</c></rc>
    <rc><c>Fe</c><c>   1</c></rc>
    <rc><c>Fe</c><c>   1</c></rc>
    <rc><c>Fe</c><c>   1</c></rc>
    <rc><c>Fe</c><c>   1</c></rc>
    <rc><c>Fe</c><c>   1</c></rc>
    <rc><c>Fe</c><c>   1</c></rc>
    <rc><c>Fe</c><c>   1</c></rc>
    <rc><c>Fe</c><c>   1</c></rc>
    <rc><c>Fe</c><c>   1</c></rc>
    <rc><c>Fe</c><c>   1</c></rc>
    <rc><c>Fe</c><c>   1</c></rc>
    <rc><c>Fe</c><c>   1</c></rc>
    <rc><c>Fe</c><c>   1</c></rc>
    <rc><c>Fe</c><c>   1</c></rc>
    <rc><c>Fe</c><c>   1</c></rc>
    <rc><c>Fe</c><c>   1</c></rc>
    <rc><c>Fe</c><c>   1</c></rc>
    <rc><c>Fe</c><c>   1</c></rc>
    <rc><c>Fe</c><c>   1</c></rc>
    <rc><c>Fe</c><c>   1</c></rc>
    <rc><c>Fe</c><c>   1</c></rc>
    <rc><c>Fe</c><c>   1</c></rc>
    <rc><c>Fe</c><c>   1</c></rc>
    <rc><c>Fe</c><c>   1</c></rc>
    <rc><c>Fe</c><c>   1</c></rc>
    <rc><c>Fe</c><c>   1</c></rc>
    <rc><c>Fe</c><c>   1</c></rc>
    <rc><c>Fe</c><c>   1</c></rc>
    <rc><c>Fe</c><c>   1</c></rc>
    <rc><c>Fe</c><c>   1</c></rc>
    <rc><c>Fe</c><c>   1</c></rc>
    <rc><c>Fe</c><c>   1</c></rc>
    <rc><c>Fe</c><c>   1</c></rc>
    <rc><c>Fe</c><c>   1</c></rc>
    <rc><c>Fe</c><c>   1</c></rc>
    <rc><c>Fe</c><c>   1</c></rc>
    <rc><c>Fe</c><c>   1</c></rc>
    <rc><c>Fe</c><c>   1</c></rc>
    <rc><c>Fe</c><c>   1</c></rc>
    <rc><c>Fe</c><c>   1</c></rc>
    <rc><c>Fe</c><c>   1</c></rc>
    <rc><c>Fe</c><c>   1</c></rc>
    <rc><c>Fe</c><c>   1</c></rc>
    <rc><c>Fe</c><c>   1</c></rc>
    <rc><c>Fe</c><c>   1</c></rc>
    <rc><c>Fe</c><c>   1</c></rc>
    <rc><c>Fe</c><c>   1</c></rc>
    <rc><c>Fe</c><c>   1</c></rc>
    <rc><c>Fe</c><c>   1</c></rc>
    <rc><c>Fe</c><c>   1</c></rc>
    <rc><c>Fe</c><c>   1</c></rc>
    <rc><c>Fe</c><c>   1</c></rc>
    <rc><c>Fe</c><c>   1</c></rc>
    <rc><c>Fe</c><c>   1</c></rc>
    <rc><c>Fe</c><c>   1</c></rc>
    <rc><c>Fe</c><c>   1</c></rc>
    <rc><c>Fe</c><c>   1</c></rc>
    <rc><c>Fe</c><c>   1</c></rc>
    <rc><c>Fe</c><c>   1</c></rc>
    <rc><c>Fe</c><c>   1</c></rc>
    <rc><c>Fe</c><c>   1</c></rc>
    <rc><c>Fe</c><c>   1</c></rc>
    <rc><c>Fe</c><c>   1</c></rc>
    <rc><c>Fe</c><c>   1</c></rc>
    <rc><c>Fe</c><c>   1</c></rc>
    <rc><c>Fe</c><c>   1</c></rc>
    <rc><c>Fe</c><c>   1</c></rc>
    <rc><c>Fe</c><c>   1</c></rc>
    <rc><c>Fe</c><c>   1</c></rc>
    <rc><c>Fe</c><c>   1</c></rc>
    <rc><c>Fe</c><c>   1</c></rc>
    <rc><c>Fe</c><c>   1</c></rc>
    <rc><c>Fe</c><c>   1</c></rc>
    <rc><c>Fe</c><c>   1</c></rc>
    <rc><c>Fe</c><c>   1</c></rc>
    <rc><c>Fe</c><c>   1</c></rc>
    <rc><c>Fe</c><c>   1</c></rc>
    <rc><c>Fe</c><c>   1</c></rc>
    <rc><c>Fe</c><c>   1</c></rc>
    <rc><c>Fe</c><c>   1</c></rc>
    <rc><c>Fe</c><c>   1</c></rc>
    <rc><c>Fe</c><c>   1</c></rc>
    <rc><c>Fe</c><c>   1</c></rc>
    <rc><c>Fe</c><c>   1</c></rc>
    <rc><c>Fe</c><c>   1</c></rc>
    <rc><c>Fe</c><c>   1</c></rc>
    <rc><c>Fe</c><c>   1</c></rc>
    <rc><c>Fe</c><c>   1</c></rc>
    <rc><c>Fe</c><c>   1</c></rc>
    <rc><c>Fe</c><c>   1</c></rc>
    <rc><c>Fe</c><c>   1</c></rc>
    <rc><c>Fe</c><c>   1</c></rc>
    <rc><c>Fe</c><c>   1</c></rc>
    <rc><c>Fe</c><c>   1</c></rc>
    <rc><c>Fe</c><c>   1</c></rc>
    <rc><c>Fe</c><c>   1</c></rc>
    <rc><c>Fe</c><c>   1</c></rc>
    <rc><c>Fe</c><c>   1</c></rc>
    <rc><c>Fe</c><c>   1</c></rc>
    <rc><c>Fe</c><c>   1</c></rc>
    <rc><c>Fe</c><c>   1</c></rc>
    <rc><c>Fe</c><c>   1</c></rc>
    <rc><c>Fe</c><c>   1</c></rc>
    <rc><c>Fe</c><c>   1</c></rc>
    <rc><c>Fe</c><c>   1</c></rc>
    <rc><c>Fe</c><c>   1</c></rc>
    <rc><c>Fe</c><c>   1</c></rc>
    <rc><c>Fe</c><c>   1</c></rc>
    <rc><c>Fe</c><c>   1</c></rc>
    <rc><c>Fe</c><c>   1</c></rc>
    <rc><c>Fe</c><c>   1</c></rc>
    <rc><c>Fe</c><c>   1</c></rc>
    <rc><c>Fe</c><c>   1</c></rc>
    <rc><c>Fe</c><c>   1</c></rc>
    <rc><c>Fe</c><c>   1</c></rc>
    <rc><c>Fe</c><c>   1</c></rc>
    <rc><c>Fe</c><c>   1</c></rc>
    <rc><c>Fe</c><c>   1</c></rc>
    <rc><c>Fe</c><c>   1</c></rc>
    <rc><c>Fe</c><c>   1</c></rc>
    <rc><c>Mn</c><c>   2</c></rc>
    <rc><c>Mn</c><c>   2</c></rc>
    <rc><c>Mn</c><c>   2</c></rc>
    <rc><c>Mn</c><c>   2</c></rc>
    <rc><c>Mn</c><c>   2</c></rc>
    <rc><c>Mn</c><c>   2</c></rc>
    <rc><c>Mn</c><c>   2</c></rc>
   </set>
  </array>
  <array name="atomtypes" >
   <dimension dim="1">type</dimension>
   <field type="int">atomspertype</field>
   <field type="string">element</field>
   <field>mass</field>
   <field>valence</field>
   <field type="string">pseudopotential</field>
   <set>
    <rc><c> 281</c><c>Fe</c><c>     55.84700000</c><c>      8.00000000</c><c>  PAW_PBE Fe_GW 31Mar2010               </c></rc>
    <rc><c>   7</c><c>Mn</c><c>     54.93800000</c><c>      7.00000000</c><c>  PAW_PBE Mn_GW 31Mar2010               </c></rc>
   </set>
  </array>
 </atominfo>
 <structure name="initialpos" >
  <crystal>
   <varray name="basis" >
    <v>       9.72667804       0.00000000       0.00000000 </v>
    <v>       0.00000000       8.42355028       0.00000000 </v>
    <v>       0.00000000       0.00000000      45.00000000 </v>
   </varray>
   <i name="volume">   3686.99226691 </i>
   <varray name="rec_basis" >
    <v>       0.10281002       0.00000000       0.00000000 </v>
    <v>       0.00000000       0.11871479       0.00000000 </v>
    <v>       0.00000000       0.00000000       0.02222222 </v>
   </varray>
  </crystal>
  <varray name="positions" >
   <v>       0.06169210       0.03150854       0.12465333 </v>
   <v>       0.06288421       0.87124755       0.52122678 </v>
   <v>       0.19105173       0.12242565       0.78844310 </v>
   <v>       0.43361346       0.28761019       0.38905868 </v>
   <v>       0.30842407       0.71274711       0.83317744 </v>
   <v>       0.80830843       0.21268586       0.83315212 </v>
   <v>       0.18359083       0.78778560       0.38906481 </v>
   <v>       0.56283823       0.20737718       0.56532669 </v>
   <v>       0.05936714       0.04067373       0.74393005 </v>
   <v>       0.81342672       0.87141865       0.52127398 </v>
   <v>       0.18463098       0.29016758       0.74390685 </v>
   <v>       0.94104056       0.45242692       0.34501974 </v>
   <v>       0.93349956       0.28763035       0.38905580 </v>
   <v>       0.81260204       0.04159016       0.87551907 </v>
   <v>       0.18861166       0.79086843       0.61065694 </v>
   <v>       0.55864986       0.03716098       0.38902474 </v>
   <v>       0.93338188       0.96271728       0.83315546 </v>
   <v>       0.31275175       0.54146646       0.87549832 </v>
   <v>       0.68511939       0.29098096       0.74409392 </v>
   <v>       0.19234231       0.61392455       0.16695291 </v>
   <v>       0.81290823       0.20552940       0.47858420 </v>
   <v>       0.81360255       0.54078452       0.61065164 </v>
   <v>       0.31335385       0.86956108       0.43441970 </v>
   <v>       0.81645787       0.03743604       0.25620008 </v>
   <v>       0.69101298       0.95265038       0.34514142 </v>
   <v>       0.94165691       0.11239724       0.16683635 </v>
   <v>       0.93844239       0.12120877       0.52123738 </v>
   <v>       0.56618875       0.53716349       0.25623561 </v>
   <v>       0.68840291       0.79392573       0.87552447 </v>
   <v>       0.56848746       0.36496768       0.16691244 </v>
   <v>       0.43485621       0.79044326       0.74397475 </v>
   <v>       0.81414325       0.70754799       0.56534686 </v>
   <v>       0.56562333       0.87256922       0.78837088 </v>
   <v>       0.68840424       0.12139977       0.52126121 </v>
   <v>       0.19134273       0.28738945       0.25605602 </v>
   <v>       0.93338983       0.46251681       0.83317472 </v>
   <v>       0.06377377       0.20767801       0.69962470 </v>
   <v>       0.43851281       0.95778904       0.69964654 </v>
   <v>       0.30838171       0.21259510       0.83317009 </v>
   <v>       0.43544029       0.62585140       0.65476780 </v>
   <v>       0.31369252       0.54057653       0.61063182 </v>
   <v>       0.93901747       0.45722349       0.56541022 </v>
   <v>       0.68481658       0.79056243       0.74402141 </v>
   <v>       0.31029024       0.87570060       0.65474735 </v>
   <v>       0.68368277       0.78753871       0.38906461 </v>
   <v>       0.93527794       0.79077204       0.74406792 </v>
   <v>       0.06657590       0.20219994       0.34505655 </v>
   <v>       0.80837282       0.03744723       0.38906662 </v>
   <v>       0.44141642       0.12206649       0.78851425 </v>
   <v>       0.05964326       0.20606284       0.21197393 </v>
   <v>       0.06870769       0.36467764       0.16686532 </v>
   <v>       0.94166768       0.78744940       0.25631672 </v>
   <v>       0.56308955       0.20810489       0.69957134 </v>
   <v>       0.68828995       0.95792835       0.69961924 </v>
   <v>       0.43980432       0.78789624       0.12454747 </v>
   <v>       0.43891622       0.95729102       0.56542572 </v>
   <v>       0.81583896       0.37267992       0.78837874 </v>
   <v>       0.69136924       0.28727938       0.25620410 </v>
   <v>       0.18880689       0.45719806       0.56542443 </v>
   <v>       0.06796969       0.86350617       0.16690073 </v>
   <v>       0.18879082       0.29054380       0.61064330 </v>
   <v>       0.56627385       0.70241359       0.34497861 </v>
   <v>       0.31312527       0.20809430       0.69964115 </v>
   <v>       0.56245312       0.54152475       0.87549407 </v>
   <v>       0.06374947       0.70692730       0.56545932 </v>
   <v>       0.69121697       0.62237379       0.78841831 </v>
   <v>       0.30855990       0.53770990       0.38906890 </v>
   <v>       0.18838130       0.62149433       0.52126055 </v>
   <v>       0.56296283       0.87004538       0.43448385 </v>
   <v>       0.43875427       0.45736278       0.56539184 </v>
   <v>       0.43505592       0.29031830       0.74401934 </v>
   <v>       0.80456232       0.87302946       0.30033912 </v>
   <v>       0.81634670       0.70237536       0.34512098 </v>
   <v>       0.43350291       0.46275302       0.83314590 </v>
   <v>       0.68778139       0.95567857       0.47864792 </v>
   <v>       0.68821193       0.45783430       0.69963899 </v>
   <v>       0.56339650       0.87145846       0.52126420 </v>
   <v>       0.55994483       0.37555842       0.65480708 </v>
   <v>       0.80993724       0.87500116       0.65479316 </v>
   <v>       0.81301292       0.36949619       0.43443848 </v>
   <v>       0.81573315       0.53759295       0.25607675 </v>
   <v>       0.68337652       0.46257686       0.83311661 </v>
   <v>       0.19134276       0.78731450       0.12478905 </v>
   <v>       0.06266349       0.04149856       0.87550717 </v>
   <v>       0.30985589       0.37537982       0.65482805 </v>
   <v>       0.31614839       0.20242750       0.34503809 </v>
   <v>       0.80970163       0.54048225       0.74391138 </v>
   <v>       0.68337556       0.96259385       0.83314528 </v>
   <v>       0.55986256       0.87528496       0.65479968 </v>
   <v>       0.31369347       0.70689583       0.56551975 </v>
   <v>       0.31351109       0.53133869       0.12448549 </v>
   <v>       0.68484520       0.95527529       0.21194711 </v>
   <v>       0.31384832       0.20723337       0.56547250 </v>
   <v>       0.30981222       0.54043042       0.74399906 </v>
   <v>       0.68870112       0.95731609       0.56535090 </v>
   <v>       0.43856626       0.79086515       0.61060260 </v>
   <v>       0.69328458       0.61367353       0.16702230 </v>
   <v>       0.30454856       0.87330957       0.30033214 </v>
   <v>       0.31251787       0.70539559       0.47865134 </v>
   <v>       0.93844649       0.29107409       0.61060554 </v>
   <v>       0.42963194       0.62303785       0.30039768 </v>
   <v>       0.81833252       0.86322933       0.16689247 </v>
   <v>       0.55987560       0.20553593       0.21185583 </v>
   <v>       0.94282776       0.61343401       0.16675655 </v>
   <v>       0.93838061       0.79355623       0.87557678 </v>
   <v>       0.56566495       0.37222686       0.78840311 </v>
   <v>       0.06333627       0.37149248       0.52125973 </v>
   <v>       0.56343911       0.37134275       0.52125117 </v>
   <v>       0.67981597       0.12315163       0.30035848 </v>
   <v>       0.43343472       0.96258881       0.83314546 </v>
   <v>       0.19128262       0.28729319       0.12471280 </v>
   <v>       0.81580909       0.87250205       0.78838445 </v>
   <v>       0.31257385       0.37028256       0.43444668 </v>
   <v>       0.56247660       0.03170705       0.12477419 </v>
   <v>       0.43811143       0.29094496       0.61067017 </v>
   <v>       0.19159967       0.45195467       0.34505446 </v>
   <v>       0.43991689       0.28771733       0.12461702 </v>
   <v>       0.69134070       0.78725380       0.25624517 </v>
   <v>       0.43817758       0.12130734       0.52125775 </v>
   <v>       0.18858004       0.29370438       0.87564062 </v>
   <v>       0.18649552       0.12481118       0.65473634 </v>
   <v>       0.93487075       0.12530046       0.65480867 </v>
   <v>       0.30936440       0.20545369       0.21188672 </v>
   <v>       0.05846634       0.03743838       0.38905009 </v>
   <v>       0.19412766       0.11472247       0.16733583 </v>
   <v>       0.06298247       0.54094327       0.61065925 </v>
   <v>       0.94139787       0.28754824       0.25601571 </v>
   <v>       0.56356873       0.54056928       0.61069340 </v>
   <v>       0.93891047       0.95752935       0.56539710 </v>
   <v>       0.67949643       0.62337401       0.30024878 </v>
   <v>       0.93799851       0.61976170       0.43446131 </v>
   <v>       0.94098613       0.62271379       0.78840929 </v>
   <v>       0.56322933       0.70789009       0.69962856 </v>
   <v>       0.05832909       0.71273759       0.83314829 </v>
   <v>       0.92964653       0.12309858       0.30044161 </v>
   <v>       0.93808886       0.79119587       0.61062669 </v>
   <v>       0.44152926       0.78725364       0.25621992 </v>
   <v>       0.31576280       0.37230950       0.78843723 </v>
   <v>       0.43572213       0.45602382       0.21209127 </v>
   <v>       0.18839168       0.12176863       0.52121451 </v>
   <v>       0.81339279       0.70772405       0.69963863 </v>
   <v>       0.06372137       0.04064821       0.61064224 </v>
   <v>       0.55844193       0.21268406       0.83313612 </v>
   <v>       0.31353933       0.87128297       0.52118130 </v>
   <v>       0.69081942       0.28770581       0.12466100 </v>
   <v>       0.18576908       0.95563917       0.21202098 </v>
   <v>       0.68861559       0.29106065       0.61064354 </v>
   <v>       0.31337520       0.04040144       0.61064260 </v>
   <v>       0.94094663       0.12217774       0.78851362 </v>
   <v>       0.43851237       0.79374859       0.87557977 </v>
   <v>       0.80950583       0.04046727       0.74398898 </v>
   <v>       0.93828603       0.45785241       0.69965754 </v>
   <v>       0.18527237       0.62585981       0.65486714 </v>
   <v>       0.31303610       0.70823608       0.69960336 </v>
   <v>       0.93979028       0.28728243       0.12459243 </v>
   <v>       0.43780579       0.45561879       0.47863642 </v>
   <v>       0.06302705       0.70537117       0.47860376 </v>
   <v>       0.93832858       0.11960729       0.43447508 </v>
   <v>       0.42934242       0.12273990       0.30035435 </v>
   <v>       0.18807969       0.11965293       0.43457672 </v>
   <v>       0.56289659       0.04163754       0.87552148 </v>
   <v>       0.18870788       0.95666063       0.56522084 </v>
   <v>       0.69044760       0.78699257       0.12479847 </v>
   <v>       0.56254132       0.53152873       0.12461663 </v>
   <v>       0.30867305       0.03730316       0.38907678 </v>
   <v>       0.69288799       0.11427519       0.16719111 </v>
   <v>       0.80952071       0.20535147       0.21192544 </v>
   <v>       0.06628384       0.53758087       0.25618689 </v>
   <v>       0.56279825       0.70575455       0.47863881 </v>
   <v>       0.06359759       0.20746816       0.56541186 </v>
   <v>       0.55461960       0.37280525       0.30042377 </v>
   <v>       0.44122859       0.95208844       0.34498953 </v>
   <v>       0.18343234       0.96246790       0.83314207 </v>
   <v>       0.44222982       0.61293500       0.16720148 </v>
   <v>       0.93549879       0.45493297       0.21210441 </v>
   <v>       0.06319405       0.53293754       0.12448530 </v>
   <v>       0.81328673       0.37139024       0.52125974 </v>
   <v>       0.92969908       0.62300005       0.30042004 </v>
   <v>       0.31601557       0.03772513       0.25619427 </v>
   <v>       0.68841153       0.79114320       0.61062884 </v>
   <v>       0.18336184       0.46292804       0.83305980 </v>
   <v>       0.44192948       0.11349516       0.16696003 </v>
   <v>       0.31343282       0.37167457       0.52128119 </v>
   <v>       0.44085657       0.62248530       0.78837591 </v>
   <v>       0.06623821       0.03759337       0.25597787 </v>
   <v>       0.56357535       0.70753582       0.56539696 </v>
   <v>       0.93488905       0.29058533       0.74402634 </v>
   <v>       0.69090782       0.12242387       0.78846087 </v>
   <v>       0.18352918       0.45566975       0.21194475 </v>
   <v>       0.93368605       0.78752212       0.38907315 </v>
   <v>       0.68846704       0.29384815       0.87569422 </v>
   <v>       0.31831895       0.86404583       0.16711708 </v>
   <v>       0.43806175       0.45774136       0.69951747 </v>
   <v>       0.94148315       0.95225694       0.34500476 </v>
   <v>       0.68841929       0.62130407       0.52125047 </v>
   <v>       0.06017873       0.87589056       0.65483669 </v>
   <v>       0.06571123       0.87266813       0.78839338 </v>
   <v>       0.05980045       0.37579777       0.65485455 </v>
   <v>       0.68778713       0.45572605       0.47863865 </v>
   <v>       0.19129572       0.78716217       0.25624071 </v>
   <v>       0.43758725       0.11991244       0.43448087 </v>
   <v>       0.81394018       0.03277935       0.12451659 </v>
   <v>       0.93845666       0.62123469       0.52121866 </v>
   <v>       0.06292237       0.86944816       0.43445921 </v>
   <v>       0.81260797       0.53254722       0.12465863 </v>
   <v>       0.44122840       0.45235284       0.34503734 </v>
   <v>       0.81649623       0.20192280       0.34497157 </v>
   <v>       0.31630565       0.70185087       0.34495834 </v>
   <v>       0.68710879       0.12568746       0.65472238 </v>
   <v>       0.55435779       0.87297326       0.30033433 </v>
   <v>       0.06001008       0.54059507       0.74400749 </v>
   <v>       0.93489389       0.95512122       0.21201688 </v>
   <v>       0.81013948       0.70568326       0.21182284 </v>
   <v>       0.05422885       0.87301463       0.30035456 </v>
   <v>       0.17960588       0.12313956       0.30032037 </v>
   <v>       0.06641327       0.70185193       0.34496603 </v>
   <v>       0.81360762       0.04089300       0.61068500 </v>
   <v>       0.06331601       0.36978230       0.43432822 </v>
   <v>       0.56640877       0.20186385       0.34494666 </v>
   <v>       0.80468898       0.37278452       0.30046785 </v>
   <v>       0.43786274       0.95561631       0.47858655 </v>
   <v>       0.55868610       0.53702266       0.38904533 </v>
   <v>       0.06268485       0.20585262       0.47859862 </v>
   <v>       0.31577156       0.87258575       0.78845494 </v>
   <v>       0.93840980       0.95797416       0.69963055 </v>
   <v>       0.05461676       0.37294480       0.30044046 </v>
   <v>       0.68573667       0.62439207       0.65476225 </v>
   <v>       0.68879061       0.45719595       0.56539806 </v>
   <v>       0.43491305       0.95531708       0.21197773 </v>
   <v>       0.31276736       0.20581531       0.47860807 </v>
   <v>       0.43643969       0.12488382       0.65473878 </v>
   <v>       0.68806268       0.62037641       0.43443357 </v>
   <v>       0.81323419       0.20835246       0.69955611 </v>
   <v>       0.81279183       0.70577548       0.47863776 </v>
   <v>       0.81304205       0.86976166       0.43444541 </v>
   <v>       0.93772297       0.95571375       0.47861682 </v>
   <v>       0.56271534       0.20548234       0.47860541 </v>
   <v>       0.18798504       0.61997763       0.43439194 </v>
   <v>       0.30965334       0.04065887       0.74390266 </v>
   <v>       0.93513987       0.62469024       0.65477959 </v>
   <v>       0.55844123       0.71272137       0.83314071 </v>
   <v>       0.30449013       0.37292452       0.30037418 </v>
   <v>       0.55945734       0.70558721       0.21191204 </v>
   <v>       0.18784600       0.45568446       0.47860941 </v>
   <v>       0.31247452       0.04144081       0.87550536 </v>
   <v>       0.18801819       0.45778421       0.69935995 </v>
   <v>       0.81247037       0.54137306       0.87550179 </v>
   <v>       0.18340294       0.28768379       0.38907100 </v>
   <v>       0.43791411       0.62010449       0.43444498 </v>
   <v>       0.05919362       0.70545033       0.21180554 </v>
   <v>       0.56313196       0.36938184       0.43447836 </v>
   <v>       0.43846679       0.62132043       0.52124267 </v>
   <v>       0.80835658       0.71261433       0.83316055 </v>
   <v>       0.06599047       0.37211177       0.78848589 </v>
   <v>       0.43848096       0.29399426       0.87559788 </v>
   <v>       0.31250344       0.03255107       0.12458846 </v>
   <v>       0.68798659       0.12038961       0.43443889 </v>
   <v>       0.19120853       0.95229708       0.34503648 </v>
   <v>       0.05848462       0.21267558       0.83315214 </v>
   <v>       0.56306646       0.04105953       0.61060694 </v>
   <v>       0.68444925       0.45487683       0.21199786 </v>
   <v>       0.18466042       0.79034672       0.74399160 </v>
   <v>       0.17962993       0.62295543       0.30033881 </v>
   <v>       0.43359574       0.78752298       0.38907239 </v>
   <v>       0.44146619       0.28735099       0.25626001 </v>
   <v>       0.06256141       0.54147550       0.87550688 </v>
   <v>       0.55981404       0.04070931       0.74384434 </v>
   <v>       0.18850582       0.79382737       0.87560170 </v>
   <v>       0.93761618       0.45555960       0.47867180 </v>
   <v>       0.80845127       0.53728814       0.38908820 </v>
   <v>       0.81375724       0.20719521       0.56542173 </v>
   <v>       0.19107055       0.62214476       0.78851937 </v>
   <v>       0.05859502       0.53765977       0.38908086 </v>
   <v>       0.06372365       0.70837785       0.69958370 </v>
   <v>       0.31609698       0.53665281       0.25615071 </v>
   <v>       0.30992967       0.70596163       0.21186403 </v>
   <v>       0.56764791       0.86443841       0.16709087 </v>
   <v>       0.55934536       0.54066281       0.74393214 </v>
   <v>       0.69163542       0.45226928       0.34505567 </v>
   <v>       0.93866178       0.29399608       0.87560094 </v>
   <v>       0.56678938       0.03729971       0.25601045 </v>
   <v>       0.68275091       0.28799555       0.38898473 </v>
   <v>       0.31950958       0.36413223       0.16659062 </v>
   <v>       0.81954995       0.36300200       0.16651081 </v>
   <v>       0.18842973       0.95616471       0.69967332 </v>
   <v>       0.94043499       0.78899543       0.12490428 </v>
   <v>       0.81000126       0.37531067       0.65452554 </v>
   <v>       0.18779269       0.95561465       0.47856770 </v>
  </varray>
 </structure>
 <calculation>
  <scstep>
   <time name="dav">   53.95   53.96</time>
   <time name="total">   54.09   54.15</time>
   <energy>
    <i name="alphaZ">  16403.00255340 </i>
    <i name="ewald"> 734815.88425352 </i>
    <i name="hartreedc">-926459.01131107 </i>
    <i name="XCdc">  -6388.36554650 </i>
    <i name="pawpsdc"> 163151.95320885 </i>
    <i name="pawaedc">-160818.84594568 </i>
    <i name="eentropy">     -1.03679404 </i>
    <i name="bandstr">  38621.27326996 </i>
    <i name="atom"> 169914.59583762 </i>
    <i name="e_fr_energy">  29239.44952606 </i>
    <i name="e_wo_entrp">  29240.48632010 </i>
    <i name="e_0_energy">  29239.96792308 </i>
   </energy>
  </scstep>
  <scstep>
   <time name="dav">   53.54   53.56</time>
   <time name="total">   53.55   53.57</time>
   <energy>
    <i name="e_fr_energy">   1198.32519122 </i>
    <i name="e_wo_entrp">   1199.79379865 </i>
    <i name="e_0_energy">   1199.05949494 </i>
   </energy>
  </scstep>
  <scstep>
   <time name="dav">   70.54   70.58</time>
   <time name="total">   70.55   70.59</time>
   <energy>
    <i name="e_fr_energy">  -1940.62810878 </i>
    <i name="e_wo_entrp">  -1937.03968986 </i>
    <i name="e_0_energy">  -1938.83389932 </i>
   </energy>
  </scstep>
  <scstep>
   <time name="dav">   88.26   88.30</time>
   <time name="total">   88.27   88.31</time>
   <energy>
    <i name="e_fr_energy">  -2610.82384806 </i>
    <i name="e_wo_entrp">  -2607.26747371 </i>
    <i name="e_0_energy">  -2609.04566089 </i>
   </energy>
  </scstep>
  <scstep>
   <time name="dav">   84.17   84.21</time>
   <time name="total">   86.20   86.25</time>
   <energy>
    <i name="e_fr_energy">  -2731.10714192 </i>
    <i name="e_wo_entrp">  -2727.44738908 </i>
    <i name="e_0_energy">  -2729.27726550 </i>
   </energy>
  </scstep>
  <scstep>
   <time name="diag">    8.20    8.20</time>
   <time name="diis">   38.06   38.06</time>
   <time name="orth">    2.28    2.28</time>
   <time name="total">   50.72   50.76</time>
   <energy>
    <i name="e_fr_energy">  -5705.70865230 </i>
    <i name="e_wo_entrp">  -5702.00582406 </i>
    <i name="e_0_energy">  -5703.85723818 </i>
   </energy>
  </scstep>
  <scstep>
   <time name="diag">    8.31    8.31</time>
   <time name="diis">   32.32   32.32</time>
   <time name="orth">    2.28    2.28</time>
   <time name="total">   45.11   45.15</time>
[...]
       <r>     5.8051     0.0000  2772.0000 </r>
       <r>     5.8477     0.0000  2772.0000 </r>
       <r>     5.8904     0.0000  2772.0000 </r>
       <r>     5.9331     0.0000  2772.0000 </r>
       <r>     5.9757     0.0000  2772.0000 </r>
       <r>     6.0184     0.0000  2772.0000 </r>
       <r>     6.0611     0.0000  2772.0000 </r>
       <r>     6.1038     0.0000  2772.0000 </r>
       <r>     6.1464     0.0000  2772.0000 </r>
       <r>     6.1891     0.0000  2772.0000 </r>
       <r>     6.2318     0.0000  2772.0000 </r>
       <r>     6.2744     0.0000  2772.0000 </r>
       <r>     6.3171     0.0000  2772.0000 </r>
       <r>     6.3598     0.0000  2772.0000 </r>
       <r>     6.4025     0.0000  2772.0000 </r>
       <r>     6.4451     0.0000  2772.0000 </r>
       <r>     6.4878     0.0000  2772.0000 </r>
       <r>     6.5305     0.0000  2772.0000 </r>
       <r>     6.5731     0.0000  2772.0000 </r>
       <r>     6.6158     0.0000  2772.0000 </r>
       <r>     6.6585     0.0000  2772.0000 </r>
       <r>     6.7011     0.0000  2772.0000 </r>
       <r>     6.7438     0.0000  2772.0000 </r>
      </set>
     </set>
    </array>
   </total>
  </dos>
 </calculation>
 <structure name="finalpos" >
  <crystal>
   <varray name="basis" >
    <v>       9.72667804       0.00000000       0.00000000 </v>
    <v>       0.00000000       8.42355028       0.00000000 </v>
    <v>       0.00000000       0.00000000      45.00000000 </v>
   </varray>
   <i name="volume">   3686.99226691 </i>
   <varray name="rec_basis" >
    <v>       0.10281002       0.00000000       0.00000000 </v>
    <v>       0.00000000       0.11871479       0.00000000 </v>
    <v>       0.00000000       0.00000000       0.02222222 </v>
   </varray>
  </crystal>
  <varray name="positions" >
   <v>       0.06251802       0.03306402       0.12473367 </v>
   <v>       0.06308547       0.87169176       0.52136112 </v>
   <v>       0.19028375       0.12335040       0.78855237 </v>
   <v>       0.43453353       0.28777320       0.38907152 </v>
   <v>       0.30944852       0.71181351       0.83346685 </v>
   <v>       0.80907123       0.21204879       0.83339204 </v>
   <v>       0.18429198       0.78741491       0.38904557 </v>
   <v>       0.56279376       0.20705016       0.56527915 </v>
   <v>       0.06068183       0.04053269       0.74381673 </v>
   <v>       0.81335210       0.87192117       0.52140236 </v>
   <v>       0.18550909       0.29037654       0.74384395 </v>
   <v>       0.93936552       0.45298862       0.34494069 </v>
   <v>       0.93406251       0.28771109       0.38904642 </v>
   <v>       0.81220040       0.04228627       0.87523369 </v>
   <v>       0.18842745       0.79104295       0.61048642 </v>
   <v>       0.55968144       0.03690933       0.38906400 </v>
   <v>       0.93407288       0.96193707       0.83347287 </v>
   <v>       0.31256843       0.54215984       0.87522019 </v>
   <v>       0.68559337       0.29095707       0.74404411 </v>
   <v>       0.19193848       0.61483315       0.16682789 </v>
   <v>       0.81302700       0.20522552       0.47842932 </v>
   <v>       0.81337561       0.54082633       0.61053665 </v>
   <v>       0.31339791       0.86958085       0.43427743 </v>
   <v>       0.81479927       0.03713719       0.25615141 </v>
   <v>       0.68983159       0.95285616       0.34503754 </v>
   <v>       0.94138152       0.11376594       0.16672912 </v>
   <v>       0.93850646       0.12193559       0.52136619 </v>
   <v>       0.56478160       0.53736695       0.25619166 </v>
   <v>       0.68782636       0.79361175       0.87524964 </v>
   <v>       0.56742946       0.36540956       0.16688507 </v>
   <v>       0.43470222       0.79087427       0.74389074 </v>
   <v>       0.81389769       0.70739221       0.56533238 </v>
   <v>       0.56475664       0.87308273       0.78865844 </v>
   <v>       0.68825393       0.12205187       0.52138756 </v>
   <v>       0.19049569       0.28740649       0.25604476 </v>
   <v>       0.93407507       0.46180396       0.83340059 </v>
   <v>       0.06344640       0.20743247       0.69978317 </v>
   <v>       0.43780081       0.95761788       0.69981454 </v>
   <v>       0.30949228       0.21199423       0.83344606 </v>
   <v>       0.43583090       0.62543260       0.65488683 </v>
   <v>       0.31330491       0.54095527       0.61048700 </v>
   <v>       0.93883608       0.45689318       0.56537138 </v>
   <v>       0.68529931       0.79087742       0.74390020 </v>
   <v>       0.31059556       0.87538397       0.65484970 </v>
   <v>       0.68454738       0.78710711       0.38908252 </v>
   <v>       0.93637407       0.79094588       0.74393005 </v>
   <v>       0.06478302       0.20281286       0.34490577 </v>
   <v>       0.80913166       0.03723005       0.38905601 </v>
   <v>       0.44044300       0.12317849       0.78872086 </v>
   <v>       0.06056015       0.20520185       0.21187421 </v>
   <v>       0.06788408       0.36498691       0.16669573 </v>
   <v>       0.94012728       0.78735061       0.25625632 </v>
   <v>       0.56275431       0.20810238       0.69968270 </v>
   <v>       0.68790259       0.95781593       0.69971323 </v>
   <v>       0.43988565       0.78689505       0.12493209 </v>
   <v>       0.43855999       0.95699023       0.56545246 </v>
   <v>       0.81496313       0.37321841       0.78868472 </v>
   <v>       0.68980661       0.28715458       0.25616487 </v>
   <v>       0.18877514       0.45686736       0.56541416 </v>
   <v>       0.06719694       0.86487852       0.16680916 </v>
   <v>       0.18855564       0.29056571       0.61046699 </v>
   <v>       0.56497757       0.70281252       0.34493842 </v>
   <v>       0.31272942       0.20777483       0.69982659 </v>
   <v>       0.56219034       0.54212027       0.87520434 </v>
   <v>       0.06376551       0.70671473       0.56549659 </v>
   <v>       0.69013855       0.62267835       0.78874716 </v>
   <v>       0.30959677       0.53806511       0.38906186 </v>
   <v>       0.18839572       0.62212969       0.52141235 </v>
   <v>       0.56293312       0.86999751       0.43427164 </v>
   <v>       0.43845712       0.45702127       0.56538623 </v>
   <v>       0.43496749       0.29050812       0.74395375 </v>
   <v>       0.80615094       0.87249349       0.30037183 </v>
   <v>       0.81491718       0.70269068       0.34509453 </v>
   <v>       0.43438740       0.46180881       0.83337323 </v>
   <v>       0.68784685       0.95506770       0.47844714 </v>
   <v>       0.68779372       0.45787196       0.69967811 </v>
   <v>       0.56316734       0.87192550       0.52140443 </v>
   <v>       0.56053132       0.37535976       0.65491238 </v>
   <v>       0.81068946       0.87485303       0.65493871 </v>
   <v>       0.81280233       0.37039022       0.43431250 </v>
   <v>       0.81446256       0.53748279       0.25614158 </v>
   <v>       0.68411975       0.46174911       0.83336995 </v>
   <v>       0.19083504       0.78571838       0.12491514 </v>
   <v>       0.06245108       0.04214864       0.87525789 </v>
   <v>       0.31041038       0.37535131       0.65493509 </v>
   <v>       0.31487330       0.20286007       0.34483968 </v>
   <v>       0.81077101       0.54062244       0.74392019 </v>
   <v>       0.68405055       0.96183958       0.83340061 </v>
   <v>       0.56040398       0.87507112       0.65493446 </v>
   <v>       0.31353527       0.70667691       0.56555577 </v>
   <v>       0.31337634       0.53162143       0.12463376 </v>
   <v>       0.68509523       0.95510306       0.21196146 </v>
   <v>       0.31360237       0.20707145       0.56549980 </v>
   <v>       0.31005708       0.54062617       0.74390835 </v>
   <v>       0.68846985       0.95705965       0.56532740 </v>
   <v>       0.43789315       0.79072711       0.61041342 </v>
   <v>       0.69236932       0.61478300       0.16704256 </v>
   <v>       0.30660150       0.87262050       0.30030466 </v>
   <v>       0.31262751       0.70477218       0.47844023 </v>
   <v>       0.93850933       0.29095195       0.61048944 </v>
   <v>       0.43147226       0.62276164       0.30035920 </v>
   <v>       0.81792034       0.86451769       0.16689397 </v>
   <v>       0.56044077       0.20478088       0.21189037 </v>
   <v>       0.94207175       0.61505407       0.16676309 </v>
   <v>       0.93789643       0.79336606       0.87529477 </v>
   <v>       0.56480561       0.37292872       0.78873344 </v>
   <v>       0.06340052       0.37200564       0.52140136 </v>
   <v>       0.56327827       0.37198801       0.52139351 </v>
   <v>       0.68131729       0.12263950       0.30035029 </v>
   <v>       0.43437453       0.96186040       0.83344339 </v>
   <v>       0.19084453       0.28594942       0.12475365 </v>
   <v>       0.81486578       0.87301649       0.78862685 </v>
   <v>       0.31284903       0.37068024       0.43434054 </v>
   <v>       0.56303641       0.03314239       0.12491663 </v>
   <v>       0.43773776       0.29088027       0.61049869 </v>
   <v>       0.18991545       0.45276595       0.34493903 </v>
   <v>       0.43955711       0.28580006       0.12477740 </v>
   <v>       0.68975530       0.78729102       0.25620615 </v>
   <v>       0.43797259       0.12192998       0.52141792 </v>
   <v>       0.18823721       0.29339450       0.87532203 </v>
   <v>       0.18650503       0.12470179       0.65482848 </v>
   <v>       0.93591661       0.12512210       0.65492225 </v>
   <v>       0.31030108       0.20501998       0.21183736 </v>
   <v>       0.05892538       0.03702184       0.38904155 </v>
   <v>       0.19316278       0.11527058       0.16719867 </v>
   <v>       0.06317232       0.54104769       0.61055906 </v>
   <v>       0.94007398       0.28745094       0.25604315 </v>
   <v>       0.56317549       0.54064630       0.61054289 </v>
   <v>       0.93883468       0.95717645       0.56543299 </v>
   <v>       0.68119198       0.62293722       0.30029965 </v>
   <v>       0.93761186       0.62019299       0.43429448 </v>
   <v>       0.94015422       0.62288762       0.78864049 </v>
   <v>       0.56271400       0.70767825       0.69971999 </v>
   <v>       0.05923509       0.71177214       0.83343042 </v>
   <v>       0.93144342       0.12260615       0.30043359 </v>
   <v>       0.93843329       0.79100782       0.61048656 </v>
   <v>       0.44055458       0.78726996       0.25618642 </v>
   <v>       0.31508637       0.37302553       0.78863803 </v>
   <v>       0.43612814       0.45505956       0.21201813 </v>
   <v>       0.18836083       0.12236157       0.52138090 </v>
   <v>       0.81315432       0.70751404       0.69970700 </v>
   <v>       0.06389296       0.04051778       0.61048751 </v>
   <v>       0.55925978       0.21195571       0.83338317 </v>
   <v>       0.31356278       0.87168852       0.52136570 </v>
   <v>       0.69159182       0.28611941       0.12469435 </v>
   <v>       0.18636730       0.95554328       0.21199243 </v>
   <v>       0.68826198       0.29116690       0.61053435 </v>
   <v>       0.31292230       0.04037423       0.61045344 </v>
   <v>       0.93993713       0.12328064       0.78869976 </v>
   <v>       0.43800436       0.79352218       0.87529798 </v>
   <v>       0.81058394       0.04058660       0.74394367 </v>
   <v>       0.93797190       0.45771742       0.69975283 </v>
   <v>       0.18572341       0.62563275       0.65494513 </v>
   <v>       0.31267222       0.70811519       0.69981740 </v>
   <v>       0.93974008       0.28588746       0.12438880 </v>
   <v>       0.43801021       0.45524990       0.47849040 </v>
   <v>       0.06290788       0.70472692       0.47840200 </v>
   <v>       0.93785629       0.12009190       0.43432280 </v>
   <v>       0.43136311       0.12236509       0.30029541 </v>
   <v>       0.18791582       0.12029325       0.43440851 </v>
   <v>       0.56239870       0.04240887       0.87523787 </v>
   <v>       0.18864639       0.95663483       0.56525383 </v>
   <v>       0.69013123       0.78577193       0.12508017 </v>
   <v>       0.56327026       0.53163282       0.12483321 </v>
   <v>       0.30957827       0.03687055       0.38909501 </v>
   <v>       0.69196467       0.11478501       0.16714155 </v>
   <v>       0.81012758       0.20464229       0.21188015 </v>
   <v>       0.06521068       0.53743390       0.25618773 </v>
   <v>       0.56267429       0.70505100       0.47841508 </v>
   <v>       0.06367125       0.20699387       0.56542776 </v>
   <v>       0.55640863       0.37247609       0.30038427 </v>
   <v>       0.43997591       0.95232936       0.34484582 </v>
   <v>       0.18432634       0.96181962       0.83349176 </v>
   <v>       0.44168886       0.61412210       0.16721514 </v>
   <v>       0.93599220       0.45416332       0.21207913 </v>
   <v>       0.06379873       0.53260502       0.12453355 </v>
   <v>       0.81322190       0.37190537       0.52139402 </v>
   <v>       0.93130912       0.62243554       0.30051818 </v>
   <v>       0.31539639       0.03736156       0.25614750 </v>
   <v>       0.68810115       0.79082904       0.61049936 </v>
   <v>       0.18429470       0.46201940       0.83332044 </v>
   <v>       0.44140949       0.11456059       0.16695079 </v>
   <v>       0.31335190       0.37206901       0.52145430 </v>
   <v>       0.43994938       0.62284402       0.78862135 </v>
   <v>       0.06517849       0.03742677       0.25601410 </v>
   <v>       0.56323143       0.70710190       0.56538873 </v>
   <v>       0.93597297       0.29065248       0.74399603 </v>
   <v>       0.68995342       0.12322990       0.78877059 </v>
   <v>       0.18494533       0.45476483       0.21195519 </v>
   <v>       0.93419147       0.78717824       0.38902874 </v>
   <v>       0.68781817       0.29376374       0.87535306 </v>
   <v>       0.31788445       0.86525142       0.16708201 </v>
   <v>       0.43772448       0.45770416       0.69970535 </v>
   <v>       0.93974434       0.95249048       0.34491464 </v>
   <v>       0.68827470       0.62184454       0.52137822 </v>
   <v>       0.06087764       0.87534424       0.65491653 </v>
   <v>       0.06499526       0.87300780       0.78851342 </v>
   <v>       0.06058154       0.37552784       0.65494885 </v>
   <v>       0.68785771       0.45520205       0.47841615 </v>
   <v>       0.19049576       0.78719957       0.25621347 </v>
   <v>       0.43773596       0.12021766       0.43434284 </v>
   <v>       0.81447697       0.03507688       0.12471032 </v>
   <v>       0.93846130       0.62191954       0.52136612 </v>
   <v>       0.06243006       0.86950354       0.43430619 </v>
   <v>       0.81354350       0.53189536       0.12460094 </v>
   <v>       0.44015575       0.45309306       0.34492705 </v>
   <v>       0.81492962       0.20268490       0.34486684 </v>
   <v>       0.31496003       0.70246517       0.34488506 </v>
   <v>       0.68685046       0.12551139       0.65489969 </v>
   <v>       0.55611881       0.87260172       0.30026109 </v>
   <v>       0.06089977       0.54078547       0.74395226 </v>
   <v>       0.93564093       0.95517525       0.21192071 </v>
   <v>       0.81028551       0.70499733       0.21184736 </v>
   <v>       0.05623589       0.87249890       0.30039590 </v>
   <v>       0.18145810       0.12271235       0.30031816 </v>
   <v>       0.06466389       0.70243290       0.34488312 </v>
   <v>       0.81355106       0.04099528       0.61056415 </v>
   <v>       0.06276084       0.37043486       0.43426747 </v>
   <v>       0.56519165       0.20268319       0.34484674 </v>
   <v>       0.80636774       0.37242794       0.30049497 </v>
   <v>       0.43804188       0.95530356       0.47841562 </v>
   <v>       0.55976823       0.53748226       0.38906153 </v>
   <v>       0.06244078       0.20519208       0.47844174 </v>
   <v>       0.31509087       0.87296750       0.78856074 </v>
   <v>       0.93828521       0.95777918       0.69978187 </v>
   <v>       0.05631849       0.37254001       0.30047266 </v>
   <v>       0.68603120       0.62436474       0.65490262 </v>
   <v>       0.68848000       0.45696479       0.56537546 </v>
   <v>       0.43587162       0.95492386       0.21197390 </v>
   <v>       0.31305754       0.20527036       0.47847125 </v>
   <v>       0.43623207       0.12475212       0.65486354 </v>
   <v>       0.68793389       0.62035423       0.43422612 </v>
   <v>       0.81314794       0.20818680       0.69968174 </v>
   <v>       0.81299143       0.70505803       0.47839154 </v>
   <v>       0.81282368       0.86981488       0.43424976 </v>
   <v>       0.93754690       0.95529165       0.47839945 </v>
   <v>       0.56260099       0.20514897       0.47846058 </v>
   <v>       0.18778285       0.62049955       0.43429418 </v>
   <v>       0.30986091       0.04048888       0.74379875 </v>
   <v>       0.93589774       0.62467000       0.65489920 </v>
   <v>       0.55928427       0.71174829       0.83337940 </v>
   <v>       0.30647684       0.37249053       0.30032378 </v>
   <v>       0.56018245       0.70515668       0.21195325 </v>
   <v>       0.18775030       0.45530167       0.47847228 </v>
   <v>       0.31234029       0.04219076       0.87526430 </v>
   <v>       0.18795894       0.45788651       0.69964486 </v>
   <v>       0.81210760       0.54204268       0.87521314 </v>
   <v>       0.18407152       0.28790653       0.38903453 </v>
   <v>       0.43804522       0.62043923       0.43427832 </v>
   <v>       0.06025708       0.70510938       0.21184646 </v>
   <v>       0.56308361       0.37032974       0.43432880 </v>
   <v>       0.43818845       0.62198572       0.52142341 </v>
   <v>       0.80907400       0.71163572       0.83342278 </v>
   <v>       0.06501161       0.37300558       0.78864523 </v>
   <v>       0.43805650       0.29373337       0.87529798 </v>
   <v>       0.31297928       0.03428056       0.12476430 </v>
   <v>       0.68791623       0.12030152       0.43430154 </v>
   <v>       0.18969139       0.95244065       0.34488126 </v>
   <v>       0.05928391       0.21203561       0.83345555 </v>
   <v>       0.56273739       0.04091972       0.61047913 </v>
   <v>       0.68491959       0.45453474       0.21205014 </v>
   <v>       0.18548230       0.79086491       0.74385578 </v>
   <v>       0.18147558       0.62260844       0.30041097 </v>
   <v>       0.43459583       0.78708242       0.38903242 </v>
   <v>       0.44031010       0.28722278       0.25620281 </v>
   <v>       0.06224065       0.54213137       0.87521551 </v>
   <v>       0.55993048       0.04071409       0.74385406 </v>
   <v>       0.18812316       0.79360212       0.87532497 </v>
   <v>       0.93752818       0.45513814       0.47845250 </v>
   <v>       0.80915528       0.53760567       0.38908414 </v>
   <v>       0.81361815       0.20704170       0.56535573 </v>
   <v>       0.19022705       0.62249199       0.78865771 </v>
   <v>       0.05900590       0.53796820       0.38906546 </v>
   <v>       0.06345499       0.70825932       0.69977665 </v>
   <v>       0.31539297       0.53679685       0.25615922 </v>
   <v>       0.31088601       0.70508297       0.21188801 </v>
   <v>       0.56713997       0.86553087       0.16713066 </v>
   <v>       0.55960509       0.54079349       0.74390150 </v>
   <v>       0.69022787       0.45296042       0.34495678 </v>
   <v>       0.93804378       0.29378343       0.87530025 </v>
   <v>       0.56524900       0.03702840       0.25600611 </v>
   <v>       0.68388342       0.28807455       0.38890897 </v>
   <v>       0.31901135       0.36437624       0.16645519 </v>
   <v>       0.81876394       0.36298504       0.16621397 </v>
   <v>       0.18823426       0.95667590       0.70003963 </v>
   <v>       0.94102822       0.78770206       0.12502883 </v>
   <v>       0.81043692       0.37523488       0.65475415 </v>
   <v>       0.18772876       0.95506549       0.47851127 </v>
  </varray>
 </structure>
</modeling>
