 288 288   0   0
  0.1280206E+02  0.9726678E-09  0.8423550E-09  0.4500000E-08  0.2500000E-15
  1.000000000000000E-004
  CAR 
 unknown system                          
      6.82366021     -6.02790002  301      4.29192444      1.00000000
     -6.028  0.0000E+00  0.0000E+00
     -5.985  0.0000E+00  0.0000E+00
     -5.942  0.0000E+00  0.0000E+00
     -5.899  0.0000E+00  0.0000E+00
     -5.857  0.0000E+00  0.0000E+00
     -5.814  0.0000E+00  0.0000E+00
     -5.771  0.0000E+00  0.0000E+00
     -5.728  0.0000E+00  0.0000E+00
     -5.685  0.0000E+00  0.0000E+00
     -5.642  0.0000E+00  0.0000E+00
     -5.600  0.0000E+00  0.0000E+00
     -5.557  0.0000E+00  0.0000E+00
     -5.514  0.0000E+00  0.0000E+00
     -5.471  0.0000E+00  0.0000E+00
     -5.428  0.0000E+00  0.0000E+00
     -5.385  0.1944E-15  0.8327E-17
     -5.342  0.4438E-14  0.1985E-15
     -5.300  0.9599E-13  0.4310E-14
     -5.257  0.1753E-11  0.7940E-13
     -5.214  0.2725E-10  0.1247E-11
     -5.171  0.3607E-09  0.1670E-10
     -5.128  0.4067E-08  0.1909E-09
     -5.085  0.3908E-07  0.1865E-08
     -5.043  0.3201E-06  0.1558E-07
     -5.000  0.2238E-05  0.1115E-06
     -4.957  0.1337E-04  0.6843E-06
     -4.914  0.6838E-04  0.3614E-05
     -4.871  0.3001E-03  0.1647E-04
     -4.828  0.1134E-02  0.6504E-04
     -4.786  0.3707E-02  0.2239E-03
     -4.743  0.1055E-01  0.6760E-03
     -4.700  0.2638E-01  0.1806E-02
     -4.657  0.5847E-01  0.4311E-02
     -4.614  0.1162E+00  0.9289E-02
     -4.571  0.2095E+00  0.1827E-01
     -4.529  0.3462E+00  0.3309E-01
     -4.486  0.5283E+00  0.5573E-01
     -4.443  0.7494E+00  0.8783E-01
     -4.400  0.9928E+00  0.1304E+00
     -4.357  0.1234E+01  0.1832E+00
     -4.314  0.1446E+01  0.2452E+00
     -4.272  0.1609E+01  0.3141E+00
     -4.229  0.1715E+01  0.3876E+00
     -4.186  0.1778E+01  0.4638E+00
     -4.143  0.1827E+01  0.5420E+00
     -4.100  0.1902E+01  0.6235E+00
     -4.057  0.2037E+01  0.7108E+00
     -4.014  0.2243E+01  0.8068E+00
     -3.972  0.2504E+01  0.9141E+00
     -3.929  0.2780E+01  0.1033E+01
     -3.886  0.3015E+01  0.1162E+01
     -3.843  0.3162E+01  0.1298E+01
     -3.800  0.3202E+01  0.1435E+01
     -3.757  0.3153E+01  0.1570E+01
     -3.715  0.3068E+01  0.1702E+01
     -3.672  0.3013E+01  0.1831E+01
     -3.629  0.3039E+01  0.1961E+01
     -3.586  0.3171E+01  0.2097E+01
     -3.543  0.3389E+01  0.2242E+01
     -3.500  0.3642E+01  0.2398E+01
     -3.458  0.3872E+01  0.2564E+01
     -3.415  0.4036E+01  0.2737E+01
     -3.372  0.4124E+01  0.2913E+01
     -3.329  0.4149E+01  0.3091E+01
     -3.286  0.4145E+01  0.3269E+01
     -3.243  0.4148E+01  0.3446E+01
     -3.201  0.4189E+01  0.3626E+01
     -3.158  0.4284E+01  0.3809E+01
     -3.115  0.4435E+01  0.3999E+01
     -3.072  0.4629E+01  0.4198E+01
     -3.029  0.4840E+01  0.4405E+01
     -2.986  0.5038E+01  0.4621E+01
     -2.944  0.5192E+01  0.4843E+01
     -2.901  0.5292E+01  0.5070E+01
     -2.858  0.5347E+01  0.5299E+01
     -2.815  0.5386E+01  0.5530E+01
     -2.772  0.5445E+01  0.5763E+01
     -2.729  0.5541E+01  0.6000E+01
     -2.686  0.5652E+01  0.6242E+01
     -2.644  0.5716E+01  0.6487E+01
     -2.601  0.5679E+01  0.6731E+01
     -2.558  0.5543E+01  0.6968E+01
     -2.515  0.5398E+01  0.7199E+01
     -2.472  0.5386E+01  0.7430E+01
     -2.429  0.5620E+01  0.7671E+01
     -2.387  0.6115E+01  0.7933E+01
     -2.344  0.6751E+01  0.8222E+01
     -2.301  0.7321E+01  0.8535E+01
     -2.258  0.7629E+01  0.8862E+01
     -2.215  0.7591E+01  0.9187E+01
     -2.172  0.7285E+01  0.9500E+01
     -2.130  0.6921E+01  0.9796E+01
     -2.087  0.6732E+01  0.1008E+02
     -2.044  0.6859E+01  0.1038E+02
     -2.001  0.7291E+01  0.1069E+02
     -1.958  0.7882E+01  0.1103E+02
     -1.915  0.8431E+01  0.1139E+02
     -1.873  0.8778E+01  0.1177E+02
     -1.830  0.8874E+01  0.1215E+02
     -1.787  0.8794E+01  0.1252E+02
     -1.744  0.8685E+01  0.1289E+02
     -1.701  0.8669E+01  0.1327E+02
     -1.658  0.8788E+01  0.1364E+02
     -1.616  0.9007E+01  0.1403E+02
     -1.573  0.9267E+01  0.1442E+02
     -1.530  0.9536E+01  0.1483E+02
     -1.487  0.9813E+01  0.1525E+02
     -1.444  0.1009E+02  0.1569E+02
     -1.401  0.1032E+02  0.1613E+02
     -1.358  0.1047E+02  0.1658E+02
     -1.316  0.1055E+02  0.1703E+02
     -1.273  0.1072E+02  0.1749E+02
     -1.230  0.1118E+02  0.1797E+02
     -1.187  0.1207E+02  0.1848E+02
     -1.144  0.1328E+02  0.1905E+02
     -1.101  0.1448E+02  0.1967E+02
     -1.059  0.1530E+02  0.2033E+02
     -1.016  0.1559E+02  0.2100E+02
     -0.973  0.1551E+02  0.2166E+02
     -0.930  0.1548E+02  0.2232E+02
     -0.887  0.1591E+02  0.2301E+02
     -0.844  0.1698E+02  0.2373E+02
     -0.802  0.1863E+02  0.2453E+02
     -0.759  0.2075E+02  0.2542E+02
     -0.716  0.2335E+02  0.2642E+02
     -0.673  0.2665E+02  0.2756E+02
     -0.630  0.3080E+02  0.2888E+02
     -0.587  0.3563E+02  0.3041E+02
     -0.545  0.4059E+02  0.3215E+02
     -0.502  0.4496E+02  0.3407E+02
     -0.459  0.4834E+02  0.3614E+02
     -0.416  0.5077E+02  0.3832E+02
     -0.373  0.5258E+02  0.4057E+02
     -0.330  0.5410E+02  0.4289E+02
     -0.288  0.5540E+02  0.4526E+02
     -0.245  0.5636E+02  0.4768E+02
     -0.202  0.5687E+02  0.5011E+02
     -0.159  0.5693E+02  0.5255E+02
     -0.116  0.5676E+02  0.5498E+02
     -0.073  0.5667E+02  0.5741E+02
     -0.031  0.5695E+02  0.5985E+02
      0.012  0.5782E+02  0.6233E+02
      0.055  0.5940E+02  0.6487E+02
      0.098  0.6172E+02  0.6751E+02
      0.141  0.6468E+02  0.7029E+02
      0.184  0.6813E+02  0.7320E+02
      0.227  0.7185E+02  0.7628E+02
      0.269  0.7559E+02  0.7952E+02
      0.312  0.7900E+02  0.8290E+02
      0.355  0.8184E+02  0.8641E+02
      0.398  0.8402E+02  0.9001E+02
      0.441  0.8560E+02  0.9368E+02
      0.484  0.8671E+02  0.9739E+02
      0.526  0.8735E+02  0.1011E+03
      0.569  0.8749E+02  0.1049E+03
      0.612  0.8713E+02  0.1086E+03
      0.655  0.8632E+02  0.1123E+03
      0.698  0.8514E+02  0.1160E+03
      0.741  0.8360E+02  0.1195E+03
      0.783  0.8171E+02  0.1230E+03
      0.826  0.7963E+02  0.1265E+03
      0.869  0.7770E+02  0.1298E+03
      0.912  0.7631E+02  0.1330E+03
      0.955  0.7568E+02  0.1363E+03
      0.998  0.7573E+02  0.1395E+03
      1.040  0.7607E+02  0.1428E+03
      1.083  0.7626E+02  0.1461E+03
      1.126  0.7602E+02  0.1493E+03
      1.169  0.7537E+02  0.1525E+03
      1.212  0.7450E+02  0.1557E+03
      1.255  0.7366E+02  0.1589E+03
      1.297  0.7300E+02  0.1620E+03
      1.340  0.7244E+02  0.1651E+03
      1.383  0.7174E+02  0.1682E+03
      1.426  0.7065E+02  0.1712E+03
      1.469  0.6911E+02  0.1742E+03
      1.512  0.6743E+02  0.1771E+03
      1.555  0.6620E+02  0.1799E+03
      1.597  0.6602E+02  0.1827E+03
      1.640  0.6717E+02  0.1856E+03
      1.683  0.6948E+02  0.1886E+03
      1.726  0.7247E+02  0.1917E+03
      1.769  0.7566E+02  0.1949E+03
      1.812  0.7874E+02  0.1983E+03
      1.854  0.8157E+02  0.2018E+03
      1.897  0.8410E+02  0.2054E+03
      1.940  0.8632E+02  0.2091E+03
      1.983  0.8827E+02  0.2129E+03
      2.026  0.9003E+02  0.2167E+03
      2.069  0.9164E+02  0.2207E+03
      2.111  0.9305E+02  0.2247E+03
      2.154  0.9420E+02  0.2287E+03
      2.197  0.9523E+02  0.2328E+03
      2.240  0.9649E+02  0.2369E+03
      2.283  0.9842E+02  0.2411E+03
      2.326  0.1013E+03  0.2455E+03
      2.368  0.1052E+03  0.2500E+03
      2.411  0.1097E+03  0.2547E+03
      2.454  0.1142E+03  0.2596E+03
      2.497  0.1181E+03  0.2646E+03
      2.540  0.1212E+03  0.2698E+03
      2.583  0.1236E+03  0.2751E+03
      2.625  0.1255E+03  0.2805E+03
      2.668  0.1273E+03  0.2859E+03
      2.711  0.1292E+03  0.2915E+03
      2.754  0.1314E+03  0.2971E+03
      2.797  0.1340E+03  0.3028E+03
      2.840  0.1370E+03  0.3087E+03
      2.883  0.1399E+03  0.3147E+03
      2.925  0.1420E+03  0.3208E+03
      2.968  0.1421E+03  0.3269E+03
      3.011  0.1394E+03  0.3328E+03
      3.054  0.1338E+03  0.3386E+03
      3.097  0.1260E+03  0.3440E+03
      3.140  0.1169E+03  0.3490E+03
      3.182  0.1079E+03  0.3536E+03
      3.225  0.1001E+03  0.3579E+03
      3.268  0.9404E+02  0.3619E+03
      3.311  0.8982E+02  0.3658E+03
      3.354  0.8717E+02  0.3695E+03
      3.397  0.8564E+02  0.3732E+03
      3.439  0.8483E+02  0.3768E+03
      3.482  0.8435E+02  0.3804E+03
      3.525  0.8387E+02  0.3840E+03
      3.568  0.8325E+02  0.3876E+03
      3.611  0.8269E+02  0.3911E+03
      3.654  0.8270E+02  0.3947E+03
      3.696  0.8386E+02  0.3983E+03
      3.739  0.8648E+02  0.4020E+03
      3.782  0.9035E+02  0.4058E+03
      3.825  0.9482E+02  0.4099E+03
      3.868  0.9918E+02  0.4141E+03
      3.911  0.1029E+03  0.4186E+03
      3.953  0.1058E+03  0.4231E+03
      3.996  0.1078E+03  0.4277E+03
      4.039  0.1089E+03  0.4324E+03
      4.082  0.1091E+03  0.4370E+03
      4.125  0.1087E+03  0.4417E+03
      4.168  0.1078E+03  0.4463E+03
      4.211  0.1066E+03  0.4509E+03
      4.253  0.1052E+03  0.4554E+03
      4.296  0.1038E+03  0.4598E+03
      4.339  0.1026E+03  0.4642E+03
      4.382  0.1017E+03  0.4686E+03
      4.425  0.1011E+03  0.4729E+03
      4.468  0.1006E+03  0.4772E+03
      4.510  0.9991E+02  0.4815E+03
      4.553  0.9889E+02  0.4858E+03
      4.596  0.9780E+02  0.4899E+03
      4.639  0.9710E+02  0.4941E+03
      4.682  0.9722E+02  0.4983E+03
      4.725  0.9835E+02  0.5025E+03
      4.767  0.1004E+03  0.5068E+03
      4.810  0.1030E+03  0.5112E+03
      4.853  0.1057E+03  0.5157E+03
      4.896  0.1079E+03  0.5203E+03
      4.939  0.1092E+03  0.5250E+03
      4.982  0.1091E+03  0.5297E+03
      5.024  0.1073E+03  0.5343E+03
      5.067  0.1027E+03  0.5387E+03
      5.110  0.9455E+02  0.5427E+03
      5.153  0.8228E+02  0.5463E+03
      5.196  0.6664E+02  0.5491E+03
      5.239  0.4954E+02  0.5512E+03
      5.281  0.3342E+02  0.5527E+03
      5.324  0.2028E+02  0.5535E+03
      5.367  0.1102E+02  0.5540E+03
      5.410  0.5331E+01  0.5542E+03
      5.453  0.2296E+01  0.5543E+03
      5.496  0.8790E+00  0.5544E+03
      5.539  0.2995E+00  0.5544E+03
      5.581  0.9091E-01  0.5544E+03
      5.624  0.2460E-01  0.5544E+03
      5.667  0.5936E-02  0.5544E+03
      5.710  0.1275E-02  0.5544E+03
      5.753  0.2429E-03  0.5544E+03
      5.796  0.4086E-04  0.5544E+03
      5.838  0.6036E-05  0.5544E+03
      5.881  0.7790E-06  0.5544E+03
      5.924  0.8735E-07  0.5544E+03
      5.967  0.8474E-08  0.5544E+03
      6.010  0.7086E-09  0.5544E+03
      6.053  0.5092E-10  0.5544E+03
      6.095  0.3137E-11  0.5544E+03
      6.138  0.1650E-12  0.5544E+03
      6.181  0.7321E-14  0.5544E+03
      6.224  0.2592E-15  0.5544E+03
      6.267  0.0000E+00  0.5544E+03
      6.310  0.0000E+00  0.5544E+03
      6.352  0.0000E+00  0.5544E+03
      6.395  0.0000E+00  0.5544E+03
      6.438  0.0000E+00  0.5544E+03
      6.481  0.0000E+00  0.5544E+03
      6.524  0.0000E+00  0.5544E+03
      6.567  0.0000E+00  0.5544E+03
      6.609  0.0000E+00  0.5544E+03
      6.652  0.0000E+00  0.5544E+03
      6.695  0.0000E+00  0.5544E+03
      6.738  0.0000E+00  0.5544E+03
      6.781  0.0000E+00  0.5544E+03
      6.824  0.0000E+00  0.5544E+03
