       N       E                     dE             d eps       ncg     rms          rms(c)
DAV:   1     0.292205563083E+05    0.29221E+05   -0.86591E+05 27944   0.197E+03
DAV:   2     0.119422650421E+04   -0.28026E+05   -0.27415E+05 27720   0.604E+02
DAV:   3    -0.193985209937E+04   -0.31341E+04   -0.27238E+04 39116   0.279E+02
DAV:   4    -0.260688625215E+04   -0.66703E+03   -0.60695E+03 50890   0.976E+01
DAV:   5    -0.272691056020E+04   -0.12002E+03   -0.11216E+03 48342   0.398E+01    0.203E+02
RMM:   6    -0.589433438656E+04   -0.31674E+04   -0.12498E+04 48322   0.249E+02    0.684E+02
RMM:   7    -0.395866563580E+04    0.19357E+04   -0.35551E+03 48181   0.101E+02    0.402E+02
RMM:   8    -0.115972676144E+05   -0.76386E+04   -0.20678E+04 47510   0.397E+02    0.123E+03
RMM:   9    -0.141947185227E+05   -0.25975E+04   -0.16388E+04 50394   0.200E+02    0.821E+02
RMM:  10    -0.805152451857E+04    0.61432E+04   -0.80523E+03 36662   0.175E+02    0.576E+02
RMM:  11    -0.961358622525E+04   -0.15621E+04   -0.13670E+04 44842   0.228E+02    0.773E+02
RMM:  12    -0.101773191836E+05   -0.56373E+03   -0.12801E+04 49363   0.117E+02    0.673E+02
RMM:  13    -0.755351965705E+04    0.26238E+04   -0.47300E+03 47362   0.130E+02    0.553E+02
RMM:  14    -0.719023290601E+04    0.36329E+03   -0.29921E+03 46417   0.977E+01    0.505E+02
RMM:  15    -0.544123198044E+04    0.17490E+04   -0.49066E+03 36701   0.180E+02    0.466E+02
RMM:  16    -0.461166941506E+04    0.82956E+03   -0.40265E+03 36050   0.100E+02    0.403E+02
RMM:  17    -0.427673885417E+04    0.33493E+03   -0.15768E+03 28465   0.772E+01    0.379E+02
RMM:  18    -0.293679151373E+04    0.13399E+04   -0.20099E+03 34611   0.794E+01    0.259E+02
RMM:  19    -0.278599584748E+04    0.15080E+03   -0.17832E+03 41955   0.414E+01    0.249E+02
RMM:  20    -0.270762805340E+04    0.78368E+02   -0.97921E+02 30446   0.599E+01    0.203E+02
RMM:  21    -0.253265211561E+04    0.17498E+03   -0.79345E+02 35469   0.381E+01    0.183E+02
RMM:  22    -0.258083311695E+04   -0.48181E+02   -0.40964E+02 34936   0.263E+01    0.195E+02
RMM:  23    -0.254796941083E+04    0.32864E+02   -0.32455E+02 39036   0.181E+01    0.178E+02
RMM:  24    -0.258109689898E+04   -0.33127E+02   -0.31003E+02 34698   0.206E+01    0.167E+02
RMM:  25    -0.238791673574E+04    0.19318E+03   -0.14587E+02 35044   0.156E+01    0.116E+02
RMM:  26    -0.233800677391E+04    0.49910E+02   -0.86491E+01 30973   0.146E+01    0.789E+01
RMM:  27    -0.234548295368E+04   -0.74762E+01   -0.97725E+01 37356   0.115E+01    0.781E+01
RMM:  28    -0.235952165166E+04   -0.14039E+02   -0.45934E+01 36981   0.808E+00    0.875E+01
RMM:  29    -0.235835506412E+04    0.11666E+01   -0.34091E+01 45229   0.276E+00    0.858E+01
RMM:  30    -0.235699264871E+04    0.13624E+01   -0.83210E+00 37108   0.190E+00    0.859E+01
RMM:  31    -0.235370077431E+04    0.32919E+01   -0.34591E+00 35943   0.168E+00    0.832E+01
RMM:  32    -0.234907884234E+04    0.46219E+01   -0.18494E+00 31869   0.186E+00    0.790E+01
RMM:  33    -0.234245332348E+04    0.66255E+01   -0.56301E+00 29133   0.448E+00    0.723E+01
RMM:  34    -0.234109838481E+04    0.13549E+01   -0.11611E+01 38997   0.360E+00    0.697E+01
RMM:  35    -0.233839415586E+04    0.27042E+01   -0.61954E+00 35288   0.291E+00    0.654E+01
RMM:  36    -0.233553835936E+04    0.28558E+01   -0.33310E+00 31818   0.281E+00    0.606E+01
RMM:  37    -0.232692676550E+04    0.86116E+01   -0.33844E+00 30327   0.319E+00    0.474E+01
RMM:  38    -0.232368118633E+04    0.32456E+01   -0.49442E+00 33249   0.308E+00    0.428E+01
RMM:  39    -0.232540182030E+04   -0.17206E+01   -0.52767E+00 38751   0.244E+00    0.456E+01
RMM:  40    -0.232594044966E+04   -0.53863E+00   -0.29462E+00 33574   0.221E+00    0.458E+01
RMM:  41    -0.232467705522E+04    0.12634E+01   -0.18666E+00 41943   0.117E+00    0.428E+01
RMM:  42    -0.232279249336E+04    0.18846E+01   -0.10341E+00 29986   0.186E+00    0.392E+01
RMM:  43    -0.232132080605E+04    0.14717E+01   -0.28754E+00 31370   0.266E+00    0.387E+01
RMM:  44    -0.231959214432E+04    0.17287E+01   -0.15880E+00 32464   0.187E+00    0.348E+01
RMM:  45    -0.231866937167E+04    0.92277E+00   -0.17331E+00 35360   0.161E+00    0.321E+01
RMM:  46    -0.231845235003E+04    0.21702E+00   -0.22257E+00 36207   0.177E+00    0.321E+01
RMM:  47    -0.231868838919E+04   -0.23604E+00   -0.13256E+00 37485   0.124E+00    0.323E+01
RMM:  48    -0.231903906799E+04   -0.35068E+00   -0.61147E-01 33814   0.105E+00    0.324E+01
RMM:  49    -0.231874780145E+04    0.29127E+00   -0.41921E-01 30319   0.113E+00    0.311E+01
RMM:  50    -0.231783825624E+04    0.90955E+00   -0.54655E-01 30187   0.129E+00    0.286E+01
RMM:  51    -0.233415370606E+04   -0.16315E+02   -0.23591E+01 29141   0.928E+00    0.579E+01
RMM:  52    -0.233387664312E+04    0.27706E+00   -0.16402E+01 30736   0.681E+00    0.557E+01
RMM:  53    -0.233010621369E+04    0.37704E+01   -0.15259E+01 38942   0.422E+00    0.518E+01
RMM:  54    -0.232712737837E+04    0.29788E+01   -0.82395E+00 28139   0.596E+00    0.485E+01
RMM:  55    -0.233967258928E+04   -0.12545E+02   -0.14590E+01 27867   0.795E+00    0.697E+01
RMM:  56    -0.232237629255E+04    0.17296E+02   -0.12177E+01 27724   0.787E+00    0.370E+01
RMM:  57    -0.233050240347E+04   -0.81261E+01   -0.74260E+00 29546   0.496E+00    0.550E+01
RMM:  58    -0.233434109610E+04   -0.38387E+01   -0.51105E+00 28121   0.473E+00    0.609E+01
RMM:  59    -0.232503286317E+04    0.93082E+01   -0.36527E+00 27839   0.417E+00    0.444E+01
RMM:  60    -0.232494974480E+04    0.83118E-01   -0.27640E+00 30530   0.268E+00    0.453E+01
RMM:  61    -0.237920307414E+04   -0.54253E+02   -0.44290E+01 35843   0.748E+00    0.105E+02
RMM:  62    -0.235700107112E+04    0.22202E+02   -0.25196E+01 42639   0.379E+00    0.869E+01
RMM:  63    -0.236004790152E+04   -0.30468E+01   -0.93608E+00 31375   0.453E+00    0.915E+01
RMM:  64    -0.236018416563E+04   -0.13626E+00   -0.69114E+00 33128   0.325E+00    0.919E+01
RMM:  65    -0.234829456017E+04    0.11890E+02   -0.36650E+00 29787   0.347E+00    0.806E+01
RMM:  66    -0.236253962809E+04   -0.14245E+02   -0.17577E+01 29509   0.750E+00    0.895E+01
RMM:  67    -0.233377315281E+04    0.28766E+02   -0.19268E+01 29340   0.806E+00    0.571E+01
RMM:  68    -0.232479246353E+04    0.89807E+01   -0.11868E+01 28972   0.648E+00    0.431E+01
RMM:  69    -0.231969433904E+04    0.50981E+01   -0.94581E+00 30426   0.492E+00    0.309E+01
RMM:  70    -0.231704331264E+04    0.26510E+01   -0.63296E+00 32455   0.343E+00    0.205E+01
RMM:  71    -0.233146821926E+04   -0.14425E+02   -0.10992E+01 30198   0.568E+00    0.521E+01
RMM:  72    -0.232189920898E+04    0.95690E+01   -0.36762E+00 28260   0.432E+00    0.357E+01
RMM:  73    -0.232009936344E+04    0.17998E+01   -0.28078E+00 36289   0.173E+00    0.307E+01
RMM:  74    -0.231821529235E+04    0.18841E+01   -0.12192E+00 31508   0.173E+00    0.239E+01
RMM:  75    -0.231622396755E+04    0.19913E+01   -0.50439E-01 28538   0.141E+00    0.142E+01
RMM:  76    -0.231621759234E+04    0.63752E-02   -0.56830E-01 28926   0.148E+00    0.144E+01
RMM:  77    -0.231540765382E+04    0.80994E+00   -0.44837E-01 29292   0.126E+00    0.766E+00
RMM:  78    -0.231526042406E+04    0.14723E+00   -0.39175E-01 30415   0.106E+00    0.559E+00
RMM:  79    -0.231527396859E+04   -0.13545E-01   -0.49422E-01 34899   0.897E-01    0.555E+00
RMM:  80    -0.231524533925E+04    0.28629E-01   -0.21472E-01 29697   0.855E-01    0.497E+00
RMM:  81    -0.231548820078E+04   -0.24286E+00   -0.50514E-01 28849   0.135E+00    0.812E+00
RMM:  82    -0.231536146709E+04    0.12673E+00   -0.31872E-01 27774   0.128E+00    0.643E+00
RMM:  83    -0.231531300322E+04    0.48464E-01   -0.15342E-01 27848   0.920E-01    0.584E+00
RMM:  84    -0.231531854856E+04   -0.55453E-02   -0.93509E-02 29996   0.547E-01    0.587E+00
RMM:  85    -0.231524449144E+04    0.74057E-01   -0.79070E-02 31448   0.432E-01    0.437E+00
RMM:  86    -0.231520139745E+04    0.43094E-01   -0.98236E-02 29226   0.601E-01    0.334E+00
RMM:  87    -0.231516538457E+04    0.36013E-01   -0.42366E-02 27898   0.491E-01    0.219E+00
RMM:  88    -0.231518208507E+04   -0.16701E-01   -0.33693E-02 31200   0.278E-01    0.275E+00
RMM:  89    -0.231517846758E+04    0.36175E-02   -0.22455E-02 34830   0.174E-01    0.256E+00
RMM:  90    -0.231515836304E+04    0.20105E-01   -0.14341E-02 36456   0.130E-01    0.165E+00
RMM:  91    -0.231517052223E+04   -0.12159E-01   -0.43829E-02 30444   0.350E-01    0.221E+00
RMM:  92    -0.231514922466E+04    0.21298E-01   -0.16539E-02 27930   0.306E-01    0.948E-01
RMM:  93    -0.231514843593E+04    0.78873E-03   -0.79087E-03 30053   0.161E-01    0.908E-01
RMM:  94    -0.231515115980E+04   -0.27239E-02   -0.45236E-03 30886   0.112E-01    0.115E+00
RMM:  95    -0.231514959309E+04    0.15667E-02   -0.24563E-03 29504   0.962E-02    0.997E-01
RMM:  96    -0.231514704746E+04    0.25456E-02   -0.40424E-03 31931   0.958E-02    0.705E-01
RMM:  97    -0.231514641564E+04    0.63182E-03   -0.17253E-03 29002   0.859E-02    0.625E-01
RMM:  98    -0.231514566642E+04    0.74922E-03   -0.19275E-03 32052   0.656E-02    0.445E-01
RMM:  99    -0.231514552627E+04    0.14015E-03   -0.13929E-03 30592   0.636E-02    0.397E-01
RMM: 100    -0.231514566138E+04   -0.13511E-03   -0.20519E-03 33113   0.625E-02    0.398E-01
RMM: 101    -0.231514619527E+04   -0.53389E-03   -0.22019E-03 28319   0.938E-02    0.516E-01
RMM: 102    -0.231514514668E+04    0.10486E-02   -0.91415E-04 27945   0.737E-02    0.245E-01
RMM: 103    -0.231514515127E+04   -0.45853E-05   -0.92750E-04 33122   0.418E-02    0.229E-01
RMM: 104    -0.231514513763E+04    0.13636E-04   -0.40555E-04 30433   0.344E-02    0.216E-01
RMM: 105    -0.231514515703E+04   -0.19402E-04   -0.19267E-04 29101   0.286E-02    0.224E-01
RMM: 106    -0.231514515387E+04    0.31656E-05   -0.22864E-04 31566   0.236E-02    0.211E-01
RMM: 107    -0.231514498883E+04    0.16504E-03   -0.13388E-04 29649   0.216E-02    0.112E-01
RMM: 108    -0.231514494407E+04    0.44757E-04   -0.12715E-04 32617   0.158E-02    0.598E-02
RMM: 109    -0.231514494836E+04   -0.42877E-05   -0.95980E-05 37263   0.989E-03    0.554E-02
RMM: 110    -0.231514495010E+04   -0.17396E-05   -0.39878E-05 32806   0.794E-03    0.535E-02
RMM: 111    -0.231514496528E+04   -0.15186E-04   -0.57407E-05 30595   0.125E-02    0.715E-02
RMM: 112    -0.231514494798E+04    0.17303E-04   -0.21861E-05 28225   0.108E-02    0.429E-02
RMM: 113    -0.231514494555E+04    0.24360E-05   -0.19672E-05 29447   0.549E-03    0.340E-02
RMM: 114    -0.231514494320E+04    0.23493E-05   -0.12744E-05 28470   0.585E-03    0.238E-02
RMM: 115    -0.231514494144E+04    0.17572E-05   -0.62854E-06 22135   0.448E-03    0.139E-02
RMM: 116    -0.231514494586E+04   -0.44254E-05   -0.12331E-05 27592   0.656E-03    0.300E-02
RMM: 117    -0.231514494180E+04    0.40628E-05   -0.48969E-06 20359   0.537E-03    0.115E-02
RMM: 118    -0.231514494165E+04    0.15361E-06   -0.20157E-06 17581   0.222E-03
   1 F= -.23151449E+04 E0= -.23122523E+04  d E =-.231514E+04
       N       E                     dE             d eps       ncg     rms          rms(c)
DAV:   1    -0.231536395283E+04   -0.21901E+00   -0.52098E+01 28112   0.755E+00    0.111E+00
RMM:   2    -0.231596522511E+04   -0.60127E+00   -0.81785E-01 27975   0.188E+00    0.102E+01
RMM:   3    -0.231615339862E+04   -0.18817E+00   -0.29635E-01 39878   0.575E-01    0.116E+01
RMM:   4    -0.231631801536E+04   -0.16462E+00   -0.11063E-01 28778   0.616E-01    0.127E+01
RMM:   5    -0.231567539022E+04    0.64263E+00   -0.11333E-01 33988   0.479E-01    0.686E+00
RMM:   6    -0.231563254098E+04    0.42849E-01   -0.13123E-01 29404   0.627E-01    0.628E+00
RMM:   7    -0.231601261710E+04   -0.38008E+00   -0.29614E-01 32300   0.755E-01    0.105E+01
RMM:   8    -0.231550149241E+04    0.51112E+00   -0.10008E-01 27787   0.671E-01    0.354E+00
RMM:   9    -0.231544059256E+04    0.60900E-01   -0.51045E-02 27907   0.514E-01    0.189E+00
RMM:  10    -0.231544533854E+04   -0.47460E-02   -0.50355E-02 31824   0.330E-01    0.211E+00
RMM:  11    -0.231543921501E+04    0.61235E-02   -0.39242E-02 29172   0.349E-01    0.179E+00
RMM:  12    -0.231542664435E+04    0.12571E-01   -0.13842E-02 27736   0.274E-01    0.988E-01
RMM:  13    -0.231542334759E+04    0.32968E-02   -0.66478E-03 29597   0.151E-01    0.681E-01
RMM:  14    -0.231542313787E+04    0.20972E-03   -0.71734E-03 35818   0.953E-02    0.584E-01
RMM:  15    -0.231542248045E+04    0.65742E-03   -0.43905E-03 32182   0.988E-02    0.424E-01
RMM:  16    -0.231542178227E+04    0.69818E-03   -0.16621E-03 29454   0.767E-02    0.239E-01
RMM:  17    -0.231542189469E+04   -0.11242E-03   -0.21067E-03 39135   0.460E-02    0.245E-01
RMM:  18    -0.231542170577E+04    0.18892E-03   -0.61547E-04 30924   0.412E-02    0.148E-01
RMM:  19    -0.231542163489E+04    0.70877E-04   -0.32102E-04 31218   0.290E-02    0.952E-02
RMM:  20    -0.231542165668E+04   -0.21788E-04   -0.37174E-04 39328   0.184E-02    0.931E-02
RMM:  21    -0.231542166112E+04   -0.44414E-05   -0.15938E-04 32320   0.182E-02    0.878E-02
RMM:  22    -0.231542164537E+04    0.15744E-04   -0.86835E-05 32842   0.135E-02    0.622E-02
RMM:  23    -0.231542164728E+04   -0.19020E-05   -0.86368E-05 37142   0.106E-02    0.600E-02
RMM:  24    -0.231542163409E+04    0.13181E-04   -0.28985E-05 29997   0.942E-03    0.333E-02
RMM:  25    -0.231542163412E+04   -0.24418E-07   -0.26091E-05 31864   0.491E-03    0.275E-02
RMM:  26    -0.231542163361E+04    0.50743E-06   -0.12442E-05 26532   0.429E-03    0.216E-02
RMM:  27    -0.231542163202E+04    0.15918E-05   -0.47872E-06 20583   0.398E-03    0.938E-03
RMM:  28    -0.231542163217E+04   -0.14523E-06   -0.31192E-06 19077   0.247E-03
   2 F= -.23154216E+04 E0= -.23125255E+04  d E =-.276691E+00
       N       E                     dE             d eps       ncg     rms          rms(c)
DAV:   1    -0.231528260767E+04    0.13902E+00   -0.46768E+02 27720   0.228E+01    0.394E+00
RMM:   2    -0.232138132056E+04   -0.60987E+01   -0.10634E+01 27829   0.670E+00    0.323E+01
RMM:   3    -0.232872209874E+04   -0.73408E+01   -0.34336E+00 40208   0.196E+00    0.473E+01
RMM:   4    -0.232737864307E+04    0.13435E+01   -0.20236E+00 29289   0.248E+00    0.451E+01
RMM:   5    -0.232215128451E+04    0.52274E+01   -0.23152E+00 35386   0.199E+00    0.343E+01
RMM:   6    -0.231873514648E+04    0.34161E+01   -0.18323E+00 30065   0.230E+00    0.222E+01
RMM:   7    -0.232113480918E+04   -0.23997E+01   -0.22025E+00 29435   0.248E+00    0.305E+01
RMM:   8    -0.231662660409E+04    0.45082E+01   -0.87828E-01 27774   0.212E+00    0.999E+00
RMM:   9    -0.231625311365E+04    0.37349E+00   -0.69036E-01 27803   0.187E+00    0.676E+00
RMM:  10    -0.231638469233E+04   -0.13158E+00   -0.66093E-01 28392   0.159E+00    0.829E+00
RMM:  11    -0.231609728283E+04    0.28741E+00   -0.23528E-01 27723   0.120E+00    0.439E+00
RMM:  12    -0.231603306200E+04    0.64221E-01   -0.94326E-02 29138   0.592E-01    0.287E+00
RMM:  13    -0.231602619782E+04    0.68642E-02   -0.87049E-02 33516   0.387E-01    0.265E+00
RMM:  14    -0.231602127640E+04    0.49214E-02   -0.75360E-02 35557   0.349E-01    0.221E+00
RMM:  15    -0.231600486320E+04    0.16413E-01   -0.29554E-02 28506   0.348E-01    0.147E+00
RMM:  16    -0.231600253300E+04    0.23302E-02   -0.24900E-02 32272   0.232E-01    0.127E+00
RMM:  17    -0.231600074889E+04    0.17841E-02   -0.24585E-02 34648   0.207E-01    0.101E+00
RMM:  18    -0.231599730739E+04    0.34415E-02   -0.75697E-03 29145   0.171E-01    0.625E-01
RMM:  19    -0.231599740815E+04   -0.10076E-03   -0.96452E-03 36369   0.113E-01    0.566E-01
RMM:  20    -0.231599718300E+04    0.22516E-03   -0.46863E-03 31751   0.104E-01    0.505E-01
RMM:  21    -0.231599697400E+04    0.20900E-03   -0.21098E-03 30843   0.790E-02    0.463E-01
RMM:  22    -0.231599674274E+04    0.23126E-03   -0.23937E-03 37597   0.512E-02    0.374E-01
RMM:  23    -0.231599635016E+04    0.39258E-03   -0.98166E-04 32505   0.455E-02    0.234E-01
RMM:  24    -0.231599634507E+04    0.50929E-05   -0.57401E-04 33249   0.331E-02    0.225E-01
RMM:  25    -0.231599625109E+04    0.93975E-04   -0.48496E-04 33671   0.296E-02    0.173E-01
RMM:  26    -0.231599612752E+04    0.12357E-03   -0.20883E-04 30901   0.238E-02    0.737E-02
RMM:  27    -0.231599613731E+04   -0.97853E-05   -0.23378E-04 40490   0.133E-02    0.678E-02
RMM:  28    -0.231599612959E+04    0.77186E-05   -0.80906E-05 33941   0.109E-02    0.493E-02
RMM:  29    -0.231599612710E+04    0.24928E-05   -0.45962E-05 34691   0.747E-03    0.372E-02
RMM:  30    -0.231599612763E+04   -0.53100E-06   -0.29997E-05 33680   0.564E-03    0.334E-02
RMM:  31    -0.231599612473E+04    0.28999E-05   -0.10817E-05 25298   0.499E-03    0.206E-02
RMM:  32    -0.231599612455E+04    0.17491E-06   -0.60195E-06 21269   0.350E-03
   3 F= -.23159961E+04 E0= -.23130913E+04  d E =-.851183E+00
       N       E                     dE             d eps       ncg     rms          rms(c)
DAV:   1    -0.231229459925E+04    0.37015E+01   -0.18722E+03 27720   0.466E+01    0.828E+00
RMM:   2    -0.233633841556E+04   -0.24044E+02   -0.55393E+01 27786   0.135E+01    0.590E+01
RMM:   3    -0.240349548295E+04   -0.67157E+02   -0.19724E+01 41051   0.443E+00    0.121E+02
RMM:   4    -0.233158007162E+04    0.71915E+02   -0.75663E+00 27883   0.548E+00    0.507E+01
RMM:   5    -0.236403473437E+04   -0.32455E+02   -0.15313E+01 37436   0.449E+00    0.956E+01
RMM:   6    -0.232853817535E+04    0.35497E+02   -0.69798E+00 34922   0.376E+00    0.447E+01
RMM:   7    -0.233725205474E+04   -0.87139E+01   -0.82107E+00 29385   0.480E+00    0.608E+01
RMM:   8    -0.232005194047E+04    0.17200E+02   -0.39648E+00 27790   0.435E+00    0.262E+01
RMM:   9    -0.231839812621E+04    0.16538E+01   -0.42006E+00 27791   0.438E+00    0.203E+01
RMM:  10    -0.231823102572E+04    0.16710E+00   -0.29460E+00 28035   0.347E+00    0.196E+01
RMM:  11    -0.231687965276E+04    0.13514E+01   -0.11299E+00 27745   0.258E+00    0.129E+01
RMM:  12    -0.231641910085E+04    0.46055E+00   -0.62892E-01 30361   0.125E+00    0.876E+00
RMM:  13    -0.231629662338E+04    0.12248E+00   -0.49732E-01 31744   0.105E+00    0.736E+00
RMM:  14    -0.231611161024E+04    0.18501E+00   -0.25751E-01 30001   0.863E-01    0.408E+00
RMM:  15    -0.231606999731E+04    0.41613E-01   -0.13408E-01 28993   0.727E-01    0.317E+00
RMM:  16    -0.231606644637E+04    0.35509E-02   -0.14326E-01 32891   0.540E-01    0.288E+00
RMM:  17    -0.231605670171E+04    0.97447E-02   -0.58901E-02 30317   0.419E-01    0.254E+00
RMM:  18    -0.231604915257E+04    0.75491E-02   -0.53181E-02 35242   0.269E-01    0.211E+00
RMM:  19    -0.231603875283E+04    0.10400E-01   -0.36891E-02 34020   0.254E-01    0.150E+00
RMM:  20    -0.231603781538E+04    0.93745E-03   -0.24708E-02 30209   0.268E-01    0.138E+00
RMM:  21    -0.231604115867E+04   -0.33433E-02   -0.26061E-02 31004   0.259E-01    0.152E+00
RMM:  22    -0.231604310119E+04   -0.19425E-02   -0.10933E-02 28432   0.222E-01    0.163E+00
RMM:  23    -0.231603898139E+04    0.41198E-02   -0.11009E-02 32826   0.145E-01    0.133E+00
RMM:  24    -0.231603229706E+04    0.66843E-02   -0.79042E-03 33741   0.120E-01    0.701E-01
RMM:  25    -0.231603081240E+04    0.14847E-02   -0.28239E-03 29804   0.100E-01    0.475E-01
RMM:  26    -0.231603086060E+04   -0.48204E-04   -0.36908E-03 36427   0.701E-02    0.450E-01
RMM:  27    -0.231603015561E+04    0.70500E-03   -0.12610E-03 31972   0.515E-02    0.233E-01
RMM:  28    -0.231603019726E+04   -0.41655E-04   -0.11128E-03 35572   0.391E-02    0.221E-01
RMM:  29    -0.231603029703E+04   -0.99767E-04   -0.82218E-04 34504   0.380E-02    0.246E-01
RMM:  30    -0.231603013887E+04    0.15815E-03   -0.31125E-04 30235   0.317E-02    0.169E-01
RMM:  31    -0.231603013365E+04    0.52265E-05   -0.38644E-04 41044   0.171E-02    0.149E-01
RMM:  32    -0.231603005176E+04    0.81885E-04   -0.13369E-04 32766   0.155E-02    0.746E-02
RMM:  33    -0.231603004502E+04    0.67409E-05   -0.77832E-05 33633   0.113E-02    0.605E-02
RMM:  34    -0.231603005402E+04   -0.89966E-05   -0.70297E-05 38909   0.808E-03    0.677E-02
RMM:  35    -0.231603004665E+04    0.73692E-05   -0.24542E-05 31445   0.679E-03    0.536E-02
RMM:  36    -0.231603004589E+04    0.75609E-06   -0.17904E-05 28841   0.434E-03    0.496E-02
RMM:  37    -0.231603003901E+04    0.68838E-05   -0.11739E-05 27867   0.465E-03    0.314E-02
RMM:  38    -0.231603003558E+04    0.34319E-05   -0.46951E-06 20480   0.420E-03    0.202E-02
RMM:  39    -0.231603003543E+04    0.14427E-06   -0.34801E-06 18912   0.282E-03
   4 F= -.23160300E+04 E0= -.23131334E+04  d E =-.885094E+00
       N       E                     dE             d eps       ncg     rms          rms(c)
DAV:   1    -0.231554710976E+04    0.48293E+00   -0.43072E+02 27720   0.219E+01    0.389E+00
RMM:   2    -0.231953063897E+04   -0.39835E+01   -0.10625E+01 27767   0.686E+00    0.260E+01
RMM:   3    -0.234426296959E+04   -0.24732E+02   -0.36785E+00 39563   0.234E+00    0.708E+01
RMM:   4    -0.231981311663E+04    0.24450E+02   -0.13562E+00 27874   0.227E+00    0.237E+01
RMM:   5    -0.232979903566E+04   -0.99859E+01   -0.19941E+00 30094   0.228E+00    0.510E+01
RMM:   6    -0.231978861429E+04    0.10010E+02   -0.21873E+00 33936   0.208E+00    0.245E+01
RMM:   7    -0.232217001011E+04   -0.23814E+01   -0.24906E+00 29572   0.263E+00    0.334E+01
RMM:   8    -0.231733223883E+04    0.48378E+01   -0.95117E-01 27975   0.204E+00    0.139E+01
RMM:   9    -0.231665866601E+04    0.67357E+00   -0.69163E-01 27861   0.177E+00    0.924E+00
RMM:  10    -0.231654483815E+04    0.11383E+00   -0.69962E-01 27860   0.169E+00    0.794E+00
RMM:  11    -0.231647929543E+04    0.65543E-01   -0.44974E-01 27946   0.142E+00    0.709E+00
RMM:  12    -0.231626968143E+04    0.20961E+00   -0.15759E-01 27746   0.964E-01    0.381E+00
RMM:  13    -0.231622683153E+04    0.42850E-01   -0.94085E-02 31432   0.440E-01    0.251E+00
RMM:  14    -0.231622382003E+04    0.30115E-02   -0.87861E-02 32771   0.418E-01    0.230E+00
RMM:  15    -0.231620655674E+04    0.17263E-01   -0.30481E-02 28078   0.361E-01    0.142E+00
RMM:  16    -0.231620278207E+04    0.37747E-02   -0.24276E-02 32961   0.219E-01    0.106E+00
RMM:  17    -0.231620535917E+04   -0.25771E-02   -0.22816E-02 34217   0.200E-01    0.123E+00
RMM:  18    -0.231620251248E+04    0.28467E-02   -0.93335E-03 30168   0.168E-01    0.944E-01
RMM:  19    -0.231620157244E+04    0.94004E-03   -0.92117E-03 35298   0.113E-01    0.806E-01
RMM:  20    -0.231619961140E+04    0.19610E-02   -0.52035E-03 32967   0.102E-01    0.533E-01
RMM:  21    -0.231619933406E+04    0.27734E-03   -0.19609E-03 29466   0.872E-02    0.489E-01
RMM:  22    -0.231619931185E+04    0.22209E-04   -0.26992E-03 36714   0.590E-02    0.453E-01
RMM:  23    -0.231619860416E+04    0.70769E-03   -0.92340E-04 31343   0.467E-02    0.258E-01
RMM:  24    -0.231619849356E+04    0.11060E-03   -0.71595E-04 35720   0.310E-02    0.202E-01
RMM:  25    -0.231619843916E+04    0.54400E-04   -0.52720E-04 35060   0.290E-02    0.164E-01
RMM:  26    -0.231619834598E+04    0.93173E-04   -0.20848E-04 30147   0.255E-02    0.993E-02
RMM:  27    -0.231619835404E+04   -0.80518E-05   -0.23750E-04 39728   0.151E-02    0.953E-02
RMM:  28    -0.231619833887E+04    0.15170E-04   -0.91192E-05 32457   0.134E-02    0.739E-02
RMM:  29    -0.231619832177E+04    0.17098E-04   -0.39200E-05 31024   0.100E-02    0.457E-02
RMM:  30    -0.231619832274E+04   -0.97137E-06   -0.40588E-05 34422   0.525E-03    0.411E-02
RMM:  31    -0.231619831899E+04    0.37440E-05   -0.16547E-05 29617   0.485E-03    0.286E-02
RMM:  32    -0.231619831589E+04    0.31019E-05   -0.58635E-06 21592   0.423E-03    0.147E-02
RMM:  33    -0.231619831607E+04   -0.17250E-06   -0.45234E-06 20319   0.295E-03
   5 F= -.23161983E+04 E0= -.23132926E+04  d E =-.105337E+01
