unknown system                          
           1
     9.726678    0.000000    0.000000
     0.000000    8.423550    0.000000
     0.000000    0.000000   45.000000
   Fe   Mn
 281   7
Direct configuration=     1
   0.05589334  0.70455875  0.21147267
   0.31489544  0.72114342  0.87607359
   0.68751605  0.95823119  0.61122114
   0.43810469  0.45762079  0.61119573
   0.44042416  0.28868006  0.25558453
   0.05868011  0.38631738  0.83334209
   0.30673531  0.88603073  0.83319340
   0.44750408  0.62520582  0.70007164
   0.06096461  0.21110484  0.74467195
   0.18133525  0.45359009  0.21135891
   0.56803753  0.21007513  0.47756219
   0.06694636  0.87471870  0.56672978
   0.56439777  0.22079378  0.87589752
   0.80956343  0.53676628  0.12429267
   0.43136108  0.95358209  0.21140318
   0.56668009  0.37491734  0.56688426
   0.81243838  0.04169273  0.38873820
   0.68273098  0.78902691  0.52226374
   0.44279638  0.46038723  0.47747312
   0.43524747  0.96076345  0.74422122
   0.44237688  0.62508166  0.56676137
   0.05969430  0.53665322  0.12433697
   0.30957653  0.03680498  0.12441452
   0.68981778  0.95592563  0.34440255
   0.68524135  0.78279060  0.12427181
   0.05353335  0.37320693  0.29997490
   0.68701432  0.46127787  0.87578296
   0.43127521  0.45354582  0.21138202
   0.80835638  0.37502345  0.43327783
   0.82229185  0.37500133  0.69999610
   0.55995785  0.54075226  0.65568581
   0.93342000  0.12487153  0.43316994
   0.56617963  0.53791681  0.25557315
   0.68997687  0.45634560  0.34439517
   0.18829425  0.61725364  0.16675191
   0.19512759  0.79747879  0.78837815
   0.44776339  0.12528532  0.70008410
   0.92867698  0.62332395  0.29982922
   0.31515702  0.21987837  0.87601383
   0.31658959  0.87485999  0.56685993
   0.81515119  0.22102738  0.87596290
   0.80995452  0.54112666  0.65568164
   0.55930553  0.53667226  0.12436615
   0.56343825  0.86681012  0.16658572
   0.19035582  0.28855891  0.25555732
   0.80828548  0.87499062  0.43321848
   0.57277452  0.37504594  0.70002437
   0.05942256  0.03659504  0.12435908
   0.30988436  0.54068301  0.65582649
   0.56511891  0.20642735  0.34436813
   0.18775920  0.95783168  0.61126099
   0.30365319  0.37338701  0.29990970
   0.43443753  0.79063585  0.65582568
   0.68502409  0.46118951  0.74445238
   0.06338771  0.36668700  0.16651051
   0.69780082  0.62498013  0.70011025
   0.31236693  0.54155095  0.38874390
   0.06786428  0.72229749  0.87570719
   0.93303184  0.63828829  0.83370965
   0.32011404  0.54660803  0.78834443
   0.30588604  0.20444858  0.21148891
   0.06785817  0.71039196  0.47747503
   0.55595087  0.20441181  0.21152113
   0.31133827  0.21009558  0.74434381
   0.07283782  0.37541018  0.70012220
   0.18317799  0.63612906  0.83305600
   0.07021769  0.04669103  0.78841623
   0.44189107  0.12484410  0.56677969
   0.93481689  0.29091147  0.65564599
   0.80599312  0.20442265  0.21151353
   0.93162187  0.95333709  0.21136638
   0.94149849  0.62498782  0.56689062
   0.80850904  0.38733372  0.83353178
   0.19786877  0.62510176  0.70004336
   0.57283329  0.87517340  0.70015995
   0.68481978  0.29061916  0.65577665
   0.31282519  0.20802869  0.61137584
   0.43567431  0.46103915  0.74452008
   0.43753424  0.79179957  0.38873786
   0.68556851  0.96068331  0.74432946
   0.80596875  0.70432090  0.21150356
   0.81267622  0.70770963  0.61121423
   0.43512624  0.78267903  0.12426005
   0.31030801  0.71046621  0.74415554
   0.32090850  0.04544207  0.78835350
   0.81250044  0.54162637  0.38874333
   0.68243515  0.28923809  0.52225351
   0.69484267  0.79801951  0.78854186
   0.19032250  0.78824731  0.25550530
   0.68858131  0.11691633  0.16680425
   0.69287691  0.96039485  0.47748858
   0.93971334  0.95585534  0.34438491
   0.80776427  0.03864481  0.52224729
   0.68336416  0.62503748  0.43309758
   0.43986050  0.45621219  0.34439882
   0.81104053  0.21100776  0.74464893
   0.43638770  0.96450264  0.87581724
   0.56680994  0.87494486  0.56689023
   0.80953020  0.03683661  0.12443418
   0.42870446  0.62322681  0.29986417
   0.56108258  0.21044992  0.74480288
   0.68762232  0.45829968  0.61128079
   0.55711826  0.38612512  0.83311024
   0.80357459  0.37318393  0.29992819
   0.18732360  0.29136632  0.38874235
   0.82129713  0.54764902  0.78856138
   0.18244883  0.78905492  0.52233685
   0.30340654  0.87328120  0.29986975
   0.18145000  0.95367472  0.21132908
   0.18492998  0.46062534  0.74456322
   0.43261253  0.28866033  0.52214848
   0.06512949  0.70676162  0.34435816
   0.18487175  0.79058674  0.65574111
   0.44501027  0.79813987  0.78853200
   0.68347439  0.12523057  0.43311783
   0.93237645  0.78949295  0.52240842
   0.68830213  0.61679110  0.16681340
   0.81528173  0.70638287  0.34435741
   0.93467875  0.46061122  0.74419886
   0.18990860  0.45622454  0.34442889
   0.56941697  0.54741294  0.78857196
   0.56350934  0.36695926  0.16659730
   0.56528257  0.70677931  0.34435571
   0.55343809  0.37345281  0.29993431
   0.18945798  0.46408556  0.87581680
   0.18837849  0.11703200  0.16681320
   0.44488405  0.29810241  0.78849439
   0.69040312  0.78860783  0.25556845
   0.93256991  0.13682445  0.83341518
   0.44294449  0.96042638  0.47747260
   0.56312400  0.71980884  0.87581787
   0.19287070  0.46048836  0.47750127
   0.93539970  0.28277818  0.12422303
   0.31234169  0.04182971  0.38862458
   0.05973189  0.04058289  0.65583488
   0.55865346  0.37495186  0.43318418
   0.93350460  0.62487595  0.43308501
   0.31332433  0.36728349  0.16669716
   0.94690912  0.12493032  0.69995846
   0.55976154  0.04111357  0.65566434
   0.55709263  0.53945714  0.52247987
   0.17880766  0.12328448  0.29983084
   0.43835688  0.11697641  0.16681761
   0.67877204  0.62327010  0.29986135
   0.92877322  0.12308270  0.29984721
   0.81656759  0.37462975  0.56674023
   0.05352065  0.87332886  0.29992479
   0.19196545  0.62474917  0.56683169
   0.94506796  0.79774034  0.78842739
   0.30674436  0.38533024  0.83338612
   0.93731283  0.46209314  0.87568060
   0.43326212  0.63584263  0.83311314
   0.06511643  0.20658884  0.34441044
   0.18949119  0.96311983  0.87591742
   0.93516842  0.78255569  0.12425367
   0.68739984  0.79154541  0.38872281
   0.93505471  0.79029052  0.65576527
   0.93856896  0.11690402  0.16679506
   0.43475049  0.29058090  0.65581370
   0.05584452  0.20446939  0.21149746
   0.68153126  0.95311917  0.21136240
   0.17879983  0.62342296  0.29986118
   0.82298481  0.87515185  0.70002369
   0.94766258  0.62495612  0.70005227
   0.19795239  0.12534339  0.70004573
   0.94265038  0.46083202  0.47748112
   0.81284030  0.20770560  0.61125706
   0.18356372  0.62510141  0.43314112
   0.42882714  0.12323442  0.29988419
   0.67895442  0.12333994  0.29986110
   0.56216829  0.54164430  0.38873567
   0.81486361  0.20635310  0.34439181
   0.43899985  0.46376540  0.87581065
   0.55835690  0.88661935  0.83336454
   0.31798511  0.21065051  0.47742241
   0.19306708  0.96071633  0.47756176
   0.05650828  0.88409486  0.83328741
   0.05722959  0.53914412  0.52251677
   0.94271745  0.96093990  0.47756474
   0.06312215  0.70797937  0.61123010
   0.55722210  0.03932422  0.52240904
   0.69576110  0.29836506  0.78831405
   0.81347814  0.36668268  0.16660358
   0.43339352  0.12513180  0.43314216
   0.06795655  0.21062760  0.47749310
   0.31002877  0.04073347  0.65576911
   0.43242042  0.78856279  0.52215683
   0.18318280  0.13729026  0.83320962
   0.18549699  0.28271637  0.12424252
   0.93970229  0.45586177  0.34444279
   0.31331655  0.86718913  0.16668110
   0.30578493  0.70446676  0.21148564
   0.93837533  0.61721864  0.16678084
   0.18787898  0.45803064  0.61122949
   0.07265411  0.87536855  0.69997250
   0.05978957  0.54064782  0.65573175
   0.30982442  0.53679505  0.12439152
   0.93737550  0.79176893  0.38875378
   0.94518835  0.29835918  0.78845760
   0.18474410  0.29068460  0.65569504
   0.93777375  0.95785806  0.61138170
   0.81090816  0.71055487  0.74436925
   0.69047158  0.28865107  0.25558781
   0.06036096  0.71069653  0.74464189
   0.68148805  0.45336733  0.21135665
   0.81832829  0.21062367  0.47745457
   0.56803263  0.71030033  0.47754698
   0.06326879  0.86689101  0.16659842
   0.93223154  0.28936287  0.52249899
   0.68497291  0.79043720  0.65578708
   0.05835976  0.87515064  0.43311993
   0.06664655  0.22003506  0.87589298
   0.80975311  0.04084508  0.65579293
   0.55978684  0.03708007  0.12438532
   0.30827830  0.37516381  0.43321823
   0.31708293  0.37455168  0.56673867
   0.31792961  0.71063716  0.47746663
   0.05722471  0.03927553  0.52249235
   0.32252445  0.87568007  0.70000685
   0.06622615  0.53781908  0.25552029
   0.68312398  0.13708777  0.83340690
   0.81636220  0.03792984  0.25552609
   0.18345398  0.12508178  0.43310272
   0.69766732  0.12526026  0.70007218
   0.18260113  0.28930481  0.52233520
   0.44039853  0.78860618  0.25553027
   0.81613817  0.53781631  0.25555433
   0.06277794  0.20781013  0.61127013
   0.18736662  0.79149711  0.38875902
   0.30699259  0.53962496  0.52246773
   0.81329211  0.86698408  0.16661648
   0.68725601  0.29143084  0.38868853
   0.19230177  0.12510404  0.56682301
   0.68647081  0.96468236  0.87587821
   0.69188598  0.12544981  0.56679443
   0.43959357  0.95585714  0.34444220
   0.18502474  0.96136671  0.74448955
   0.94040417  0.78856198  0.25558665
   0.55844455  0.87492710  0.43314204
   0.30834737  0.87485009  0.43319983
   0.80745000  0.53896837  0.52228066
   0.93133141  0.45348918  0.21139782
   0.31625053  0.53791685  0.25552825
   0.56230986  0.04157029  0.38867529
   0.93762412  0.45809143  0.61136296
   0.06237815  0.04185601  0.38869504
   0.06240327  0.54153429  0.38871322
   0.43746117  0.29172797  0.38873554
   0.69288811  0.46052046  0.47747066
   0.06690611  0.37447536  0.56674410
   0.55608467  0.70457722  0.21150202
   0.94043686  0.28861415  0.25553601
   0.82011834  0.04820698  0.78848261
   0.18963671  0.95583446  0.34439693
   0.55352193  0.87337397  0.29987437
   0.05843228  0.37502656  0.43314518
   0.31495345  0.70623248  0.34439688
   0.31501522  0.20674632  0.34434149
   0.94184816  0.12511259  0.56682462
   0.43824508  0.95762496  0.61123300
   0.56625485  0.03779168  0.25551160
   0.18522872  0.78293870  0.12418514
   0.06616540  0.03791166  0.25558242
   0.69196822  0.62534346  0.56678222
   0.43829953  0.61709836  0.16676286
   0.30719860  0.03913697  0.52240924
   0.68491017  0.28277515  0.12426345
   0.81806267  0.71046671  0.47747486
   0.43299087  0.13662853  0.83334900
   0.32261530  0.37504908  0.69999367
   0.68337129  0.63778988  0.83354077
   0.56051757  0.71184707  0.74427907
   0.93742596  0.29153574  0.38871814
   0.93963995  0.96316411  0.87585229
   0.93524445  0.96075218  0.74427379
   0.81675398  0.87445165  0.56676194
   0.80346471  0.87334418  0.29989405
   0.31616777  0.03788102  0.25560861
   0.43524921  0.28253593  0.12427432
   0.31288321  0.70820743  0.61154286
   0.43348818  0.62523723  0.43309801
   0.19582932  0.29658990  0.78829406
   0.57136062  0.04626183  0.78859708
   0.07082847  0.54615413  0.78840167
   0.80611224  0.88489610  0.83430253
   0.81473630  0.72172319  0.87555064
   0.56316381  0.20616645  0.61120077
   0.56326942  0.70686768  0.61120052
Direct configuration=     2
   0.05627689  0.70439059  0.21147547
   0.31483614  0.72047439  0.87596972
   0.68769443  0.95812728  0.61123482
   0.43806228  0.45755580  0.61122038
   0.43990584  0.28852373  0.25562245
   0.05896848  0.38607924  0.83344652
   0.30722475  0.88582157  0.83328167
   0.44684118  0.62526534  0.70007886
   0.06137389  0.21117589  0.74462323
   0.18167706  0.45359885  0.21135528
   0.56746633  0.20990909  0.47761112
   0.06654850  0.87467487  0.56673097
   0.56424415  0.22019234  0.87583475
   0.80967910  0.53638804  0.12435199
   0.43170555  0.95359720  0.21139804
   0.56635919  0.37488394  0.56684942
   0.81236223  0.04164579  0.38872795
   0.68322243  0.78929090  0.52223596
   0.44225833  0.46019535  0.47753208
   0.43583234  0.96086578  0.74422907
   0.44183476  0.62504676  0.56675209
   0.05978109  0.53631779  0.12438227
   0.30969123  0.03642429  0.12445127
   0.68941530  0.95610868  0.34440532
   0.68525112  0.78312064  0.12430730
   0.05422248  0.37318542  0.29996898
   0.68696171  0.46234746  0.87570720
   0.43163480  0.45356291  0.21138162
   0.80872900  0.37501487  0.43327408
   0.82160256  0.37508506  0.69999809
   0.56038921  0.54070062  0.65565635
   0.93380476  0.12488383  0.43318433
   0.56556014  0.53797132  0.25559918
   0.68955553  0.45643446  0.34439985
   0.18810724  0.61733195  0.16669962
   0.19474160  0.79728079  0.78835952
   0.44710470  0.12530563  0.70008007
   0.92938280  0.62324326  0.29984319
   0.31487571  0.21952488  0.87594037
   0.31626870  0.87476856  0.56682742
   0.81506401  0.22027700  0.87589884
   0.81040222  0.54109644  0.65565086
   0.55947028  0.53631550  0.12441002
   0.56324842  0.86695675  0.16656861
   0.18983722  0.28844618  0.25560005
   0.80868960  0.87497508  0.43322684
   0.57203895  0.37509669  0.70004912
   0.05957757  0.03627513  0.12440136
   0.31037192  0.54071036  0.65575617
   0.56469365  0.20648675  0.34437501
   0.18784515  0.95783790  0.61127024
   0.30429349  0.37332960  0.29991190
   0.43501809  0.79063901  0.65577269
   0.68556003  0.46125387  0.74442806
   0.06322295  0.36687571  0.16650020
   0.69706193  0.62509366  0.70011138
   0.31233182  0.54155340  0.38872944
   0.06733988  0.72141833  0.87567676
   0.93337259  0.63784298  0.83371859
   0.31976795  0.54683516  0.78837801
   0.30628059  0.20433420  0.21149349
   0.06732364  0.71023705  0.47753546
   0.55632181  0.20428445  0.21151887
   0.31178237  0.21038675  0.74432943
   0.07206447  0.37541984  0.70011574
   0.18361236  0.63582016  0.83311064
   0.06973493  0.04677730  0.78845242
   0.44149719  0.12482610  0.56676277
   0.93531842  0.29090491  0.65561956
   0.80636178  0.20428912  0.21151254
   0.93190640  0.95340113  0.21136644
   0.94124098  0.62493647  0.56686283
   0.80874855  0.38704395  0.83358699
   0.19708758  0.62523519  0.70003942
   0.57211381  0.87515746  0.70015214
   0.68531019  0.29069439  0.65572932
   0.31276144  0.20795565  0.61137035
   0.43613581  0.46108582  0.74447457
   0.43745199  0.79171733  0.38872653
   0.68609669  0.96079935  0.74432790
   0.80634417  0.70418339  0.21150245
   0.81289781  0.70768609  0.61123844
   0.43515211  0.78305678  0.12430128
   0.31082035  0.71069279  0.74418312
   0.32034085  0.04576287  0.78839696
   0.81241659  0.54160280  0.38872910
   0.68300361  0.28946051  0.52222864
   0.69441677  0.79775969  0.78853671
   0.18980917  0.78819909  0.25555528
   0.68834650  0.11705916  0.16675196
   0.69232827  0.96021012  0.47754463
   0.93933690  0.95606952  0.34438820
   0.80825304  0.03895097  0.52221020
   0.68376456  0.62501042  0.43312234
   0.43946006  0.45634277  0.34440472
   0.81144225  0.21100869  0.74459547
   0.43657314  0.96504987  0.87573601
   0.56646870  0.87491794  0.56685500
   0.80965779  0.03644425  0.12446408
   0.42939555  0.62321031  0.29987108
   0.56152838  0.21059767  0.74473170
   0.68774171  0.45818906  0.61129259
   0.55748316  0.38597997  0.83319388
   0.80425844  0.37315691  0.29993215
   0.18727800  0.29140076  0.38873047
   0.82068944  0.54778910  0.78858019
   0.18299301  0.78927223  0.52229366
   0.30410910  0.87322209  0.29988023
   0.18177187  0.95367137  0.21133902
   0.18547729  0.46073089  0.74451183
   0.43311747  0.28899571  0.52213319
   0.06470036  0.70674811  0.34436943
   0.18535039  0.79064743  0.65570694
   0.44462065  0.79786854  0.78850932
   0.68384833  0.12516888  0.43313691
   0.93295349  0.78962294  0.52235704
   0.68814154  0.61692217  0.16674928
   0.81482217  0.70644528  0.34436881
   0.93534060  0.46071411  0.74421124
   0.18949428  0.45633665  0.34442358
   0.56906853  0.54743827  0.78856022
   0.56332303  0.36707749  0.16657756
   0.56481506  0.70677604  0.34436321
   0.55415657  0.37336667  0.29993595
   0.18908531  0.46467855  0.87575050
   0.18819971  0.11716844  0.16675130
   0.44449331  0.29782397  0.78848369
   0.68987309  0.78847980  0.25560779
   0.93300122  0.13657783  0.83345691
   0.44238007  0.96021479  0.47753167
   0.56313947  0.71931402  0.87577853
   0.19231576  0.46032768  0.47757460
   0.93539543  0.28311430  0.12426529
   0.31230197  0.04176058  0.38863229
   0.06022159  0.04065670  0.65577738
   0.55896879  0.37497575  0.43319380
   0.93387108  0.62490677  0.43311435
   0.31317283  0.36732440  0.16666092
   0.94632924  0.12506734  0.69996967
   0.56025344  0.04104290  0.65563894
   0.55769456  0.53965866  0.52240236
   0.17947979  0.12323834  0.29984608
   0.43820414  0.11710961  0.16676197
   0.67944424  0.62321660  0.29987010
   0.92945665  0.12307630  0.29985803
   0.81621427  0.37462232  0.56673318
   0.05421140  0.87326726  0.29992776
   0.19154927  0.62471578  0.56681438
   0.94452358  0.79747250  0.78842202
   0.30727420  0.38517726  0.83345453
   0.93753109  0.46302967  0.87564226
   0.43358084  0.63561630  0.83319986
   0.06469061  0.20661752  0.34440940
   0.18918095  0.96393041  0.87582387
   0.93518485  0.78291141  0.12429167
   0.68736051  0.79152025  0.38871470
   0.93546636  0.79043811  0.65572287
   0.93836154  0.11704733  0.16674035
   0.43521970  0.29068104  0.65576589
   0.05625099  0.20433428  0.21149795
   0.68183833  0.95323267  0.21136207
   0.17945976  0.62332144  0.29986812
   0.82224609  0.87518982  0.70002378
   0.94699261  0.62506171  0.70006040
   0.19718492  0.12543398  0.70005053
   0.94213707  0.46059639  0.47755392
   0.81303288  0.20767207  0.61127027
   0.18388517  0.62507349  0.43316196
   0.42949585  0.12319270  0.29988792
   0.67958194  0.12326926  0.29986632
   0.56215546  0.54161146  0.38872300
   0.81449111  0.20643506  0.34439580
   0.43883351  0.46449339  0.87571568
   0.55856444  0.88624786  0.83347532
   0.31742080  0.21039994  0.47748680
   0.19246576  0.96049012  0.47761783
   0.05706493  0.88424041  0.83336084
   0.05780391  0.53936819  0.52245371
   0.94221300  0.96066369  0.47762207
   0.06313205  0.70790974  0.61123709
   0.55781238  0.03955951  0.52234185
   0.69523248  0.29816172  0.78834283
   0.81330048  0.36685828  0.16657789
   0.43376453  0.12508250  0.43315276
   0.06741550  0.21040415  0.47755206
   0.31047083  0.04080778  0.65571360
   0.43296603  0.78895002  0.52214499
   0.18355569  0.13701875  0.83326663
   0.18546759  0.28304365  0.12428438
   0.93934772  0.45604379  0.34443895
   0.31316336  0.86724628  0.16664390
   0.30619634  0.70433029  0.21148733
   0.93819735  0.61726593  0.16671980
   0.18797619  0.45796944  0.61124054
   0.07193095  0.87546165  0.69999121
   0.06027569  0.54066847  0.65568182
   0.30989230  0.53642206  0.12442771
   0.93734198  0.79169462  0.38873858
   0.94470210  0.29812980  0.78847138
   0.18522075  0.29072528  0.65566560
   0.93784914  0.95783951  0.61137561
   0.81138994  0.71072684  0.74436558
   0.68992637  0.28850226  0.25562451
   0.06086393  0.71082231  0.74458863
   0.68179515  0.45341320  0.21135844
   0.81769452  0.21037858  0.47752117
   0.56744810  0.71010386  0.47760218
   0.06314092  0.86701129  0.16657182
   0.93283367  0.28952862  0.52243088
   0.68541077  0.79053884  0.65574033
   0.05874416  0.87510137  0.43314259
   0.06628032  0.21960994  0.87584596
   0.81024673  0.04087902  0.65574724
   0.55985782  0.03665657  0.12442806
   0.30869647  0.37513386  0.43323034
   0.31666573  0.37456746  0.56672890
   0.31735800  0.71039412  0.47752145
   0.05781337  0.03950804  0.52242911
   0.32179105  0.87569939  0.70001656
   0.06558356  0.53788620  0.25555842
   0.68352111  0.13693339  0.83342484
   0.81570266  0.03797808  0.25555893
   0.18380687  0.12504847  0.43313143
   0.69696908  0.12531137  0.70008838
   0.18311013  0.28947539  0.52229308
   0.43986814  0.78847522  0.25557684
   0.81553068  0.53788268  0.25558363
   0.06286043  0.20779474  0.61127504
   0.18730818  0.79150101  0.38874449
   0.30760138  0.53972906  0.52239968
   0.81314663  0.86706584  0.16659239
   0.68723317  0.29144751  0.38868713
   0.19181988  0.12499582  0.56680349
   0.68643030  0.96525895  0.87586201
   0.69153083  0.12533606  0.56677000
   0.43924050  0.95606348  0.34443241
   0.18557603  0.96140409  0.74444496
   0.93988163  0.78843457  0.25562231
   0.55881032  0.87496426  0.43315642
   0.30873643  0.87489697  0.43321200
   0.80800666  0.53919533  0.52223321
   0.93167071  0.45351909  0.21138899
   0.31560713  0.53797022  0.25555892
   0.56226208  0.04154595  0.38867399
   0.93772997  0.45804158  0.61135050
   0.06231420  0.04175406  0.38868962
   0.06233211  0.54152573  0.38870387
   0.43740613  0.29166279  0.38872383
   0.69232687  0.46030814  0.47752988
   0.06651658  0.37448037  0.56674333
   0.55643190  0.70439776  0.21149917
   0.93991608  0.28848321  0.25558510
   0.81974503  0.04825379  0.78847615
   0.18928203  0.95604160  0.34439770
   0.55420738  0.87330725  0.29988531
   0.05881192  0.37499541  0.43315860
   0.31457049  0.70632944  0.34439995
   0.31461536  0.20675815  0.34435362
   0.94147279  0.12500938  0.56681118
   0.43817573  0.95755520  0.61124694
   0.56562842  0.03788426  0.25554889
   0.18524818  0.78324429  0.12423900
   0.06555054  0.03796529  0.25560349
   0.69157445  0.62523957  0.56676077
   0.43814676  0.61721449  0.16671444
   0.30778882  0.03933214  0.52235420
   0.68498492  0.28312410  0.12430250
   0.81749317  0.71024953  0.47753258
   0.43339272  0.13639380  0.83340250
   0.32193596  0.37512333  0.70001104
   0.68372672  0.63743704  0.83357084
   0.56106337  0.71182677  0.74428864
   0.93737168  0.29150718  0.38870942
   0.93944891  0.96404313  0.87580256
   0.93576699  0.96082429  0.74426428
   0.81635947  0.87451712  0.56674889
   0.80415236  0.87328550  0.29990134
   0.31555315  0.03794027  0.25562867
   0.43525417  0.28291945  0.12431669
   0.31282092  0.70804383  0.61151098
   0.43384390  0.62517436  0.43312372
   0.19546165  0.29635113  0.78829821
   0.57085930  0.04648292  0.78855092
   0.07028739  0.54642640  0.78838799
   0.80657790  0.88493888  0.83427957
   0.81455874  0.72101661  0.87560223
   0.56317673  0.20642793  0.61121033
   0.56326244  0.70704187  0.61122061
Direct configuration=     3
   0.05742753  0.70388612  0.21148388
   0.31465825  0.71846730  0.87565812
   0.68822957  0.95781556  0.61127585
   0.43793504  0.45736082  0.61129435
   0.43835088  0.28805474  0.25573619
   0.05983359  0.38536482  0.83375979
   0.30869309  0.88519411  0.83354651
   0.44485248  0.62544391  0.70010051
   0.06260174  0.21138904  0.74447705
   0.18270248  0.45362514  0.21134440
   0.56575274  0.20941099  0.47775788
   0.06535494  0.87454336  0.56673453
   0.56378328  0.21838800  0.87564643
   0.81002609  0.53525331  0.12452994
   0.43273895  0.95364251  0.21138262
   0.56539648  0.37478376  0.56674487
   0.81213376  0.04150497  0.38869718
   0.68469681  0.79008284  0.52215265
   0.44064417  0.45961971  0.47770897
   0.43758695  0.96117276  0.74425264
   0.44020841  0.62494203  0.56672424
   0.06004146  0.53531150  0.12451816
   0.31003534  0.03528221  0.12456152
   0.68820787  0.95665783  0.34441364
   0.68528046  0.78411076  0.12441378
   0.05628985  0.37312091  0.29995123
   0.68680388  0.46555623  0.87547992
   0.43271357  0.45361420  0.21138043
   0.80984686  0.37498912  0.43326281
   0.81953468  0.37533625  0.70000406
   0.56168331  0.54054571  0.65556798
   0.93495906  0.12492072  0.43322751
   0.56370170  0.53813486  0.25567726
   0.68829151  0.45670104  0.34441390
   0.18754619  0.61756689  0.16654277
   0.19358363  0.79668678  0.78830363
   0.44512864  0.12536653  0.70006798
   0.93150025  0.62300119  0.29988511
   0.31403179  0.21846442  0.87571996
   0.31530603  0.87449426  0.56672990
   0.81480245  0.21802586  0.87570667
   0.81174532  0.54100579  0.65555852
   0.55996453  0.53524522  0.12454163
   0.56267893  0.86739662  0.16651728
   0.18828145  0.28810799  0.25572824
   0.80990196  0.87492844  0.43325193
   0.56983225  0.37524892  0.70012338
   0.06004261  0.03531537  0.12452822
   0.31183460  0.54079241  0.65554520
   0.56341788  0.20666496  0.34439567
   0.18810300  0.95785656  0.61129800
   0.30621438  0.37315738  0.29991852
   0.43675977  0.79064848  0.65561373
   0.68716786  0.46144695  0.74435508
   0.06272867  0.36744186  0.16646927
   0.69484524  0.62543425  0.70011478
   0.31222650  0.54156076  0.38868603
   0.06576671  0.71878084  0.87558549
   0.93439486  0.63650704  0.83374543
   0.31872970  0.54751656  0.78847873
   0.30746422  0.20399107  0.21150724
   0.06572007  0.70977232  0.47771676
   0.55743464  0.20390237  0.21151210
   0.31311468  0.21126026  0.74428630
   0.06974442  0.37544882  0.70009633
   0.18491545  0.63489346  0.83327454
   0.06828663  0.04703613  0.78856101
   0.44031555  0.12477211  0.56671201
   0.93682300  0.29088521  0.65554029
   0.80746776  0.20388853  0.21150956
   0.93275999  0.95359326  0.21136664
   0.94046843  0.62478242  0.56677947
   0.80946710  0.38617465  0.83375263
   0.19474401  0.62563549  0.70002762
   0.56995537  0.87510965  0.70012869
   0.68678143  0.29092008  0.65558732
   0.31257020  0.20773652  0.61135387
   0.43752030  0.46122582  0.74433803
   0.43720523  0.79147061  0.38869252
   0.68768123  0.96114746  0.74432320
   0.80747043  0.70377085  0.21149910
   0.81356259  0.70761548  0.61131108
   0.43522972  0.78419003  0.12442500
   0.31235740  0.71137254  0.74426585
   0.31863790  0.04672525  0.78852735
   0.81216503  0.54153210  0.38868642
   0.68470899  0.29012777  0.52215405
   0.69313908  0.79698021  0.78852125
   0.18826920  0.78805444  0.25570521
   0.68764209  0.11748767  0.16659508
   0.69068234  0.95965591  0.47771277
   0.93820755  0.95671205  0.34439807
   0.80971934  0.03986945  0.52209893
   0.68496574  0.62492925  0.43319661
   0.43825876  0.45673454  0.34442242
   0.81264739  0.21101148  0.74443509
   0.43712945  0.96669157  0.87549234
   0.56544498  0.87483718  0.56674932
   0.81004057  0.03526718  0.12455379
   0.43146884  0.62316083  0.29989182
   0.56286577  0.21104093  0.74451817
   0.68809989  0.45785721  0.61132799
   0.55857787  0.38554452  0.83344483
   0.80630999  0.37307582  0.29994401
   0.18714119  0.29150407  0.38869483
   0.81886638  0.54820934  0.78863663
   0.18462552  0.78992415  0.52216408
   0.30621677  0.87304476  0.29991164
   0.18273747  0.95366132  0.21136884
   0.18711921  0.46104757  0.74435765
   0.43463229  0.29000186  0.52208729
   0.06341294  0.70670758  0.34440324
   0.18678629  0.79082951  0.65560445
   0.44345179  0.79705456  0.78844126
   0.68497015  0.12498382  0.43319417
   0.93468461  0.79001291  0.52220291
   0.68765976  0.61731538  0.16655693
   0.81344350  0.70663251  0.34440299
   0.93732613  0.46102278  0.74424837
   0.18825133  0.45667299  0.34440767
   0.56802320  0.54751429  0.78852501
   0.56276409  0.36743219  0.16651832
   0.56341252  0.70676623  0.34438570
   0.55631202  0.37310825  0.29994088
   0.18796730  0.46645751  0.87555163
   0.18766336  0.11757775  0.16656561
   0.44332110  0.29698863  0.78845162
   0.68828298  0.78809570  0.25572583
   0.93429516  0.13583795  0.83358208
   0.44068681  0.95958001  0.47770888
   0.56318587  0.71782958  0.87566053
   0.19065094  0.45984563  0.47779461
   0.93538261  0.28412266  0.12439207
   0.31218281  0.04155321  0.38865544
   0.06169068  0.04087815  0.65560488
   0.55991478  0.37504740  0.43322264
   0.93497053  0.62499921  0.43320238
   0.31271832  0.36744711  0.16655219
   0.94458961  0.12547842  0.70000328
   0.56172915  0.04083090  0.65556274
   0.55950035  0.54026324  0.52216983
   0.18149619  0.12309991  0.29989179
   0.43774590  0.11750923  0.16659504
   0.68146081  0.62305610  0.29989637
   0.93150696  0.12305709  0.29989050
   0.81515432  0.37460003  0.56671200
   0.05628363  0.87308246  0.29993668
   0.19030076  0.62461560  0.56676246
   0.94289045  0.79666900  0.78840593
   0.30886370  0.38471832  0.83365974
   0.93818587  0.46583927  0.87552723
   0.43453699  0.63493732  0.83346003
   0.06341317  0.20670357  0.34440628
   0.18825021  0.96636216  0.87554324
   0.93523416  0.78397855  0.12440564
   0.68724251  0.79144478  0.38869037
   0.93670131  0.79088089  0.65559566
   0.93773930  0.11747728  0.16657621
   0.43662735  0.29098144  0.65562244
   0.05747039  0.20392895  0.21149942
   0.68275957  0.95357316  0.21136110
   0.18143957  0.62301688  0.29988895
   0.82002996  0.87530374  0.70002407
   0.94498273  0.62537850  0.70008479
   0.19488249  0.12570576  0.70006491
   0.94059715  0.45988950  0.47777234
   0.81361064  0.20757149  0.61130989
   0.18484951  0.62498973  0.43322448
   0.43150198  0.12306754  0.29989911
   0.68146450  0.12305723  0.29988197
   0.56211697  0.54151293  0.38868499
   0.81337362  0.20668095  0.34440777
   0.43833450  0.46667735  0.87543076
   0.55918707  0.88513340  0.83380767
   0.31572788  0.20964824  0.47767997
   0.19066182  0.95981149  0.47778602
   0.05873487  0.88467705  0.83358112
   0.05952686  0.54004039  0.52226454
   0.94069965  0.95983509  0.47779409
   0.06316175  0.70770087  0.61125805
   0.55958320  0.04026541  0.52214029
   0.69364664  0.29755169  0.78842918
   0.81276748  0.36738508  0.16650085
   0.43487754  0.12493460  0.43318456
   0.06579234  0.20973381  0.47772894
   0.31179702  0.04103070  0.65554705
   0.43460286  0.79011172  0.52210947
   0.18467436  0.13620421  0.83343765
   0.18537938  0.28402547  0.12440997
   0.93828401  0.45658985  0.34442745
   0.31270380  0.86741774  0.16653232
   0.30743057  0.70392090  0.21149242
   0.93766342  0.61740780  0.16653667
   0.18826781  0.45778583  0.61127368
   0.06976147  0.87574094  0.70004735
   0.06173404  0.54073043  0.65553203
   0.31009596  0.53530311  0.12453628
   0.93724141  0.79147171  0.38869297
   0.94324333  0.29744168  0.78851271
   0.18665072  0.29084732  0.65557728
   0.93807531  0.95778384  0.61135737
   0.81283528  0.71124273  0.74435457
   0.68829071  0.28805582  0.25573458
   0.06237283  0.71119965  0.74442883
   0.68271645  0.45355082  0.21136382
   0.81579322  0.20964328  0.47772095