 running on  448 total cores
 distrk:  each k-point on  112 cores,    4 groups
 distr:  one band on    8 cores,   14 groups
 using from now: INCAR     
 vasp.5.4.4.18Apr17-6-g9f103f2a35 (build Sep 27 2018 12:46:37) complex + VL-xray
 _
 POSCAR found type information on POSCAR  Fe Mn
 POSCAR found :  2 types and     288 ions
 scaLAPACK will be used

 ----------------------------------------------------------------------------- 
|                                                                             |
|           W    W    AA    RRRRR   N    N  II  N    N   GGGG   !!!           |
|           W    W   A  A   R    R  NN   N  II  NN   N  G    G  !!!           |
|           W    W  A    A  R    R  N N  N  II  N N  N  G       !!!           |
|           W WW W  AAAAAA  RRRRR   N  N N  II  N  N N  G  GGG   !            |
|           WW  WW  A    A  R   R   N   NN  II  N   NN  G    G                |
|           W    W  A    A  R    R  N    N  II  N    N   GGGG   !!!           |
|                                                                             |
|      For optimal performance we recommend to set                            |
|        NCORE= 4 - approx SQRT( number of cores)                             |
|      NCORE specifies how many cores store one orbital (NPAR=cpu/NCORE).     |
|      This setting can  greatly improve the performance of VASP for DFT.     |
|      The default,   NCORE=1            might be grossly inefficient         |
|      on modern multi-core architectures or massively parallel machines.     |
|      Do your own testing !!!!                                               |
|      Unfortunately you need to use the default for GW and RPA calculations. |
|      (for HF NCORE is supported but not extensively tested yet)             |
|                                                                             |
 ----------------------------------------------------------------------------- 


 ----------------------------------------------------------------------------- 
|                                                                             |
|           W    W    AA    RRRRR   N    N  II  N    N   GGGG   !!!           |
|           W    W   A  A   R    R  NN   N  II  NN   N  G    G  !!!           |
|           W    W  A    A  R    R  N N  N  II  N N  N  G       !!!           |
|           W WW W  AAAAAA  RRRRR   N  N N  II  N  N N  G  GGG   !            |
|           WW  WW  A    A  R   R   N   NN  II  N   NN  G    G                |
|           W    W  A    A  R    R  N    N  II  N    N   GGGG   !!!           |
|                                                                             |
|      You have enabled k-point parallelism (KPAR>1).                         |
|      This developmental code was originally  written by Paul Kent at ORNL,  |
|      and carefully double checked in Vienna.                                |
|      GW as well as linear response parallelism added by Martijn Marsman     |
|      and Georg Kresse.                                                      |
|      Carefully verify results versus KPAR=1.                                |
|      Report problems to Paul Kent and Vienna.                               |
|                                                                             |
 ----------------------------------------------------------------------------- 

 LDA part: xc-table for Pade appr. of Perdew
 POSCAR found type information on POSCAR  Fe Mn
 POSCAR found :  2 types and     288 ions
 POSCAR, INCAR and KPOINTS ok, starting setup
 FFT: planning ...
 WAVECAR not read
 WARNING: random wavefunctions but no delay for mixing, default for NELMDL
 entering main loop
       N       E                     dE             d eps       ncg     rms          rms(c)
DAV:   1     0.290862949690E+05    0.29086E+05   -0.86164E+05 27930   0.196E+03
DAV:   2     0.119022999564E+04   -0.27896E+05   -0.27276E+05 27720   0.601E+02
DAV:   3    -0.194915041611E+04   -0.31394E+04   -0.27208E+04 38962   0.279E+02
DAV:   4    -0.261896201658E+04   -0.66981E+03   -0.60967E+03 50932   0.973E+01
DAV:   5    -0.273858990720E+04   -0.11963E+03   -0.11198E+03 48286   0.397E+01    0.204E+02
RMM:   6    -0.519955288979E+04   -0.24610E+04   -0.96103E+03 47971   0.224E+02    0.551E+02
RMM:   7    -0.371453141646E+04    0.14850E+04   -0.44338E+03 28313   0.147E+02    0.367E+02
RMM:   8    -0.948721576083E+04   -0.57727E+04   -0.13671E+04 41455   0.315E+02    0.877E+02
RMM:   9    -0.126777860334E+05   -0.31906E+04   -0.14339E+04 48871   0.154E+02    0.751E+02
RMM:  10    -0.103262993760E+05    0.23515E+04   -0.49608E+03 45918   0.143E+02    0.619E+02
RMM:  11    -0.494575328321E+04    0.53805E+04   -0.12998E+04 45284   0.292E+02    0.747E+02
RMM:  12    -0.627781528993E+04   -0.13321E+04   -0.12849E+04 51799   0.145E+02    0.756E+02
RMM:  13    -0.803215223163E+04   -0.17543E+04   -0.76554E+03 48022   0.166E+02    0.627E+02
RMM:  14    -0.561000506783E+04    0.24221E+04   -0.51599E+03 33322   0.124E+02    0.491E+02
RMM:  15    -0.454180887936E+04    0.10682E+04   -0.27738E+03 34518   0.116E+02    0.376E+02
RMM:  16    -0.322827125933E+04    0.13135E+04   -0.17846E+03 28859   0.866E+01    0.301E+02
RMM:  17    -0.279428196780E+04    0.43399E+03   -0.15483E+03 37057   0.513E+01    0.247E+02
RMM:  18    -0.286838039341E+04   -0.74098E+02   -0.14387E+03 41991   0.460E+01    0.249E+02
RMM:  19    -0.243608571745E+04    0.43229E+03   -0.37086E+02 27801   0.386E+01    0.154E+02
RMM:  20    -0.239850545098E+04    0.37580E+02   -0.62494E+02 38245   0.270E+01    0.144E+02
RMM:  21    -0.264377176474E+04   -0.24527E+03   -0.90260E+02 40179   0.345E+01    0.174E+02
RMM:  22    -0.243351392668E+04    0.21026E+03   -0.34681E+02 40148   0.177E+01    0.121E+02
RMM:  23    -0.244390479940E+04   -0.10391E+02   -0.98992E+01 29874   0.161E+01    0.139E+02
RMM:  24    -0.243080377761E+04    0.13101E+02   -0.10796E+02 42299   0.809E+00    0.130E+02
RMM:  25    -0.241275636745E+04    0.18047E+02   -0.46292E+01 39927   0.604E+00    0.121E+02
RMM:  26    -0.243831526244E+04   -0.25559E+02   -0.27589E+01 33819   0.638E+00    0.136E+02
RMM:  27    -0.242692556210E+04    0.11390E+02   -0.25373E+01 45024   0.217E+00    0.130E+02
RMM:  28    -0.243197591910E+04   -0.50504E+01   -0.10875E+01 31585   0.472E+00    0.133E+02
RMM:  29    -0.240347782174E+04    0.28498E+02   -0.76508E+00 31439   0.428E+00    0.115E+02
RMM:  30    -0.236423909190E+04    0.39239E+02   -0.69141E+00 31451   0.407E+00    0.797E+01
RMM:  31    -0.233734424548E+04    0.26895E+02   -0.15032E+01 32126   0.570E+00    0.466E+01
RMM:  32    -0.233324014913E+04    0.41041E+01   -0.15807E+01 39684   0.410E+00    0.445E+01
RMM:  33    -0.233329043295E+04   -0.50284E-01   -0.68485E+00 36626   0.281E+00    0.433E+01
RMM:  34    -0.233447921637E+04   -0.11888E+01   -0.34058E+00 32972   0.252E+00    0.432E+01
RMM:  35    -0.233464359814E+04   -0.16438E+00   -0.24053E+00 29392   0.301E+00    0.427E+01
RMM:  36    -0.233201153490E+04    0.26321E+01   -0.38634E+00 29943   0.346E+00    0.380E+01
RMM:  37    -0.233082344607E+04    0.11881E+01   -0.32879E+00 33657   0.248E+00    0.364E+01
RMM:  38    -0.233189434649E+04   -0.10709E+01   -0.28373E+00 34294   0.203E+00    0.396E+01
RMM:  39    -0.233125248695E+04    0.64186E+00   -0.22888E+00 37859   0.157E+00    0.387E+01
RMM:  40    -0.233033434020E+04    0.91815E+00   -0.12176E+00 32485   0.143E+00    0.367E+01
RMM:  41    -0.232902439649E+04    0.13099E+01   -0.11768E+00 34476   0.138E+00    0.337E+01
RMM:  42    -0.232729342746E+04    0.17310E+01   -0.78766E-01 30318   0.152E+00    0.291E+01
RMM:  43    -0.232676000798E+04    0.53342E+00   -0.72580E-01 29889   0.154E+00    0.273E+01
RMM:  44    -0.232602688425E+04    0.73312E+00   -0.55543E-01 30911   0.124E+00    0.259E+01
RMM:  45    -0.232519148188E+04    0.83540E+00   -0.87051E-01 33147   0.127E+00    0.253E+01
RMM:  46    -0.232505825241E+04    0.13323E+00   -0.13193E+00 38108   0.122E+00    0.274E+01
RMM:  47    -0.232507321699E+04   -0.14965E-01   -0.88625E-01 43308   0.618E-01    0.274E+01
RMM:  48    -0.232501653694E+04    0.56680E-01   -0.34898E-01 38866   0.398E-01    0.269E+01
RMM:  49    -0.232483486298E+04    0.18167E+00   -0.13496E-01 32605   0.446E-01    0.256E+01
RMM:  50    -0.232484235784E+04   -0.74949E-02   -0.18142E-01 30300   0.735E-01    0.253E+01
RMM:  51    -0.245803076278E+04   -0.13319E+03   -0.33236E+01 29379   0.108E+01    0.150E+02
RMM:  52    -0.244638108195E+04    0.11650E+02   -0.33156E+01 41264   0.483E+00    0.145E+02
RMM:  53    -0.242548935935E+04    0.20892E+02   -0.78859E+00 34118   0.324E+00    0.132E+02
RMM:  54    -0.245230557055E+04   -0.26816E+02   -0.65438E+00 31001   0.372E+00    0.147E+02
RMM:  55    -0.244075787912E+04    0.11548E+02   -0.74456E+00 36000   0.290E+00    0.140E+02
RMM:  56    -0.249005124703E+04   -0.49293E+02   -0.89779E+01 31788   0.122E+01    0.153E+02
RMM:  57    -0.245367310105E+04    0.36378E+02   -0.90065E+01 40322   0.794E+00    0.135E+02
RMM:  58    -0.246595457469E+04   -0.12281E+02   -0.69966E+01 41411   0.512E+00    0.143E+02
RMM:  59    -0.247218715844E+04   -0.62326E+01   -0.53216E+01 46169   0.194E+00    0.152E+02
RMM:  60    -0.248823033235E+04   -0.16043E+02   -0.54468E+01 35298   0.808E+00    0.158E+02
RMM:  61    -0.257090264405E+04   -0.82672E+02   -0.16597E+02 42339   0.116E+01    0.182E+02
RMM:  62    -0.255709644669E+04    0.13806E+02   -0.10474E+02 44562   0.648E+00    0.182E+02
RMM:  63    -0.256308201472E+04   -0.59856E+01   -0.69341E+01 45819   0.372E+00    0.190E+02
RMM:  64    -0.256326400295E+04   -0.18199E+00   -0.41603E+01 44088   0.287E+00    0.194E+02
RMM:  65    -0.256510051696E+04   -0.18365E+01   -0.25992E+01 47759   0.136E+00    0.199E+02
RMM:  66    -0.265050719021E+04   -0.85407E+02   -0.52934E+01 33734   0.870E+00    0.217E+02
RMM:  67    -0.264506406198E+04    0.54431E+01   -0.52683E+01 42126   0.635E+00    0.215E+02
RMM:  68    -0.265486916276E+04   -0.98051E+01   -0.44326E+01 45040   0.284E+00    0.219E+02
RMM:  69    -0.264452373025E+04    0.10345E+02   -0.21550E+01 40245   0.270E+00    0.221E+02
RMM:  70    -0.261944700433E+04    0.25077E+02   -0.11671E+01 38016   0.274E+00    0.219E+02
RMM:  71    -0.262344839641E+04   -0.40014E+01   -0.37661E+01 31098   0.939E+00    0.220E+02
RMM:  72    -0.258638495341E+04    0.37063E+02   -0.11248E+01 28965   0.625E+00    0.217E+02
RMM:  73    -0.256334301266E+04    0.23042E+02   -0.12415E+01 38784   0.353E+00    0.211E+02
RMM:  74    -0.253380729767E+04    0.29536E+02   -0.11275E+01 40941   0.268E+00    0.202E+02
RMM:  75    -0.250197980408E+04    0.31827E+02   -0.82218E+00 35507   0.302E+00    0.190E+02
RMM:  76    -0.251788504171E+04   -0.15905E+02   -0.23947E+01 28851   0.936E+00    0.197E+02
RMM:  77    -0.241377568915E+04    0.10411E+03   -0.27718E+01 28772   0.106E+01    0.134E+02
RMM:  78    -0.237185867674E+04    0.41917E+02   -0.42208E+01 30299   0.108E+01    0.996E+01
RMM:  79    -0.236017802905E+04    0.11681E+02   -0.49131E+01 37591   0.788E+00    0.833E+01
RMM:  80    -0.235381980243E+04    0.63582E+01   -0.35888E+01 31737   0.887E+00    0.734E+01
RMM:  81    -0.235466162911E+04   -0.84183E+00   -0.75696E+01 35756   0.108E+01    0.741E+01
RMM:  82    -0.235239160652E+04    0.22700E+01   -0.29383E+01 30185   0.938E+00    0.709E+01
RMM:  83    -0.236106981527E+04   -0.86782E+01   -0.43785E+01 43295   0.414E+00    0.792E+01
RMM:  84    -0.236523024015E+04   -0.41604E+01   -0.19085E+01 45267   0.158E+00    0.851E+01
RMM:  85    -0.236140095773E+04    0.38293E+01   -0.44690E+00 36699   0.168E+00    0.822E+01
RMM:  86    -0.235587932737E+04    0.55216E+01   -0.25991E+01 28324   0.100E+01    0.760E+01
RMM:  87    -0.234109854598E+04    0.14781E+02   -0.11509E+01 27720   0.892E+00    0.573E+01
RMM:  88    -0.233221637591E+04    0.88822E+01   -0.65542E+00 28812   0.502E+00    0.430E+01
RMM:  89    -0.232876841550E+04    0.34480E+01   -0.16024E+01 38910   0.445E+00    0.362E+01
RMM:  90    -0.233104813091E+04   -0.22797E+01   -0.11262E+01 33928   0.415E+00    0.425E+01
RMM:  91    -0.235994748256E+04   -0.28899E+02   -0.29130E+01 35183   0.678E+00    0.888E+01
RMM:  92    -0.235074488442E+04    0.92026E+01   -0.78704E+00 28904   0.543E+00    0.757E+01
RMM:  93    -0.235103141864E+04   -0.28653E+00   -0.10562E+01 43465   0.202E+00    0.765E+01
RMM:  94    -0.235100768829E+04    0.23730E-01   -0.29288E+00 35720   0.170E+00    0.768E+01
RMM:  95    -0.234795922936E+04    0.30485E+01   -0.19769E+00 32164   0.202E+00    0.724E+01
RMM:  96    -0.239073594777E+04   -0.42777E+02   -0.15841E+01 30263   0.681E+00    0.122E+02
RMM:  97    -0.238051653878E+04    0.10219E+02   -0.59582E+00 28775   0.527E+00    0.114E+02
RMM:  98    -0.238128781088E+04   -0.77127E+00   -0.74281E+00 42941   0.174E+00    0.116E+02
RMM:  99    -0.238045627693E+04    0.83153E+00   -0.17926E+00 34678   0.146E+00    0.116E+02
RMM: 100    -0.238108271545E+04   -0.62644E+00   -0.15627E+00 39100   0.110E+00
   1 F= -.23810827E+04 E0= -.23779303E+04  d E =-.238108E+04
 curvature:   0.00 expect dE= 0.000E+00 dE for cont linesearch  0.000E+00
 trial: gam= 0.00000 g(F)=  0.778E+01 g(S)=  0.000E+00 ort = 0.000E+00 (trialstep = 0.100E+01)
 search vector abs. value=  0.778E+01
 bond charge predicted
       N       E                     dE             d eps       ncg     rms          rms(c)
DAV:   1    -0.237770716281E+04    0.27491E+01   -0.15238E+03 41146   0.576E+01    0.100E+02
RMM:   2    -0.151693275294E+05   -0.12792E+05   -0.23125E+04 49281   0.370E+02    0.132E+03
RMM:   3    -0.132767924529E+05    0.18925E+04   -0.15493E+04 48137   0.214E+02    0.820E+02
RMM:   4    -0.124161874779E+05    0.86060E+03   -0.10890E+04 47407   0.211E+02    0.788E+02
RMM:   5    -0.874038483058E+04    0.36758E+04   -0.54284E+03 47765   0.156E+02    0.593E+02
RMM:   6    -0.733559625015E+04    0.14048E+04   -0.49368E+03 38417   0.167E+02    0.483E+02
RMM:   7    -0.657642360240E+04    0.75917E+03   -0.31084E+03 37604   0.137E+02    0.429E+02
RMM:   8    -0.290634753157E+04    0.36701E+04   -0.19790E+03 28955   0.956E+01    0.278E+02
RMM:   9    -0.268888498569E+04    0.21746E+03   -0.97063E+02 30775   0.526E+01    0.249E+02
RMM:  10    -0.238146287415E+04    0.30742E+03   -0.10985E+03 38555   0.408E+01    0.129E+02
RMM:  11    -0.245000524090E+04   -0.68542E+02   -0.57230E+02 37840   0.294E+01    0.158E+02
RMM:  12    -0.254755496896E+04   -0.97550E+02   -0.59823E+02 42029   0.220E+01    0.181E+02
RMM:  13    -0.239971804102E+04    0.14784E+03   -0.29489E+02 41170   0.159E+01    0.998E+01
RMM:  14    -0.244325624367E+04   -0.43538E+02   -0.26545E+02 37665   0.152E+01    0.112E+02
RMM:  15    -0.243424630779E+04    0.90099E+01   -0.16447E+02 42688   0.980E+00    0.109E+02
RMM:  16    -0.244501191413E+04   -0.10766E+02   -0.79960E+01 34929   0.832E+00    0.114E+02
RMM:  17    -0.243692450228E+04    0.80874E+01   -0.64449E+01 44560   0.395E+00    0.114E+02
RMM:  18    -0.243628965099E+04    0.63485E+00   -0.33919E+01 41571   0.238E+00    0.119E+02
RMM:  19    -0.246740360881E+04   -0.31114E+02   -0.54885E+01 36938   0.560E+00    0.128E+02
RMM:  20    -0.246262023486E+04    0.47834E+01   -0.42819E+01 45452   0.222E+00    0.133E+02
RMM:  21    -0.243590701508E+04    0.26713E+02   -0.80852E+00 29659   0.407E+00    0.131E+02
RMM:  22    -0.242143358393E+04    0.14473E+02   -0.12773E+01 41738   0.256E+00    0.127E+02
RMM:  23    -0.240486290862E+04    0.16571E+02   -0.72774E+00 41028   0.231E+00    0.119E+02
RMM:  24    -0.234754519919E+04    0.57318E+02   -0.39675E+01 32881   0.798E+00    0.684E+01
RMM:  25    -0.233316526149E+04    0.14380E+02   -0.44049E+01 35328   0.716E+00    0.466E+01
RMM:  26    -0.232848003574E+04    0.46852E+01   -0.21522E+01 34989   0.548E+00    0.361E+01
RMM:  27    -0.232618594395E+04    0.22941E+01   -0.12038E+01 35868   0.399E+00    0.270E+01
RMM:  28    -0.232558150342E+04    0.60444E+00   -0.69446E+00 35909   0.312E+00    0.228E+01
RMM:  29    -0.232562750725E+04   -0.46004E-01   -0.42154E+00 41394   0.195E+00    0.227E+01
RMM:  30    -0.232543993344E+04    0.18757E+00   -0.15679E+00 33442   0.166E+00    0.211E+01
RMM:  31    -0.232533738585E+04    0.10255E+00   -0.13182E+00 40988   0.114E+00    0.202E+01
RMM:  32    -0.232617204636E+04   -0.83466E+00   -0.87774E-01 31321   0.150E+00    0.222E+01
RMM:  33    -0.232740001562E+04   -0.12280E+01   -0.19368E+00 39838   0.143E+00    0.256E+01
RMM:  34    -0.232953444050E+04   -0.21344E+01   -0.14340E+00 41599   0.103E+00    0.317E+01
RMM:  35    -0.232951585969E+04    0.18581E-01   -0.65386E-01 45897   0.372E-01    0.319E+01
RMM:  36    -0.232956106673E+04   -0.45207E-01   -0.15552E-01 44185   0.159E-01    0.323E+01
RMM:  37    -0.232989916361E+04   -0.33810E+00   -0.66543E-02 30853   0.421E-01    0.332E+01
RMM:  38    -0.233000247675E+04   -0.10331E+00   -0.22496E-01 41406   0.427E-01    0.335E+01
RMM:  39    -0.233219069622E+04   -0.21882E+01   -0.51635E-01 31136   0.111E+00    0.386E+01
RMM:  40    -0.233194272080E+04    0.24798E+00   -0.57216E-01 43892   0.417E-01    0.384E+01
RMM:  41    -0.233024943930E+04    0.16933E+01   -0.77872E-01 27781   0.186E+00    0.352E+01
RMM:  42    -0.232715504199E+04    0.30944E+01   -0.15049E+00 30141   0.203E+00    0.263E+01
RMM:  43    -0.232659631550E+04    0.55873E+00   -0.30717E+00 38165   0.209E+00    0.234E+01
RMM:  44    -0.232809514199E+04   -0.14988E+01   -0.21939E+00 31302   0.228E+00    0.281E+01
RMM:  45    -0.232749204757E+04    0.60309E+00   -0.17168E+00 35336   0.168E+00    0.254E+01
RMM:  46    -0.232692421774E+04    0.56783E+00   -0.11429E+00 42788   0.791E-01    0.231E+01
RMM:  47    -0.232740927639E+04   -0.48506E+00   -0.36897E+00 28237   0.390E+00    0.266E+01
RMM:  48    -0.232719563767E+04    0.21364E+00   -0.44435E+00 32533   0.299E+00    0.252E+01
RMM:  49    -0.232594378541E+04    0.12519E+01   -0.17947E+00 29345   0.248E+00    0.208E+01
RMM:  50    -0.232590686076E+04    0.36925E-01   -0.15995E+00 30167   0.220E+00    0.216E+01
RMM:  51    -0.232609118931E+04   -0.18433E+00   -0.21436E+00 30981   0.233E+00    0.217E+01
RMM:  52    -0.232457406392E+04    0.15171E+01   -0.93516E-01 27777   0.210E+00    0.120E+01
RMM:  53    -0.232435148166E+04    0.22258E+00   -0.76001E-01 29744   0.151E+00    0.993E+00
RMM:  54    -0.232453889067E+04   -0.18741E+00   -0.11104E+00 33322   0.144E+00    0.116E+01
RMM:  55    -0.232451924896E+04    0.19642E-01   -0.39534E-01 30384   0.107E+00    0.113E+01
RMM:  56    -0.232442206151E+04    0.97187E-01   -0.38367E-01 40714   0.591E-01    0.106E+01
RMM:  57    -0.232500005013E+04   -0.57799E+00   -0.48792E-01 31006   0.110E+00    0.151E+01
RMM:  58    -0.232441333100E+04    0.58672E+00   -0.39486E-01 27838   0.134E+00    0.109E+01
RMM:  59    -0.232415677619E+04    0.25655E+00   -0.26388E-01 27872   0.108E+00    0.780E+00
RMM:  60    -0.232411836714E+04    0.38409E-01   -0.23500E-01 31023   0.762E-01    0.715E+00
RMM:  61    -0.232410659713E+04    0.11770E-01   -0.18093E-01 31047   0.671E-01    0.688E+00
RMM:  62    -0.232438944260E+04   -0.28285E+00   -0.60047E-01 30661   0.124E+00    0.979E+00
RMM:  63    -0.232404237802E+04    0.34706E+00   -0.18865E-01 27760   0.933E-01    0.601E+00
RMM:  64    -0.232397416087E+04    0.68217E-01   -0.15427E-01 28408   0.782E-01    0.503E+00
RMM:  65    -0.232395461932E+04    0.19542E-01   -0.11746E-01 28539   0.685E-01    0.474E+00
RMM:  66    -0.232394643242E+04    0.81869E-02   -0.10851E-01 32488   0.461E-01    0.449E+00
RMM:  67    -0.232404695178E+04   -0.10052E+00   -0.14517E-01 27987   0.778E-01    0.615E+00
RMM:  68    -0.232388345114E+04    0.16350E+00   -0.63472E-02 27730   0.633E-01    0.274E+00
RMM:  69    -0.232387437773E+04    0.90734E-02   -0.57990E-02 31880   0.352E-01    0.242E+00
RMM:  70    -0.232387149072E+04    0.28870E-02   -0.56933E-02 32454   0.348E-01    0.218E+00
RMM:  71    -0.232386332008E+04    0.81706E-02   -0.26112E-02 29106   0.306E-01    0.176E+00
RMM:  72    -0.232387253224E+04   -0.92122E-02   -0.25261E-02 30128   0.274E-01    0.214E+00
RMM:  73    -0.232386251992E+04    0.10012E-01   -0.16351E-02 29438   0.227E-01    0.161E+00
RMM:  74    -0.232385556641E+04    0.69535E-02   -0.20990E-02 39198   0.149E-01    0.982E-01
RMM:  75    -0.232385456514E+04    0.10013E-02   -0.10790E-02 36171   0.120E-01    0.792E-01
RMM:  76    -0.232385385233E+04    0.71281E-03   -0.66259E-03 31705   0.126E-01    0.666E-01
RMM:  77    -0.232386150471E+04   -0.76524E-02   -0.11613E-02 28526   0.211E-01    0.137E+00
RMM:  78    -0.232385355528E+04    0.79494E-02   -0.45834E-03 27723   0.171E-01    0.550E-01
RMM:  79    -0.232385314174E+04    0.41353E-03   -0.25632E-03 28776   0.101E-01    0.530E-01
RMM:  80    -0.232385339926E+04   -0.25752E-03   -0.17239E-03 28710   0.837E-02    0.568E-01
RMM:  81    -0.232385294117E+04    0.45809E-03   -0.19113E-03 30096   0.751E-02    0.448E-01
RMM:  82    -0.232385384199E+04   -0.90082E-03   -0.33508E-03 29016   0.105E-01    0.588E-01
RMM:  83    -0.232385233985E+04    0.15021E-02   -0.10932E-03 27762   0.763E-02    0.268E-01
RMM:  84    -0.232385220579E+04    0.13406E-03   -0.91100E-04 31902   0.432E-02    0.214E-01
RMM:  85    -0.232385214250E+04    0.63292E-04   -0.50993E-04 30834   0.368E-02    0.174E-01
RMM:  86    -0.232385208152E+04    0.60983E-04   -0.40493E-04 32875   0.281E-02    0.128E-01
RMM:  87    -0.232385213066E+04   -0.49146E-04   -0.33541E-04 30914   0.299E-02    0.155E-01
RMM:  88    -0.232385207419E+04    0.56471E-04   -0.12908E-04 28538   0.247E-02    0.112E-01
RMM:  89    -0.232385208544E+04   -0.11248E-04   -0.93380E-05 31861   0.145E-02    0.114E-01
RMM:  90    -0.232385207052E+04    0.14920E-04   -0.94833E-05 35322   0.119E-02    0.944E-02
RMM:  91    -0.232385204589E+04    0.24629E-04   -0.36973E-05 29968   0.106E-02    0.611E-02
RMM:  92    -0.232385207417E+04   -0.28284E-04   -0.88648E-05 29483   0.171E-02    0.939E-02
RMM:  93    -0.232385203647E+04    0.37704E-04   -0.33807E-05 27884   0.139E-02    0.380E-02
RMM:  94    -0.232385203478E+04    0.16916E-05   -0.27920E-05 32067   0.609E-03    0.268E-02
RMM:  95    -0.232385203529E+04   -0.50812E-06   -0.13725E-05 27771   0.472E-03    0.239E-02
RMM:  96    -0.232385203464E+04    0.64232E-06   -0.47952E-06 20341   0.392E-03
   2 F= -.23238520E+04 E0= -.23210796E+04  d E =0.572307E+02
 trial-energy change:   57.230681  1 .order   -3.515174   -7.780276    0.749928
 step:   0.9121(harm=  0.9121)  dis= 0.04786  next Energy= -2384.630854 (dE=-0.355E+01)
 bond charge predicted
       N       E                     dE             d eps       ncg     rms          rms(c)
DAV:   1    -0.232390782376E+04   -0.55788E-01   -0.10439E+01 28672   0.337E+00    0.737E-01
RMM:   2    -0.232751820621E+04   -0.36104E+01   -0.86895E-01 31974   0.141E+00    0.253E+01
RMM:   3    -0.232564105776E+04    0.18771E+01   -0.22472E-01 29242   0.852E-01    0.178E+01
RMM:   4    -0.232456181181E+04    0.10792E+01   -0.96684E-02 28384   0.616E-01    0.108E+01
RMM:   5    -0.232421409567E+04    0.34772E+00   -0.91629E-02 30582   0.483E-01    0.723E+00
RMM:   6    -0.232401438030E+04    0.19972E+00   -0.78511E-02 28071   0.551E-01    0.437E+00
RMM:   7    -0.232405272612E+04   -0.38346E-01   -0.19166E-01 29324   0.753E-01    0.502E+00
RMM:   8    -0.232405707156E+04   -0.43454E-02   -0.90897E-02 28082   0.606E-01    0.488E+00
RMM:   9    -0.232393244827E+04    0.12462E+00   -0.35168E-02 27851   0.397E-01    0.176E+00
RMM:  10    -0.232392185535E+04    0.10593E-01   -0.28579E-02 31307   0.243E-01    0.121E+00
RMM:  11    -0.232392138562E+04    0.46974E-03   -0.21414E-02 34296   0.186E-01    0.112E+00
RMM:  12    -0.232391718524E+04    0.42004E-02   -0.66501E-03 28745   0.154E-01    0.734E-01
RMM:  13    -0.232391499179E+04    0.21935E-02   -0.26640E-03 28233   0.112E-01    0.409E-01
RMM:  14    -0.232391476440E+04    0.22738E-03   -0.29262E-03 36784   0.585E-02    0.330E-01
RMM:  15    -0.232391450928E+04    0.25513E-03   -0.13585E-03 32689   0.515E-02    0.231E-01
RMM:  16    -0.232391438989E+04    0.11939E-03   -0.60697E-04 30955   0.403E-02    0.171E-01
RMM:  17    -0.232391441515E+04   -0.25260E-04   -0.60805E-04 34786   0.307E-02    0.168E-01
RMM:  18    -0.232391437080E+04    0.44349E-04   -0.30889E-04 30532   0.294E-02    0.137E-01
RMM:  19    -0.232391431554E+04    0.55258E-04   -0.11542E-04 28426   0.238E-02    0.961E-02
RMM:  20    -0.232391431718E+04   -0.16333E-05   -0.13310E-04 32464   0.165E-02    0.913E-02
RMM:  21    -0.232391429900E+04    0.18175E-04   -0.97882E-05 32037   0.150E-02    0.652E-02
RMM:  22    -0.232391428560E+04    0.13396E-04   -0.45588E-05 30783   0.112E-02    0.420E-02
RMM:  23    -0.232391428742E+04   -0.18179E-05   -0.50550E-05 36913   0.648E-03    0.389E-02
RMM:  24    -0.232391428195E+04    0.54715E-05   -0.18805E-05 30323   0.607E-03    0.216E-02
RMM:  25    -0.232391428099E+04    0.96450E-06   -0.91618E-06 24529   0.367E-03
   3 F= -.23239143E+04 E0= -.23211434E+04  d E =0.571684E+02
 curvature:  -0.46 expect dE=-0.155E+00 dE for cont linesearch -0.260E-01
 ZBRENT: interpolating
 opt :   0.8402  next Energy= -2323.938209 (dE= 0.571E+02)
 bond charge predicted
       N       E                     dE             d eps       ncg     rms          rms(c)
DAV:   1    -0.232395539540E+04   -0.41113E-01   -0.69805E+00 28098   0.276E+00    0.602E-01
RMM:   2    -0.232638392740E+04   -0.24285E+01   -0.57194E-01 31935   0.114E+00    0.208E+01
RMM:   3    -0.232506599211E+04    0.13179E+01   -0.15057E-01 29112   0.704E-01    0.142E+01
RMM:   4    -0.232440775820E+04    0.65823E+00   -0.64572E-02 28387   0.507E-01    0.904E+00
RMM:   5    -0.232415891798E+04    0.24884E+00   -0.61189E-02 30798   0.391E-01    0.588E+00
RMM:   6    -0.232402603846E+04    0.13288E+00   -0.51474E-02 28131   0.446E-01    0.355E+00
RMM:   7    -0.232405586455E+04   -0.29826E-01   -0.12889E-01 29481   0.613E-01    0.418E+00
RMM:   8    -0.232406213448E+04   -0.62699E-02   -0.62921E-02 28149   0.494E-01    0.414E+00
RMM:   9    -0.232397148867E+04    0.90646E-01   -0.24056E-02 27791   0.339E-01    0.142E+00
RMM:  10    -0.232396475800E+04    0.67307E-02   -0.19361E-02 31409   0.199E-01    0.996E-01
RMM:  11    -0.232396445360E+04    0.30439E-03   -0.14416E-02 34611   0.150E-01    0.924E-01
RMM:  12    -0.232396157121E+04    0.28824E-02   -0.45272E-03 28934   0.125E-01    0.597E-01
RMM:  13    -0.232396008317E+04    0.14880E-02   -0.18077E-03 28370   0.908E-02    0.321E-01
RMM:  14    -0.232395997032E+04    0.11285E-03   -0.20079E-03 37262   0.476E-02    0.266E-01
RMM:  15    -0.232395980977E+04    0.16054E-03   -0.92253E-04 32386   0.438E-02    0.189E-01
RMM:  16    -0.232395972359E+04    0.86183E-04   -0.40617E-04 30706   0.341E-02    0.138E-01
RMM:  17    -0.232395973830E+04   -0.14716E-04   -0.40083E-04 35034   0.243E-02    0.135E-01
RMM:  18    -0.232395971251E+04    0.25791E-04   -0.21053E-04 31037   0.234E-02    0.112E-01
RMM:  19    -0.232395967095E+04    0.41567E-04   -0.74860E-05 28398   0.193E-02    0.734E-02
RMM:  20    -0.232395967207E+04   -0.11224E-05   -0.82308E-05 32456   0.130E-02    0.696E-02
RMM:  21    -0.232395966386E+04    0.82073E-05   -0.63119E-05 31994   0.120E-02    0.529E-02
RMM:  22    -0.232395965525E+04    0.86077E-05   -0.28832E-05 30323   0.896E-03    0.352E-02
RMM:  23    -0.232395965594E+04   -0.68161E-06   -0.29447E-05 32536   0.484E-03    0.316E-02
RMM:  24    -0.232395965206E+04    0.38736E-05   -0.99632E-06 25566   0.465E-03    0.168E-02
RMM:  25    -0.232395965121E+04    0.85554E-06   -0.38748E-06 19888   0.322E-03
   4 F= -.23239597E+04 E0= -.23211901E+04  d E =0.571231E+02
 curvature:  -0.42 expect dE=-0.134E+00 dE for cont linesearch -0.192E-01
 ZBRENT: bisectioning
 opt :   0.4201  next Energy= -2324.125546 (dE= 0.570E+02)
 bond charge predicted
       N       E                     dE             d eps       ncg     rms          rms(c)
DAV:   1    -0.232389319519E+04    0.66457E-01   -0.23786E+02 27748   0.162E+01    0.393E+00
RMM:   2    -0.241939123161E+04   -0.95498E+02   -0.57378E+01 33414   0.903E+00    0.120E+02
RMM:   3    -0.236695394301E+04    0.52437E+02   -0.71608E+00 30409   0.432E+00    0.882E+01
RMM:   4    -0.234353175356E+04    0.23422E+02   -0.38965E+00 31130   0.294E+00    0.595E+01
RMM:   5    -0.232971881100E+04    0.13813E+02   -0.30560E+00 31486   0.244E+00    0.310E+01
RMM:   6    -0.232618052434E+04    0.35383E+01   -0.24355E+00 28663   0.282E+00    0.203E+01
RMM:   7    -0.232669051617E+04   -0.50999E+00   -0.46102E+00 29346   0.367E+00    0.219E+01
RMM:   8    -0.232624491320E+04    0.44560E+00   -0.19541E+00 28019   0.297E+00    0.191E+01
RMM:   9    -0.232463472917E+04    0.16102E+01   -0.10303E+00 29422   0.170E+00    0.965E+00
RMM:  10    -0.232421090631E+04    0.42382E+00   -0.60633E-01 30176   0.129E+00    0.445E+00
RMM:  11    -0.232427488632E+04   -0.63980E-01   -0.56453E-01 32212   0.108E+00    0.538E+00
RMM:  12    -0.232421888325E+04    0.56003E-01   -0.22958E-01 29391   0.860E-01    0.437E+00
RMM:  13    -0.232415120521E+04    0.67678E-01   -0.11170E-01 30131   0.598E-01    0.255E+00
RMM:  14    -0.232414440189E+04    0.68033E-02   -0.11821E-01 37413   0.329E-01    0.212E+00
RMM:  15    -0.232413425177E+04    0.10150E-01   -0.47357E-02 33812   0.277E-01    0.142E+00
RMM:  16    -0.232413308058E+04    0.11712E-02   -0.26730E-02 32181   0.239E-01    0.132E+00
RMM:  17    -0.232412945733E+04    0.36232E-02   -0.19990E-02 32009   0.218E-01    0.944E-01
RMM:  18    -0.232412763922E+04    0.18181E-02   -0.79539E-03 28690   0.177E-01    0.751E-01
RMM:  19    -0.232412673685E+04    0.90237E-03   -0.56970E-03 31441   0.117E-01    0.609E-01
RMM:  20    -0.232412737732E+04   -0.64047E-03   -0.46452E-03 33497   0.935E-02    0.666E-01
RMM:  21    -0.232412685563E+04    0.52169E-03   -0.23903E-03 31297   0.778E-02    0.568E-01
RMM:  22    -0.232412673309E+04    0.12254E-03   -0.27323E-03 29439   0.957E-02    0.526E-01
RMM:  23    -0.232412596871E+04    0.76438E-03   -0.15468E-03 28557   0.834E-02    0.361E-01
RMM:  24    -0.232412566359E+04    0.30512E-03   -0.10124E-03 30238   0.563E-02    0.259E-01
RMM:  25    -0.232412555244E+04    0.11115E-03   -0.12775E-03 41450   0.283E-02    0.176E-01
RMM:  26    -0.232412561963E+04   -0.67194E-04   -0.41670E-04 35287   0.230E-02    0.198E-01
RMM:  27    -0.232412560203E+04    0.17601E-04   -0.25314E-04 34722   0.191E-02    0.181E-01
RMM:  28    -0.232412546927E+04    0.13276E-03   -0.12373E-04 31838   0.168E-02    0.937E-02
RMM:  29    -0.232412546128E+04    0.79897E-05   -0.70595E-05 30515   0.146E-02    0.808E-02
RMM:  30    -0.232412545417E+04    0.71121E-05   -0.99365E-05 40343   0.903E-03    0.621E-02
RMM:  31    -0.232412544545E+04    0.87148E-05   -0.36958E-05 32314   0.824E-03    0.440E-02
RMM:  32    -0.232412544660E+04   -0.11459E-05   -0.29656E-05 34698   0.556E-03    0.418E-02
RMM:  33    -0.232412544604E+04    0.56045E-06   -0.11900E-05 28290   0.567E-03    0.382E-02
RMM:  34    -0.232412544600E+04    0.39727E-07   -0.64895E-06 22533   0.434E-03
   5 F= -.23241254E+04 E0= -.23213632E+04  d E =0.569573E+02
 curvature:  -3.63 expect dE=-0.832E+00 dE for cont linesearch -0.171E-01
 ZBRENT: interpolating
 opt :   0.2352  next Energy= -2324.144338 (dE= 0.569E+02)
