<?xml version="1.0" encoding="ISO-8859-1"?>
<modeling>
 <generator>
  <i name="program" type="string">vasp </i>
  <i name="version" type="string">5.4.4.18Apr17-6-g9f103f2a35  </i>
  <i name="subversion" type="string">(build Sep 27 2018 12:46:37) complex + VL-xray_ parallel </i>
  <i name="platform" type="string">LLNL_Quartz_ifc </i>
  <i name="date" type="string">2021 09 27 </i>
  <i name="time" type="string">00:36:35 </i>
 </generator>
 <incar>
  <i type="int" name="ISTART">     2</i>
  <i type="string" name="PREC">accurate</i>
  <i type="string" name="ALGO"> Fast</i>
  <i type="int" name="ICHARG">     2</i>
  <i type="int" name="INIWAV">     1</i>
  <i type="int" name="NELM">   100</i>
  <i type="int" name="NELMIN">     4</i>
  <i type="int" name="IBRION">     2</i>
  <i name="EDIFF">      0.00000100</i>
  <i type="int" name="NSW">     5</i>
  <i type="int" name="ISIF">     2</i>
  <i type="int" name="ISYM">     2</i>
  <i name="ENCUT">    450.00000000</i>
  <i name="POTIM">      0.25000000</i>
  <i type="string" name="LREAL"> Auto</i>
  <i type="int" name="ISMEAR">     0</i>
  <i name="SIGMA">      0.15000000</i>
  <i type="logical" name="LWAVE"> F  </i>
  <i type="logical" name="LCHARG"> F  </i>
  <i type="int" name="ICORELEVEL">     0</i>
  <i type="int" name="CLNT">     1</i>
  <i type="int" name="CLN">     1</i>
  <i type="int" name="INCAR     ">     0</i>
  <i name="CLZ">      0.00000000</i>
  <v type="int" name="KPOINT_BSE">    -1     0     0     0</v>
  <i type="int" name="NELM">   100</i>
 </incar>
 <structure name="primitive_cell" >
  <crystal>
   <varray name="basis" >
    <v>       9.72667804       0.00000000       0.00000000 </v>
    <v>       0.00000000       8.42355028       0.00000000 </v>
    <v>       0.00000000       0.00000000      45.00000000 </v>
   </varray>
   <i name="volume">   3686.99226691 </i>
   <varray name="rec_basis" >
    <v>       0.10281002       0.00000000       0.00000000 </v>
    <v>       0.00000000       0.11871479       0.00000000 </v>
    <v>       0.00000000       0.00000000       0.02222222 </v>
   </varray>
  </crystal>
  <varray name="positions" >
   <v>       0.06262957       0.02895190       0.12403230 </v>
   <v>       0.18324154       0.11216355       0.16651055 </v>
   <v>       0.18612752      -0.21131282       0.12399028 </v>
   <v>       0.05636792      -0.13423077       0.16651375 </v>
   <v>      -0.06568223      -0.21189184       0.12444131 </v>
   <v>      -0.06862919       0.11428417       0.16681819 </v>
   <v>       0.31145822       0.02991396       0.12402665 </v>
   <v>      -0.18640374       0.03116452       0.12404832 </v>
   <v>       0.18507233       0.28700992       0.12409129 </v>
   <v>      -0.06603454       0.28682791       0.12389516 </v>
   <v>       0.30507839      -0.13487400       0.16582757 </v>
   <v>       0.05526710       0.36586847       0.16647066 </v>
   <v>      -0.19310638      -0.13630109       0.16681717 </v>
   <v>       0.43319016       0.11221550       0.16654324 </v>
   <v>      -0.05904583      -0.04658664       0.21123920 </v>
   <v>       0.43502919      -0.21224711       0.12421465 </v>
   <v>       0.30607996       0.36532502       0.16648879 </v>
   <v>       0.18322213      -0.38763805       0.16647488 </v>
   <v>       0.19022190      -0.04566296       0.21170661 </v>
   <v>      -0.06715046      -0.38771334       0.16662592 </v>
   <v>       0.06573202       0.20619772       0.21115807 </v>
   <v>      -0.31544389      -0.21234026       0.12456554 </v>
   <v>       0.06180993      -0.47020949       0.12401641 </v>
   <v>       0.43528240       0.28625232       0.12418904 </v>
   <v>      -0.31723249       0.11380357       0.16693545 </v>
   <v>      -0.19472454       0.36611720       0.16606765 </v>
   <v>      -0.31363069       0.28657609       0.12398701 </v>
   <v>       0.06779120      -0.29578055       0.21150663 </v>
   <v>      -0.18419980       0.20356731       0.21115436 </v>
   <v>       0.31233538      -0.46977804       0.12403669 </v>
   <v>      -0.18717591      -0.47072550       0.12414178 </v>
   <v>      -0.43764874       0.03198930       0.12425169 </v>
   <v>       0.31539423       0.20413765       0.21127951 </v>
   <v>      -0.18266517      -0.29594947       0.21134887 </v>
   <v>      -0.44368435      -0.13600405       0.16650311 </v>
   <v>       0.43206177      -0.38668625       0.16637503 </v>
   <v>      -0.31002345      -0.04676398       0.21146529 </v>
   <v>       0.31578597      -0.29484480       0.21219588 </v>
   <v>       0.44024888      -0.04580067       0.21192363 </v>
   <v>      -0.31735877      -0.38796527       0.16658802 </v>
   <v>      -0.05961061       0.45312239       0.21168831 </v>
   <v>       0.18952270       0.45267717       0.21160632 </v>
   <v>      -0.44397383       0.36476870       0.16663472 </v>
   <v>       0.05862026       0.03734170       0.25564790 </v>
   <v>       0.18454355      -0.21264949       0.25549405 </v>
   <v>      -0.06621017      -0.21265303       0.25554596 </v>
   <v>       0.30936533       0.03733309       0.25552763 </v>
   <v>      -0.43374551       0.20330676       0.21130501 </v>
   <v>      -0.19106467       0.03705041       0.25576891 </v>
   <v>      -0.43660995      -0.47043206       0.12461785 </v>
   <v>       0.18402585       0.28807792       0.25589588 </v>
   <v>      -0.31084815       0.45272547       0.21171339 </v>
   <v>      -0.06589437       0.28799505       0.25586593 </v>
   <v>       0.43939629       0.45271036       0.21125157 </v>
   <v>      -0.43462158      -0.29634924       0.21144376 </v>
   <v>       0.06025352      -0.46292186       0.25555584 </v>
   <v>       0.43396431      -0.21183913       0.25583243 </v>
   <v>      -0.31611395      -0.21257889       0.25579982 </v>
   <v>       0.43381270       0.28814298       0.25583343 </v>
   <v>      -0.31551995       0.28801155       0.25598808 </v>
   <v>       0.30827006      -0.46263457       0.25582600 </v>
   <v>      -0.44003372       0.03731676       0.25549459 </v>
   <v>      -0.19131926      -0.46256805       0.25581434 </v>
   <v>      -0.05486258       0.12300765       0.30003671 </v>
   <v>       0.06947161      -0.12683244       0.30039827 </v>
   <v>       0.19497200       0.12327270       0.30024569 </v>
   <v>      -0.17933826      -0.12663206       0.30016759 </v>
   <v>       0.32012954      -0.12629354       0.30020390 </v>
   <v>       0.06948347       0.37415791       0.30014128 </v>
   <v>      -0.44118398      -0.46278766       0.25576940 </v>
   <v>      -0.05589597      -0.37567300       0.30005122 </v>
   <v>       0.19423640      -0.37577635       0.30019632 </v>
   <v>      -0.30432800       0.12339484       0.30014551 </v>
   <v>      -0.17923793       0.37289550       0.30010282 </v>
   <v>       0.44432202       0.12365412       0.30024489 </v>
   <v>       0.32055166       0.37288564       0.30018983 </v>
   <v>      -0.30549550      -0.37546460       0.30003822 </v>
   <v>      -0.42947949      -0.12690495       0.30029810 </v>
   <v>       0.44609119      -0.37656574       0.30015265 </v>
   <v>      -0.43046078       0.37235040       0.30007703 </v>
   <v>       0.18365149      -0.04755836       0.34490646 </v>
   <v>      -0.06612107      -0.04857211       0.34479329 </v>
   <v>       0.05867295       0.20343659       0.34485771 </v>
   <v>       0.05849528      -0.29756300       0.34492373 </v>
   <v>       0.30886685       0.20258894       0.34473970 </v>
   <v>      -0.19135730       0.20205828       0.34491844 </v>
   <v>       0.30895418      -0.29776281       0.34480546 </v>
   <v>       0.43364798      -0.04743108       0.34490913 </v>
   <v>      -0.19142548      -0.29751607       0.34490003 </v>
   <v>      -0.31686685      -0.04823591       0.34477629 </v>
   <v>       0.18360545       0.45266161       0.34493477 </v>
   <v>      -0.06641499       0.45241225       0.34492122 </v>
   <v>      -0.44130688       0.20263194       0.34483430 </v>
   <v>       0.43362028       0.45239549       0.34501171 </v>
   <v>       0.06535365       0.03894046      -0.12425028 </v>
   <v>      -0.31629022       0.45234054       0.34498414 </v>
   <v>      -0.44109400      -0.29808387       0.34491616 </v>
   <v>       0.18787816      -0.20286237      -0.12394446 </v>
   <v>      -0.06293277      -0.20460203      -0.12446922 </v>
   <v>       0.31436905       0.04104120      -0.12411161 </v>
   <v>      -0.18730182       0.04077581      -0.12421551 </v>
   <v>       0.18855288       0.29668421      -0.12387620 </v>
   <v>      -0.06505236       0.29787902      -0.12443800 </v>
   <v>       0.43649071      -0.20232137      -0.12377956 </v>
   <v>       0.06333148      -0.45929328      -0.12411906 </v>
   <v>      -0.31525080      -0.20214244      -0.12407771 </v>
   <v>       0.06665997       0.03807725       0.38911266 </v>
   <v>       0.43649696       0.29818237      -0.12367041 </v>
   <v>      -0.31451058       0.29897171      -0.12398168 </v>
   <v>       0.31338455      -0.45940750      -0.12392988 </v>
   <v>      -0.05874660      -0.21206138       0.38887958 </v>
   <v>      -0.18772036      -0.45975587      -0.12415416 </v>
   <v>       0.19317997      -0.21259681       0.38888296 </v>
   <v>      -0.18231525       0.03903698       0.38920370 </v>
   <v>      -0.43715838       0.04055032      -0.12396369 </v>
   <v>      -0.05905651       0.28650090       0.38891713 </v>
   <v>       0.31623289       0.03688280       0.38897659 </v>
   <v>       0.19112585       0.28770169       0.38890351 </v>
   <v>       0.06735688      -0.46151378       0.38913351 </v>
   <v>      -0.30864811      -0.21223929       0.38905600 </v>
   <v>      -0.30864759       0.28743655       0.38897421 </v>
   <v>       0.44145687      -0.21218113       0.38905013 </v>
   <v>       0.44153377       0.28762442       0.38912511 </v>
   <v>      -0.18364973      -0.46248035       0.38894016 </v>
   <v>      -0.43749270      -0.45925981      -0.12402011 </v>
   <v>       0.31589115      -0.46156706       0.38892104 </v>
   <v>      -0.43355734       0.03778369       0.38905553 </v>
   <v>      -0.05755911      -0.03520654      -0.16610788 </v>
   <v>       0.19155533      -0.03677236      -0.16642012 </v>
   <v>       0.06675915       0.21502209      -0.16598058 </v>
   <v>       0.06609538      -0.28329548      -0.16609183 </v>
   <v>      -0.18189015       0.21501401      -0.16641101 </v>
   <v>       0.31686347       0.21269320      -0.16651049 </v>
   <v>      -0.43352750      -0.46238899       0.38906929 </v>
   <v>      -0.18299067      -0.28488945      -0.16662889 </v>
   <v>      -0.30837456      -0.03757115      -0.16648078 </v>
   <v>       0.31808077      -0.28627018      -0.16679645 </v>
   <v>       0.44281367      -0.03680094      -0.16667486 </v>
   <v>      -0.05782335       0.46422882      -0.16624906 </v>
   <v>       0.19161734       0.46323748      -0.16648337 </v>
   <v>       0.06203776      -0.12894070       0.43442580 </v>
   <v>       0.18735048       0.12047341       0.43422201 </v>
   <v>      -0.43389066       0.21349492      -0.16673997 </v>
   <v>      -0.06311688       0.11960726       0.43461248 </v>
   <v>      -0.30799153       0.46217483      -0.16667348 </v>
   <v>       0.44224836       0.46277820      -0.16660772 </v>
   <v>      -0.43379029      -0.28649855      -0.16668456 </v>
   <v>      -0.18843567      -0.12898692       0.43423071 </v>
   <v>       0.31190051      -0.12938059       0.43446715 </v>
   <v>       0.06306935       0.37158954       0.43428628 </v>
   <v>       0.18711725      -0.38000430       0.43442899 </v>
   <v>      -0.06276394      -0.37964321       0.43447717 </v>
   <v>      -0.31209044       0.12022846       0.43425427 </v>
   <v>       0.43694764       0.12084028       0.43432877 </v>
   <v>      -0.18848062       0.37130522       0.43420473 </v>
   <v>       0.31235396       0.37037131       0.43444157 </v>
   <v>       0.43668372      -0.37888216       0.43443347 </v>
   <v>      -0.31226148      -0.37951826       0.43446811 </v>
   <v>      -0.43754972      -0.12942790       0.43443227 </v>
   <v>      -0.43787741       0.37084706       0.43443024 </v>
   <v>       0.05917455      -0.12609891      -0.21152538 </v>
   <v>       0.18377829       0.12300577      -0.21139908 </v>
   <v>      -0.06587114       0.12449107      -0.21139299 </v>
   <v>       0.31034126      -0.12693925      -0.21156846 </v>
   <v>      -0.19105464      -0.12628102      -0.21162365 </v>
   <v>       0.05902929       0.37491761      -0.21153049 </v>
   <v>       0.43377810       0.12256251      -0.21101961 </v>
   <v>       0.18452382      -0.37740980      -0.21150113 </v>
   <v>      -0.06666657      -0.37560818      -0.21162989 </v>
   <v>       0.30908739       0.37377914      -0.21127153 </v>
   <v>      -0.31762484       0.12273925      -0.21143802 </v>
   <v>      -0.19099809       0.37466521      -0.21148760 </v>
   <v>       0.43330053      -0.37729569      -0.21106979 </v>
   <v>      -0.44082932      -0.12640243      -0.21136638 </v>
   <v>      -0.31688168      -0.37745310      -0.21142451 </v>
   <v>      -0.06255720      -0.04464801       0.47869270 </v>
   <v>       0.18743145      -0.04422852       0.47870963 </v>
   <v>       0.06255692       0.20592174       0.47866274 </v>
   <v>      -0.44089709       0.37323972      -0.21125997 </v>
   <v>       0.06223555      -0.29429827       0.47852457 </v>
   <v>      -0.18777551       0.20570244       0.47868084 </v>
   <v>       0.31240634       0.20577708       0.47873550 </v>
   <v>       0.31224999      -0.29408926       0.47865166 </v>
   <v>      -0.18744592      -0.29433793       0.47864806 </v>
   <v>       0.43728433      -0.04410236       0.47865258 </v>
   <v>      -0.31257038      -0.04410299       0.47867335 </v>
   <v>      -0.06275215       0.45562333       0.47864673 </v>
   <v>       0.18731017       0.45562883       0.47868653 </v>
   <v>      -0.43778493       0.20574087       0.47865736 </v>
   <v>       0.43750222       0.45602650       0.47855421 </v>
   <v>      -0.31279187       0.45579406       0.47865866 </v>
   <v>      -0.43750081      -0.29430627       0.47867827 </v>
   <v>       0.06550187       0.04036088      -0.25582957 </v>
   <v>      -0.05983858      -0.20906643      -0.25552275 </v>
   <v>       0.18962014      -0.20838978      -0.25560130 </v>
   <v>      -0.18459594       0.04079011      -0.25576372 </v>
   <v>      -0.06018653       0.29053863      -0.25551259 </v>
   <v>       0.19050604       0.29110312      -0.25564568 </v>
   <v>       0.31503800       0.04179743      -0.25591453 </v>
   <v>       0.06538399      -0.45910995      -0.25566403 </v>
   <v>      -0.30995938      -0.20846298      -0.25568629 </v>
   <v>       0.43954160      -0.20790496      -0.25557021 </v>
   <v>      -0.30990002       0.29146898      -0.25575928 </v>
   <v>       0.43972060       0.29171044      -0.25570816 </v>
   <v>      -0.18431889      -0.45973667      -0.25580187 </v>
   <v>       0.31522561      -0.45849815      -0.25574125 </v>
   <v>      -0.43461737       0.04138575      -0.25576169 </v>
   <v>       0.06185821      -0.12845977      -0.47858620 </v>
   <v>       0.18679405       0.12188531      -0.47861104 </v>
   <v>      -0.06347541       0.12169852      -0.47846649 </v>
   <v>       0.31178746      -0.12816451      -0.47859293 </v>
   <v>      -0.18838847      -0.12849568      -0.47862919 </v>
   <v>       0.06152554       0.37240215      -0.47859839 </v>
   <v>      -0.43489210      -0.45863551      -0.25590602 </v>
   <v>      -0.06333754      -0.37808612      -0.47858023 </v>
   <v>       0.18692620      -0.37855454      -0.47855503 </v>
   <v>       0.43677536       0.12169501      -0.47852151 </v>
   <v>      -0.31323834       0.12185338      -0.47858546 </v>
   <v>       0.31172098       0.37193255      -0.47863104 </v>
   <v>      -0.18808559       0.37190304      -0.47860453 </v>
   <v>       0.43661170      -0.37791753      -0.47865415 </v>
   <v>      -0.31340364      -0.37848737      -0.47868188 </v>
   <v>      -0.43791302      -0.12787618      -0.47854912 </v>
   <v>      -0.43827884       0.37194967      -0.47861679 </v>
   <v>       0.18522350      -0.04250278      -0.30024418 </v>
   <v>      -0.06473171      -0.04190081      -0.30033383 </v>
   <v>       0.06059590       0.20755515      -0.30030237 </v>
   <v>       0.06069477      -0.29259408      -0.30032192 </v>
   <v>       0.31062121       0.20732966      -0.30017775 </v>
   <v>      -0.18924018       0.20738580      -0.30019263 </v>
   <v>       0.31037680      -0.29317715      -0.30022900 </v>
   <v>      -0.18971488      -0.29276295      -0.30026309 </v>
   <v>       0.43549511      -0.04228938      -0.30027558 </v>
   <v>      -0.31493882      -0.04283388      -0.30023942 </v>
   <v>       0.18528394       0.45798900      -0.30032683 </v>
   <v>      -0.06464485       0.45792120      -0.30034646 </v>
   <v>      -0.43936546       0.20724222      -0.30020939 </v>
   <v>       0.43558374       0.45760506      -0.30024121 </v>
   <v>      -0.31509743       0.45768222      -0.30023360 </v>
   <v>      -0.43962077      -0.29290584      -0.30026255 </v>
   <v>      -0.06328728      -0.04267677      -0.43448351 </v>
   <v>       0.18685224      -0.04297634      -0.43446253 </v>
   <v>       0.06213931       0.20684486      -0.43461896 </v>
   <v>       0.06176703      -0.29348605      -0.43446261 </v>
   <v>       0.31146239       0.20640231      -0.43448356 </v>
   <v>      -0.18872719       0.20710867      -0.43452347 </v>
   <v>       0.31118175      -0.29293846      -0.43450903 </v>
   <v>      -0.18860129      -0.29349678      -0.43452097 </v>
   <v>       0.43681920      -0.04296630      -0.43459597 </v>
   <v>      -0.31273972      -0.04313800      -0.43446686 </v>
   <v>       0.18717791       0.45699056      -0.43444914 </v>
   <v>      -0.06360730       0.45643896      -0.43440477 </v>
   <v>      -0.43785276       0.20710109      -0.43449024 </v>
   <v>      -0.31338865       0.45683726      -0.43461052 </v>
   <v>       0.43655789       0.45696229      -0.43445546 </v>
   <v>      -0.43777175      -0.29295600      -0.43442601 </v>
   <v>       0.06626409      -0.12530629      -0.34503393 </v>
   <v>       0.19125284       0.12505997      -0.34482391 </v>
   <v>      -0.05886131       0.12497942      -0.34499350 </v>
   <v>      -0.18395170      -0.12514027      -0.34491874 </v>
   <v>       0.31623551      -0.12525791      -0.34493299 </v>
   <v>       0.06622650       0.37472132      -0.34508548 </v>
   <v>       0.19108247      -0.37490410      -0.34494259 </v>
   <v>      -0.05869210      -0.37481590      -0.34508579 </v>
   <v>      -0.30883126       0.12471886      -0.34497239 </v>
   <v>      -0.18386091       0.37485940      -0.34501633 </v>
   <v>       0.44128281       0.12462247      -0.34507739 </v>
   <v>       0.31612862       0.37424697      -0.34502704 </v>
   <v>      -0.30887913      -0.37521451      -0.34482677 </v>
   <v>      -0.43391122      -0.12561653      -0.34501777 </v>
   <v>       0.44118434      -0.37508741      -0.34500202 </v>
   <v>      -0.43387154       0.37442244      -0.34503421 </v>
   <v>       0.05877565       0.03797514      -0.38910607 </v>
   <v>       0.18375789      -0.21191570      -0.38909865 </v>
   <v>      -0.06629804      -0.21238345      -0.38907230 </v>
   <v>       0.30905826       0.03845214      -0.38893761 </v>
   <v>      -0.19094905       0.03837365      -0.38900575 </v>
   <v>      -0.06624681       0.28791645      -0.38908724 </v>
   <v>       0.18415409       0.28852403      -0.38892044 </v>
   <v>       0.43392817      -0.21185845      -0.38904173 </v>
   <v>       0.05880190      -0.46176879      -0.38899384 </v>
   <v>      -0.31613639      -0.21194936      -0.38907472 </v>
   <v>       0.43394803       0.28825196      -0.38903286 </v>
   <v>      -0.31604589       0.28856515      -0.38898633 </v>
   <v>       0.30899196      -0.46163163      -0.38904043 </v>
   <v>      -0.19103040      -0.46157017      -0.38894619 </v>
   <v>      -0.44077014       0.03859562      -0.38888655 </v>
   <v>      -0.44107919      -0.46152260      -0.38897937 </v>
  </varray>
 </structure>
 <varray name="primitive_index" >
  <v type="int" >        1 </v>
  <v type="int" >      125 </v>
  <v type="int" >       83 </v>
  <v type="int" >       60 </v>
  <v type="int" >       44 </v>
  <v type="int" >       26 </v>
  <v type="int" >      256 </v>
  <v type="int" >      202 </v>
  <v type="int" >      111 </v>
  <v type="int" >      155 </v>
  <v type="int" >      277 </v>
  <v type="int" >       51 </v>
  <v type="int" >      102 </v>
  <v type="int" >      182 </v>
  <v type="int" >      212 </v>
  <v type="int" >      170 </v>
  <v type="int" >      108 </v>
  <v type="int" >       20 </v>
  <v type="int" >      146 </v>
  <v type="int" >      104 </v>
  <v type="int" >       50 </v>
  <v type="int" >      163 </v>
  <v type="int" >      176 </v>
  <v type="int" >      117 </v>
  <v type="int" >      166 </v>
  <v type="int" >      284 </v>
  <v type="int" >      145 </v>
  <v type="int" >      250 </v>
  <v type="int" >      167 </v>
  <v type="int" >       91 </v>
  <v type="int" >      205 </v>
  <v type="int" >      114 </v>
  <v type="int" >      249 </v>
  <v type="int" >      213 </v>
  <v type="int" >      192 </v>
  <v type="int" >      174 </v>
  <v type="int" >       92 </v>
  <v type="int" >      276 </v>
  <v type="int" >      229 </v>
  <v type="int" >       97 </v>
  <v type="int" >      175 </v>
  <v type="int" >      288 </v>
  <v type="int" >       30 </v>
  <v type="int" >      185 </v>
  <v type="int" >      200 </v>
  <v type="int" >       52 </v>
  <v type="int" >      179 </v>
  <v type="int" >      103 </v>
  <v type="int" >       24 </v>
  <v type="int" >      283 </v>
  <v type="int" >      112 </v>
  <v type="int" >      261 </v>
  <v type="int" >      127 </v>
  <v type="int" >      139 </v>
  <v type="int" >      189 </v>
  <v type="int" >      168 </v>
  <v type="int" >      137 </v>
  <v type="int" >      118 </v>
  <v type="int" >      265 </v>
  <v type="int" >       58 </v>
  <v type="int" >      275 </v>
  <v type="int" >      221 </v>
  <v type="int" >       81 </v>
  <v type="int" >      135 </v>
  <v type="int" >      214 </v>
  <v type="int" >      215 </v>
  <v type="int" >       72 </v>
  <v type="int" >       98 </v>
  <v type="int" >      226 </v>
  <v type="int" >       28 </v>
  <v type="int" >      178 </v>
  <v type="int" >      263 </v>
  <v type="int" >      109 </v>
  <v type="int" >      220 </v>
  <v type="int" >      159 </v>
  <v type="int" >      242 </v>
  <v type="int" >      130 </v>
  <v type="int" >      210 </v>
  <v type="int" >      101 </v>
  <v type="int" >      171 </v>
  <v type="int" >      258 </v>
  <v type="int" >      194 </v>
  <v type="int" >       47 </v>
  <v type="int" >      216 </v>
  <v type="int" >       86 </v>
  <v type="int" >      207 </v>
  <v type="int" >      208 </v>
  <v type="int" >      172 </v>
  <v type="int" >       73 </v>
  <v type="int" >       25 </v>
  <v type="int" >      116 </v>
  <v type="int" >       12 </v>
  <v type="int" >      219 </v>
  <v type="int" >      206 </v>
  <v type="int" >      282 </v>
  <v type="int" >       48 </v>
  <v type="int" >      164 </v>
  <v type="int" >      268 </v>
  <v type="int" >      281 </v>
  <v type="int" >      245 </v>
  <v type="int" >       14 </v>
  <v type="int" >      120 </v>
  <v type="int" >      280 </v>
  <v type="int" >      150 </v>
  <v type="int" >      266 </v>
  <v type="int" >       29 </v>
  <v type="int" >      124 </v>
  <v type="int" >      255 </v>
  <v type="int" >      191 </v>
  <v type="int" >       18 </v>
  <v type="int" >      190 </v>
  <v type="int" >      231 </v>
  <v type="int" >      287 </v>
  <v type="int" >      279 </v>
  <v type="int" >      161 </v>
  <v type="int" >       13 </v>
  <v type="int" >      165 </v>
  <v type="int" >      248 </v>
  <v type="int" >      273 </v>
  <v type="int" >       45 </v>
  <v type="int" >       84 </v>
  <v type="int" >      264 </v>
  <v type="int" >        4 </v>
  <v type="int" >      123 </v>
  <v type="int" >       64 </v>
  <v type="int" >       67 </v>
  <v type="int" >       16 </v>
  <v type="int" >       17 </v>
  <v type="int" >        7 </v>
  <v type="int" >      259 </v>
  <v type="int" >      134 </v>
  <v type="int" >        6 </v>
  <v type="int" >       39 </v>
  <v type="int" >      222 </v>
  <v type="int" >      253 </v>
  <v type="int" >       88 </v>
  <v type="int" >        5 </v>
  <v type="int" >      110 </v>
  <v type="int" >       36 </v>
  <v type="int" >      181 </v>
  <v type="int" >      285 </v>
  <v type="int" >      160 </v>
  <v type="int" >      143 </v>
  <v type="int" >      158 </v>
  <v type="int" >       82 </v>
  <v type="int" >       74 </v>
  <v type="int" >      241 </v>
  <v type="int" >      235 </v>
  <v type="int" >       23 </v>
  <v type="int" >      218 </v>
  <v type="int" >      238 </v>
  <v type="int" >      131 </v>
  <v type="int" >      257 </v>
  <v type="int" >      201 </v>
  <v type="int" >       80 </v>
  <v type="int" >      113 </v>
  <v type="int" >      278 </v>
  <v type="int" >      232 </v>
  <v type="int" >       69 </v>
  <v type="int" >      251 </v>
  <v type="int" >      197 </v>
  <v type="int" >        3 </v>
  <v type="int" >      149 </v>
  <v type="int" >      224 </v>
  <v type="int" >       55 </v>
  <v type="int" >      254 </v>
  <v type="int" >       49 </v>
  <v type="int" >      272 </v>
  <v type="int" >      132 </v>
  <v type="int" >      138 </v>
  <v type="int" >      188 </v>
  <v type="int" >       57 </v>
  <v type="int" >      184 </v>
  <v type="int" >       33 </v>
  <v type="int" >       66 </v>
  <v type="int" >      236 </v>
  <v type="int" >       94 </v>
  <v type="int" >      223 </v>
  <v type="int" >      106 </v>
  <v type="int" >      157 </v>
  <v type="int" >       21 </v>
  <v type="int" >      230 </v>
  <v type="int" >       99 </v>
  <v type="int" >      234 </v>
  <v type="int" >      105 </v>
  <v type="int" >       75 </v>
  <v type="int" >      269 </v>
  <v type="int" >      244 </v>
  <v type="int" >      237 </v>
  <v type="int" >      156 </v>
  <v type="int" >      199 </v>
  <v type="int" >      169 </v>
  <v type="int" >        9 </v>
  <v type="int" >       46 </v>
  <v type="int" >      262 </v>
  <v type="int" >      151 </v>
  <v type="int" >      187 </v>
  <v type="int" >       11 </v>
  <v type="int" >      239 </v>
  <v type="int" >      211 </v>
  <v type="int" >       43 </v>
  <v type="int" >       31 </v>
  <v type="int" >       19 </v>
  <v type="int" >       71 </v>
  <v type="int" >       87 </v>
  <v type="int" >      243 </v>
  <v type="int" >      267 </v>
  <v type="int" >       27 </v>
  <v type="int" >      140 </v>
  <v type="int" >      286 </v>
  <v type="int" >      144 </v>
  <v type="int" >       10 </v>
  <v type="int" >      107 </v>
  <v type="int" >      270 </v>
  <v type="int" >      203 </v>
  <v type="int" >       68 </v>
  <v type="int" >      119 </v>
  <v type="int" >       34 </v>
  <v type="int" >      183 </v>
  <v type="int" >      177 </v>
  <v type="int" >      252 </v>
  <v type="int" >      195 </v>
  <v type="int" >       77 </v>
  <v type="int" >      247 </v>
  <v type="int" >      173 </v>
  <v type="int" >      225 </v>
  <v type="int" >       37 </v>
  <v type="int" >      274 </v>
  <v type="int" >       63 </v>
  <v type="int" >      233 </v>
  <v type="int" >      154 </v>
  <v type="int" >      141 </v>
  <v type="int" >       38 </v>
  <v type="int" >       54 </v>
  <v type="int" >      246 </v>
  <v type="int" >      152 </v>
  <v type="int" >       53 </v>
  <v type="int" >      193 </v>
  <v type="int" >       76 </v>
  <v type="int" >      133 </v>
  <v type="int" >      129 </v>
  <v type="int" >      162 </v>
  <v type="int" >       62 </v>
  <v type="int" >       65 </v>
  <v type="int" >       93 </v>
  <v type="int" >      271 </v>
  <v type="int" >       90 </v>
  <v type="int" >       32 </v>
  <v type="int" >       56 </v>
  <v type="int" >       95 </v>
  <v type="int" >       59 </v>
  <v type="int" >       42 </v>
  <v type="int" >        8 </v>
  <v type="int" >      228 </v>
  <v type="int" >       70 </v>
  <v type="int" >      186 </v>
  <v type="int" >      196 </v>
  <v type="int" >      121 </v>
  <v type="int" >      122 </v>
  <v type="int" >       79 </v>
  <v type="int" >        2 </v>
  <v type="int" >      198 </v>
  <v type="int" >      153 </v>
  <v type="int" >      240 </v>
  <v type="int" >      209 </v>
  <v type="int" >       35 </v>
  <v type="int" >      204 </v>
  <v type="int" >       85 </v>
  <v type="int" >      227 </v>
  <v type="int" >       89 </v>
  <v type="int" >       40 </v>
  <v type="int" >       78 </v>
  <v type="int" >      142 </v>
  <v type="int" >       15 </v>
  <v type="int" >      136 </v>
  <v type="int" >      148 </v>
  <v type="int" >      217 </v>
  <v type="int" >      100 </v>
  <v type="int" >       61 </v>
  <v type="int" >       96 </v>
  <v type="int" >      126 </v>
  <v type="int" >      180 </v>
  <v type="int" >      115 </v>
  <v type="int" >      147 </v>
  <v type="int" >       41 </v>
  <v type="int" >       22 </v>
  <v type="int" >      260 </v>
  <v type="int" >      128 </v>
 </varray>
 <kpoints>
  <generation param="Gamma">
   <v type="int" name="divisions">       4        4        1 </v>
   <v name="usershift">      0.00000000       0.00000000       0.00000000 </v>
   <v name="genvec1">      0.25000000       0.00000000       0.00000000 </v>
   <v name="genvec2">      0.00000000       0.25000000       0.00000000 </v>
   <v name="genvec3">      0.00000000       0.00000000       1.00000000 </v>
   <v name="shift">      0.00000000       0.00000000       0.00000000 </v>
  </generation>
  <varray name="kpointlist" >
   <v>       0.00000000       0.00000000       0.00000000 </v>
   <v>       0.25000000       0.00000000       0.00000000 </v>
   <v>       0.50000000       0.00000000       0.00000000 </v>
   <v>       0.00000000       0.25000000       0.00000000 </v>
   <v>       0.25000000       0.25000000       0.00000000 </v>
   <v>       0.50000000       0.25000000       0.00000000 </v>
   <v>      -0.25000000       0.25000000       0.00000000 </v>
   <v>       0.00000000       0.50000000       0.00000000 </v>
   <v>       0.25000000       0.50000000       0.00000000 </v>
   <v>       0.50000000       0.50000000       0.00000000 </v>
  </varray>
  <varray name="weights" >
   <v>       0.06250000 </v>
   <v>       0.12500000 </v>
   <v>       0.06250000 </v>
   <v>       0.12500000 </v>
   <v>       0.12500000 </v>
   <v>       0.12500000 </v>
   <v>       0.12500000 </v>
   <v>       0.06250000 </v>
   <v>       0.12500000 </v>
   <v>       0.06250000 </v>
  </varray>
 </kpoints>
 <parameters>
  <separator name="general" >
   <i type="string" name="SYSTEM">unknown system</i>
   <i type="logical" name="LCOMPAT"> F  </i>
  </separator>
  <separator name="electronic" >
   <i type="string" name="PREC">accura</i>
   <i name="ENMAX">    450.00000000</i>
   <i name="ENAUG">    838.43500000</i>
   <i name="EDIFF">      0.00000100</i>
   <i type="int" name="IALGO">    68</i>
   <i type="int" name="IWAVPR">    11</i>
   <i type="int" name="NBANDS">  1386</i>
   <i name="NELECT">   2290.00000000</i>
   <i type="int" name="TURBO">     0</i>
   <i type="int" name="IRESTART">     0</i>
   <i type="int" name="NREBOOT">     0</i>
   <i type="int" name="NMIN">     0</i>
   <i name="EREF">      0.00000000</i>
   <separator name="electronic smearing" >
    <i type="int" name="ISMEAR">     0</i>
    <i name="SIGMA">      0.15000000</i>
    <i name="KSPACING">      0.50000000</i>
    <i type="logical" name="KGAMMA"> T  </i>
   </separator>
   <separator name="electronic projectors" >
    <i type="logical" name="LREAL"> T  </i>
    <v name="ROPT">     -0.00025000     -0.00025000</v>
    <i type="int" name="LMAXPAW">  -100</i>
    <i type="int" name="LMAXMIX">     2</i>
    <i type="logical" name="NLSPLINE"> F  </i>
   </separator>
   <separator name="electronic startup" >
    <i type="int" name="ISTART">     0</i>
    <i type="int" name="ICHARG">     2</i>
    <i type="int" name="INIWAV">     1</i>
   </separator>
   <separator name="electronic spin" >
    <i type="int" name="ISPIN">     1</i>
    <i type="logical" name="LNONCOLLINEAR"> F  </i>
    <v name="MAGMOM">      1.00000000      1.00000000      1.00000000      1.00000000      1.00000000      1.00000000      1.00000000      1.00000000      1.00000000      1.00000000      1.00000000      1.00000000      1.00000000      1.00000000      1.00000000      1.00000000      1.00000000      1.00000000      1.00000000      1.00000000
      1.00000000      1.00000000      1.00000000      1.00000000      1.00000000      1.00000000      1.00000000      1.00000000      1.00000000      1.00000000      1.00000000      1.00000000      1.00000000      1.00000000      1.00000000      1.00000000      1.00000000      1.00000000      1.00000000      1.00000000
      1.00000000      1.00000000      1.00000000      1.00000000      1.00000000      1.00000000      1.00000000      1.00000000      1.00000000      1.00000000      1.00000000      1.00000000      1.00000000      1.00000000      1.00000000      1.00000000      1.00000000      1.00000000      1.00000000      1.00000000
      1.00000000      1.00000000      1.00000000      1.00000000      1.00000000      1.00000000      1.00000000      1.00000000      1.00000000      1.00000000      1.00000000      1.00000000      1.00000000      1.00000000      1.00000000      1.00000000      1.00000000      1.00000000      1.00000000      1.00000000
      1.00000000      1.00000000      1.00000000      1.00000000      1.00000000      1.00000000      1.00000000      1.00000000      1.00000000      1.00000000      1.00000000      1.00000000      1.00000000      1.00000000      1.00000000      1.00000000      1.00000000      1.00000000      1.00000000      1.00000000
      1.00000000      1.00000000      1.00000000      1.00000000      1.00000000      1.00000000      1.00000000      1.00000000      1.00000000      1.00000000      1.00000000      1.00000000      1.00000000      1.00000000      1.00000000      1.00000000      1.00000000      1.00000000      1.00000000      1.00000000
      1.00000000      1.00000000      1.00000000      1.00000000      1.00000000      1.00000000      1.00000000      1.00000000      1.00000000      1.00000000      1.00000000      1.00000000      1.00000000      1.00000000      1.00000000      1.00000000      1.00000000      1.00000000      1.00000000      1.00000000
      1.00000000      1.00000000      1.00000000      1.00000000      1.00000000      1.00000000      1.00000000      1.00000000      1.00000000      1.00000000      1.00000000      1.00000000      1.00000000      1.00000000      1.00000000      1.00000000      1.00000000      1.00000000      1.00000000      1.00000000
      1.00000000      1.00000000      1.00000000      1.00000000      1.00000000      1.00000000      1.00000000      1.00000000      1.00000000      1.00000000      1.00000000      1.00000000      1.00000000      1.00000000      1.00000000      1.00000000      1.00000000      1.00000000      1.00000000      1.00000000
      1.00000000      1.00000000      1.00000000      1.00000000      1.00000000      1.00000000      1.00000000      1.00000000      1.00000000      1.00000000      1.00000000      1.00000000      1.00000000      1.00000000      1.00000000      1.00000000      1.00000000      1.00000000      1.00000000      1.00000000
      1.00000000      1.00000000      1.00000000      1.00000000      1.00000000      1.00000000      1.00000000      1.00000000      1.00000000      1.00000000      1.00000000      1.00000000      1.00000000      1.00000000      1.00000000      1.00000000      1.00000000      1.00000000      1.00000000      1.00000000
      1.00000000      1.00000000      1.00000000      1.00000000      1.00000000      1.00000000      1.00000000      1.00000000      1.00000000      1.00000000      1.00000000      1.00000000      1.00000000      1.00000000      1.00000000      1.00000000      1.00000000      1.00000000      1.00000000      1.00000000
      1.00000000      1.00000000      1.00000000      1.00000000      1.00000000      1.00000000      1.00000000      1.00000000      1.00000000      1.00000000      1.00000000      1.00000000      1.00000000      1.00000000      1.00000000      1.00000000      1.00000000      1.00000000      1.00000000      1.00000000
      1.00000000      1.00000000      1.00000000      1.00000000      1.00000000      1.00000000      1.00000000      1.00000000      1.00000000      1.00000000      1.00000000      1.00000000      1.00000000      1.00000000      1.00000000      1.00000000      1.00000000      1.00000000      1.00000000      1.00000000
      1.00000000      1.00000000      1.00000000      1.00000000      1.00000000      1.00000000      1.00000000      1.00000000</v>
    <i name="NUPDOWN">     -1.00000000</i>
    <i type="logical" name="LSORBIT"> F  </i>
    <v name="SAXIS">      0.00000000      0.00000000      1.00000000</v>
    <i type="logical" name="LSPIRAL"> F  </i>
    <v name="QSPIRAL">      0.00000000      0.00000000      0.00000000</v>
    <i type="logical" name="LZEROZ"> F  </i>
   </separator>
   <separator name="electronic exchange-correlation" >
    <i type="logical" name="LASPH"> F  </i>
    <i type="logical" name="LMETAGGA"> F  </i>
   </separator>
   <separator name="electronic convergence" >
    <i type="int" name="NELM">   100</i>
    <i type="int" name="NELMDL">     0</i>
    <i type="int" name="NELMIN">     4</i>
    <i name="ENINI">    450.00000000</i>
    <separator name="electronic convergence detail" >
     <i type="logical" name="LDIAG"> T  </i>
     <i type="logical" name="LSUBROT"> F  </i>
     <i name="WEIMIN">      0.00100000</i>
     <i name="EBREAK">      0.00000000</i>
     <i name="DEPER">      0.30000000</i>
     <i type="int" name="NRMM">     4</i>
     <i name="TIME">      0.40000000</i>
    </separator>
   </separator>
   <separator name="electronic mixer" >
    <i name="AMIX">      0.40000000</i>
    <i name="BMIX">      1.00000000</i>
    <i name="AMIN">      0.10000000</i>
    <i name="AMIX_MAG">      1.60000000</i>
    <i name="BMIX_MAG">      1.00000000</i>
    <separator name="electronic mixer details" >
     <i type="int" name="IMIX">     4</i>
     <i type="logical" name="MIXFIRST"> F  </i>
     <i type="int" name="MAXMIX">   -45</i>
     <i name="WC">    100.00000000</i>
     <i type="int" name="INIMIX">     1</i>
     <i type="int" name="MIXPRE">     1</i>
     <i type="int" name="MREMOVE">     5</i>
    </separator>
   </separator>
   <separator name="electronic dipolcorrection" >
    <i type="logical" name="LDIPOL"> F  </i>
    <i type="logical" name="LMONO"> F  </i>
    <i type="int" name="IDIPOL">     0</i>
    <i name="EPSILON">      1.00000000</i>
    <v name="DIPOL">   -100.00000000   -100.00000000   -100.00000000</v>
    <i name="EFIELD">      0.00000000</i>
   </separator>
  </separator>
  <separator name="grids" >
   <i type="int" name="NGX">    70</i>
   <i type="int" name="NGY">    60</i>
   <i type="int" name="NGZ">   320</i>
   <i type="int" name="NGXF">   140</i>
   <i type="int" name="NGYF">   120</i>
   <i type="int" name="NGZF">   640</i>
   <i type="logical" name="ADDGRID"> F  </i>
  </separator>
  <separator name="ionic" >
   <i type="int" name="NSW">     5</i>
   <i type="int" name="IBRION">     2</i>
   <i type="int" name="MDALGO">     0</i>
   <i type="int" name="ISIF">     2</i>
   <i name="PSTRESS">      0.00000000</i>
   <i name="EDIFFG">      0.00001000</i>
   <i type="int" name="NFREE">     1</i>
   <i name="POTIM">      0.25000000</i>
   <i name="SMASS">     -3.00000000</i>
   <i name="SCALEE">      1.00000000</i>
  </separator>
  <separator name="ionic md" >
   <i name="TEBEG">      0.00010000</i>
   <i name="TEEND">      0.00010000</i>
   <i type="int" name="NBLOCK">     1</i>
   <i type="int" name="KBLOCK">     5</i>
   <i type="int" name="NPACO">   256</i>
   <i name="APACO">     16.00000000</i>
  </separator>
  <separator name="symmetry" >
   <i type="int" name="ISYM">     2</i>
   <i name="SYMPREC">      0.00001000</i>
  </separator>
  <separator name="dos" >
   <i type="int" name="LORBIT">     0</i>
   <v name="RWIGS">     -1.00000000     -1.00000000</v>
   <i type="int" name="NEDOS">   301</i>
   <i name="EMIN">     10.00000000</i>
   <i name="EMAX">    -10.00000000</i>
   <i name="EFERMI">      0.00000000</i>
  </separator>
  <separator name="writing" >
   <i type="int" name="NWRITE">     2</i>
   <i type="logical" name="LWAVE"> F  </i>
   <i type="logical" name="LDOWNSAMPLE"> F  </i>
   <i type="logical" name="LCHARG"> F  </i>
   <i type="logical" name="LPARD"> F  </i>
   <i type="logical" name="LVTOT"> F  </i>
   <i type="logical" name="LVHAR"> F  </i>
   <i type="logical" name="LELF"> F  </i>
   <i type="logical" name="LOPTICS"> F  </i>
   <v name="STM">      0.00000000      0.00000000      0.00000000      0.00000000      0.00000000      0.00000000      0.00000000</v>
  </separator>
  <separator name="performance" >
   <i type="int" name="NPAR">    14</i>
   <i type="int" name="NSIM">     4</i>
   <i type="int" name="NBLK">    -1</i>
   <i type="logical" name="LPLANE"> T  </i>
   <i type="logical" name="LSCALAPACK"> T  </i>
   <i type="logical" name="LSCAAWARE"> T  </i>
   <i type="logical" name="LSCALU"> F  </i>
   <i type="logical" name="LASYNC"> F  </i>
   <i type="logical" name="LORBITALREAL"> F  </i>
  </separator>
  <separator name="miscellaneous" >
   <i type="int" name="IDIOT">     3</i>
   <i type="int" name="ISPECIAL">     0</i>
   <i type="logical" name="LMUSIC"> F  </i>
   <v name="POMASS">     55.84700000     54.93800000</v>
   <v name="DARWINR">      0.00000000      0.00000000</v>
   <v name="DARWINV">      1.00000000      1.00000000</v>
   <i type="logical" name="LCORR"> T  </i>
  </separator>
  <i type="logical" name="GGA_COMPAT"> T  </i>
  <i type="logical" name="LBERRY"> F  </i>
  <i type="int" name="ICORELEVEL">     0</i>
  <i type="logical" name="LDAU"> F  </i>
  <i type="int" name="I_CONSTRAINED_M">     0</i>
  <separator name="electronic exchange-correlation" >
   <i type="string" name="GGA">--</i>
   <i type="int" name="VOSKOWN">     0</i>
   <i type="logical" name="LHFCALC"> F  </i>
   <i type="string" name="PRECFOCK"></i>
   <i type="logical" name="LSYMGRAD"> F  </i>
   <i type="logical" name="LHFONE"> F  </i>
   <i type="logical" name="LRHFCALC"> F  </i>
   <i type="logical" name="LTHOMAS"> F  </i>
   <i type="logical" name="LMODELHF"> F  </i>
   <i name="ENCUT4O">     -1.00000000</i>
   <i type="int" name="EXXOEP">     0</i>
   <i type="int" name="FOURORBIT">     0</i>
   <i name="AEXX">      0.00000000</i>
   <i name="HFALPHA">      0.00000000</i>
   <i name="MCALPHA">      0.00000000</i>
   <i name="ALDAX">      1.00000000</i>
   <i name="AGGAX">      1.00000000</i>
   <i name="ALDAC">      1.00000000</i>
   <i name="AGGAC">      1.00000000</i>
   <i type="int" name="NKREDX">     1</i>
   <i type="int" name="NKREDY">     1</i>
   <i type="int" name="NKREDZ">     1</i>
   <i type="logical" name="SHIFTRED"> F  </i>
   <i type="logical" name="ODDONLY"> F  </i>
   <i type="logical" name="EVENONLY"> F  </i>
   <i type="int" name="LMAXFOCK">     0</i>
   <i type="int" name="NMAXFOCKAE">     0</i>
   <i type="logical" name="LFOCKAEDFT"> F  </i>
   <i name="HFSCREEN">      0.00000000</i>
   <i name="HFSCREENC">      0.00000000</i>
   <i type="int" name="NBANDSGWLOW">     0</i>
  </separator>
  <separator name="vdW DFT" >
   <i type="logical" name="LUSE_VDW"> F  </i>
   <i name="Zab_VDW">     -0.84910000</i>
   <i name="PARAM1">      0.12340000</i>
   <i name="PARAM2">      1.00000000</i>
   <i name="PARAM3">      0.00000000</i>
  </separator>
  <separator name="model GW" >
   <i type="int" name="MODEL_GW">     0</i>
   <i name="MODEL_EPS0">      7.68123389</i>
   <i name="MODEL_ALPHA">      1.00000000</i>
  </separator>
  <separator name="linear response parameters" >
   <i type="logical" name="LEPSILON"> F  </i>
   <i type="logical" name="LRPA"> F  </i>
   <i type="logical" name="LNABLA"> F  </i>
   <i type="logical" name="LVEL"> F  </i>
   <i type="int" name="KINTER">     0</i>
   <i name="CSHIFT">      0.10000000</i>
   <i name="OMEGAMAX">     -1.00000000</i>
   <i name="DEG_THRESHOLD">      0.00200000</i>
   <i name="RTIME">     -0.10000000</i>
   <i name="WPLASMAI">      0.00000000</i>
   <v name="DFIELD">      0.00000000      0.00000000      0.00000000</v>
   <v name="WPLASMA">      0.00000000      0.00000000      0.00000000      0.00000000      0.00000000      0.00000000      0.00000000      0.00000000      0.00000000</v>
  </separator>
  <separator name="orbital magnetization" >
   <i type="logical" name="NUCIND"> F  </i>
   <v name="MAGPOS">      0.00000000      0.00000000      0.00000000</v>
   <i type="logical" name="LNICSALL"> T  </i>
   <i type="logical" name="ORBITALMAG"> F  </i>
   <i type="logical" name="LMAGBLOCH"> F  </i>
   <i type="logical" name="LCHIMAG"> F  </i>
   <i type="logical" name="LGAUGE"> T  </i>
   <i type="int" name="MAGATOM">     0</i>
   <v name="MAGDIPOL">      0.00000000      0.00000000      0.00000000</v>
   <v name="AVECCONST">      0.00000000      0.00000000      0.00000000</v>
  </separator>
  <separator name="response functions" >
   <i type="logical" name="LADDER"> F  </i>
   <i type="logical" name="LRPAFORCE"> F  </i>
   <i type="logical" name="LFXC"> F  </i>
   <i type="logical" name="LHARTREE"> T  </i>
   <i type="int" name="IBSE">     0</i>
   <v type="int" name="KPOINT">    -1     0     0     0</v>
   <i type="logical" name="LTCTE"> F  </i>
   <i type="logical" name="LTETE"> F  </i>
   <i type="logical" name="LTRIPLET"> F  </i>
   <i type="logical" name="LFXCEPS"> F  </i>
   <i type="logical" name="LFXHEG"> F  </i>
   <i type="int" name="NATURALO">     2</i>
   <i type="logical" name="L2ORDER"> F  </i>
   <i type="logical" name="LMP2LT"> F  </i>
   <i type="logical" name="LUSEW"> F  </i>
   <i name="ENCUTGW">     -2.00000000</i>
   <i name="ENCUTGWSOFT">     -2.00000000</i>
   <i name="ENCUTLF">     -1.00000000</i>
   <i type="int" name="LMAXMP2">    -1</i>
   <i name="SCISSOR">      0.00000000</i>
   <i type="int" name="NOMEGA">     0</i>
   <i type="int" name="NOMEGAR">     0</i>
   <i type="int" name="NBANDSGW">    -1</i>
   <i type="int" name="NBANDSO">    -1</i>
   <i type="int" name="NBANDSV">    -1</i>
   <i type="int" name="NELM">   100</i>
   <i type="int" name="NELMHF">     1</i>
   <i type="int" name="DIM">     3</i>
   <i type="int" name="ANTIRES">     0</i>
   <i name="OMEGAMAX">    -30.00000000</i>
   <i name="OMEGAMIN">    -30.00000000</i>
   <i name="OMEGATL">   -200.00000000</i>
   <i type="int" name="OMEGAGRID">   140</i>
   <i name="CSHIFT">     -0.10000000</i>
   <i type="logical" name="SELFENERGY"> F  </i>
   <i type="logical" name="LSPECTRAL"> F  </i>
   <i type="logical" name="LSPECTRALGW"> F  </i>
   <i type="logical" name="LSINGLES"> F  </i>
   <i type="logical" name="LFERMIGW"> F  </i>
   <i type="logical" name="ODDONLYGW"> F  </i>
   <i type="logical" name="EVENONLYGW"> F  </i>
   <i type="int" name="NKREDLFX">     1</i>
   <i type="int" name="NKREDLFY">     1</i>
   <i type="int" name="NKREDLFZ">     1</i>
   <i type="int" name="MAXMEM">  2800</i>
   <i type="int" name="TELESCOPE">     0</i>
   <i type="int" name="TAUPAR">     1</i>
   <i type="int" name="OMEGAPAR">    -1</i>
   <i name="LAMBDA">      1.00000000</i>
  </separator>
  <separator name="External order field" >
   <i name="OFIELD_KAPPA">      0.00000000</i>
   <v name="OFIELD_K">      0.00000000      0.00000000      0.00000000</v>
   <i name="OFIELD_Q6_NEAR">      0.00000000</i>
   <i name="OFIELD_Q6_FAR">      0.00000000</i>
   <i name="OFIELD_A">      0.00000000</i>
  </separator>
 </parameters>
 <atominfo>
  <atoms>     288 </atoms>
  <types>       2 </types>
  <array name="atoms" >
   <dimension dim="1">ion</dimension>
   <field type="string">element</field>
   <field type="int">atomtype</field>
   <set>
    <rc><c>Fe</c><c>   1</c></rc>
    <rc><c>Fe</c><c>   1</c></rc>
    <rc><c>Fe</c><c>   1</c></rc>
    <rc><c>Fe</c><c>   1</c></rc>
    <rc><c>Fe</c><c>   1</c></rc>
    <rc><c>Fe</c><c>   1</c></rc>
    <rc><c>Fe</c><c>   1</c></rc>
    <rc><c>Fe</c><c>   1</c></rc>
    <rc><c>Fe</c><c>   1</c></rc>
    <rc><c>Fe</c><c>   1</c></rc>
    <rc><c>Fe</c><c>   1</c></rc>
    <rc><c>Fe</c><c>   1</c></rc>
    <rc><c>Fe</c><c>   1</c></rc>
    <rc><c>Fe</c><c>   1</c></rc>
    <rc><c>Fe</c><c>   1</c></rc>
    <rc><c>Fe</c><c>   1</c></rc>
    <rc><c>Fe</c><c>   1</c></rc>
    <rc><c>Fe</c><c>   1</c></rc>
    <rc><c>Fe</c><c>   1</c></rc>
    <rc><c>Fe</c><c>   1</c></rc>
    <rc><c>Fe</c><c>   1</c></rc>
    <rc><c>Fe</c><c>   1</c></rc>
    <rc><c>Fe</c><c>   1</c></rc>
    <rc><c>Fe</c><c>   1</c></rc>
    <rc><c>Fe</c><c>   1</c></rc>
    <rc><c>Fe</c><c>   1</c></rc>
    <rc><c>Fe</c><c>   1</c></rc>
    <rc><c>Fe</c><c>   1</c></rc>
    <rc><c>Fe</c><c>   1</c></rc>
    <rc><c>Fe</c><c>   1</c></rc>
    <rc><c>Fe</c><c>   1</c></rc>
    <rc><c>Fe</c><c>   1</c></rc>
    <rc><c>Fe</c><c>   1</c></rc>
    <rc><c>Fe</c><c>   1</c></rc>
    <rc><c>Fe</c><c>   1</c></rc>
    <rc><c>Fe</c><c>   1</c></rc>
    <rc><c>Fe</c><c>   1</c></rc>
    <rc><c>Fe</c><c>   1</c></rc>
    <rc><c>Fe</c><c>   1</c></rc>
    <rc><c>Fe</c><c>   1</c></rc>
    <rc><c>Fe</c><c>   1</c></rc>
    <rc><c>Fe</c><c>   1</c></rc>
    <rc><c>Fe</c><c>   1</c></rc>
    <rc><c>Fe</c><c>   1</c></rc>
    <rc><c>Fe</c><c>   1</c></rc>
    <rc><c>Fe</c><c>   1</c></rc>
    <rc><c>Fe</c><c>   1</c></rc>
    <rc><c>Fe</c><c>   1</c></rc>
    <rc><c>Fe</c><c>   1</c></rc>
    <rc><c>Fe</c><c>   1</c></rc>
    <rc><c>Fe</c><c>   1</c></rc>
    <rc><c>Fe</c><c>   1</c></rc>
    <rc><c>Fe</c><c>   1</c></rc>
    <rc><c>Fe</c><c>   1</c></rc>
    <rc><c>Fe</c><c>   1</c></rc>
    <rc><c>Fe</c><c>   1</c></rc>
    <rc><c>Fe</c><c>   1</c></rc>
    <rc><c>Fe</c><c>   1</c></rc>
    <rc><c>Fe</c><c>   1</c></rc>
    <rc><c>Fe</c><c>   1</c></rc>
    <rc><c>Fe</c><c>   1</c></rc>
    <rc><c>Fe</c><c>   1</c></rc>
    <rc><c>Fe</c><c>   1</c></rc>
    <rc><c>Fe</c><c>   1</c></rc>
    <rc><c>Fe</c><c>   1</c></rc>
    <rc><c>Fe</c><c>   1</c></rc>
    <rc><c>Fe</c><c>   1</c></rc>
    <rc><c>Fe</c><c>   1</c></rc>
    <rc><c>Fe</c><c>   1</c></rc>
    <rc><c>Fe</c><c>   1</c></rc>
    <rc><c>Fe</c><c>   1</c></rc>
    <rc><c>Fe</c><c>   1</c></rc>
    <rc><c>Fe</c><c>   1</c></rc>
    <rc><c>Fe</c><c>   1</c></rc>
    <rc><c>Fe</c><c>   1</c></rc>
    <rc><c>Fe</c><c>   1</c></rc>
    <rc><c>Fe</c><c>   1</c></rc>
    <rc><c>Fe</c><c>   1</c></rc>
    <rc><c>Fe</c><c>   1</c></rc>
    <rc><c>Fe</c><c>   1</c></rc>
    <rc><c>Fe</c><c>   1</c></rc>
    <rc><c>Fe</c><c>   1</c></rc>
    <rc><c>Fe</c><c>   1</c></rc>
    <rc><c>Fe</c><c>   1</c></rc>
    <rc><c>Fe</c><c>   1</c></rc>
    <rc><c>Fe</c><c>   1</c></rc>
    <rc><c>Fe</c><c>   1</c></rc>
    <rc><c>Fe</c><c>   1</c></rc>
    <rc><c>Fe</c><c>   1</c></rc>
    <rc><c>Fe</c><c>   1</c></rc>
    <rc><c>Fe</c><c>   1</c></rc>
    <rc><c>Fe</c><c>   1</c></rc>
    <rc><c>Fe</c><c>   1</c></rc>
    <rc><c>Fe</c><c>   1</c></rc>
    <rc><c>Fe</c><c>   1</c></rc>
    <rc><c>Fe</c><c>   1</c></rc>
    <rc><c>Fe</c><c>   1</c></rc>
    <rc><c>Fe</c><c>   1</c></rc>
    <rc><c>Fe</c><c>   1</c></rc>
    <rc><c>Fe</c><c>   1</c></rc>
    <rc><c>Fe</c><c>   1</c></rc>
    <rc><c>Fe</c><c>   1</c></rc>
    <rc><c>Fe</c><c>   1</c></rc>
    <rc><c>Fe</c><c>   1</c></rc>
    <rc><c>Fe</c><c>   1</c></rc>
    <rc><c>Fe</c><c>   1</c></rc>
    <rc><c>Fe</c><c>   1</c></rc>
    <rc><c>Fe</c><c>   1</c></rc>
    <rc><c>Fe</c><c>   1</c></rc>
    <rc><c>Fe</c><c>   1</c></rc>
    <rc><c>Fe</c><c>   1</c></rc>
    <rc><c>Fe</c><c>   1</c></rc>
    <rc><c>Fe</c><c>   1</c></rc>
    <rc><c>Fe</c><c>   1</c></rc>
    <rc><c>Fe</c><c>   1</c></rc>
    <rc><c>Fe</c><c>   1</c></rc>
    <rc><c>Fe</c><c>   1</c></rc>
    <rc><c>Fe</c><c>   1</c></rc>
    <rc><c>Fe</c><c>   1</c></rc>
    <rc><c>Fe</c><c>   1</c></rc>
    <rc><c>Fe</c><c>   1</c></rc>
    <rc><c>Fe</c><c>   1</c></rc>
    <rc><c>Fe</c><c>   1</c></rc>
    <rc><c>Fe</c><c>   1</c></rc>
    <rc><c>Fe</c><c>   1</c></rc>
    <rc><c>Fe</c><c>   1</c></rc>
    <rc><c>Fe</c><c>   1</c></rc>
    <rc><c>Fe</c><c>   1</c></rc>
    <rc><c>Fe</c><c>   1</c></rc>
    <rc><c>Fe</c><c>   1</c></rc>
    <rc><c>Fe</c><c>   1</c></rc>
    <rc><c>Fe</c><c>   1</c></rc>
    <rc><c>Fe</c><c>   1</c></rc>
    <rc><c>Fe</c><c>   1</c></rc>
    <rc><c>Fe</c><c>   1</c></rc>
    <rc><c>Fe</c><c>   1</c></rc>
    <rc><c>Fe</c><c>   1</c></rc>
    <rc><c>Fe</c><c>   1</c></rc>
    <rc><c>Fe</c><c>   1</c></rc>
    <rc><c>Fe</c><c>   1</c></rc>
    <rc><c>Fe</c><c>   1</c></rc>
    <rc><c>Fe</c><c>   1</c></rc>
    <rc><c>Fe</c><c>   1</c></rc>
    <rc><c>Fe</c><c>   1</c></rc>
    <rc><c>Fe</c><c>   1</c></rc>
    <rc><c>Fe</c><c>   1</c></rc>
    <rc><c>Fe</c><c>   1</c></rc>
    <rc><c>Fe</c><c>   1</c></rc>
    <rc><c>Fe</c><c>   1</c></rc>
    <rc><c>Fe</c><c>   1</c></rc>
    <rc><c>Fe</c><c>   1</c></rc>
    <rc><c>Fe</c><c>   1</c></rc>
    <rc><c>Fe</c><c>   1</c></rc>
    <rc><c>Fe</c><c>   1</c></rc>
    <rc><c>Fe</c><c>   1</c></rc>
    <rc><c>Fe</c><c>   1</c></rc>
    <rc><c>Fe</c><c>   1</c></rc>
    <rc><c>Fe</c><c>   1</c></rc>
    <rc><c>Fe</c><c>   1</c></rc>
    <rc><c>Fe</c><c>   1</c></rc>
    <rc><c>Fe</c><c>   1</c></rc>
    <rc><c>Fe</c><c>   1</c></rc>
    <rc><c>Fe</c><c>   1</c></rc>
    <rc><c>Fe</c><c>   1</c></rc>
    <rc><c>Fe</c><c>   1</c></rc>
    <rc><c>Fe</c><c>   1</c></rc>
    <rc><c>Fe</c><c>   1</c></rc>
    <rc><c>Fe</c><c>   1</c></rc>
    <rc><c>Fe</c><c>   1</c></rc>
    <rc><c>Fe</c><c>   1</c></rc>
    <rc><c>Fe</c><c>   1</c></rc>
    <rc><c>Fe</c><c>   1</c></rc>
    <rc><c>Fe</c><c>   1</c></rc>
    <rc><c>Fe</c><c>   1</c></rc>
    <rc><c>Fe</c><c>   1</c></rc>
    <rc><c>Fe</c><c>   1</c></rc>
    <rc><c>Fe</c><c>   1</c></rc>
    <rc><c>Fe</c><c>   1</c></rc>
    <rc><c>Fe</c><c>   1</c></rc>
    <rc><c>Fe</c><c>   1</c></rc>
    <rc><c>Fe</c><c>   1</c></rc>
    <rc><c>Fe</c><c>   1</c></rc>
    <rc><c>Fe</c><c>   1</c></rc>
    <rc><c>Fe</c><c>   1</c></rc>
    <rc><c>Fe</c><c>   1</c></rc>
    <rc><c>Fe</c><c>   1</c></rc>
    <rc><c>Fe</c><c>   1</c></rc>
    <rc><c>Fe</c><c>   1</c></rc>
    <rc><c>Fe</c><c>   1</c></rc>
    <rc><c>Fe</c><c>   1</c></rc>
    <rc><c>Fe</c><c>   1</c></rc>
    <rc><c>Fe</c><c>   1</c></rc>
    <rc><c>Fe</c><c>   1</c></rc>
    <rc><c>Fe</c><c>   1</c></rc>
    <rc><c>Fe</c><c>   1</c></rc>
    <rc><c>Fe</c><c>   1</c></rc>
    <rc><c>Fe</c><c>   1</c></rc>
    <rc><c>Fe</c><c>   1</c></rc>
    <rc><c>Fe</c><c>   1</c></rc>
    <rc><c>Fe</c><c>   1</c></rc>
    <rc><c>Fe</c><c>   1</c></rc>
    <rc><c>Fe</c><c>   1</c></rc>
    <rc><c>Fe</c><c>   1</c></rc>
    <rc><c>Fe</c><c>   1</c></rc>
    <rc><c>Fe</c><c>   1</c></rc>
    <rc><c>Fe</c><c>   1</c></rc>
    <rc><c>Fe</c><c>   1</c></rc>
    <rc><c>Fe</c><c>   1</c></rc>
    <rc><c>Fe</c><c>   1</c></rc>
    <rc><c>Fe</c><c>   1</c></rc>
    <rc><c>Fe</c><c>   1</c></rc>
    <rc><c>Fe</c><c>   1</c></rc>
    <rc><c>Fe</c><c>   1</c></rc>
    <rc><c>Fe</c><c>   1</c></rc>
    <rc><c>Fe</c><c>   1</c></rc>
    <rc><c>Fe</c><c>   1</c></rc>
    <rc><c>Fe</c><c>   1</c></rc>
    <rc><c>Fe</c><c>   1</c></rc>
    <rc><c>Fe</c><c>   1</c></rc>
    <rc><c>Fe</c><c>   1</c></rc>
    <rc><c>Fe</c><c>   1</c></rc>
    <rc><c>Fe</c><c>   1</c></rc>
    <rc><c>Fe</c><c>   1</c></rc>
    <rc><c>Fe</c><c>   1</c></rc>
    <rc><c>Fe</c><c>   1</c></rc>
    <rc><c>Fe</c><c>   1</c></rc>
    <rc><c>Fe</c><c>   1</c></rc>
    <rc><c>Fe</c><c>   1</c></rc>
    <rc><c>Fe</c><c>   1</c></rc>
    <rc><c>Fe</c><c>   1</c></rc>
    <rc><c>Fe</c><c>   1</c></rc>
    <rc><c>Fe</c><c>   1</c></rc>
    <rc><c>Fe</c><c>   1</c></rc>
    <rc><c>Fe</c><c>   1</c></rc>
    <rc><c>Fe</c><c>   1</c></rc>
    <rc><c>Fe</c><c>   1</c></rc>
    <rc><c>Fe</c><c>   1</c></rc>
    <rc><c>Fe</c><c>   1</c></rc>
    <rc><c>Fe</c><c>   1</c></rc>
    <rc><c>Fe</c><c>   1</c></rc>
    <rc><c>Fe</c><c>   1</c></rc>
    <rc><c>Fe</c><c>   1</c></rc>
    <rc><c>Fe</c><c>   1</c></rc>
    <rc><c>Fe</c><c>   1</c></rc>
    <rc><c>Fe</c><c>   1</c></rc>
    <rc><c>Fe</c><c>   1</c></rc>
    <rc><c>Fe</c><c>   1</c></rc>
    <rc><c>Fe</c><c>   1</c></rc>
    <rc><c>Fe</c><c>   1</c></rc>
    <rc><c>Fe</c><c>   1</c></rc>
    <rc><c>Fe</c><c>   1</c></rc>
    <rc><c>Fe</c><c>   1</c></rc>
    <rc><c>Fe</c><c>   1</c></rc>
    <rc><c>Fe</c><c>   1</c></rc>
    <rc><c>Fe</c><c>   1</c></rc>
    <rc><c>Fe</c><c>   1</c></rc>
    <rc><c>Fe</c><c>   1</c></rc>
    <rc><c>Fe</c><c>   1</c></rc>
    <rc><c>Fe</c><c>   1</c></rc>
    <rc><c>Fe</c><c>   1</c></rc>
    <rc><c>Fe</c><c>   1</c></rc>
    <rc><c>Fe</c><c>   1</c></rc>
    <rc><c>Fe</c><c>   1</c></rc>
    <rc><c>Fe</c><c>   1</c></rc>
    <rc><c>Fe</c><c>   1</c></rc>
    <rc><c>Fe</c><c>   1</c></rc>
    <rc><c>Fe</c><c>   1</c></rc>
    <rc><c>Fe</c><c>   1</c></rc>
    <rc><c>Fe</c><c>   1</c></rc>
    <rc><c>Fe</c><c>   1</c></rc>
    <rc><c>Fe</c><c>   1</c></rc>
    <rc><c>Fe</c><c>   1</c></rc>
    <rc><c>Fe</c><c>   1</c></rc>
    <rc><c>Fe</c><c>   1</c></rc>
    <rc><c>Mn</c><c>   2</c></rc>
    <rc><c>Mn</c><c>   2</c></rc>
    <rc><c>Mn</c><c>   2</c></rc>
    <rc><c>Mn</c><c>   2</c></rc>
    <rc><c>Mn</c><c>   2</c></rc>
    <rc><c>Mn</c><c>   2</c></rc>
    <rc><c>Mn</c><c>   2</c></rc>
    <rc><c>Mn</c><c>   2</c></rc>
    <rc><c>Mn</c><c>   2</c></rc>
    <rc><c>Mn</c><c>   2</c></rc>
    <rc><c>Mn</c><c>   2</c></rc>
    <rc><c>Mn</c><c>   2</c></rc>
    <rc><c>Mn</c><c>   2</c></rc>
    <rc><c>Mn</c><c>   2</c></rc>
   </set>
  </array>
  <array name="atomtypes" >
   <dimension dim="1">type</dimension>
   <field type="int">atomspertype</field>
   <field type="string">element</field>
   <field>mass</field>
   <field>valence</field>
   <field type="string">pseudopotential</field>
   <set>
    <rc><c> 274</c><c>Fe</c><c>     55.84700000</c><c>      8.00000000</c><c>  PAW_PBE Fe_GW 31Mar2010               </c></rc>
    <rc><c>  14</c><c>Mn</c><c>     54.93800000</c><c>      7.00000000</c><c>  PAW_PBE Mn_GW 31Mar2010               </c></rc>
   </set>
  </array>
 </atominfo>
 <structure name="initialpos" >
  <crystal>
   <varray name="basis" >
    <v>       9.72667804       0.00000000       0.00000000 </v>
    <v>       0.00000000       8.42355028       0.00000000 </v>
    <v>       0.00000000       0.00000000      45.00000000 </v>
   </varray>
   <i name="volume">   3686.99226691 </i>
   <varray name="rec_basis" >
    <v>       0.10281002       0.00000000       0.00000000 </v>
    <v>       0.00000000       0.11871479       0.00000000 </v>
    <v>       0.00000000       0.00000000       0.02222222 </v>
   </varray>
  </crystal>
  <varray name="positions" >
   <v>       0.06262957       0.02895190       0.12403230 </v>
   <v>       0.31623551       0.87474209       0.65506701 </v>
   <v>       0.18377829       0.12300577       0.78860092 </v>
   <v>       0.44153377       0.28762442       0.38912511 </v>
   <v>       0.31808077       0.71372982       0.83320355 </v>
   <v>       0.81810985       0.21501401       0.83358899 </v>
   <v>       0.19155533       0.96322764       0.83357988 </v>
   <v>       0.56214724       0.20710109       0.56550976 </v>
   <v>       0.06550187       0.04036088       0.74417043 </v>
   <v>       0.81161153       0.87150432       0.52137081 </v>
   <v>       0.19050604       0.29110312       0.74435432 </v>
   <v>       0.93358501       0.45241225       0.34492122 </v>
   <v>       0.94094349       0.28650090       0.38891713 </v>
   <v>       0.81269818       0.04077581       0.87578449 </v>
   <v>       0.18375789       0.78808430       0.61090135 </v>
   <v>       0.56644266       0.03778369       0.38905553 </v>
   <v>       0.94244089       0.96479346       0.83389212 </v>
   <v>       0.31338455       0.54059250       0.87607012 </v>
   <v>       0.69009998       0.29146898       0.74424072 </v>
   <v>       0.18322213       0.61236195       0.16647488 </v>
   <v>       0.81222449       0.20570244       0.47868084 </v>
   <v>       0.80896960       0.53842983       0.61105381 </v>
   <v>       0.31190051       0.87061941       0.43446715 </v>
   <v>       0.80893533       0.03705041       0.25576891 </v>
   <v>       0.68313315       0.95176409       0.34477629 </v>
   <v>       0.93137081       0.11428417       0.16681819 </v>
   <v>       0.06185821       0.87154023       0.52141380 </v>
   <v>       0.55881602       0.53721234       0.25576940 </v>
   <v>       0.68474920       0.79785756       0.87592229 </v>
   <v>       0.55602617       0.36476870       0.16663472 </v>
   <v>       0.43954160       0.79209504       0.74442979 </v>
   <v>       0.81139871       0.70650322       0.56547903 </v>
   <v>       0.55917068       0.87359757       0.78863362 </v>
   <v>       0.68676166       0.12185338       0.52141454 </v>
   <v>       0.81613909       0.37485940       0.65498367 </v>
   <v>       0.94217665       0.46422882       0.83375094 </v>
   <v>       0.06059590       0.20755515       0.69969763 </v>
   <v>       0.43549511       0.95771062       0.69972442 </v>
   <v>       0.31686347       0.21269320       0.83348951 </v>
   <v>       0.44118434       0.62491259       0.65499798 </v>
   <v>       0.30899196       0.53836837       0.61095957 </v>
   <v>       0.93639270       0.45643896       0.56559523 </v>
   <v>       0.69004062       0.79153702       0.74431371 </v>
   <v>       0.93431777       0.78810816       0.12444131 </v>
   <v>       0.69135189       0.78776071       0.38905600 </v>
   <v>       0.94016142       0.79093357       0.74447725 </v>
   <v>       0.05867295       0.20343659       0.34485771 </v>
   <v>       0.68370978       0.45234054       0.34498414 </v>
   <v>       0.43377810       0.12256251       0.78898039 </v>
   <v>       0.06573202       0.20619772       0.21115807 </v>
   <v>       0.05526710       0.36586847       0.16647066 </v>
   <v>       0.93378983       0.78734697       0.25554596 </v>
   <v>       0.56063454       0.20724222       0.69979061 </v>
   <v>       0.68506118       0.95716612       0.69976058 </v>
   <v>       0.80894536       0.87371898       0.78837635 </v>
   <v>       0.43681920       0.95703370       0.56540403 </v>
   <v>       0.80900191       0.37466521       0.78851240 </v>
   <v>       0.68448005       0.28801155       0.25598808 </v>
   <v>       0.18717791       0.45699056       0.56555086 </v>
   <v>       0.05636792       0.86576923       0.16651375 </v>
   <v>       0.18415409       0.28852403       0.61107956 </v>
   <v>       0.06213931       0.20684486       0.56538104 </v>
   <v>       0.31062121       0.20732966       0.69982225 </v>
   <v>       0.56250730       0.54074019       0.87597989 </v>
   <v>       0.06176703       0.70651395       0.56553739 </v>
   <v>       0.68311832       0.62254690       0.78857549 </v>
   <v>       0.31589115       0.53843294       0.38892104 </v>
   <v>       0.18692620       0.62144546       0.52144497 </v>
   <v>       0.56245028       0.87057210       0.43443227 </v>
   <v>       0.43655789       0.45696229       0.56554454 </v>
   <v>       0.43972060       0.29171044       0.74429184 </v>
   <v>       0.82066174       0.87336794       0.30016759 </v>
   <v>       0.80857452       0.70248393       0.34490003 </v>
   <v>       0.44224836       0.46277820       0.83339228 </v>
   <v>       0.68742962       0.95589701       0.47867335 </v>
   <v>       0.68490257       0.45768222       0.69976640 </v>
   <v>       0.56208698       0.87212382       0.52145088 </v>
   <v>       0.56612846       0.37442244       0.65496579 </v>
   <v>       0.81604830       0.87485973       0.65508126 </v>
   <v>       0.81151938       0.37130522       0.43420473 </v>
   <v>       0.80868074       0.53743195       0.25581434 </v>
   <v>       0.69200847       0.46217483       0.83332652 </v>
   <v>       0.18612752       0.78868718       0.12399028 </v>
   <v>       0.69135241       0.28743655       0.38897421 </v>
   <v>       0.31612862       0.37424697       0.65497296 </v>
   <v>       0.30886685       0.20258894       0.34473970 </v>
   <v>       0.81568111       0.54026333       0.74419813 </v>
   <v>       0.69162544       0.96242885       0.83351922 </v>
   <v>       0.56608878       0.87438347       0.65498223 </v>
   <v>       0.31118175       0.70706154       0.56549097 </v>
   <v>       0.31233538       0.53022196       0.12403669 </v>
   <v>       0.68997655       0.95323602       0.21146529 </v>
   <v>       0.31146239       0.20640231       0.56551644 </v>
   <v>       0.18743145       0.95577148       0.47870963 </v>
   <v>       0.68726028       0.95686200       0.56553314 </v>
   <v>       0.43392817       0.78814155       0.61095827 </v>
   <v>       0.68264123       0.61203473       0.16658802 </v>
   <v>       0.32012954       0.87370646       0.30020390 </v>
   <v>       0.31224999       0.70591074       0.47865166 </v>
   <v>       0.93375319       0.28791645       0.61091276 </v>
   <v>       0.44609119       0.62343426       0.30015265 </v>
   <v>       0.80689362       0.86369891       0.16681717 </v>
   <v>       0.56625449       0.20330676       0.21130501 </v>
   <v>       0.93284954       0.61228666       0.16662592 </v>
   <v>       0.43728433       0.95589764       0.47865258 </v>
   <v>       0.55910291       0.37323972       0.78874003 </v>
   <v>       0.06152554       0.37240215       0.52140161 </v>
   <v>       0.30607996       0.36532502       0.16648879 </v>
   <v>       0.69567200       0.12339484       0.30014551 </v>
   <v>       0.44281367       0.96319906       0.83332514 </v>
   <v>       0.18507233       0.28700992       0.12409129 </v>
   <v>       0.18402585       0.28807792       0.25589588 </v>
   <v>       0.31235396       0.37037131       0.43444157 </v>
   <v>       0.56235126       0.03198930       0.12425169 </v>
   <v>       0.43394803       0.28825196       0.61096714 </v>
   <v>       0.18360545       0.45266161       0.34493477 </v>
   <v>       0.43528240       0.28625232       0.12418904 </v>
   <v>       0.68388605       0.78742111       0.25579982 </v>
   <v>       0.43677536       0.12169501       0.52147849 </v>
   <v>       0.18855288       0.29668421       0.87612380 </v>
   <v>       0.19125284       0.12505997       0.65517609 </v>
   <v>       0.94113869       0.12497942       0.65500650 </v>
   <v>       0.81635027       0.53751965       0.38894016 </v>
   <v>       0.06665997       0.03807725       0.38911266 </v>
   <v>       0.18324154       0.11216355       0.16651055 </v>
   <v>       0.05880190       0.53823121       0.61100616 </v>
   <v>       0.93410563       0.28799505       0.25586593 </v>
   <v>       0.55892081       0.53847740       0.61102063 </v>
   <v>       0.93671272       0.95732323       0.56551649 </v>
   <v>       0.69450450       0.62453540       0.30003822 </v>
   <v>       0.93723606       0.62035679       0.43447717 </v>
   <v>       0.93333343       0.62439182       0.78837011 </v>
   <v>       0.56037923       0.70709416       0.69973745 </v>
   <v>       0.06609538       0.71670452       0.83390817 </v>
   <v>       0.94513742       0.12300765       0.30003671 </v>
   <v>       0.93370196       0.78761655       0.61092770 </v>
   <v>       0.43396431       0.78816087       0.25583243 </v>
   <v>       0.30908739       0.37377914       0.78872847 </v>
   <v>       0.43939629       0.45271036       0.21125157 </v>
   <v>       0.18679405       0.12188531       0.52138896 </v>
   <v>       0.81028512       0.70723705       0.69973691 </v>
   <v>       0.05877565       0.03797514       0.61089393 </v>
   <v>       0.56610934       0.21349492       0.83326003 </v>
   <v>       0.31178746       0.87183549       0.52140707 </v>
   <v>       0.68636931       0.28657609       0.12398701 </v>
   <v>       0.19022190       0.95433704       0.21170661 </v>
   <v>       0.68395411       0.28856515       0.61101367 </v>
   <v>       0.30905826       0.03845214       0.61106239 </v>
   <v>       0.93412886       0.12449107       0.78860701 </v>
   <v>       0.43649071       0.79767863       0.87622044 </v>
   <v>       0.81540406       0.04079011       0.74423628 </v>
   <v>       0.93535515       0.45792120       0.69965354 </v>
   <v>       0.19108247       0.62509590       0.65505741 </v>
   <v>       0.31037680       0.70682285       0.69977100 </v>
   <v>       0.93396546       0.28682791       0.12389516 </v>
   <v>       0.43750222       0.45602650       0.47855421 </v>
   <v>       0.06223555       0.70570173       0.47852457 </v>
   <v>       0.93688312       0.11960726       0.43461248 </v>
   <v>       0.44432202       0.12365412       0.30024489 </v>
   <v>       0.18735048       0.12047341       0.43422201 </v>
   <v>       0.56284162       0.04055032       0.87603631 </v>
   <v>       0.18685224       0.95702366       0.56553747 </v>
   <v>       0.68455611       0.78765974       0.12456554 </v>
   <v>       0.55890600       0.70191613       0.34491616 </v>
   <v>       0.31623289       0.03688280       0.38897659 </v>
   <v>       0.68276751       0.11380357       0.16693545 </v>
   <v>       0.81580020       0.20356731       0.21115436 </v>
   <v>       0.06025352       0.53707814       0.25555584 </v>
   <v>       0.56249919       0.70569373       0.47867827 </v>
   <v>       0.43502919       0.78775289       0.12421465 </v>
   <v>       0.56953922       0.37235040       0.30007703 </v>
   <v>       0.43364798       0.95256892       0.34490913 </v>
   <v>       0.18522350       0.95749722       0.69975582 </v>
   <v>       0.43206177       0.61331375       0.16637503 </v>
   <v>       0.94038939       0.45312239       0.21168831 </v>
   <v>       0.06180993       0.52979051       0.12401641 </v>
   <v>       0.81191441       0.37190304       0.52139547 </v>
   <v>       0.94410403       0.62432700       0.30005122 </v>
   <v>       0.30936533       0.03733309       0.25552763 </v>
   <v>       0.68386361       0.78805064       0.61092528 </v>
   <v>       0.19161734       0.46323748       0.83351663 </v>
   <v>       0.43319016       0.11221550       0.16654324 </v>
   <v>       0.31172098       0.37193255       0.52136896 </v>
   <v>       0.43330053       0.62270431       0.78893021 </v>
   <v>       0.05862026       0.03734170       0.25564790 </v>
   <v>       0.56222825       0.70704400       0.56557399 </v>
   <v>       0.93981347       0.29053863       0.74448741 </v>
   <v>       0.68237516       0.12273925       0.78856198 </v>
   <v>       0.56537842       0.70365076       0.21144376 </v>
   <v>       0.94125340       0.78793862       0.38887958 </v>
   <v>       0.68548942       0.29897171       0.87601832 </v>
   <v>       0.55631565       0.86399595       0.16650311 </v>
   <v>       0.43558374       0.45760506       0.69975879 </v>
   <v>       0.93387893       0.95142789       0.34479329 </v>
   <v>       0.68659636       0.62151263       0.52131812 </v>
   <v>       0.06626409       0.87469371       0.65496607 </v>
   <v>       0.05917455       0.87390109       0.78847462 </v>
   <v>       0.06622650       0.37472132       0.65491452 </v>
   <v>       0.68720813       0.45579406       0.47865866 </v>
   <v>       0.18454355       0.78735051       0.25549405 </v>
   <v>       0.43694764       0.12084028       0.43432877 </v>
   <v>       0.81359626       0.03116452       0.12404832 </v>
   <v>       0.93666246       0.62191388       0.52141977 </v>
   <v>       0.44128281       0.12462247       0.65492261 </v>
   <v>       0.81282409       0.52927450       0.12414178 </v>
   <v>       0.43362028       0.45239549       0.34501171 </v>
   <v>       0.80864270       0.20205828       0.34491844 </v>
   <v>       0.30895418       0.70223719       0.34480546 </v>
   <v>       0.69116874       0.12471886       0.65502761 </v>
   <v>       0.57052051       0.87309505       0.30029810 </v>
   <v>       0.06538399       0.54089005       0.74433597 </v>
   <v>       0.94095417       0.95341336       0.21123920 </v>
   <v>       0.81733483       0.70405053       0.21134887 </v>
   <v>       0.06947161       0.87316756       0.30039827 </v>
   <v>       0.19497200       0.12327270       0.30024569 </v>
   <v>       0.05849528       0.70243700       0.34492373 </v>
   <v>       0.80905095       0.03837365       0.61099425 </v>
   <v>       0.06306935       0.37158954       0.43428628 </v>
   <v>       0.55869312       0.20263194       0.34483430 </v>
   <v>       0.82076207       0.37289550       0.30010282 </v>
   <v>       0.55996628       0.03731676       0.25549459 </v>
   <v>       0.56647250       0.53761101       0.38906929 </v>
   <v>       0.06255692       0.20592174       0.47866274 </v>
   <v>       0.31034126       0.87306075       0.78843154 </v>
   <v>       0.93526829       0.95809919       0.69966617 </v>
   <v>       0.06948347       0.37415791       0.30014128 </v>
   <v>       0.69112087       0.62478549       0.65517323 </v>
   <v>       0.68661135       0.45683726       0.56538948 </v>
   <v>       0.44024888       0.95419933       0.21192363 </v>
   <v>       0.31240634       0.20577708       0.47873550 </v>
   <v>       0.81227964       0.54024413       0.87584584 </v>
   <v>       0.68773852       0.62048174       0.43446811 </v>
   <v>       0.81075982       0.20738580       0.69980737 </v>
   <v>       0.81255408       0.70566207       0.47864806 </v>
   <v>       0.81156433       0.87101308       0.43423071 </v>
   <v>       0.93744280       0.95535199       0.47869270 </v>
   <v>       0.56221507       0.20574087       0.47865736 </v>
   <v>       0.18711725       0.61999570       0.43442899 </v>
   <v>       0.31503800       0.04179743       0.74408547 </v>
   <v>       0.94130790       0.62518410       0.65491421 </v>
   <v>       0.56620971       0.71350145       0.83331544 </v>
   <v>       0.32055166       0.37288564       0.30018983 </v>
   <v>       0.31522561       0.54150185       0.74425875 </v>
   <v>       0.18731017       0.45562883       0.47868653 </v>
   <v>       0.31436905       0.04104120       0.87588839 </v>
   <v>       0.18528394       0.45798900       0.69967317 </v>
   <v>       0.56172116       0.37194967       0.52138321 </v>
   <v>       0.19112585       0.28770169       0.38890351 </v>
   <v>       0.31539423       0.20413765       0.21127951 </v>
   <v>       0.06779120       0.70421945       0.21150663 </v>
   <v>       0.56212259       0.37084706       0.43443024 </v>
   <v>       0.43661170       0.62208247       0.52134585 </v>
   <v>       0.81700933       0.71511055       0.83337111 </v>
   <v>       0.05902929       0.37491761       0.78846951 </v>
   <v>       0.43649696       0.29818237       0.87632959 </v>
   <v>       0.31145822       0.02991396       0.12402665 </v>
   <v>       0.68790956       0.12022846       0.43425427 </v>
   <v>       0.18365149       0.95244164       0.34490646 </v>
   <v>       0.06675915       0.21502209       0.83401942 </v>
   <v>       0.55922986       0.03859562       0.61111345 </v>
   <v>       0.68915185       0.45272547       0.21171339 </v>
   <v>       0.18962014       0.79161022       0.74439870 </v>
   <v>       0.19423640       0.62422365       0.30019632 </v>
   <v>       0.44145687       0.78781887       0.38905013 </v>
   <v>       0.43381270       0.28814298       0.25583343 </v>
   <v>       0.06333148       0.54070672       0.87588094 </v>
   <v>       0.56538263       0.04138575       0.74423831 </v>
   <v>       0.18787816       0.79713763       0.87605554 </v>
   <v>       0.93724785       0.45562333       0.47864673 </v>
   <v>       0.56510790       0.54136449       0.74409398 </v>
   <v>       0.81127281       0.20710867       0.56547653 </v>
   <v>       0.18452382       0.62259020       0.78849887 </v>
   <v>       0.06735688       0.53848622       0.38913351 </v>
   <v>       0.06069477       0.70740592       0.69967808 </v>
   <v>       0.30827006       0.53736543       0.25582600 </v>
   <v>       0.31578597       0.70515520       0.21219588 </v>
   <v>       0.30507839       0.86512600       0.16582757 </v>
   <v>       0.43668372       0.62111784       0.43443347 </v>
   <v>       0.81768475       0.03903698       0.38920370 </v>
   <v>       0.93494764       0.29787902       0.87556200 </v>
   <v>       0.93706723       0.79539797       0.87553078 </v>
   <v>       0.06535365       0.03894046       0.87574972 </v>
   <v>       0.56339005       0.52956794       0.12461785 </v>
   <v>       0.80527546       0.36611720       0.16606765 </v>
   <v>       0.06203776       0.87105930       0.43442580 </v>
   <v>       0.93652459       0.12169852       0.52153351 </v>
   <v>       0.19317997       0.78740319       0.38888296 </v>
   <v>       0.18952270       0.45267717       0.21160632 </v>
  </varray>
 </structure>
 <calculation>
  <scstep>
   <time name="dav">   54.65   54.66</time>
   <time name="total">   54.79   54.85</time>
   <energy>
    <i name="alphaZ">  16293.21160653 </i>
    <i name="ewald"> 728804.52496223 </i>
    <i name="hartreedc">-919318.91544182 </i>
    <i name="XCdc">  -6512.65010898 </i>
    <i name="pawpsdc"> 162273.92519768 </i>
    <i name="pawaedc">-159623.75899949 </i>
    <i name="eentropy">     -1.07059985 </i>
    <i name="bandstr">  38488.32202411 </i>
    <i name="atom"> 168671.76673737 </i>
    <i name="e_fr_energy">  29075.35537778 </i>
    <i name="e_wo_entrp">  29076.42597763 </i>
    <i name="e_0_energy">  29075.89067771 </i>
   </energy>
  </scstep>
  <scstep>
   <time name="dav">   54.17   54.22</time>
   <time name="total">   54.17   54.23</time>
   <energy>
    <i name="e_fr_energy">   1187.73698896 </i>
    <i name="e_wo_entrp">   1189.24093760 </i>
    <i name="e_0_energy">   1188.48896328 </i>
   </energy>
  </scstep>
  <scstep>
   <time name="dav">   71.07   71.12</time>
   <time name="total">   71.08   71.13</time>
   <energy>
    <i name="e_fr_energy">  -1949.91567934 </i>
    <i name="e_wo_entrp">  -1946.36316302 </i>
    <i name="e_0_energy">  -1948.13942118 </i>
   </energy>
  </scstep>
  <scstep>
   <time name="dav">   89.26   89.30</time>
   <time name="total">   89.27   89.31</time>
   <energy>
    <i name="e_fr_energy">  -2619.46525979 </i>
    <i name="e_wo_entrp">  -2615.93154277 </i>
    <i name="e_0_energy">  -2617.69840128 </i>
   </energy>
  </scstep>
  <scstep>
   <time name="dav">   85.18   85.24</time>
   <time name="total">   87.24   87.30</time>
   <energy>
    <i name="e_fr_energy">  -2738.64919240 </i>
    <i name="e_wo_entrp">  -2734.98660291 </i>
    <i name="e_0_energy">  -2736.81789766 </i>
   </energy>
  </scstep>
  <scstep>
   <time name="diag">    8.23    8.23</time>
   <time name="diis">   36.98   36.98</time>
   <time name="orth">    2.24    2.24</time>
   <time name="total">   49.71   49.75</time>
   <energy>
    <i name="e_fr_energy">  -5557.45850283 </i>
    <i name="e_wo_entrp">  -5554.88843753 </i>
    <i name="e_0_energy">  -5556.17347018 </i>
   </energy>
  </scstep>
  <scstep>
   <time name="diag">    8.33    8.33</time>
   <time name="diis">   22.71   22.71</time>
   <time name="orth">    2.24    2.24</time>
   <time name="total">   35.50   35.54</time>
[...]
       <r>     5.8569     0.0000  2772.0000 </r>
       <r>     5.8996     0.0000  2772.0000 </r>
       <r>     5.9423     0.0000  2772.0000 </r>
       <r>     5.9851     0.0000  2772.0000 </r>
       <r>     6.0278     0.0000  2772.0000 </r>
       <r>     6.0706     0.0000  2772.0000 </r>
       <r>     6.1133     0.0000  2772.0000 </r>
       <r>     6.1561     0.0000  2772.0000 </r>
       <r>     6.1988     0.0000  2772.0000 </r>
       <r>     6.2416     0.0000  2772.0000 </r>
       <r>     6.2843     0.0000  2772.0000 </r>
       <r>     6.3271     0.0000  2772.0000 </r>
       <r>     6.3698     0.0000  2772.0000 </r>
       <r>     6.4126     0.0000  2772.0000 </r>
       <r>     6.4553     0.0000  2772.0000 </r>
       <r>     6.4981     0.0000  2772.0000 </r>
       <r>     6.5408     0.0000  2772.0000 </r>
       <r>     6.5835     0.0000  2772.0000 </r>
       <r>     6.6263     0.0000  2772.0000 </r>
       <r>     6.6690     0.0000  2772.0000 </r>
       <r>     6.7118     0.0000  2772.0000 </r>
       <r>     6.7545     0.0000  2772.0000 </r>
       <r>     6.7973     0.0000  2772.0000 </r>
      </set>
     </set>
    </array>
   </total>
  </dos>
 </calculation>
 <structure name="finalpos" >
  <crystal>
   <varray name="basis" >
    <v>       9.72667804       0.00000000       0.00000000 </v>
    <v>       0.00000000       8.42355028       0.00000000 </v>
    <v>       0.00000000       0.00000000      45.00000000 </v>
   </varray>
   <i name="volume">   3686.99226691 </i>
   <varray name="rec_basis" >
    <v>       0.10281002       0.00000000       0.00000000 </v>
    <v>       0.00000000       0.11871479       0.00000000 </v>
    <v>       0.00000000       0.00000000       0.02222222 </v>
   </varray>
  </crystal>
  <varray name="positions" >
   <v>       0.06237281       0.02921503       0.12403371 </v>
   <v>       0.31614481       0.87474167       0.65497789 </v>
   <v>       0.18365997       0.12299909       0.78861477 </v>
   <v>       0.44160214       0.28762908       0.38893828 </v>
   <v>       0.31783618       0.71368744       0.83323350 </v>
   <v>       0.81796843       0.21482694       0.83356676 </v>
   <v>       0.19121759       0.96316386       0.83358923 </v>
   <v>       0.56238449       0.20687919       0.56594682 </v>
   <v>       0.06528554       0.04018543       0.74412944 </v>
   <v>       0.81225104       0.87216293       0.52187285 </v>
   <v>       0.19025448       0.29115986       0.74429440 </v>
   <v>       0.93379734       0.45253177       0.34510333 </v>
   <v>       0.94067919       0.28632541       0.38869674 </v>
   <v>       0.81263548       0.04123129       0.87571295 </v>
   <v>       0.18376778       0.78828028       0.61091184 </v>
   <v>       0.56656271       0.03773904       0.38889570 </v>
   <v>       0.94242964       0.96467029       0.83381004 </v>
   <v>       0.31387250       0.54150218       0.87602187 </v>
   <v>       0.69016654       0.29157171       0.74416717 </v>
   <v>       0.18320680       0.61262959       0.16647881 </v>
   <v>       0.81313789       0.20495413       0.47867115 </v>
   <v>       0.80916620       0.53848298       0.61105013 </v>
   <v>       0.31102422       0.87082370       0.43418813 </v>
   <v>       0.80935345       0.03722614       0.25566217 </v>
   <v>       0.68358262       0.95207908       0.34496928 </v>
   <v>       0.93150188       0.11473503       0.16684729 </v>
   <v>       0.06182690       0.87204976       0.52169457 </v>
   <v>       0.55890330       0.53700068       0.25569173 </v>
   <v>       0.68460969       0.79727383       0.87587490 </v>
   <v>       0.55642916       0.36490619       0.16658495 </v>
   <v>       0.43953193       0.79202260       0.74436606 </v>
   <v>       0.81154638       0.70670517       0.56581836 </v>
   <v>       0.55940040       0.87336482       0.78864012 </v>
   <v>       0.68763708       0.12174240       0.52192341 </v>
   <v>       0.81590691       0.37479471       0.65489013 </v>
   <v>       0.94194523       0.46429540       0.83368782 </v>
   <v>       0.06068563       0.20744922       0.69959135 </v>
   <v>       0.43554645       0.95775243       0.69957724 </v>
   <v>       0.31668447       0.21246068       0.83346350 </v>
   <v>       0.44108404       0.62489456       0.65491071 </v>
   <v>       0.30901982       0.53837662       0.61101045 </v>
   <v>       0.93653628       0.45625693       0.56592036 </v>
   <v>       0.69014001       0.79138963       0.74425631 </v>
   <v>       0.93438532       0.78794318       0.12440205 </v>
   <v>       0.69159353       0.78788628       0.38886738 </v>
   <v>       0.94001623       0.79080361       0.74443843 </v>
   <v>       0.05876565       0.20336267       0.34496271 </v>
   <v>       0.68389139       0.45228469       0.34517366 </v>
   <v>       0.43381360       0.12249813       0.78896082 </v>
   <v>       0.06542288       0.20572071       0.21115583 </v>
   <v>       0.05512327       0.36570151       0.16645065 </v>
   <v>       0.93412651       0.78773460       0.25542740 </v>
   <v>       0.56066596       0.20720562       0.69964665 </v>
   <v>       0.68514615       0.95715194       0.69964329 </v>
   <v>       0.80926860       0.87357448       0.78839596 </v>
   <v>       0.43666687       0.95700111       0.56582303 </v>
   <v>       0.80927341       0.37485035       0.78851552 </v>
   <v>       0.68469446       0.28760190       0.25589180 </v>
   <v>       0.18681634       0.45682673       0.56584561 </v>
   <v>       0.05658933       0.86599873       0.16653132 </v>
   <v>       0.18415619       0.28848516       0.61106510 </v>
   <v>       0.06184071       0.20652180       0.56566396 </v>
   <v>       0.31075587       0.20723648       0.69966927 </v>
   <v>       0.56276062       0.54125829       0.87597926 </v>
   <v>       0.06172287       0.70664938       0.56586364 </v>
   <v>       0.68350180       0.62280627       0.78858130 </v>
   <v>       0.31547891       0.53881382       0.38876983 </v>
   <v>       0.18679065       0.62158378       0.52178891 </v>
   <v>       0.56231006       0.87111824       0.43402689 </v>
   <v>       0.43653802       0.45690694       0.56592016 </v>
   <v>       0.43968015       0.29178472       0.74419000 </v>
   <v>       0.82056543       0.87368488       0.30017841 </v>
   <v>       0.80885804       0.70253434       0.34513942 </v>
   <v>       0.44234801       0.46299349       0.83343703 </v>
   <v>       0.68825473       0.95584410       0.47856018 </v>
   <v>       0.68502615       0.45765306       0.69966399 </v>
   <v>       0.56229721       0.87195451       0.52196953 </v>
   <v>       0.56598545       0.37439266       0.65489048 </v>
   <v>       0.81586583       0.87482214       0.65497962 </v>
   <v>       0.81188977       0.37091402       0.43383079 </v>
   <v>       0.80904344       0.53725113       0.25569931 </v>
   <v>       0.69193963       0.46231688       0.83340956 </v>
   <v>       0.18584250       0.78848415       0.12400801 </v>
   <v>       0.69136726       0.28740572       0.38870477 </v>
   <v>       0.31601897       0.37417514       0.65489397 </v>
   <v>       0.30900119       0.20273246       0.34483606 </v>
   <v>       0.81563472       0.54051816       0.74415776 </v>
   <v>       0.69173025       0.96224419       0.83351928 </v>
   <v>       0.56594058       0.87439415       0.65489737 </v>
   <v>       0.31097188       0.70717347       0.56577817 </v>
   <v>       0.31210480       0.53039737       0.12407441 </v>
   <v>       0.69007058       0.95351776       0.21145380 </v>
   <v>       0.31105609       0.20623904       0.56589847 </v>
   <v>       0.18678084       0.95570941       0.47854933 </v>
   <v>       0.68760041       0.95693860       0.56591722 </v>
   <v>       0.43409936       0.78826534       0.61101214 </v>
   <v>       0.68275731       0.61178415       0.16655730 </v>
   <v>       0.31966371       0.87360909       0.30022537 </v>
   <v>       0.31131921       0.70592840       0.47854898 </v>
   <v>       0.93391786       0.28795882       0.61087890 </v>
   <v>       0.44549198       0.62305647       0.30023059 </v>
   <v>       0.80716701       0.86394685       0.16686002 </v>
   <v>       0.56631053       0.20302880       0.21130965 </v>
   <v>       0.93290275       0.61220638       0.16662451 </v>
   <v>       0.43643392       0.95552240       0.47843056 </v>
   <v>       0.55934471       0.37351929       0.78872847 </v>
   <v>       0.06160890       0.37173745       0.52180362 </v>
   <v>       0.30610831       0.36517592       0.16647763 </v>
   <v>       0.69536614       0.12335652       0.30018073 </v>
   <v>       0.44267472       0.96283553       0.83338026 </v>
   <v>       0.18480526       0.28677275       0.12412335 </v>
   <v>       0.18399337       0.28777883       0.25581310 </v>
   <v>       0.31192039       0.37018092       0.43422095 </v>
   <v>       0.56236535       0.03208135       0.12424899 </v>
   <v>       0.43408283       0.28820216       0.61099713 </v>
   <v>       0.18376042       0.45290196       0.34503781 </v>
   <v>       0.43524216       0.28614215       0.12421796 </v>
   <v>       0.68425909       0.78778330       0.25568235 </v>
   <v>       0.43638069       0.12179085       0.52193093 </v>
   <v>       0.18851735       0.29626873       0.87606806 </v>
   <v>       0.19119281       0.12495679       0.65507659 </v>
   <v>       0.94096787       0.12484094       0.65489715 </v>
   <v>       0.81640472       0.53778382       0.38871393 </v>
   <v>       0.06640905       0.03755080       0.38902626 </v>
   <v>       0.18314295       0.11229936       0.16654807 </v>
   <v>       0.05884819       0.53829828       0.61099720 </v>
   <v>       0.93442842       0.28751927       0.25575748 </v>
   <v>       0.55912335       0.53852426       0.61105588 </v>
   <v>       0.93676172       0.95761197       0.56580102 </v>
   <v>       0.69427334       0.62430832       0.30011741 </v>
   <v>       0.93809611       0.62124044       0.43409981 </v>
   <v>       0.93353876       0.62459335       0.78836782 </v>
   <v>       0.56049922       0.70718502       0.69962605 </v>
   <v>       0.06593484       0.71652053       0.83380981 </v>
   <v>       0.94502659       0.12296725       0.30002718 </v>
   <v>       0.93384018       0.78778933       0.61091214 </v>
   <v>       0.43409491       0.78830815       0.25574029 </v>
   <v>       0.30900775       0.37396901       0.78872228 </v>
   <v>       0.43922607       0.45261330       0.21124289 </v>
   <v>       0.18590605       0.12174458       0.52173398 </v>
   <v>       0.81035731       0.70730197       0.69967072 </v>
   <v>       0.05889566       0.03808643       0.61085211 </v>
   <v>       0.56630744       0.21334207       0.83329797 </v>
   <v>       0.31099846       0.87155423       0.52178527 </v>
   <v>       0.68662851       0.28660765       0.12406238 </v>
   <v>       0.18990400       0.95450530       0.21167120 </v>
   <v>       0.68415440       0.28850691       0.61101476 </v>
   <v>       0.30906169       0.03850560       0.61106781 </v>
   <v>       0.93432177       0.12448057       0.78863443 </v>
   <v>       0.43665895       0.79721551       0.87620784 </v>
   <v>       0.81539374       0.04064275       0.74416655 </v>
   <v>       0.93535722       0.45793253       0.69957600 </v>
   <v>       0.19096947       0.62505996       0.65494941 </v>
   <v>       0.31047481       0.70699326       0.69965501 </v>
   <v>       0.93394173       0.28656477       0.12395306 </v>
   <v>       0.43668731       0.45610030       0.47845890 </v>
   <v>       0.06294900       0.70628303       0.47836430 </v>
   <v>       0.93749489       0.11895009       0.43436771 </v>
   <v>       0.44431826       0.12386188       0.30025776 </v>
   <v>       0.18735657       0.11996587       0.43401547 </v>
   <v>       0.56283715       0.04071222       0.87598825 </v>
   <v>       0.18653633       0.95721343       0.56587400 </v>
   <v>       0.68480394       0.78732689       0.12455394 </v>
   <v>       0.55906294       0.70186586       0.34512150 </v>
   <v>       0.31583474       0.03653534       0.38894903 </v>
   <v>       0.68315987       0.11425288       0.16698663 </v>
   <v>       0.81589861       0.20337808       0.21112158 </v>
   <v>       0.06036870       0.53705586       0.25549943 </v>
   <v>       0.56196400       0.70551205       0.47865679 </v>
   <v>       0.43497987       0.78743812       0.12423216 </v>
   <v>       0.56924873       0.37192018       0.30014990 </v>
   <v>       0.43386832       0.95262153       0.34505904 </v>
   <v>       0.18535183       0.95752172       0.69963476 </v>
   <v>       0.43216891       0.61343025       0.16636205 </v>
   <v>       0.94025683       0.45278904       0.21161715 </v>
   <v>       0.06164772       0.52986761       0.12399809 </v>
   <v>       0.81249950       0.37139686       0.52193093 </v>
   <v>       0.94428017       0.62428166       0.30008851 </v>
   <v>       0.30931474       0.03749450       0.25543365 </v>
   <v>       0.68404729       0.78822587       0.61094351 </v>
   <v>       0.19143624       0.46350718       0.83345939 </v>
   <v>       0.43307916       0.11235115       0.16659543 </v>
   <v>       0.31113143       0.37219210       0.52172657 </v>
   <v>       0.43344205       0.62294029       0.78891618 </v>
   <v>       0.05863294       0.03738255       0.25554803 </v>
   <v>       0.56234571       0.70698502       0.56595034 </v>
   <v>       0.93968952       0.29068372       0.74443449 </v>
   <v>       0.68286522       0.12277577       0.78856700 </v>
   <v>       0.56537862       0.70378185       0.21139381 </v>
   <v>       0.94127772       0.78801611       0.38879994 </v>
   <v>       0.68554949       0.29899107       0.87599862 </v>
   <v>       0.55629619       0.86407600       0.16655546 </v>
   <v>       0.43570609       0.45747612       0.69962017 </v>
   <v>       0.93414926       0.95164295       0.34499880 </v>
   <v>       0.68680348       0.62182984       0.52185732 </v>
   <v>       0.06611742       0.87467981       0.65487334 </v>
   <v>       0.05922328       0.87379708       0.78849013 </v>
   <v>       0.06612060       0.37467995       0.65480724 </v>
   <v>       0.68706811       0.45559021       0.47860841 </v>
   <v>       0.18436133       0.78749834       0.25541995 </v>
   <v>       0.43626603       0.12073835       0.43400124 </v>
   <v>       0.81383553       0.03129367       0.12403659 </v>
   <v>       0.93704023       0.62210545       0.52189217 </v>
   <v>       0.44113688       0.12453104       0.65486345 </v>
   <v>       0.81288237       0.52930378       0.12417118 </v>
   <v>       0.43387796       0.45251891       0.34512311 </v>
   <v>       0.80881241       0.20200160       0.34507960 </v>
   <v>       0.30891059       0.70223310       0.34499427 </v>
   <v>       0.69096405       0.12465527       0.65493602 </v>
   <v>       0.57033525       0.87337180       0.30030291 </v>
   <v>       0.06508323       0.54110330       0.74430431 </v>
   <v>       0.94087579       0.95369739       0.21125220 </v>
   <v>       0.81737379       0.70427876       0.21132608 </v>
   <v>       0.06925561       0.87332312       0.30038875 </v>
   <v>       0.19453314       0.12338568       0.30023781 </v>
   <v>       0.05887283       0.70265361       0.34513425 </v>
   <v>       0.80918671       0.03839306       0.61096734 </v>
   <v>       0.06372249       0.37138670       0.43405359 </v>
   <v>       0.55911787       0.20279291       0.34494256 </v>
   <v>       0.82059466       0.37246604       0.30013049 </v>
   <v>       0.56015025       0.03755644       0.25541972 </v>
   <v>       0.56651437       0.53766182       0.38879124 </v>
   <v>       0.06263651       0.20507639       0.47864726 </v>
   <v>       0.31015565       0.87297790       0.78842440 </v>
   <v>       0.93531406       0.95796391       0.69957539 </v>
   <v>       0.06941064       0.37388497       0.30017302 </v>
   <v>       0.69092109       0.62478466       0.65507710 </v>
   <v>       0.68685274       0.45675888       0.56578706 </v>
   <v>       0.44011115       0.95437402       0.21187328 </v>
   <v>       0.31146303       0.20583279       0.47850576 </v>
   <v>       0.81184783       0.54054498       0.87579254 </v>
   <v>       0.68810788       0.62104625       0.43403594 </v>
   <v>       0.81073381       0.20733324       0.69969534 </v>
   <v>       0.81333033       0.70638028       0.47856886 </v>
   <v>       0.81239522       0.87130857       0.43387348 </v>
   <v>       0.93820723       0.95557028       0.47864292 </v>
   <v>       0.56216372       0.20574744       0.47848390 </v>
   <v>       0.18692284       0.62060869       0.43419132 </v>
   <v>       0.31483306       0.04161243       0.74400738 </v>
   <v>       0.94112861       0.62514885       0.65481912 </v>
   <v>       0.56623935       0.71324566       0.83334476 </v>
   <v>       0.32021852       0.37281027       0.30024097 </v>
   <v>       0.31501193       0.54166185       0.74422136 </v>
   <v>       0.18744503       0.45601742       0.47856871 </v>
   <v>       0.31449626       0.04084890       0.87586765 </v>
   <v>       0.18536362       0.45790005       0.69956723 </v>
   <v>       0.56165158       0.37218956       0.52185726 </v>
   <v>       0.19089857       0.28754121       0.38880932 </v>
   <v>       0.31516356       0.20381390       0.21126784 </v>
   <v>       0.06751952       0.70434373       0.21147539 </v>
   <v>       0.56157906       0.37035919       0.43408863 </v>
   <v>       0.43614885       0.62218399       0.52172464 </v>
   <v>       0.81687491       0.71493649       0.83329464 </v>
   <v>       0.05907984       0.37503593       0.78848017 </v>
   <v>       0.43705458       0.29802853       0.87629333 </v>
   <v>       0.31118199       0.03016097       0.12404682 </v>
   <v>       0.68792147       0.11994609       0.43390559 </v>
   <v>       0.18358253       0.95225895       0.34510459 </v>
   <v>       0.06633984       0.21452849       0.83389493 </v>
   <v>       0.55945879       0.03858248       0.61112271 </v>
   <v>       0.68934207       0.45239237       0.21161239 </v>
   <v>       0.18937211       0.79152613       0.74436470 </v>
   <v>       0.19409246       0.62394394       0.30025687 </v>
   <v>       0.44111157       0.78779585       0.38888327 </v>
   <v>       0.43389713       0.28786811       0.25577012 </v>
   <v>       0.06323813       0.54142465       0.87581239 </v>
   <v>       0.56541201       0.04126052       0.74413959 </v>
   <v>       0.18806996       0.79706336       0.87601564 </v>
   <v>       0.93806435       0.45546816       0.47861365 </v>
   <v>       0.56522329       0.54156238       0.74403736 </v>
   <v>       0.81168045       0.20672279       0.56579875 </v>
   <v>       0.18437962       0.62291866       0.78849145 </v>
   <v>       0.06722291       0.53907538       0.38900491 </v>
   <v>       0.06068123       0.70751583       0.69960793 </v>
   <v>       0.30815946       0.53729166       0.25573251 </v>
   <v>       0.31544479       0.70519420       0.21212535 </v>
   <v>       0.30508898       0.86526650       0.16587419 </v>
   <v>       0.43551387       0.62118542       0.43407343 </v>
   <v>       0.81772565       0.03874473       0.38898832 </v>
   <v>       0.93456254       0.29751984       0.87556105 </v>
   <v>       0.93708395       0.79510427       0.87551706 </v>
   <v>       0.06535587       0.03910176       0.87570169 </v>
   <v>       0.56346517       0.52974309       0.12464726 </v>
   <v>       0.80563289       0.36591113       0.16606343 </v>
   <v>       0.06242668       0.87108691       0.43414341 </v>
   <v>       0.93703111       0.12160813       0.52199966 </v>
   <v>       0.19277181       0.78737488       0.38879088 </v>
   <v>       0.18930674       0.45261767       0.21157700 </v>
  </varray>
 </structure>
</modeling>
