 288 288   0   0
  0.1280206E+02  0.9726678E-09  0.8423550E-09  0.4500000E-08  0.2500000E-15
  1.000000000000000E-004
  CAR 
 unknown system                          
      6.74972516     -6.04589656  301      4.28790220      1.00000000
     -6.046  0.0000E+00  0.0000E+00
     -6.003  0.0000E+00  0.0000E+00
     -5.961  0.0000E+00  0.0000E+00
     -5.918  0.0000E+00  0.0000E+00
     -5.875  0.0000E+00  0.0000E+00
     -5.833  0.0000E+00  0.0000E+00
     -5.790  0.0000E+00  0.0000E+00
     -5.747  0.0000E+00  0.0000E+00
     -5.705  0.0000E+00  0.0000E+00
     -5.662  0.0000E+00  0.0000E+00
     -5.619  0.0000E+00  0.0000E+00
     -5.577  0.0000E+00  0.0000E+00
     -5.534  0.0000E+00  0.0000E+00
     -5.491  0.0000E+00  0.0000E+00
     -5.449  0.0000E+00  0.0000E+00
     -5.406  0.1627E-15  0.6939E-17
     -5.363  0.3579E-14  0.1596E-15
     -5.321  0.7715E-13  0.3450E-14
     -5.278  0.1407E-11  0.6345E-13
     -5.236  0.2188E-10  0.9967E-12
     -5.193  0.2901E-09  0.1337E-10
     -5.150  0.3280E-08  0.1533E-09
     -5.108  0.3164E-07  0.1503E-08
     -5.065  0.2605E-06  0.1261E-07
     -5.022  0.1832E-05  0.9076E-07
     -4.980  0.1102E-04  0.5608E-06
     -4.937  0.5679E-04  0.2983E-05
     -4.894  0.2513E-03  0.1370E-04
     -4.852  0.9577E-03  0.5455E-04
     -4.809  0.3159E-02  0.1893E-03
     -4.766  0.9078E-02  0.5765E-03
     -4.724  0.2291E-01  0.1553E-02
     -4.681  0.5126E-01  0.3740E-02
     -4.638  0.1029E+00  0.8128E-02
     -4.596  0.1873E+00  0.1612E-01
     -4.553  0.3126E+00  0.2945E-01
     -4.510  0.4820E+00  0.5001E-01
     -4.468  0.6910E+00  0.7948E-01
     -4.425  0.9258E+00  0.1190E+00
     -4.382  0.1164E+01  0.1686E+00
     -4.340  0.1381E+01  0.2275E+00
     -4.297  0.1554E+01  0.2938E+00
     -4.255  0.1675E+01  0.3652E+00
     -4.212  0.1749E+01  0.4399E+00
     -4.169  0.1803E+01  0.5168E+00
     -4.127  0.1872E+01  0.5966E+00
     -4.084  0.1990E+01  0.6815E+00
     -4.041  0.2174E+01  0.7742E+00
     -3.999  0.2416E+01  0.8773E+00
     -3.956  0.2681E+01  0.9916E+00
     -3.913  0.2921E+01  0.1116E+01
     -3.871  0.3088E+01  0.1248E+01
     -3.828  0.3158E+01  0.1383E+01
     -3.785  0.3138E+01  0.1516E+01
     -3.743  0.3070E+01  0.1647E+01
     -3.700  0.3013E+01  0.1776E+01
     -3.657  0.3020E+01  0.1905E+01
     -3.615  0.3121E+01  0.2038E+01
     -3.572  0.3308E+01  0.2179E+01
     -3.529  0.3540E+01  0.2330E+01
     -3.487  0.3766E+01  0.2491E+01
     -3.444  0.3943E+01  0.2659E+01
     -3.401  0.4053E+01  0.2832E+01
     -3.359  0.4105E+01  0.3007E+01
     -3.316  0.4122E+01  0.3182E+01
     -3.274  0.4132E+01  0.3359E+01
     -3.231  0.4162E+01  0.3536E+01
     -3.188  0.4230E+01  0.3717E+01
     -3.146  0.4345E+01  0.3902E+01
     -3.103  0.4507E+01  0.4094E+01
     -3.060  0.4704E+01  0.4295E+01
     -3.018  0.4914E+01  0.4504E+01
     -2.975  0.5108E+01  0.4722E+01
     -2.932  0.5255E+01  0.4946E+01
     -2.890  0.5343E+01  0.5174E+01
     -2.847  0.5381E+01  0.5404E+01
     -2.804  0.5401E+01  0.5634E+01
     -2.762  0.5444E+01  0.5866E+01
     -2.719  0.5527E+01  0.6102E+01
     -2.676  0.5621E+01  0.6342E+01
     -2.634  0.5669E+01  0.6584E+01
     -2.591  0.5628E+01  0.6824E+01
     -2.548  0.5522E+01  0.7059E+01
     -2.506  0.5446E+01  0.7292E+01
     -2.463  0.5526E+01  0.7527E+01
     -2.420  0.5838E+01  0.7776E+01
     -2.378  0.6357E+01  0.8047E+01
     -2.335  0.6946E+01  0.8344E+01
     -2.293  0.7414E+01  0.8660E+01
     -2.250  0.7603E+01  0.8984E+01
     -2.207  0.7481E+01  0.9303E+01
     -2.165  0.7163E+01  0.9609E+01
     -2.122  0.6861E+01  0.9901E+01
     -2.079  0.6775E+01  0.1019E+02
     -2.037  0.6997E+01  0.1049E+02
     -1.994  0.7474E+01  0.1081E+02
     -1.951  0.8048E+01  0.1115E+02
     -1.909  0.8534E+01  0.1151E+02
     -1.866  0.8805E+01  0.1189E+02
     -1.823  0.8849E+01  0.1227E+02
     -1.781  0.8763E+01  0.1264E+02
     -1.738  0.8688E+01  0.1301E+02
     -1.695  0.8720E+01  0.1338E+02
     -1.653  0.8868E+01  0.1376E+02
     -1.610  0.9085E+01  0.1415E+02
     -1.567  0.9325E+01  0.1455E+02
     -1.525  0.9577E+01  0.1496E+02
     -1.482  0.9849E+01  0.1538E+02
     -1.439  0.1013E+02  0.1581E+02
     -1.397  0.1036E+02  0.1625E+02
     -1.354  0.1051E+02  0.1670E+02
     -1.312  0.1062E+02  0.1715E+02
     -1.269  0.1086E+02  0.1761E+02
     -1.226  0.1142E+02  0.1810E+02
     -1.184  0.1239E+02  0.1863E+02
     -1.141  0.1361E+02  0.1921E+02
     -1.098  0.1472E+02  0.1984E+02
     -1.056  0.1539E+02  0.2050E+02
     -1.013  0.1555E+02  0.2116E+02
     -0.970  0.1543E+02  0.2182E+02
     -0.928  0.1547E+02  0.2248E+02
     -0.885  0.1605E+02  0.2316E+02
     -0.842  0.1729E+02  0.2390E+02
     -0.800  0.1910E+02  0.2471E+02
     -0.757  0.2137E+02  0.2563E+02
     -0.714  0.2415E+02  0.2666E+02
     -0.672  0.2766E+02  0.2783E+02
     -0.629  0.3200E+02  0.2920E+02
     -0.586  0.3691E+02  0.3077E+02
     -0.544  0.4176E+02  0.3255E+02
     -0.501  0.4588E+02  0.3451E+02
     -0.458  0.4895E+02  0.3660E+02
     -0.416  0.5109E+02  0.3878E+02
     -0.373  0.5272E+02  0.4103E+02
     -0.331  0.5412E+02  0.4334E+02
     -0.288  0.5535E+02  0.4570E+02
     -0.245  0.5623E+02  0.4809E+02
     -0.203  0.5664E+02  0.5051E+02
     -0.160  0.5661E+02  0.5292E+02
     -0.117  0.5640E+02  0.5533E+02
     -0.075  0.5634E+02  0.5773E+02
     -0.032  0.5675E+02  0.6015E+02
      0.011  0.5782E+02  0.6262E+02
      0.053  0.5959E+02  0.6516E+02
      0.096  0.6202E+02  0.6781E+02
      0.139  0.6502E+02  0.7058E+02
      0.181  0.6844E+02  0.7350E+02
      0.224  0.7210E+02  0.7657E+02
      0.267  0.7573E+02  0.7980E+02
      0.309  0.7902E+02  0.8317E+02
      0.352  0.8175E+02  0.8666E+02
      0.395  0.8388E+02  0.9024E+02
      0.437  0.8550E+02  0.9388E+02
      0.480  0.8668E+02  0.9758E+02
      0.523  0.8738E+02  0.1013E+03
      0.565  0.8754E+02  0.1050E+03
      0.608  0.8715E+02  0.1088E+03
      0.650  0.8632E+02  0.1124E+03
      0.693  0.8511E+02  0.1161E+03
      0.736  0.8354E+02  0.1196E+03
      0.778  0.8163E+02  0.1231E+03
      0.821  0.7954E+02  0.1265E+03
      0.864  0.7762E+02  0.1298E+03
      0.906  0.7624E+02  0.1331E+03
      0.949  0.7559E+02  0.1363E+03
      0.992  0.7559E+02  0.1395E+03
      1.034  0.7585E+02  0.1428E+03
      1.077  0.7597E+02  0.1460E+03
      1.120  0.7568E+02  0.1492E+03
      1.162  0.7497E+02  0.1524E+03
      1.205  0.7407E+02  0.1556E+03
      1.248  0.7326E+02  0.1587E+03
      1.290  0.7271E+02  0.1618E+03
      1.333  0.7237E+02  0.1649E+03
      1.376  0.7196E+02  0.1680E+03
      1.418  0.7114E+02  0.1710E+03
      1.461  0.6976E+02  0.1740E+03
      1.504  0.6810E+02  0.1769E+03
      1.546  0.6678E+02  0.1797E+03
      1.589  0.6645E+02  0.1826E+03
      1.631  0.6742E+02  0.1854E+03
      1.674  0.6956E+02  0.1884E+03
      1.717  0.7243E+02  0.1915E+03
      1.759  0.7554E+02  0.1947E+03
      1.802  0.7859E+02  0.1981E+03
      1.845  0.8142E+02  0.2015E+03
      1.887  0.8395E+02  0.2051E+03
      1.930  0.8613E+02  0.2088E+03
      1.973  0.8798E+02  0.2125E+03
      2.015  0.8962E+02  0.2164E+03
      2.058  0.9112E+02  0.2203E+03
      2.101  0.9248E+02  0.2242E+03
      2.143  0.9368E+02  0.2282E+03
      2.186  0.9480E+02  0.2322E+03
      2.229  0.9606E+02  0.2363E+03
      2.271  0.9785E+02  0.2405E+03
      2.314  0.1005E+03  0.2448E+03
      2.357  0.1042E+03  0.2492E+03
      2.399  0.1086E+03  0.2539E+03
      2.442  0.1131E+03  0.2587E+03
      2.485  0.1173E+03  0.2637E+03
      2.527  0.1206E+03  0.2688E+03
      2.570  0.1230E+03  0.2741E+03
      2.612  0.1249E+03  0.2794E+03
      2.655  0.1265E+03  0.2848E+03
      2.698  0.1282E+03  0.2903E+03
      2.740  0.1302E+03  0.2958E+03
      2.783  0.1328E+03  0.3015E+03
      2.826  0.1360E+03  0.3073E+03
      2.868  0.1393E+03  0.3132E+03
      2.911  0.1418E+03  0.3193E+03
      2.954  0.1425E+03  0.3254E+03
      2.996  0.1405E+03  0.3314E+03
      3.039  0.1354E+03  0.3371E+03
      3.082  0.1278E+03  0.3426E+03
      3.124  0.1188E+03  0.3476E+03
      3.167  0.1096E+03  0.3523E+03
      3.210  0.1014E+03  0.3566E+03
      3.252  0.9485E+02  0.3607E+03
      3.295  0.9021E+02  0.3645E+03
      3.338  0.8731E+02  0.3683E+03
      3.380  0.8576E+02  0.3719E+03
      3.423  0.8512E+02  0.3755E+03
      3.466  0.8493E+02  0.3792E+03
      3.508  0.8476E+02  0.3828E+03
      3.551  0.8431E+02  0.3864E+03
      3.593  0.8369E+02  0.3900E+03
      3.636  0.8338E+02  0.3935E+03
      3.679  0.8403E+02  0.3971E+03
      3.721  0.8609E+02  0.4008E+03
      3.764  0.8947E+02  0.4046E+03
      3.807  0.9363E+02  0.4086E+03
      3.849  0.9785E+02  0.4127E+03
      3.892  0.1016E+03  0.4171E+03
      3.935  0.1046E+03  0.4215E+03
      3.977  0.1068E+03  0.4261E+03
      4.020  0.1083E+03  0.4307E+03
      4.063  0.1089E+03  0.4354E+03
      4.105  0.1088E+03  0.4400E+03
      4.148  0.1081E+03  0.4446E+03
      4.191  0.1071E+03  0.4492E+03
      4.233  0.1058E+03  0.4537E+03
      4.276  0.1045E+03  0.4582E+03
      4.319  0.1033E+03  0.4626E+03
      4.361  0.1023E+03  0.4669E+03
      4.404  0.1015E+03  0.4713E+03
      4.447  0.1008E+03  0.4756E+03
      4.489  0.1000E+03  0.4798E+03
      4.532  0.9900E+02  0.4840E+03
      4.574  0.9786E+02  0.4882E+03
      4.617  0.9696E+02  0.4924E+03
      4.660  0.9673E+02  0.4965E+03
      4.702  0.9744E+02  0.5006E+03
      4.745  0.9913E+02  0.5049E+03
      4.788  0.1016E+03  0.5092E+03
      4.830  0.1043E+03  0.5136E+03
      4.873  0.1068E+03  0.5182E+03
      4.916  0.1087E+03  0.5228E+03
      4.958  0.1094E+03  0.5275E+03
      5.001  0.1087E+03  0.5321E+03
      5.044  0.1058E+03  0.5367E+03
      5.086  0.9965E+02  0.5409E+03
      5.129  0.8942E+02  0.5447E+03
      5.172  0.7514E+02  0.5479E+03
      5.214  0.5818E+02  0.5504E+03
      5.257  0.4094E+02  0.5521E+03
      5.300  0.2590E+02  0.5533E+03
      5.342  0.1461E+02  0.5539E+03
      5.385  0.7293E+01  0.5542E+03
      5.428  0.3206E+01  0.5543E+03
      5.470  0.1236E+01  0.5544E+03
      5.513  0.4162E+00  0.5544E+03
      5.555  0.1221E+00  0.5544E+03
      5.598  0.3113E-01  0.5544E+03
      5.641  0.6882E-02  0.5544E+03
      5.683  0.1317E-02  0.5544E+03
      5.726  0.2179E-03  0.5544E+03
      5.769  0.3112E-04  0.5544E+03
      5.811  0.3830E-05  0.5544E+03
      5.854  0.4060E-06  0.5544E+03
      5.897  0.3703E-07  0.5544E+03
      5.939  0.2903E-08  0.5544E+03
      5.982  0.1955E-09  0.5544E+03
      6.025  0.1129E-10  0.5544E+03
      6.067  0.5596E-12  0.5544E+03
      6.110  0.2265E-13  0.5544E+03
      6.153  0.4555E-15  0.5544E+03
      6.195  0.0000E+00  0.5544E+03
      6.238  0.0000E+00  0.5544E+03
      6.281  0.0000E+00  0.5544E+03
      6.323  0.0000E+00  0.5544E+03
      6.366  0.0000E+00  0.5544E+03
      6.409  0.0000E+00  0.5544E+03
      6.451  0.0000E+00  0.5544E+03
      6.494  0.0000E+00  0.5544E+03
      6.536  0.0000E+00  0.5544E+03
      6.579  0.0000E+00  0.5544E+03
      6.622  0.0000E+00  0.5544E+03
      6.664  0.0000E+00  0.5544E+03
      6.707  0.0000E+00  0.5544E+03
      6.750  0.0000E+00  0.5544E+03
