unknown system                          
           1
     9.726678    0.000000    0.000000
     0.000000    8.423550    0.000000
     0.000000    0.000000   45.000000
   Fe   Mn
 281   7
Direct configuration=     1
   0.06110248  0.70977247  0.21224148
   0.31294033  0.71704257  0.87553034
   0.68691812  0.95886480  0.61064561
   0.43836064  0.45848920  0.61072119
   0.43774911  0.29415871  0.25642746
   0.06281369  0.38242548  0.83278670
   0.31188576  0.88153999  0.83274489
   0.43834399  0.62332608  0.69976291
   0.06227716  0.20659108  0.74391356
   0.18621803  0.45936040  0.21209389
   0.56319544  0.20811199  0.47741338
   0.06237894  0.87518136  0.56658911
   0.56296940  0.21738849  0.87524226
   0.81272946  0.54164009  0.12502238
   0.43646318  0.95925113  0.21205005
   0.56230868  0.37427308  0.56649328
   0.81264934  0.04174989  0.38907215
   0.68769584  0.79086021  0.52218891
   0.43828176  0.45783532  0.47750260
   0.43573510  0.95681313  0.74358612
   0.43748459  0.62403941  0.56653529
   0.06248956  0.54151996  0.12501980
   0.31249179  0.04181392  0.12503957
   0.68719390  0.95508701  0.34497403
   0.68753589  0.78683962  0.12488780
   0.06157099  0.37519469  0.30059632
   0.68769634  0.45798296  0.87522984
   0.43631060  0.45919448  0.21200419
   0.81240926  0.37541209  0.43346526
   0.81443149  0.37503950  0.69939818
   0.56054850  0.54403487  0.65502771
   0.93742588  0.12455451  0.43339084
   0.56291915  0.54375163  0.25637147
   0.68754747  0.45504116  0.34496937
   0.18860270  0.61778895  0.16736849
   0.18829016  0.79196420  0.78782420
   0.43899867  0.12425165  0.69929272
   0.93680510  0.62524687  0.30040944
   0.31319505  0.21592572  0.87546698
   0.31208642  0.87474019  0.56648497
   0.81269072  0.21633294  0.87536034
   0.81071275  0.54532281  0.65500432
   0.56243683  0.54141887  0.12497664
   0.56372728  0.86741069  0.16726788
   0.18790434  0.29380303  0.25634984
   0.81213764  0.87498065  0.43351814
   0.56350349  0.37538162  0.69967420
   0.06240071  0.04193080  0.12494696
   0.31098884  0.54472576  0.65508492
   0.56276198  0.20514053  0.34502360
   0.18834733  0.95881540  0.61063434
   0.31156436  0.37539966  0.30043354
   0.43581625  0.79461678  0.65497274
   0.68665990  0.45575347  0.74360072
   0.06377293  0.36726402  0.16721018
   0.68911213  0.62417622  0.69954247
   0.31248694  0.54167164  0.38916317
   0.06465532  0.71639445  0.87529910
   0.93707336  0.63317905  0.83329051
   0.31242357  0.53978051  0.78798666
   0.31126243  0.20964552  0.21217526
   0.06298011  0.70871564  0.47772424
   0.56112095  0.20979257  0.21216175
   0.31179246  0.20559538  0.74353010
   0.06490356  0.37414586  0.69965714
   0.18744311  0.63099756  0.83234138
   0.06319693  0.03956922  0.78794621
   0.43756173  0.12450716  0.56657507
   0.93569812  0.29470098  0.65490622
   0.81140357  0.20968210  0.21221819
   0.93642024  0.95893766  0.21197757
   0.93747060  0.62396281  0.56647582
   0.81172367  0.38299798  0.83297568
   0.18938713  0.62503105  0.69939294
   0.56507834  0.87459152  0.69972028
   0.68606015  0.29446074  0.65500310
   0.31359735  0.20856183  0.61071344
   0.43759119  0.45619502  0.74349326
   0.43797984  0.79171069  0.38922471
   0.68684556  0.95583905  0.74362620
   0.81116428  0.70977607  0.21225569
   0.81373074  0.70970597  0.61070747
   0.43753602  0.78658460  0.12490250
   0.31149172  0.70547838  0.74332935
   0.31418656  0.03869558  0.78787824
   0.81266666  0.54174893  0.38918368
   0.68734166  0.29107316  0.52230977
   0.68751188  0.79188961  0.78769865
   0.18769546  0.79395508  0.25638851
   0.68858798  0.11755509  0.16736834
   0.68815001  0.95859477  0.47756103
   0.93700612  0.95523104  0.34493246
   0.81247283  0.04087977  0.52221360
   0.68762182  0.62468053  0.43343654
   0.43728914  0.45517436  0.34494405
   0.81110430  0.20532764  0.74379372
   0.43606744  0.95917320  0.87541723
   0.56264252  0.87508111  0.56659833
   0.81224903  0.04184929  0.12499085
   0.43674145  0.62520640  0.30042068
   0.56191855  0.20605230  0.74447191
   0.68752378  0.45821870  0.61094557
   0.56113880  0.38021970  0.83233422
   0.81187709  0.37547821  0.30033931
   0.18754487  0.29165663  0.38910696
   0.81396422  0.53980304  0.78802736
   0.18724860  0.79094124  0.52223054
   0.31192526  0.87519920  0.30051589
   0.18641772  0.95879606  0.21198553
   0.18572747  0.45559196  0.74356104
   0.43723143  0.29100623  0.52224811
   0.06260445  0.70519066  0.34500205
   0.18587194  0.79506605  0.65505860
   0.43850155  0.79188087  0.78786248
   0.68721675  0.12485412  0.43340340
   0.93731632  0.79100454  0.52225112
   0.68855591  0.61788940  0.16729092
   0.81261127  0.70514090  0.34490791
   0.93583429  0.45551169  0.74349304
   0.18743890  0.45508386  0.34493433
   0.56270004  0.54016621  0.78799197
   0.56382607  0.36755592  0.16725218
   0.56282796  0.70495654  0.34491167
   0.56158891  0.37507556  0.30055308
   0.18822142  0.45902753  0.87539713
   0.18876327  0.11792940  0.16739770
   0.43761630  0.29166153  0.78770303
   0.68773923  0.79389825  0.25636504
   0.93576647  0.13288594  0.83290493
   0.43831816  0.95832955  0.47758062
   0.56011657  0.71552153  0.87517881
   0.18818472  0.45863073  0.47760995
   0.93732047  0.28669133  0.12486454
   0.31263580  0.04178698  0.38915480
   0.06043037  0.04475746  0.65507499
   0.56224188  0.37547495  0.43344710
   0.93743797  0.62467705  0.43339767
   0.31381601  0.36763844  0.16726666
   0.93726328  0.12456836  0.69897090
   0.56040720  0.04488166  0.65506179
   0.56252834  0.54119757  0.52227355
   0.18690537  0.12493853  0.30037758
   0.43887084  0.11769629  0.16736006
   0.68678959  0.62509837  0.30040123
   0.93694214  0.12507826  0.30035919
   0.81233602  0.37468730  0.56633222
   0.06165685  0.87533767  0.30056673
   0.18748697  0.62393879  0.56642561
   0.93872180  0.79199922  0.78774006
   0.31186781  0.38164003  0.83292945
   0.93728396  0.45855831  0.87520934
   0.43703355  0.63144372  0.83261842
   0.06292329  0.20523587  0.34499519
   0.18807245  0.95861607  0.87540577
   0.93748375  0.78659961  0.12491283
   0.68783550  0.79163591  0.38921172
   0.93596330  0.79445675  0.65511830
   0.93885781  0.11764263  0.16730027
   0.43590386  0.29500347  0.65509469
   0.06141872  0.20979266  0.21214400
   0.68633733  0.95895739  0.21215952
   0.56321898  0.70886043  0.61072020
   0.81431177  0.87464087  0.69938200
   0.93920035  0.62366869  0.69962185
   0.18862405  0.12371604  0.69953147
   0.93798964  0.45863137  0.47756571
   0.81296314  0.20824187  0.61095454
   0.18752282  0.62472545  0.43345060
   0.43692196  0.12528547  0.30034612
   0.68687502  0.12503060  0.30035485
   0.56254835  0.54184782  0.38910741
   0.81251985  0.20523336  0.34493570
   0.43737963  0.45854583  0.87528568
   0.56265295  0.88126915  0.83283730
   0.31347794  0.20801300  0.47748374
   0.18799382  0.95903318  0.47769933
   0.06148610  0.88020871  0.83269662
   0.06247639  0.54101369  0.52230500
   0.93786700  0.95900820  0.47775986
   0.06338777  0.70865495  0.61064600
   0.56237701  0.04091522  0.52230746
   0.68841736  0.29224223  0.78769380
   0.81381390  0.36742529  0.16724496
   0.43709518  0.12518524  0.43340171
   0.06290970  0.20881614  0.47765839
   0.31110855  0.04500899  0.65516340
   0.43745530  0.79058304  0.52216875
   0.18671288  0.13356534  0.83283720
   0.18716909  0.28648884  0.12489102
   0.93749381  0.45531798  0.34499271
   0.31362546  0.86752715  0.16728917
   0.31112801  0.70983873  0.21216418
   0.93858957  0.61767540  0.16730108
   0.18742310  0.45810080  0.61092911
   0.06403831  0.87486844  0.69928365
   0.06094000  0.54483846  0.65485893
   0.31225891  0.54170536  0.12501389
   0.93797160  0.79134059  0.38925109
   0.93834696  0.29229787  0.78769818
   0.18574359  0.29444432  0.65508516
   0.93751167  0.95806870  0.61080091
   0.81208148  0.70559520  0.74346358
   0.68783472  0.29419260  0.25639982
   0.06093199  0.70543218  0.74372979
   0.68634705  0.45921059  0.21205115
   0.81322261  0.20800489  0.47740965
   0.56304888  0.70856025  0.47774767
   0.06363740  0.86759315  0.16731312
   0.93716671  0.29099327  0.52227030
   0.68560827  0.79422391  0.65507297
   0.06245064  0.87482891  0.43338291
   0.06513323  0.21478316  0.87525288
   0.81062001  0.04539385  0.65520576
   0.56246613  0.04183083  0.12503706
   0.31232836  0.37550206  0.43351029
   0.31276443  0.37475985  0.56630188
   0.31320795  0.70848003  0.47763524
   0.06244014  0.04085741  0.52233089
   0.31427736  0.87499123  0.69933786
   0.06274147  0.54373621  0.25640493
   0.68733858  0.13276217  0.83296353
   0.81276122  0.04369092  0.25644300
   0.18719876  0.12439110  0.43342204
   0.68893938  0.12379600  0.69938390
   0.18747795  0.29088118  0.52223459
   0.43764392  0.79384958  0.25639439
   0.81305093  0.54374601  0.25636091
   0.06405971  0.20970831  0.61070529
   0.18753506  0.79173656  0.38917436
   0.31239169  0.54111556  0.52224483
   0.81367721  0.86763562  0.16729523
   0.68747605  0.29172070  0.38902708
   0.18689054  0.12395329  0.56651735
   0.68693885  0.95947732  0.87531822
   0.68669193  0.12348694  0.56643897
   0.43701399  0.95498958  0.34493765
   0.18575757  0.95741976  0.74376826
   0.93784001  0.79395851  0.25640860
   0.56240254  0.87522542  0.43337097
   0.31229125  0.87486396  0.43343409
   0.81231056  0.54076997  0.52232991
   0.93632626  0.45902431  0.21204829
   0.31291945  0.54377637  0.25635000
   0.56250795  0.04171926  0.38918422
   0.93853404  0.45961482  0.61072349
   0.06242206  0.04171193  0.38907406
   0.06248516  0.54185858  0.38911006
   0.43762164  0.29173738  0.38899496
   0.68827135  0.45792498  0.47746074
   0.06228432  0.37452479  0.56637959
   0.56127090  0.70975635  0.21221566
   0.93763220  0.29403919  0.25640961
   0.18696933  0.62511744  0.30036857
   0.18696809  0.95533210  0.34494032
   0.56159389  0.87552856  0.30054863
   0.06221155  0.37479215  0.43342257
   0.31273871  0.70521373  0.34496725
   0.31243495  0.20508407  0.34500322
   0.93755929  0.12469159  0.56654041
   0.81393970  0.04153218  0.78773121
   0.56274437  0.04383929  0.25640724
   0.18719505  0.78658095  0.12489617
   0.06270036  0.04398629  0.25640936
   0.68767654  0.62404542  0.56645485
   0.43860371  0.61761707  0.16732512
   0.31236924  0.04067595  0.52222222
   0.68720918  0.28652474  0.12489440
   0.81308869  0.70877651  0.47766678
   0.43647009  0.13284432  0.83280475
   0.31435517  0.37419139  0.69946343
   0.68692299  0.63382776  0.83308199
   0.56182513  0.70603462  0.74364326
   0.93790416  0.29144963  0.38915481
   0.93801160  0.95839724  0.87537043
   0.93688964  0.95572822  0.74359555
   0.81238461  0.87464512  0.56663523
   0.81149928  0.87515818  0.30054900
   0.31296561  0.04391406  0.25640221
   0.43709070  0.28653937  0.12489141
   0.31381527  0.70959659  0.61074265
   0.43714838  0.62468135  0.43340707
   0.18787131  0.29299708  0.78761102
   0.56415238  0.03822418  0.78786004
   0.06444207  0.53885780  0.78787633
   0.81209603  0.88036875  0.83371359
   0.81421332  0.71642950  0.87496061
   0.56490723  0.20986001  0.61059287
   0.43730122  0.95606855  0.61086025
Direct configuration=     2
   0.06120972  0.70956864  0.21223358
   0.31300201  0.71622220  0.87543729
   0.68710353  0.95883701  0.61068161
   0.43822436  0.45856908  0.61074609
   0.43770266  0.29385239  0.25640594
   0.06283145  0.38199854  0.83286237
   0.31192333  0.88124026  0.83281100
   0.43831548  0.62352475  0.69970315
   0.06223611  0.20668172  0.74389009
   0.18630864  0.45916775  0.21208780
   0.56314778  0.20813818  0.47750263
   0.06236284  0.87509141  0.56655567
   0.56295483  0.21656341  0.87520000
   0.81270891  0.54109155  0.12505389
   0.43651703  0.95909253  0.21205026
   0.56231540  0.37440098  0.56647211
   0.81265120  0.04165895  0.38906938
   0.68769139  0.79090429  0.52214471
   0.43822113  0.45789848  0.47758594
   0.43601961  0.95687579  0.74360124
   0.43747888  0.62420183  0.56650947
   0.06251395  0.54098658  0.12505545
   0.31251985  0.04118973  0.12507414
   0.68720228  0.95535733  0.34496731
   0.68752855  0.78711174  0.12492193
   0.06164673  0.37518541  0.30060164
   0.68751833  0.45883435  0.87514556
   0.43639925  0.45903328  0.21201249
   0.81242708  0.37527239  0.43346220
   0.81419242  0.37497951  0.69938361
   0.56078189  0.54385606  0.65503488
   0.93743003  0.12457546  0.43340650
   0.56283276  0.54353590  0.25635876
   0.68752138  0.45532479  0.34495622
   0.18852911  0.61815940  0.16733408
   0.18827952  0.79177405  0.78782521
   0.43889144  0.12431101  0.69930667
   0.93684714  0.62523526  0.30044540
   0.31305415  0.21531273  0.87540201
   0.31210663  0.87473403  0.56645866
   0.81277588  0.21551777  0.87531078
   0.81090722  0.54496000  0.65500658
   0.56247688  0.54091194  0.12501837
   0.56363331  0.86786301  0.16725895
   0.18780858  0.29354583  0.25634170
   0.81221951  0.87493124  0.43351949
   0.56352554  0.37519220  0.69962154
   0.06244949  0.04131443  0.12499783
   0.31104400  0.54444796  0.65506259
   0.56270007  0.20539690  0.34499709
   0.18814073  0.95884515  0.61066975
   0.31165121  0.37536950  0.30046648
   0.43603402  0.79428310  0.65499370
   0.68675445  0.45607473  0.74363319
   0.06367347  0.36776439  0.16720973
   0.68893503  0.62425345  0.69949588
   0.31251220  0.54161172  0.38914957
   0.06448919  0.71572269  0.87524807
   0.93703609  0.63281321  0.83325979
   0.31261536  0.54027393  0.78797692
   0.31134875  0.20947063  0.21217970
   0.06297715  0.70865403  0.47776459
   0.56124541  0.20959286  0.21216638
   0.31185365  0.20592249  0.74356015
   0.06453864  0.37423424  0.69959223
   0.18744224  0.63080855  0.83241399
   0.06313913  0.04000369  0.78794950
   0.43754247  0.12453080  0.56653797
   0.93591789  0.29450819  0.65491738
   0.81146683  0.20948330  0.21221506
   0.93648353  0.95886374  0.21199234
   0.93744920  0.62410730  0.56646022
   0.81179211  0.38262617  0.83301903
   0.18914440  0.62506462  0.69936318
   0.56470870  0.87453423  0.69966369
   0.68620199  0.29426948  0.65502626
   0.31341919  0.20860880  0.61075500
   0.43748495  0.45646357  0.74353938
   0.43792096  0.79162002  0.38919271
   0.68687497  0.95608745  0.74363714
   0.81126290  0.70958950  0.21223798
   0.81364638  0.70957479  0.61073896
   0.43754286  0.78690247  0.12493716
   0.31157257  0.70593788  0.74340443
   0.31397104  0.03933839  0.78789980
   0.81263835  0.54165590  0.38916633
   0.68737285  0.29105557  0.52223428
   0.68761502  0.79168493  0.78773539
   0.18763658  0.79369021  0.25637685
   0.68854092  0.11796440  0.16733834
   0.68809016  0.95852715  0.47762439
   0.93704920  0.95546229  0.34493108
   0.81253081  0.04092449  0.52215716
   0.68758015  0.62471093  0.43344660
   0.43730492  0.45543231  0.34493477
   0.81123565  0.20555632  0.74376326
   0.43631084  0.95991984  0.87531537
   0.56259142  0.87505402  0.56656060
   0.81232049  0.04123581  0.12503385
   0.43680918  0.62519783  0.30044882
   0.56199273  0.20612978  0.74435059
   0.68760929  0.45828992  0.61093834
   0.56118252  0.38021659  0.83243875
   0.81189668  0.37542812  0.30039469
   0.18755871  0.29155663  0.38909849
   0.81379693  0.54043399  0.78803130
   0.18726717  0.79094598  0.52217986
   0.31190957  0.87519620  0.30053713
   0.18648114  0.95873179  0.21200087
   0.18594451  0.45596753  0.74357876
   0.43728923  0.29104194  0.52218671
   0.06258701  0.70544725  0.34498249
   0.18606210  0.79475513  0.65505319
   0.43844615  0.79176080  0.78785850
   0.68724876  0.12484044  0.43340532
   0.93735614  0.79102812  0.52220840
   0.68849541  0.61822991  0.16726784
   0.81258305  0.70539576  0.34491047
   0.93607650  0.45581032  0.74351975
   0.18742578  0.45536697  0.34493088
   0.56272791  0.54053615  0.78796817
   0.56372610  0.36799356  0.16724399
   0.56275731  0.70525823  0.34490963
   0.56165935  0.37509285  0.30056752
   0.18804024  0.45965919  0.87531346
   0.18866099  0.11826458  0.16735506
   0.43764390  0.29152801  0.78775501
   0.68766876  0.79363041  0.25636244
   0.93595184  0.13246567  0.83291564
   0.43821359  0.95828666  0.47764056
   0.56041982  0.71497287  0.87515324
   0.18812030  0.45854998  0.47766608
   0.93734589  0.28700248  0.12490019
   0.31261181  0.04169034  0.38913933
   0.06062735  0.04456623  0.65505138
   0.56228178  0.37533534  0.43344413
   0.93744920  0.62469693  0.43341123
   0.31371235  0.36805410  0.16725761
   0.93741203  0.12464945  0.69903161
   0.56058116  0.04466820  0.65506001
   0.56254840  0.54127580  0.52220204
   0.18691648  0.12497473  0.30041005
   0.43876521  0.11809392  0.16732854
   0.68684094  0.62511267  0.30043328
   0.93697675  0.12508472  0.30040359
   0.81233150  0.37467623  0.56635108
   0.06171687  0.87532196  0.30057357
   0.18750315  0.62411532  0.56642060
   0.93853360  0.79177129  0.78775120
   0.31187501  0.38125259  0.83298587
   0.93744926  0.45923807  0.87516109
   0.43700300  0.63115593  0.83266583
   0.06282065  0.20549580  0.34497531
   0.18800377  0.95935046  0.87529214
   0.93749373  0.78692952  0.12494684
   0.68779573  0.79156208  0.38918246
   0.93608885  0.79423415  0.65510000
   0.93875510  0.11804232  0.16727389
   0.43600396  0.29464404  0.65508074
   0.06146521  0.20957359  0.21214989
   0.68642652  0.95886647  0.21214116
   0.56318685  0.70877305  0.61075663
   0.81417097  0.87456541  0.69937108
   0.93906180  0.62379023  0.69956175
   0.18848208  0.12387992  0.69951716
   0.93798003  0.45857335  0.47763119
   0.81301772  0.20844114  0.61095032
   0.18750420  0.62474021  0.43346086
   0.43693668  0.12526828  0.30039352
   0.68691207  0.12506737  0.30039783
   0.56255284  0.54174971  0.38909757
   0.81250472  0.20548808  0.34492710
   0.43752374  0.45937466  0.87518652
   0.56256256  0.88103159  0.83292880
   0.31334231  0.20808022  0.47755767
   0.18798080  0.95890449  0.47774414
   0.06156165  0.88014386  0.83277534
   0.06248239  0.54104371  0.52224464
   0.93788151  0.95888076  0.47779605
   0.06330704  0.70863739  0.61068237
   0.56237985  0.04097864  0.52224003
   0.68833724  0.29204874  0.78774041
   0.81370464  0.36787200  0.16724138
   0.43716258  0.12510168  0.43340405
   0.06292484  0.20873885  0.47769733
   0.31123009  0.04480298  0.65513186
   0.43746757  0.79072924  0.52213014
   0.18680480  0.13306128  0.83285459
   0.18722836  0.28682160  0.12492346
   0.93746452  0.45553607  0.34497586
   0.31356523  0.86795155  0.16727348
   0.31124381  0.70963723  0.21216843
   0.93853389  0.61806439  0.16728212
   0.18742432  0.45823476  0.61092347
   0.06393143  0.87489504  0.69929094
   0.06106404  0.54456108  0.65488032
   0.31232940  0.54114668  0.12505196
   0.93791717  0.79134953  0.38921472
   0.93822551  0.29212758  0.78776002
   0.18592178  0.29423384  0.65507850
   0.93753250  0.95813608  0.61082135
   0.81213863  0.70595272  0.74351088
   0.68776081  0.29385961  0.25637947
   0.06116201  0.70577955  0.74373340
   0.68641738  0.45904486  0.21204704
   0.81316645  0.20807962  0.47750064
   0.56302504  0.70842343  0.47778595
   0.06356231  0.86802037  0.16729579
   0.93720696  0.29100807  0.52222109
   0.68575795  0.79400354  0.65505991
   0.06243762  0.87481317  0.43340463
   0.06484219  0.21439254  0.87522711
   0.81078095  0.04506200  0.65517513
   0.56248917  0.04122909  0.12507160
   0.31233395  0.37533937  0.43350323
   0.31274542  0.37477474  0.56632759
   0.31313595  0.70845398  0.47768222
   0.06244157  0.04093339  0.52227242
   0.31406009  0.87490704  0.69934114
   0.06271425  0.54352080  0.25638705
   0.68739368  0.13238378  0.83296934
   0.81272670  0.04349801  0.25641379
   0.18722397  0.12446011  0.43343391
   0.68873711  0.12398464  0.69941028
   0.18749301  0.29092580  0.52217882
   0.43761905  0.79359075  0.25638317
   0.81295898  0.54355425  0.25634494
   0.06390303  0.20966207  0.61073514
   0.18755599  0.79164565  0.38915489
   0.31242447  0.54114174  0.52219401
   0.81360053  0.86804169  0.16728182
   0.68751741  0.29161167  0.38903107
   0.18702987  0.12409457  0.56649655
   0.68679757  0.96016505  0.87528266
   0.68681216  0.12371136  0.56642885
   0.43706926  0.95526454  0.34493568
   0.18598880  0.95740018  0.74375542
   0.93776806  0.79369303  0.25639490
   0.56240966  0.87514926  0.43339013
   0.31232749  0.87484559  0.43345027
   0.81234382  0.54082267  0.52226647
   0.93640811  0.45888836  0.21204592
   0.31284793  0.54356692  0.25633691
   0.56249783  0.04161376  0.38916320
   0.93836577  0.45955426  0.61074232
   0.06242732  0.04158102  0.38907409
   0.06249940  0.54171953  0.38910574
   0.43762540  0.29162942  0.38900691
   0.68819428  0.45797288  0.47754623
   0.06229050  0.37452781  0.56638582
   0.56133882  0.70954606  0.21220758
   0.93762376  0.29372752  0.25638865
   0.18698229  0.62514596  0.30040901
   0.18705582  0.95553706  0.34493740
   0.56164995  0.87547284  0.30055889
   0.06225728  0.37476638  0.43343865
   0.31267969  0.70546614  0.34495685
   0.31245369  0.20535206  0.34498128
   0.93753662  0.12468169  0.56652070
   0.81386990  0.04171932  0.78775503
   0.56270095  0.04362547  0.25638532
   0.18726488  0.78691776  0.12493414
   0.06267878  0.04372710  0.25638640
   0.68767757  0.62421216  0.56644226
   0.43854842  0.61803126  0.16729358
   0.31240380  0.04074952  0.52216537
   0.68725709  0.28684911  0.12493140
   0.81304347  0.70869955  0.47771842
   0.43658722  0.13238659  0.83282953
   0.31418004  0.37419756  0.69942726
   0.68704481  0.63334652  0.83306246
   0.56185080  0.70636032  0.74367020
   0.93784617  0.29138065  0.38913359
   0.93812379  0.95924443  0.87532286
   0.93690101  0.95596895  0.74360439
   0.81240505  0.87468241  0.56658665
   0.81159081  0.87514305  0.30056435
   0.31287838  0.04366765  0.25638045
   0.43715381  0.28687825  0.12492904
   0.31357247  0.70943724  0.61077211
   0.43721965  0.62472166  0.43341893
   0.18796924  0.29242233  0.78761300
   0.56397838  0.03878039  0.78783655
   0.06417355  0.53951393  0.78783633
   0.81202040  0.88035673  0.83366105
   0.81394718  0.71576063  0.87502135
   0.56464313  0.20979734  0.61063969
   0.43726975  0.95643277  0.61087476
Direct configuration=     3
   0.06153144  0.70895713  0.21220990
   0.31318707  0.71376109  0.87515813
   0.68765974  0.95875365  0.61078963
   0.43781553  0.45880872  0.61082080
   0.43756332  0.29293345  0.25634137
   0.06288474  0.38071772  0.83308939
   0.31203605  0.88034105  0.83300933
   0.43822997  0.62412074  0.69952386
   0.06211298  0.20695363  0.74381967
   0.18658047  0.45858980  0.21206954
   0.56300481  0.20821677  0.47777038
   0.06231453  0.87482157  0.56645535
   0.56291113  0.21408816  0.87507321
   0.81264725  0.53944595  0.12514840
   0.43667859  0.95861671  0.21205090
   0.56233557  0.37478469  0.56640858
   0.81265678  0.04138614  0.38906108
   0.68767804  0.79103653  0.52201212
   0.43803925  0.45808797  0.47783596
   0.43687314  0.95706376  0.74364662
   0.43746173  0.62468907  0.56643202
   0.06258713  0.53938642  0.12516238
   0.31260404  0.03931716  0.12517783
   0.68722744  0.95616828  0.34494715
   0.68750652  0.78792810  0.12502431
   0.06187394  0.37515759  0.30061761
   0.68698430  0.46138850  0.87489270
   0.43666521  0.45854968  0.21203740
   0.81248056  0.37485329  0.43345302
   0.81347522  0.37479952  0.69933990
   0.56148206  0.54331963  0.65505641
   0.93744250  0.12463832  0.43345347
   0.56257359  0.54288870  0.25632061
   0.68744311  0.45617565  0.34491676
   0.18830836  0.61927074  0.16723086
   0.18824757  0.79120361  0.78782823
   0.43856974  0.12448908  0.69934849
   0.93697326  0.62520045  0.30055330
   0.31263145  0.21347373  0.87520710
   0.31216729  0.87471555  0.56637974
   0.81303137  0.21307226  0.87516210
   0.81149066  0.54387156  0.65501337
   0.56259704  0.53939115  0.12514358
   0.56335143  0.86921998  0.16723216
   0.18752131  0.29277426  0.25631727
   0.81246510  0.87478302  0.43352352
   0.56359169  0.37462395  0.69946355
   0.06259584  0.03946533  0.12515044
   0.31120947  0.54361457  0.65499559
   0.56251432  0.20616602  0.34491755
   0.18752091  0.95893440  0.61077600
   0.31191176  0.37527901  0.30056529
   0.43668735  0.79328206  0.65505660
   0.68703808  0.45703851  0.74373061
   0.06337511  0.36926552  0.16720838
   0.68840374  0.62448513  0.69935614
   0.31258801  0.54143195  0.38910877
   0.06399077  0.71370738  0.87509499
   0.93692428  0.63171569  0.83316762
   0.31319072  0.54175421  0.78794772
   0.31160773  0.20894596  0.21219299
   0.06296829  0.70846919  0.47788566
   0.56161879  0.20899372  0.21218027
   0.31203722  0.20690381  0.74365031
   0.06344386  0.37449937  0.69939748
   0.18743964  0.63024154  0.83263184
   0.06296572  0.04130709  0.78795936
   0.43748470  0.12460173  0.56642666
   0.93657720  0.29392981  0.65495084
   0.81165661  0.20888689  0.21220568
   0.93667340  0.95864195  0.21203665
   0.93738499  0.62454078  0.56641343
   0.81199742  0.38151073  0.83314909
   0.18841622  0.62516533  0.69927391
   0.56359979  0.87436236  0.69949392
   0.68662752  0.29369570  0.65509574
   0.31288471  0.20874971  0.61087967
   0.43716625  0.45726921  0.74367775
   0.43774430  0.79134801  0.38909674
   0.68696319  0.95683263  0.74366999
   0.81155876  0.70902977  0.21218486
   0.81339329  0.70918126  0.61083343
   0.43756339  0.78785607  0.12504111
   0.31181513  0.70731637  0.74362964
   0.31332448  0.04126682  0.78796447
   0.81255342  0.54137681  0.38911428
   0.68746640  0.29100278  0.52200784
   0.68792445  0.79107089  0.78784561
   0.18745994  0.79289561  0.25634188
   0.68839974  0.11919233  0.16724834
   0.68791063  0.95832427  0.47781446
   0.93717844  0.95615604  0.34492693
   0.81270475  0.04105867  0.52198785
   0.68745512  0.62480215  0.43347676
   0.43735228  0.45620617  0.34490694
   0.81162970  0.20624238  0.74367187
   0.43704101  0.96215976  0.87500980
   0.56243810  0.87497274  0.56644742
   0.81253488  0.03939535  0.12516286
   0.43701237  0.62517213  0.30053326
   0.56221529  0.20636223  0.74398661
   0.68786580  0.45850360  0.61091667
   0.56131367  0.38020728  0.83275234
   0.81195548  0.37527783  0.30056082
   0.18760022  0.29125661  0.38907310
   0.81329504  0.54232681  0.78804314
   0.18732285  0.79096019  0.52202781
   0.31186248  0.87518718  0.30060083
   0.18667139  0.95853898  0.21204692
   0.18659563  0.45709425  0.74363192
   0.43746262  0.29114906  0.52200249
   0.06253468  0.70621702  0.34492380
   0.18663257  0.79382237  0.65503698
   0.43827993  0.79140060  0.78784655
   0.68734481  0.12479938  0.43341109
   0.93747557  0.79109887  0.52208024
   0.68831392  0.61925144  0.16719860
   0.81249837  0.70616036  0.34491815
   0.93680312  0.45670622  0.74359988
   0.18738642  0.45621629  0.34492056
   0.56281152  0.54164598  0.78789678
   0.56342620  0.36930646  0.16721944
   0.56254533  0.70616330  0.34490350
   0.56187066  0.37514471  0.30061083
   0.18749669  0.46155414  0.87506245
   0.18835414  0.11927012  0.16722712
   0.43772667  0.29112745  0.78791097
   0.68745735  0.79282690  0.25635465
   0.93650796  0.13120487  0.83294777
   0.43789987  0.95815797  0.47782035
   0.56132958  0.71332691  0.87507653
   0.18792703  0.45830772  0.47783448
   0.93742216  0.28793593  0.12500714
   0.31253983  0.04140041  0.38909293
   0.06121829  0.04399257  0.65498054
   0.56240146  0.37491649  0.43343521
   0.93748288  0.62475657  0.43345192
   0.31340138  0.36930109  0.16723044
   0.93785830  0.12489271  0.69921372
   0.56110303  0.04402783  0.65505468
   0.56260858  0.54151049  0.52198750
   0.18694983  0.12508334  0.30050746
   0.43844833  0.11928681  0.16723397
   0.68699497  0.62515558  0.30052941
   0.93708058  0.12510409  0.30053677
   0.81231794  0.37464302  0.56640766
   0.06189693  0.87527482  0.30059409
   0.18755169  0.62464492  0.56640559
   0.93796901  0.79108752  0.78778462
   0.31189664  0.38009025  0.83315511
   0.93794515  0.46127737  0.87501635
   0.43691133  0.63029257  0.83280809
   0.06251274  0.20627561  0.34491568
   0.18779772  0.96155362  0.87495124
   0.93752369  0.78791924  0.12504886
   0.68767642  0.79134059  0.38909467
   0.93646549  0.79356633  0.65504509
   0.93844697  0.11924140  0.16719476
   0.43630427  0.29356575  0.65503889
   0.06160468  0.20891639  0.21216757
   0.68669410  0.95859369  0.21208611
   0.56309047  0.70851091  0.61086590
   0.81374857  0.87433901  0.69933833
   0.93864614  0.62415484  0.69938146
   0.18805615  0.12437158  0.69947425
   0.93795122  0.45839930  0.47782763
   0.81318146  0.20903896  0.61093765
   0.18744834  0.62478450  0.43349165
   0.43698084  0.12521669  0.30053574
   0.68702323  0.12517767  0.30052676
   0.56256628  0.54145537  0.38906804
   0.81245932  0.20625222  0.34490129
   0.43795607  0.46186115  0.87488903
   0.56229141  0.88031892  0.83320330
   0.31293540  0.20828188  0.47777947
   0.18794177  0.95851842  0.47787858
   0.06178831  0.87994931  0.83301152
   0.06250040  0.54113376  0.52206355
   0.93792504  0.95849844  0.47790463
   0.06306485  0.70858471  0.61079147
   0.56238838  0.04116891  0.52203773
   0.68809686  0.29146828  0.78788022
   0.81337688  0.36921215  0.16723064
   0.43736476  0.12485098  0.43341107
   0.06297025  0.20850695  0.47781412
   0.31159469  0.04418494  0.65503723
   0.43750438  0.79116784  0.52201429
   0.18708054  0.13154909  0.83290674
   0.18740615  0.28781985  0.12502081
   0.93737663  0.45619031  0.34492531
   0.31338454  0.86922475  0.16722641
   0.31159123  0.70903274  0.21218116
   0.93836684  0.61923136  0.16722523
   0.18742797  0.45863664  0.61090657
   0.06361077  0.87497482  0.69931280
   0.06143615  0.54372896  0.65494448
   0.31254084  0.53947065  0.12516619
   0.93775389  0.79137636  0.38910560
   0.93786117  0.29161670  0.78794553
   0.18645634  0.29360238  0.65505852
   0.93759501  0.95833824  0.61088268
   0.81231007  0.70702527  0.74365278
   0.68753905  0.29286064  0.25631840
   0.06185209  0.70682166  0.74374424
   0.68662837  0.45854769  0.21203474
   0.81299796  0.20830381  0.47777362