unknown system                          
           1
     9.726678    0.000000    0.000000
     0.000000    8.423550    0.000000
     0.000000    0.000000   45.000000
   Fe   Mn
 281   7
Direct configuration=     1
   0.06138796  0.03086403  0.12444702
   0.06329967  0.87192798  0.52127552
   0.19449892  0.12384545  0.78844801
   0.43344955  0.28798931  0.38911494
   0.30856663  0.71281281  0.83315994
   0.80846503  0.21273247  0.83316243
   0.18350858  0.78760860  0.38907038
   0.56310289  0.20760963  0.56536299
   0.06020896  0.04126764  0.74408160
   0.81341335  0.87214144  0.52138977
   0.18512479  0.29103824  0.74407899
   0.94132023  0.45219449  0.34492601
   0.93351673  0.28749573  0.38908340
   0.81392689  0.04230829  0.87561784
   0.18803563  0.79148504  0.61081827
   0.55865026  0.03766299  0.38905028
   0.93352504  0.96267594  0.83314349
   0.31385692  0.54221370  0.87561776
   0.68530383  0.29140301  0.74415716
   0.19254616  0.61213705  0.16682096
   0.81277810  0.20586191  0.47861759
   0.81262081  0.54166308  0.61096744
   0.31311812  0.87060042  0.43442612
   0.81559720  0.03597009  0.25599533
   0.69147984  0.95209257  0.34495620
   0.94207362  0.11186611  0.16698093
   0.93849208  0.12209519  0.52130353
   0.56550150  0.53601350  0.25607078
   0.68913740  0.79395909  0.87564369
   0.56816995  0.36362797  0.16689261
   0.43521605  0.79122177  0.74408144
   0.81352516  0.70797666  0.56532792
   0.56934542  0.87361059  0.78842220
   0.68863878  0.12201350  0.52134128
   0.19069477  0.28631407  0.25608580
   0.93351307  0.46268195  0.83314854
   0.06470814  0.20809423  0.69965162
   0.44000360  0.95812939  0.69969443
   0.30861380  0.21269221  0.83316135
   0.43373522  0.62569292  0.65491579
   0.31326509  0.54115177  0.61070674
   0.93875153  0.45758576  0.56542641
   0.68523120  0.79135757  0.74414327
   0.30872189  0.87535467  0.65494278
   0.68382602  0.78744918  0.38898093
   0.93537751  0.79126411  0.74415202
   0.06612906  0.20170641  0.34492544
   0.43975282  0.78656711  0.12452252
   0.44469982  0.12358131  0.78848128
   0.05713726  0.20496549  0.21193863
   0.06797643  0.36375871  0.16693595
   0.94121091  0.78616907  0.25595569
   0.56483590  0.20800999  0.69964765
   0.68995558  0.95823670  0.69968129
   0.68371919  0.28743173  0.38908095
   0.43871964  0.95734027  0.56551409
   0.81923223  0.37366849  0.78842161
   0.69045061  0.28596634  0.25607784
   0.18881052  0.45770161  0.56544546
   0.06798263  0.86324972  0.16682335
   0.18862297  0.29093604  0.61076018
   0.56623049  0.70233267  0.34498794
   0.31490772  0.20821180  0.69968401
   0.56381115  0.54223828  0.87561894
   0.06372726  0.70704057  0.56554441
   0.69470853  0.62358620  0.78849453
   0.30870243  0.53756295  0.38902722
   0.18819839  0.62189437  0.52139088
   0.56242799  0.87169996  0.43436823
   0.43814818  0.45792484  0.56533690
   0.43527554  0.29116406  0.74413353
   0.80436800  0.87287683  0.30035517
   0.81605508  0.70252057  0.34515832
   0.43348496  0.46265062  0.83313597
   0.68775875  0.95575362  0.47862105
   0.69011403  0.45815950  0.69969956
   0.56319001  0.87246995  0.52137221
   0.55889711  0.37569125  0.65491348
   0.80851333  0.87525263  0.65486739
   0.81254447  0.37085588  0.43444336
   0.81513124  0.53585272  0.25619380
   0.68352802  0.46271527  0.83315760
   0.18967636  0.78704250  0.12453389
   0.06383747  0.04221095  0.87562439
   0.30879862  0.37523998  0.65494202
   0.31626704  0.20163673  0.34485028
   0.81025639  0.54123600  0.74409203
   0.68350637  0.96274572  0.83313825
   0.55856815  0.87530202  0.65489237
   0.31328343  0.70729377  0.56552039
   0.31237636  0.53074930  0.12441072
   0.68263974  0.95329325  0.21172734
   0.31395263  0.20733821  0.56548320
   0.31022663  0.54133439  0.74408791
   0.68875307  0.95749832  0.56539355
   0.43823446  0.79112874  0.61068177
   0.69298577  0.61348256  0.16695988
   0.30393211  0.87234621  0.30029257
   0.31248332  0.70540147  0.47866701
   0.93827988  0.29130183  0.61067418
   0.42952029  0.62303830  0.30028049
   0.81836744  0.86370021  0.16695003
   0.55728414  0.20352944  0.21165374
   0.94266140  0.61368682  0.16709787
   0.93920848  0.79397884  0.87565023
   0.56946639  0.37349740  0.78843490
   0.06347791  0.37218589  0.52131705
   0.56351214  0.37195213  0.52126240
   0.67905087  0.12249301  0.30037480
   0.43353325  0.96278135  0.83315462
   0.18975261  0.28684002  0.12458488
   0.81942220  0.87355645  0.78839700
   0.31206698  0.37102478  0.43427766
   0.93770195  0.79184342  0.61087991
   0.43818614  0.29075517  0.61074111
   0.19147273  0.45209315  0.34500776
   0.43905840  0.28652902  0.12449365
   0.69048386  0.78584786  0.25597070
   0.18976333  0.95812706  0.69964928
   0.18909695  0.29392930  0.87564796
   0.18359641  0.12505723  0.65488739
   0.93347602  0.12545273  0.65488203
   0.30676485  0.20346303  0.21174417
   0.05864237  0.03754222  0.38906611
   0.19329083  0.11368391  0.16683987
   0.06272026  0.54177798  0.61088006
   0.94057097  0.28534654  0.25603601
   0.56319391  0.54131197  0.61076610
   0.93837369  0.95779724  0.56539240
   0.67965953  0.62270431  0.30012188
   0.93744925  0.62021230  0.43446828
   0.94458904  0.62388770  0.78844962
   0.56475268  0.70831920  0.69967437
   0.05848880  0.71279724  0.83315339
   0.92930172  0.12301033  0.30036679
   0.94009657  0.45813791  0.69967288
   0.44088344  0.78651792  0.25614046
   0.31941975  0.37353436  0.78840161
   0.43300760  0.45428336  0.21198242
   0.18847402  0.12211266  0.52125041
   0.81479591  0.70779983  0.69965860
   0.06330198  0.04120736  0.61071951
   0.55851322  0.21279047  0.83314686
   0.31368940  0.87232739  0.52132895
   0.69028869  0.28649305  0.12463716
   0.18139855  0.95310654  0.21174213
   0.68851725  0.29138154  0.61066855
   0.31317344  0.04123356  0.61081604
   0.94452116  0.12368076  0.78843630
   0.43911667  0.79395017  0.87564452
   0.81032986  0.04123119  0.74411938
   0.43818284  0.12203229  0.52138973
   0.18375178  0.62547438  0.65495528
   0.31492320  0.70825343  0.69968704
   0.93889507  0.28676886  0.12457183
   0.43780343  0.45574886  0.47868588
   0.06339898  0.70530971  0.47860102
   0.93803611  0.12023899  0.43441930
   0.42920539  0.12226176  0.30033697
   0.18804908  0.12037717  0.43445165
   0.56384424  0.04225773  0.87564533
   0.18858044  0.95738493  0.56534555
   0.68919585  0.78638106  0.12446761
   0.56302991  0.53136171  0.12440116
   0.30858486  0.03740101  0.38906559
   0.69285646  0.11331796  0.16688776
   0.80742899  0.20475934  0.21185655
   0.06580697  0.53613680  0.25611430
   0.56293651  0.70576620  0.47864269
   0.06380980  0.20774364  0.56545318
   0.55437465  0.37314504  0.30031965
   0.44138882  0.95248285  0.34492313
   0.18356893  0.96277069  0.83315757
   0.44213074  0.61208716  0.16684026
   0.93300518  0.45435615  0.21175553
   0.06186859  0.53064746  0.12437260
   0.81333666  0.37181965  0.52130210
   0.92939288  0.62306967  0.30032490
   0.31588502  0.03626852  0.25590197
   0.68806561  0.79164651  0.61089433
   0.18359329  0.46284515  0.83316338
   0.44184555  0.11284250  0.16692490
   0.31321827  0.37197952  0.52134993
   0.44465444  0.62366830  0.78840778
   0.06638917  0.03628212  0.25581140
   0.56365492  0.70773737  0.56532028
   0.93532745  0.29135983  0.74414021
   0.69426654  0.12364288  0.78846117
   0.18165375  0.45412645  0.21197468
   0.93344005  0.78758608  0.38906222
   0.68913393  0.29394014  0.87566951
   0.31796998  0.86328723  0.16696265
   0.43991223  0.45792139  0.69960984
   0.94160142  0.95232270  0.34501712
   0.68853935  0.62213878  0.52133816
   0.05898879  0.87536926  0.65492646
   0.06935306  0.87369655  0.78842467
   0.05856193  0.37530926  0.65488973
   0.68773173  0.45580909  0.47869588
   0.19082623  0.78654125  0.25613230
   0.43772973  0.12031744  0.43444292
   0.81245789  0.03091296  0.12443347
   0.93838412  0.62188741  0.52131760
   0.06264909  0.87053536  0.43450635
   0.81305440  0.53080250  0.12430902
   0.44139835  0.45188702  0.34495573
   0.81658270  0.20187110  0.34496709
   0.31629057  0.70168491  0.34494556
   0.68392002  0.12573902  0.65495930
   0.55376836  0.87237003  0.30032533
   0.06035157  0.54136746  0.74413855
   0.93812794  0.78556486  0.12448889
   0.80734847  0.70340295  0.21153418
   0.05437270  0.87268785  0.30022716
   0.17974402  0.12307206  0.30045187
   0.06644660  0.70186098  0.34496109
   0.81311334  0.04149580  0.61079359
   0.06294570  0.37066779  0.43445778
   0.56644474  0.20187933  0.34495923
   0.80396240  0.37315817  0.30033462
   0.43784654  0.95590626  0.47863109
   0.55859995  0.53744963  0.38909211
   0.06283340  0.20584023  0.47863422
   0.31939745  0.87357703  0.78843551
   0.93986234  0.95818216  0.69967680
   0.05399088  0.37220853  0.30045722
   0.68362593  0.62501984  0.65496812
   0.68847634  0.45791690  0.56543907
   0.43181095  0.95282172  0.21173953
   0.31282552  0.20588894  0.47861092
   0.43368918  0.12533773  0.65486759
   0.68827075  0.62022525  0.43438163
   0.81497924  0.20800909  0.69962196
   0.81284823  0.70571210  0.47867554
   0.81302792  0.87075478  0.43446525
   0.93781111  0.95578579  0.47862350
   0.56273959  0.20567481  0.47857771
   0.18821221  0.62025732  0.43436007
   0.31020874  0.04134286  0.74409109
   0.93368881  0.62502898  0.65489871
   0.55863704  0.71276582  0.83316319
   0.30413036  0.37299830  0.30034967
   0.55747610  0.70348016  0.21153000
   0.18789697  0.45594746  0.47862582
   0.31384672  0.04225169  0.87563399
   0.19021585  0.45789015  0.69957003
   0.81390161  0.54222642  0.87563554
   0.18361682  0.28811789  0.38911356
   0.43781970  0.62061465  0.43452654
   0.05648052  0.70308180  0.21163019
   0.56256572  0.03097041  0.12463064
   0.81844352  0.36319295  0.16714255
   0.80852639  0.71271055  0.83317514
   0.06929718  0.37361387  0.78842291
   0.43913426  0.29401763  0.87564980
   0.31221452  0.03136053  0.12447675
   0.68747780  0.12026504  0.43447311
   0.19176604  0.95232917  0.34515135
   0.05855942  0.21278359  0.83316161
   0.56293579  0.04141300  0.61073083
   0.68175685  0.45350355  0.21166395
   0.18517440  0.79110509  0.74408651
   0.17940374  0.62316072  0.30028718
   0.43393275  0.78742918  0.38897511
   0.44068186  0.28604464  0.25595382
   0.06377719  0.54216360  0.87560880
   0.56025497  0.04124790  0.74407089
   0.18916046  0.79400872  0.87564927
   0.93763138  0.45579572  0.47865347
   0.80860852  0.53759819  0.38907107
   0.81352918  0.20767172  0.56539145
   0.19468058  0.62366945  0.78840638
   0.05866344  0.53749289  0.38907755
   0.06493547  0.70818132  0.69967555
   0.31550390  0.53587806  0.25597449
   0.30714045  0.70274475  0.21141783
   0.56804595  0.86349614  0.16699247
   0.56004591  0.54119331  0.74410118
   0.69124779  0.45212781  0.34493815
   0.93914873  0.29394725  0.87564559
   0.56606587  0.03649180  0.25583634
   0.80832976  0.03742258  0.38892771
   0.31911549  0.36306663  0.16639379
   0.43837419  0.62207022  0.52139081
   0.56328962  0.37091103  0.43424985
   0.93211138  0.95421791  0.21217864
   0.80838302  0.37553367  0.65470827
   0.18788275  0.95588954  0.47859897
Direct configuration=     2
   0.06154911  0.03311737  0.12356741
   0.06502680  0.87302223  0.52122577
   0.19368226  0.12341388  0.78872270
   0.43308792  0.28813803  0.38913533
   0.30891036  0.71273989  0.83327766
   0.80947795  0.21257510  0.83323577
   0.18291164  0.78689735  0.38941457
   0.56193581  0.20752617  0.56505546
   0.06010738  0.04134969  0.74403132
   0.81283052  0.87259859  0.52143881
   0.18509191  0.29046878  0.74383487
   0.94168905  0.45144476  0.34506235
   0.93504182  0.28888407  0.38939818
   0.81446170  0.04259904  0.87552802
   0.18932814  0.79111110  0.61090653
   0.55792486  0.03795244  0.38927415
   0.93510381  0.96233967  0.83319094
   0.31305026  0.54239692  0.87538157
   0.68616642  0.29098826  0.74398632
   0.19264873  0.61160674  0.16702033
   0.81284439  0.20610395  0.47842353
   0.81162776  0.54325460  0.61073923
   0.31188750  0.87033853  0.43475053
   0.81386519  0.03662781  0.25673415
   0.69023046  0.95243257  0.34469758
   0.94230081  0.11332427  0.16707868
   0.93907099  0.12184926  0.52133619
   0.56542327  0.53581354  0.25665361
   0.68896320  0.79396603  0.87542335
   0.56697251  0.36343316  0.16703282
   0.43573757  0.79204467  0.74397993
   0.81272183  0.70855927  0.56510064
   0.56869397  0.87391814  0.78856926
   0.68785837  0.12231898  0.52148369
   0.19067631  0.28619468  0.25669790
   0.93446423  0.46255321  0.83323204
   0.06441856  0.20829359  0.69944739
   0.43986516  0.95830929  0.69918654
   0.30874370  0.21198497  0.83332506
   0.43330913  0.62582231  0.65487243
   0.31422006  0.54135775  0.61084299
   0.93910404  0.45715900  0.56511045
   0.68583227  0.79178684  0.74407096
   0.30975855  0.87503573  0.65497912
   0.68417352  0.78602489  0.38942587
   0.93587422  0.79137822  0.74403975
   0.06594124  0.20171456  0.34499134
   0.43997986  0.78409194  0.12375253
   0.44407381  0.12340341  0.78863891
   0.05816965  0.20568488  0.21152473
   0.06865636  0.36373002  0.16720907
   0.94067383  0.78520768  0.25667242
   0.56451891  0.20776556  0.69945847
   0.68969143  0.95804886  0.69939299
   0.68397192  0.28834072  0.38929875
   0.43838535  0.95763542  0.56525090
   0.81864009  0.37376088  0.78847094
   0.68956602  0.28575332  0.25664050
   0.18985106  0.45738246  0.56522304
   0.06841257  0.86310522  0.16713013
   0.19041928  0.29117628  0.61066273
   0.56537587  0.70272613  0.34496626
   0.31448436  0.20837752  0.69917409
   0.56317178  0.54254658  0.87518560
   0.06469097  0.70756034  0.56527070
   0.69427511  0.62409557  0.78870088
   0.30794231  0.53756041  0.38927452
   0.18995972  0.62308207  0.52153676
   0.56325333  0.87129539  0.43451773
   0.43781162  0.45735821  0.56515120
   0.43611373  0.29029771  0.74399021
   0.80521997  0.87275639  0.30051547
   0.81578396  0.70341322  0.34525699
   0.43332136  0.46267806  0.83324521
   0.68797969  0.95556408  0.47853308
   0.69013739  0.45824186  0.69956536
   0.56244372  0.87181464  0.52155243
   0.55698392  0.37640905  0.65501731
   0.80793852  0.87477155  0.65513084
   0.81295834  0.37074150  0.43464000
   0.81453317  0.53573433  0.25672159
   0.68393763  0.46271331  0.83320390
   0.18933721  0.78461366  0.12369827
   0.06431708  0.04255495  0.87544899
   0.30976018  0.37579099  0.65500579
   0.31564593  0.20235570  0.34475421
   0.81095487  0.54078422  0.74395590
   0.68387098  0.96206045  0.83324324
   0.55804810  0.87466084  0.65499690
   0.31353999  0.70687201  0.56525657
   0.31269395  0.53179335  0.12381730
   0.68171895  0.95364852  0.21168194
   0.31414595  0.20742784  0.56522427
   0.31043133  0.54125506  0.74394612
   0.68782397  0.95762179  0.56516417
   0.43809686  0.79041106  0.61081478
   0.69228067  0.61354028  0.16685090
   0.30419276  0.87228324  0.30049789
   0.31256644  0.70612431  0.47883350
   0.93924477  0.29082307  0.61039730
   0.42991675  0.62216163  0.30048147
   0.81733089  0.86355908  0.16699056
   0.55675571  0.20298614  0.21148987
   0.94273137  0.61350414  0.16711289
   0.93944443  0.79452787  0.87535787
   0.56909263  0.37349682  0.78857793
   0.06439415  0.37161422  0.52146051
   0.56251476  0.37297977  0.52138919
   0.67948681  0.12260801  0.30044884
   0.43299578  0.96218432  0.83319913
   0.18972374  0.28564411  0.12401640
   0.81904973  0.87397918  0.78850147
   0.31171506  0.37130039  0.43436350
   0.93779363  0.79215751  0.61081815
   0.43698966  0.29131503  0.61072402
   0.19133002  0.45165764  0.34507954
   0.43928198  0.28541194  0.12397968
   0.68985372  0.78601634  0.25651248
   0.18966071  0.95841805  0.69931748
   0.18903567  0.29346727  0.87545102
   0.18543416  0.12493727  0.65513068
   0.93444632  0.12400143  0.65531607
   0.30743774  0.20390798  0.21126879
   0.05999164  0.03751302  0.38937886
   0.19342013  0.11472594  0.16713882
   0.06461080  0.54259905  0.61077580
   0.93988833  0.28579565  0.25663983
   0.56091627  0.54241720  0.61075141
   0.93886828  0.95811789  0.56506735
   0.68003666  0.62227773  0.30017943
   0.93755799  0.62067079  0.43445555
   0.94369201  0.62449922  0.78860736
   0.56437180  0.70840701  0.69917111
   0.05968516  0.71301023  0.83322944
   0.93040037  0.12275821  0.30068043
   0.93986523  0.45798447  0.69963533
   0.44084127  0.78720736  0.25660491
   0.31890289  0.37331312  0.78872202
   0.43253258  0.45327726  0.21149459
   0.18902525  0.12122677  0.52130822
   0.81453965  0.70775205  0.69941227
   0.06449907  0.04039392  0.61063605
   0.55836492  0.21264988  0.83324677
   0.31317738  0.87198688  0.52130203
   0.68966368  0.28523627  0.12390476
   0.18281410  0.95345766  0.21141036
   0.68638356  0.29125663  0.61034445
   0.31368131  0.04111090  0.61080597
   0.94376413  0.12350988  0.78853104
   0.43816323  0.79399151  0.87527899
   0.81078501  0.04167123  0.74406668
   0.43769100  0.12247021  0.52164040
   0.18596048  0.62544920  0.65506401
   0.31467444  0.70822591  0.69908051
   0.93894716  0.28525398  0.12381264
   0.43839670  0.45629319  0.47890020
   0.06405594  0.70666131  0.47847259
   0.93828738  0.12042523  0.43475642
   0.42950447  0.12259413  0.30053776
   0.18742382  0.11979870  0.43469629
   0.56316048  0.04258371  0.87542338
   0.18903602  0.95768602  0.56505712
   0.68950369  0.78403319  0.12358107
   0.56344717  0.53258213  0.12375358
   0.30796775  0.03768694  0.38926876
   0.69213079  0.11383662  0.16702272
   0.80719919  0.20522184  0.21168249
   0.06526510  0.53611048  0.25673233
   0.56264658  0.70473538  0.47880393
   0.06472615  0.20713631  0.56506460
   0.55453504  0.37289072  0.30047784
   0.44073455  0.95330291  0.34485227
   0.18429837  0.96247342  0.83327377
   0.44168757  0.61148963  0.16699785
   0.93333474  0.45418310  0.21158057
   0.06192987  0.53211075  0.12372222
   0.81208536  0.37187244  0.52126709
   0.93026471  0.62275259  0.30035985
   0.31647178  0.03650159  0.25645511
   0.68645713  0.79172703  0.61101015
   0.18464620  0.46260717  0.83334260
   0.44139439  0.11388978  0.16719596
   0.31438200  0.37230492  0.52163995
   0.44429610  0.62441455  0.78876036
   0.06663127  0.03668932  0.25666086
   0.56294395  0.70755419  0.56507465
   0.93523882  0.29099985  0.74393608
   0.69381616  0.12382345  0.78841930
   0.18250540  0.45343135  0.21148135
   0.93490744  0.78607850  0.38953541
   0.68896548  0.29365989  0.87544074
   0.31800089  0.86374808  0.16739112
   0.43938102  0.45813617  0.69912080
   0.94211231  0.95273846  0.34482038
   0.68675776  0.62193534  0.52129535
   0.06038459  0.87515416  0.65511594
   0.06850122  0.87422521  0.78867075
   0.06085044  0.37560048  0.65533145
   0.68757559  0.45587212  0.47868273
   0.19068221  0.78623104  0.25671391
   0.43760267  0.12027460  0.43462881
   0.81212434  0.03259747  0.12357304
   0.93862771  0.62247346  0.52131669
   0.06254354  0.87079406  0.43465962
   0.81266641  0.53263512  0.12352756
   0.44014598  0.45126866  0.34487599
   0.81629240  0.20266066  0.34472404
   0.31553213  0.70148903  0.34495556
   0.68315742  0.12381245  0.65533193
   0.55449124  0.87251053  0.30038725
   0.06000455  0.54132587  0.74397394
   0.93772105  0.78324421  0.12356006
   0.80732430  0.70265220  0.21143980
   0.05513142  0.87276133  0.30047125
   0.18031607  0.12320473  0.30072963
   0.06647529  0.70204192  0.34511789
   0.81248804  0.03977119  0.61064294
   0.06238198  0.37081431  0.43438808
   0.56559043  0.20221753  0.34492712
   0.80453664  0.37269615  0.30041489
   0.43687489  0.95490209  0.47878234
   0.55870107  0.53778481  0.38935844
   0.06291655  0.20419483  0.47852618
   0.31876275  0.87404251  0.78875594
   0.93929754  0.95824866  0.69945748
   0.05522914  0.37188926  0.30063613
   0.68225469  0.62663869  0.65513078
   0.68719560  0.45770382  0.56501989
   0.43223004  0.95357933  0.21156935
   0.31223186  0.20516600  0.47871266
   0.43312951  0.12496775  0.65494837
   0.68889952  0.62061536  0.43458584
   0.81497217  0.20805256  0.69962615
   0.81226884  0.70521679  0.47846454
   0.81356154  0.86999271  0.43471073
   0.93873957  0.95582935  0.47845360
   0.56312940  0.20654299  0.47864816
   0.18785100  0.62094556  0.43433198
   0.31073653  0.04141389  0.74398588
   0.93479348  0.62602067  0.65531995
   0.55854835  0.71228537  0.83317196
   0.30470742  0.37246940  0.30068719
   0.55723967  0.70336590  0.21141312
   0.18854579  0.45622596  0.47862935
   0.31271588  0.04270469  0.87536284
   0.18978740  0.45784795  0.69907043
   0.81398139  0.54251567  0.87526727
   0.18326532  0.28859967  0.38928188
   0.43730428  0.62089231  0.43482721
   0.05740177  0.70239439  0.21141777
   0.56291086  0.03332694  0.12384801
   0.81817052  0.36332819  0.16725638
   0.80932879  0.71225586  0.83318204
   0.06830939  0.37363042  0.78861224
   0.43796000  0.29386292  0.87539145
   0.31247632  0.03366717  0.12390503
   0.68799312  0.12048181  0.43488432
   0.19114231  0.95300129  0.34514104
   0.05984762  0.21184199  0.83331836
   0.56149043  0.04051753  0.61067240
   0.68202406  0.45323927  0.21157961
   0.18502465  0.79169111  0.74398260
   0.18000188  0.62258387  0.30051265
   0.43374239  0.78689972  0.38921746
   0.44091430  0.28546264  0.25650434
   0.06434982  0.54237698  0.87534781
   0.56092766  0.04151898  0.74404136
   0.18902250  0.79447172  0.87537896
   0.93653950  0.45514209  0.47840327
   0.80976048  0.53777830  0.38956976
   0.81327685  0.20709784  0.56495504
   0.19365898  0.62452735  0.78874672
   0.05922985  0.53770662  0.38950248
   0.06475562  0.70768605  0.69937710
   0.31530698  0.53594308  0.25656945
   0.30749811  0.70275363  0.21117326
   0.56764162  0.86386420  0.16725923
   0.56105150  0.54102650  0.74400106
   0.69035223  0.45118017  0.34490344
   0.93956458  0.29334777  0.87541861
   0.56539428  0.03669623  0.25635677
   0.80924915  0.03715992  0.38941556
   0.31905501  0.36278705  0.16697691
   0.43805645  0.62200226  0.52142544
   0.56396453  0.37115418  0.43466317
   0.93232846  0.95397795  0.21173837
   0.80837138  0.37580757  0.65546734
   0.18762455  0.95535209  0.47877949
Direct configuration=     3
   0.06152144  0.03273049  0.12371843
   0.06473027  0.87283436  0.52123431
   0.19382247  0.12348798  0.78867553
   0.43315001  0.28811250  0.38913183
   0.30885134  0.71275241  0.83325745
   0.80930405  0.21260212  0.83322318
   0.18301413  0.78701946  0.38935548
   0.56213618  0.20754050  0.56510826
   0.06012482  0.04133560  0.74403996
   0.81293058  0.87252011  0.52143039
   0.18509756  0.29056655  0.74387679
   0.94162573  0.45157348  0.34503895
   0.93477998  0.28864571  0.38934414
   0.81436988  0.04254912  0.87554344
   0.18910623  0.79117531  0.61089137
   0.55804941  0.03790274  0.38923571
   0.93483275  0.96239740  0.83318279
   0.31318875  0.54236547  0.87542212
   0.68601832  0.29105947  0.74401565
   0.19263112  0.61169779  0.16698610
   0.81283301  0.20606240  0.47845685
   0.81179826  0.54298135  0.61077841
   0.31209879  0.87038349  0.43469483
   0.81416256  0.03651489  0.25660731
   0.69044496  0.95237420  0.34474198
   0.94226180  0.11307392  0.16706190
   0.93897160  0.12189148  0.52133058
   0.56543670  0.53584787  0.25655354
   0.68899311  0.79396483  0.87546118
   0.56717810  0.36346660  0.16700875
   0.43564803  0.79190339  0.74399735
   0.81285975  0.70845924  0.56513966
   0.56880582  0.87386533  0.78854401
   0.68799236  0.12226654  0.52145924
   0.19067948  0.28621518  0.25659281
   0.93430092  0.46257532  0.83321771
   0.06446827  0.20825936  0.69948246
   0.43988893  0.95827840  0.69927374
   0.30872140  0.21210640  0.83329695
   0.43338229  0.62580009  0.65487987
   0.31405611  0.54132238  0.61081960
   0.93904351  0.45723227  0.56516470
   0.68572908  0.79171314  0.74408337
   0.30958056  0.87509049  0.65497288
   0.68411386  0.78626942  0.38934948
   0.93578894  0.79135863  0.74405903
   0.06597349  0.20171316  0.34498002
   0.43994088  0.78451690  0.12388473
   0.44418129  0.12343395  0.78861185
   0.05799240  0.20556137  0.21159579
   0.06853963  0.36373495  0.16716218
   0.94076604  0.78537274  0.25654937
   0.56457333  0.20780752  0.69949095
   0.68973678  0.95808111  0.69944249
   0.68392852  0.28818466  0.38926135
   0.43844275  0.95758475  0.56529609
   0.81874175  0.37374502  0.78846247
   0.68971790  0.28578989  0.25654390
   0.18967241  0.45743726  0.56526123
   0.06833875  0.86313003  0.16707745
   0.19011088  0.29113503  0.61067946
   0.56552260  0.70265858  0.34496998
   0.31455705  0.20834907  0.69926164
   0.56328155  0.54249365  0.87526000
   0.06452551  0.70747110  0.56531769
   0.69434952  0.62400811  0.78866545
   0.30807281  0.53756085  0.38923206
   0.18965732  0.62287815  0.52151172
   0.56311163  0.87136485  0.43449206
   0.43786940  0.45745549  0.56518308
   0.43596983  0.29044645  0.74401482
   0.80507370  0.87277707  0.30048795
   0.81583051  0.70325996  0.34524005
   0.43334945  0.46267335  0.83322645
   0.68794176  0.95559662  0.47854819
   0.69013338  0.45822772  0.69958840
   0.56257185  0.87192715  0.52152149
   0.55731240  0.37628581  0.65499949
   0.80803721  0.87485415  0.65508561
   0.81288729  0.37076114  0.43460624
   0.81463585  0.53575465  0.25663097
   0.68386730  0.46271365  0.83319595
   0.18939544  0.78503066  0.12384174
   0.06423473  0.04249589  0.87547911
   0.30959509  0.37569639  0.65499484
   0.31575257  0.20223226  0.34477071
   0.81083495  0.54086179  0.74397928
   0.68380838  0.96217811  0.83322521
   0.55813739  0.87477092  0.65497895
   0.31349594  0.70694443  0.56530187
   0.31263943  0.53161410  0.12391919
   0.68187704  0.95358752  0.21168974
   0.31411275  0.20741245  0.56526873
   0.31039618  0.54126868  0.74397047
   0.68798349  0.95760059  0.56520356
   0.43812048  0.79053428  0.61079194
   0.69240173  0.61353037  0.16686961
   0.30414801  0.87229405  0.30046264
   0.31255217  0.70600020  0.47880491
   0.93907911  0.29090527  0.61044484
   0.42984868  0.62231215  0.30044697
   0.81750885  0.86358331  0.16698360
   0.55684644  0.20307942  0.21151801
   0.94271936  0.61353551  0.16711031
   0.93940392  0.79443361  0.87540806
   0.56915680  0.37349692  0.78855337
   0.06423684  0.37171237  0.52143588
   0.56268600  0.37280334  0.52136742
   0.67941196  0.12258827  0.30043613
   0.43308806  0.96228683  0.83319149
   0.18972870  0.28584943  0.12411400
   0.81911368  0.87390660  0.78848353
   0.31177548  0.37125307  0.43434877
   0.93777789  0.79210358  0.61082875
   0.43719508  0.29121891  0.61072696
   0.19135452  0.45173241  0.34506721
   0.43924359  0.28560373  0.12406792
   0.68996191  0.78598742  0.25641946
   0.18967833  0.95836809  0.69937445
   0.18904619  0.29354660  0.87548483
   0.18511863  0.12495786  0.65508891
   0.93427973  0.12425060  0.65524155
   0.30732221  0.20383159  0.21135041
   0.05975999  0.03751803  0.38932517
   0.19339793  0.11454704  0.16708750
   0.06428622  0.54245808  0.61079370
   0.94000553  0.28571854  0.25653616
   0.56130732  0.54222745  0.61075393
   0.93878337  0.95806283  0.56512316
   0.67997191  0.62235097  0.30016955
   0.93753932  0.62059207  0.43445773
   0.94384602  0.62439423  0.78858028
   0.56443719  0.70839193  0.69925751
   0.05947976  0.71297366  0.83321639
   0.93021174  0.12280150  0.30062658
   0.93990495  0.45801081  0.69964178
   0.44084851  0.78708899  0.25652517
   0.31899163  0.37335110  0.78866701
   0.43261413  0.45345000  0.21157835
   0.18893061  0.12137887  0.52129830
   0.81458365  0.70776026  0.69945456
   0.06429354  0.04053358  0.61065038
   0.55839038  0.21267402  0.83322961
   0.31326529  0.87204534  0.52130665
   0.68977098  0.28545205  0.12403050
   0.18257106  0.95339738  0.21146732
   0.68674989  0.29127808  0.61040010
   0.31359412  0.04113196  0.61080770
   0.94389410  0.12353921  0.78851477
   0.43832693  0.79398441  0.87534175
   0.81070686  0.04159568  0.74407573
   0.43777545  0.12239502  0.52159737
   0.18558127  0.62545352  0.65504534
   0.31471715  0.70823064  0.69918464
   0.93893822  0.28551407  0.12394298
   0.43829484  0.45619974  0.47886340
   0.06394315  0.70642925  0.47849464
   0.93824424  0.12039326  0.43469854
   0.42945312  0.12253707  0.30050329
   0.18753117  0.11989802  0.43465429
   0.56327788  0.04252775  0.87546149
   0.18895780  0.95763433  0.56510664
   0.68945084  0.78443630  0.12373328
   0.56337553  0.53237260  0.12386476
   0.30807370  0.03763785  0.38923388
   0.69225538  0.11374757  0.16699955
   0.80723864  0.20514244  0.21171238
   0.06535814  0.53611500  0.25662622
   0.56269636  0.70491236  0.47877625
   0.06456882  0.20724059  0.56513132
   0.55450751  0.37293439  0.30045068
   0.44084688  0.95316212  0.34486444
   0.18417313  0.96252446  0.83325382
   0.44176366  0.61159222  0.16697080
   0.93327816  0.45421281  0.21161061
   0.06191935  0.53185952  0.12383388
   0.81230019  0.37186338  0.52127310
   0.93011503  0.62280703  0.30035385
   0.31637104  0.03646157  0.25636014
   0.68673329  0.79171320  0.61099026
   0.18446543  0.46264803  0.83331183
   0.44147185  0.11370997  0.16714942
   0.31418220  0.37224905  0.52159016
   0.44435763  0.62428642  0.78869982
   0.06658971  0.03661941  0.25651502
   0.56306602  0.70758564  0.56511683
   0.93525404  0.29106165  0.74397112
   0.69389348  0.12379245  0.78842649
   0.18235918  0.45355069  0.21156605
   0.93465551  0.78633734  0.38945417
   0.68899440  0.29370801  0.87548002
   0.31799558  0.86366896  0.16731756
   0.43947222  0.45809929  0.69920476
   0.94202459  0.95266708  0.34485416
   0.68706364  0.62197027  0.52130270
   0.06014494  0.87519109  0.65508341
   0.06864747  0.87413445  0.78862850
   0.06045753  0.37555048  0.65525561
   0.68760240  0.45586130  0.47868499
   0.19070693  0.78628430  0.25661405
   0.43762449  0.12028196  0.43459690
   0.81218160  0.03230826  0.12372077
   0.93858589  0.62237284  0.52131684
   0.06256166  0.87074964  0.43463331
   0.81273303  0.53232047  0.12366173
   0.44036100  0.45137482  0.34488968