<?xml version="1.0" encoding="ISO-8859-1"?>
<modeling>
 <generator>
  <i name="program" type="string">vasp </i>
  <i name="version" type="string">5.4.4.18Apr17-6-g9f103f2a35  </i>
  <i name="subversion" type="string">(build Sep 27 2018 12:46:37) complex + VL-xray_ parallel </i>
  <i name="platform" type="string">LLNL_Quartz_ifc </i>
  <i name="date" type="string">2021 09 26 </i>
  <i name="time" type="string">23:48:14 </i>
 </generator>
 <incar>
  <i type="int" name="ISTART">     2</i>
  <i type="string" name="PREC">accurate</i>
  <i type="string" name="ALGO"> Fast</i>
  <i type="int" name="ICHARG">     2</i>
  <i type="int" name="INIWAV">     1</i>
  <i type="int" name="NELM">   100</i>
  <i type="int" name="NELMIN">     4</i>
  <i type="int" name="IBRION">     2</i>
  <i name="EDIFF">      0.00000100</i>
  <i type="int" name="NSW">     5</i>
  <i type="int" name="ISIF">     2</i>
  <i type="int" name="ISYM">     2</i>
  <i name="ENCUT">    450.00000000</i>
  <i name="POTIM">      0.25000000</i>
  <i type="string" name="LREAL"> Auto</i>
  <i type="int" name="ISMEAR">     0</i>
  <i name="SIGMA">      0.15000000</i>
  <i type="logical" name="LWAVE"> F  </i>
  <i type="logical" name="LCHARG"> F  </i>
  <i type="int" name="ICORELEVEL">     0</i>
  <i type="int" name="CLNT">     1</i>
  <i type="int" name="CLN">     1</i>
  <i type="int" name="INCAR     ">     0</i>
  <i name="CLZ">      0.00000000</i>
  <v type="int" name="KPOINT_BSE">    -1     0     0     0</v>
  <i type="int" name="NELM">   100</i>
 </incar>
 <structure name="primitive_cell" >
  <crystal>
   <varray name="basis" >
    <v>       9.72667804       0.00000000       0.00000000 </v>
    <v>       0.00000000       8.42355028       0.00000000 </v>
    <v>       0.00000000       0.00000000      45.00000000 </v>
   </varray>
   <i name="volume">   3686.99226691 </i>
   <varray name="rec_basis" >
    <v>       0.10281002       0.00000000       0.00000000 </v>
    <v>       0.00000000       0.11871479       0.00000000 </v>
    <v>       0.00000000       0.00000000       0.02222222 </v>
   </varray>
  </crystal>
  <varray name="positions" >
   <v>       0.06169398       0.03113106       0.12436051 </v>
   <v>       0.18294296       0.11219906       0.16664533 </v>
   <v>       0.05575816      -0.13437520       0.16677231 </v>
   <v>       0.18615233      -0.21152529       0.12424637 </v>
   <v>      -0.06629680      -0.21160107       0.12465035 </v>
   <v>      -0.06864775       0.11458938       0.16723886 </v>
   <v>      -0.18644258       0.03154882       0.12433591 </v>
   <v>       0.31128007       0.03162295       0.12441720 </v>
   <v>       0.18466262       0.28739840       0.12448621 </v>
   <v>      -0.06555579       0.28709310       0.12441912 </v>
   <v>       0.30515659      -0.13474309       0.16612740 </v>
   <v>       0.05535340       0.36563460       0.16680197 </v>
   <v>      -0.19320088      -0.13591731       0.16721396 </v>
   <v>       0.43192445       0.11236099       0.16668992 </v>
   <v>      -0.05916612      -0.04461593       0.21160051 </v>
   <v>       0.30681218       0.36463501       0.16689513 </v>
   <v>       0.43463182      -0.21229211       0.12450051 </v>
   <v>       0.18222253      -0.38627115       0.16668263 </v>
   <v>       0.19006459      -0.04372688       0.21204623 </v>
   <v>       0.06474660       0.20518991       0.21160345 </v>
   <v>      -0.06707205      -0.38705601       0.16684226 </v>
   <v>      -0.31576147      -0.21158914       0.12474837 </v>
   <v>       0.06181477      -0.46888304       0.12432080 </v>
   <v>      -0.19509835       0.36629127       0.16644092 </v>
   <v>      -0.31760470       0.11430784       0.16716239 </v>
   <v>       0.43465128       0.28724537       0.12452571 </v>
   <v>      -0.31371395       0.28714622       0.12435950 </v>
   <v>       0.06700069      -0.29440611       0.21166723 </v>
   <v>      -0.18482932       0.20491110       0.21163646 </v>
   <v>      -0.43747437       0.03271418       0.12458987 </v>
   <v>      -0.18740415      -0.46930297       0.12437226 </v>
   <v>       0.31574447       0.20509138       0.21158076 </v>
   <v>       0.31239951      -0.46859294       0.12426380 </v>
   <v>      -0.44446733      -0.13513340       0.16666885 </v>
   <v>      -0.18326615      -0.29475451       0.21171282 </v>
   <v>       0.43188026      -0.38630909       0.16664903 </v>
   <v>      -0.31018517      -0.04436492       0.21188015 </v>
   <v>       0.31519163      -0.29620093       0.21237520 </v>
   <v>       0.44014590      -0.04338139       0.21225094 </v>
   <v>      -0.31773199      -0.38796341       0.16669852 </v>
   <v>       0.18954677       0.45508627       0.21162370 </v>
   <v>      -0.05982792       0.45551303       0.21198237 </v>
   <v>      -0.44396860       0.36559034       0.16676773 </v>
   <v>       0.05894924       0.03833668       0.25607274 </v>
   <v>       0.18428002      -0.21075532       0.25594819 </v>
   <v>      -0.06674337      -0.21172810       0.25578774 </v>
   <v>      -0.43333213       0.20313531       0.21172281 </v>
   <v>       0.30920106       0.03807513       0.25584567 </v>
   <v>      -0.19066108       0.03823515       0.25613237 </v>
   <v>      -0.43714439      -0.47014239       0.12486953 </v>
   <v>       0.18403145       0.28933681       0.25613437 </v>
   <v>      -0.06582932       0.28927475       0.25607198 </v>
   <v>      -0.31032829       0.45540404       0.21199661 </v>
   <v>       0.43987586       0.45533112       0.21180954 </v>
   <v>      -0.43476610      -0.29557490       0.21171636 </v>
   <v>       0.05976093      -0.46184627       0.25596462 </v>
   <v>       0.43362075      -0.21061922       0.25603827 </v>
   <v>      -0.31605941      -0.21081110       0.25603784 </v>
   <v>       0.43372285       0.28944840       0.25607498 </v>
   <v>      -0.31602581       0.28922480       0.25614309 </v>
   <v>       0.30832663      -0.46149376       0.25568361 </v>
   <v>      -0.44064490       0.03879699       0.25588178 </v>
   <v>      -0.19129223      -0.46193394       0.25623082 </v>
   <v>       0.06932566      -0.12580990       0.30046488 </v>
   <v>      -0.05500085       0.12358185       0.30032151 </v>
   <v>       0.19457416       0.12429068       0.30041877 </v>
   <v>      -0.18051368      -0.12508054       0.30039161 </v>
   <v>       0.31911984      -0.12557106       0.30015284 </v>
   <v>       0.06903406       0.37493429       0.30041503 </v>
   <v>      -0.05532936      -0.37562151       0.30014632 </v>
   <v>      -0.44122814      -0.46170773       0.25606204 </v>
   <v>      -0.30496911       0.12379476       0.30036628 </v>
   <v>       0.19436711      -0.37563733       0.30044504 </v>
   <v>      -0.18055870       0.37439276       0.30033629 </v>
   <v>       0.44427035       0.12433652       0.30045616 </v>
   <v>       0.32011533       0.37326370       0.30028953 </v>
   <v>      -0.30580074      -0.37526568       0.30021018 </v>
   <v>      -0.43049832      -0.12597018       0.30047582 </v>
   <v>       0.44538187      -0.37527730       0.30041540 </v>
   <v>      -0.43089461       0.37380854       0.30038803 </v>
   <v>      -0.06597369      -0.04836299       0.34491047 </v>
   <v>       0.18369408      -0.04729533       0.34509856 </v>
   <v>       0.05876403       0.20281234       0.34505077 </v>
   <v>       0.05845115      -0.29785349       0.34497646 </v>
   <v>       0.30861302       0.20247048       0.34486169 </v>
   <v>      -0.19118888       0.20251568       0.34507587 </v>
   <v>       0.30889972      -0.29804393       0.34491584 </v>
   <v>       0.43358508      -0.04723284       0.34506432 </v>
   <v>      -0.19128790      -0.29729717       0.34506138 </v>
   <v>      -0.31642763      -0.04832927       0.34487368 </v>
   <v>      -0.06646885       0.45240610       0.34491036 </v>
   <v>       0.18364472       0.45269644       0.34507667 </v>
   <v>      -0.44127333       0.20259949       0.34492516 </v>
   <v>       0.43364019       0.45255862       0.34509787 </v>
   <v>      -0.31631648       0.45237133       0.34506590 </v>
   <v>       0.06435133       0.04051250      -0.12449516 </v>
   <v>      -0.44118135      -0.29742419       0.34504946 </v>
   <v>       0.18699392      -0.20531134      -0.12438867 </v>
   <v>       0.31368581       0.04097880      -0.12428937 </v>
   <v>      -0.06286250      -0.20630809      -0.12494376 </v>
   <v>      -0.18808402       0.04156589      -0.12456502 </v>
   <v>       0.18788628       0.29451023      -0.12420441 </v>
   <v>      -0.06376012       0.29418905      -0.12425093 </v>
   <v>       0.06640933       0.03799490       0.38913763 </v>
   <v>       0.43702939      -0.20472580      -0.12428544 </v>
   <v>       0.06328440      -0.46110098      -0.12446294 </v>
   <v>      -0.31434763      -0.20532269      -0.12450140 </v>
   <v>      -0.31339495       0.29617446      -0.12404863 </v>
   <v>       0.43727572       0.29704711      -0.12413401 </v>
   <v>      -0.05872395      -0.21244405       0.38905487 </v>
   <v>       0.19293454      -0.21243685       0.38904427 </v>
   <v>      -0.18198590       0.03908824       0.38926038 </v>
   <v>      -0.05890530       0.28667039       0.38895837 </v>
   <v>       0.31635936       0.03709823       0.38902582 </v>
   <v>       0.19125566       0.28771489       0.38904786 </v>
   <v>      -0.18635629      -0.46070160      -0.12442466 </v>
   <v>       0.31421221      -0.46128381      -0.12442193 </v>
   <v>      -0.43644944       0.03949239      -0.12426010 </v>
   <v>      -0.30834518      -0.21223040       0.38906666 </v>
   <v>       0.06700516      -0.46136734       0.38919604 </v>
   <v>      -0.30865523       0.28734817       0.38904376 </v>
   <v>       0.44142538      -0.21230190       0.38907278 </v>
   <v>       0.44149122       0.28763491       0.38911300 </v>
   <v>      -0.18366470      -0.46247568       0.38907809 </v>
   <v>      -0.43359320       0.03776432       0.38906893 </v>
   <v>       0.31620226      -0.46210057       0.38904216 </v>
   <v>      -0.43553072      -0.46094532      -0.12438567 </v>
   <v>       0.19178253      -0.03689648      -0.16598770 </v>
   <v>      -0.05817621      -0.03715751      -0.16654488 </v>
   <v>       0.06706306       0.21262146      -0.16648958 </v>
   <v>       0.06617611      -0.28488805      -0.16638077 </v>
   <v>      -0.18231711       0.21364788      -0.16666305 </v>
   <v>       0.31635199       0.21246259      -0.16669125 </v>
   <v>      -0.43357270      -0.46229457       0.38909034 </v>
   <v>      -0.18325184      -0.28644852      -0.16690895 </v>
   <v>      -0.30839215      -0.03759823      -0.16684046 </v>
   <v>       0.31715742      -0.28573409      -0.16695145 </v>
   <v>       0.44245044      -0.03795848      -0.16673062 </v>
   <v>      -0.05848079       0.46350749      -0.16666368 </v>
   <v>       0.19251538       0.46368074      -0.16688165 </v>
   <v>       0.06207065      -0.12911248       0.43443951 </v>
   <v>       0.18746313       0.11987111       0.43440297 </v>
   <v>      -0.06290049       0.11958934       0.43462298 </v>
   <v>      -0.43337521       0.21344651      -0.16692015 </v>
   <v>      -0.30855450       0.46248715      -0.16690304 </v>
   <v>       0.44195054       0.46247731      -0.16683165 </v>
   <v>      -0.18836304      -0.12918171       0.43426706 </v>
   <v>      -0.43342774      -0.28722710      -0.16696033 </v>
   <v>       0.31194432      -0.12964873       0.43448578 </v>
   <v>       0.06292928       0.37100850       0.43438027 </v>
   <v>      -0.06261554      -0.37971687       0.43446556 </v>
   <v>       0.18702611      -0.38004994       0.43447488 </v>
   <v>      -0.31216231       0.11974285       0.43437536 </v>
   <v>      -0.18837020       0.37107744       0.43421963 </v>
   <v>       0.43716125       0.12047945       0.43442909 </v>
   <v>       0.31247180       0.37026409       0.43445957 </v>
   <v>      -0.31235022      -0.37973339       0.43446560 </v>
   <v>       0.43687079      -0.37925571       0.43442443 </v>
   <v>      -0.43760568      -0.12972442       0.43445346 </v>
   <v>      -0.43789995       0.37048821       0.43444212 </v>
   <v>       0.18404813       0.12276163      -0.21159010 </v>
   <v>       0.05880305      -0.12691374      -0.21179433 </v>
   <v>      -0.06465415       0.12235194      -0.21173826 </v>
   <v>      -0.19021252      -0.12765955      -0.21166631 </v>
   <v>       0.31112858      -0.12818264      -0.21195035 </v>
   <v>       0.06120623       0.37389858      -0.21190441 </v>
   <v>       0.43443049       0.12196487      -0.21145239 </v>
   <v>       0.18528775      -0.37927275      -0.21187362 </v>
   <v>      -0.06613191      -0.37792956      -0.21186329 </v>
   <v>      -0.31579094       0.12224440      -0.21150103 </v>
   <v>       0.30975420       0.37251585      -0.21171391 </v>
   <v>      -0.19011684       0.37301447      -0.21175699 </v>
   <v>       0.43411750      -0.37780563      -0.21158754 </v>
   <v>      -0.44061942      -0.12743765      -0.21161621 </v>
   <v>      -0.31547104      -0.37873173      -0.21176913 </v>
   <v>       0.18733293      -0.04428525       0.47869904 </v>
   <v>      -0.06268571      -0.04484902       0.47871757 </v>
   <v>       0.06251274       0.20579620       0.47869668 </v>
   <v>      -0.43948622       0.37194996      -0.21165676 </v>
   <v>       0.06221354      -0.29422666       0.47857246 </v>
   <v>      -0.18773090       0.20574363       0.47868955 </v>
   <v>       0.31232712       0.20567288       0.47869363 </v>
   <v>      -0.18759482      -0.29423560       0.47864027 </v>
   <v>       0.31219770      -0.29418392       0.47867972 </v>
   <v>      -0.31254449      -0.04436972       0.47867529 </v>
   <v>       0.43723776      -0.04432384       0.47864360 </v>
   <v>      -0.06270291       0.45548968       0.47864819 </v>
   <v>       0.18729984       0.45570403       0.47867158 </v>
   <v>      -0.43774277       0.20559877       0.47864742 </v>
   <v>      -0.31287821       0.45569283       0.47863235 </v>
   <v>       0.43744341       0.45587227       0.47858529 </v>
   <v>      -0.43774957      -0.29423785       0.47863101 </v>
   <v>       0.06564547       0.03966602      -0.25603887 </v>
   <v>      -0.05969419      -0.20936491      -0.25602182 </v>
   <v>       0.19037000      -0.20950029      -0.25597949 </v>
   <v>      -0.18458878       0.04040727      -0.25614152 </v>
   <v>      -0.05966070       0.28988075      -0.25593829 </v>
   <v>       0.31539749       0.04055550      -0.25609745 </v>
   <v>       0.19094213       0.29023947      -0.25601051 </v>
   <v>       0.06534967      -0.45966385      -0.25599692 </v>
   <v>      -0.30999627      -0.20876594      -0.25599912 </v>
   <v>       0.44012192      -0.20953961      -0.25598648 </v>
   <v>      -0.30945519       0.29022992      -0.25605994 </v>
   <v>       0.44004759       0.29071791      -0.25596188 </v>
   <v>       0.31555939      -0.45963773      -0.25575896 </v>
   <v>      -0.18399967      -0.45986261      -0.25604899 </v>
   <v>      -0.43402378       0.04045590      -0.25607834 </v>
   <v>       0.06164101      -0.12868191      -0.47861163 </v>
   <v>       0.18671331       0.12143533      -0.47862410 </v>
   <v>      -0.06355607       0.12159064      -0.47853183 </v>
   <v>      -0.18843091      -0.12863027      -0.47860865 </v>
   <v>       0.31168754      -0.12833637      -0.47858644 </v>
   <v>       0.06140523       0.37209400      -0.47865428 </v>
   <v>      -0.06348631      -0.37853340      -0.47861027 </v>
   <v>       0.18676258      -0.37870139      -0.47857642 </v>
   <v>      -0.31338452       0.12154277      -0.47863007 </v>
   <v>       0.43661902       0.12147568      -0.47861607 </v>
   <v>       0.31151449       0.37158683      -0.47862530 </v>
   <v>      -0.18822243       0.37182085      -0.47861975 </v>
   <v>      -0.43469269      -0.45932184      -0.25605916 </v>
   <v>      -0.31347015      -0.37861987      -0.47872883 </v>
   <v>       0.43658033      -0.37826092      -0.47867786 </v>
   <v>      -0.43823690      -0.12811238      -0.47858235 </v>
   <v>      -0.43836127       0.37152020      -0.47861417 </v>
   <v>       0.18512899      -0.04183438      -0.30035094 </v>
   <v>      -0.06498093      -0.04170548      -0.30040273 </v>
   <v>       0.06033552       0.20789023      -0.30046539 </v>
   <v>       0.06032887      -0.29238204      -0.30041708 </v>
   <v>       0.31039816       0.20803328      -0.30036783 </v>
   <v>      -0.18950139       0.20768259      -0.30034958 </v>
   <v>       0.31025060      -0.29236047      -0.30040073 </v>
   <v>      -0.18980965      -0.29220297      -0.30045103 </v>
   <v>       0.43494318      -0.04195748      -0.30039537 </v>
   <v>      -0.31509867      -0.04182190      -0.30037866 </v>
   <v>      -0.06513479       0.45814818      -0.30035796 </v>
   <v>       0.18501492       0.45811222      -0.30045422 </v>
   <v>      -0.43955665       0.20782379      -0.30036019 </v>
   <v>       0.43524742       0.45791862      -0.30047781 </v>
   <v>      -0.31500320       0.45805134      -0.30040520 </v>
   <v>      -0.06302180      -0.04264554      -0.43455677 </v>
   <v>       0.18683239      -0.04294735      -0.43448701 </v>
   <v>       0.06218617       0.20720330      -0.43464423 </v>
   <v>      -0.43962035      -0.29237068      -0.30041937 </v>
   <v>       0.06181187      -0.29373024      -0.43448068 </v>
   <v>      -0.18861691       0.20673047      -0.43457638 </v>
   <v>       0.31140304       0.20662013      -0.43450865 </v>
   <v>       0.31133806      -0.29281881      -0.43454343 </v>
   <v>      -0.18854989      -0.29339599      -0.43452410 </v>
   <v>       0.43700237      -0.04288594      -0.43462476 </v>
   <v>      -0.31258421      -0.04291325      -0.43450262 </v>
   <v>       0.18732472       0.45719544      -0.43453140 </v>
   <v>      -0.06341215       0.45649538      -0.43441203 </v>
   <v>      -0.43781161       0.20705406      -0.43450864 </v>
   <v>      -0.31321577       0.45691994      -0.43455543 </v>
   <v>       0.43683447       0.45701672      -0.43451027 </v>
   <v>      -0.43797347      -0.29288496      -0.43450219 </v>
   <v>       0.06654513      -0.12514325      -0.34512067 </v>
   <v>      -0.05853319       0.12503923      -0.34510769 </v>
   <v>       0.19153180       0.12503011      -0.34513143 </v>
   <v>      -0.18364671      -0.12514737      -0.34507599 </v>
   <v>       0.31656394      -0.12509188      -0.34514308 </v>
   <v>       0.06639335       0.37489577      -0.34510792 </v>
   <v>      -0.05851060      -0.37482637      -0.34513659 </v>
   <v>       0.19145805      -0.37499744      -0.34510403 </v>
   <v>      -0.30863065       0.12487052      -0.34512690 </v>
   <v>      -0.18346272       0.37484440      -0.34510814 </v>
   <v>       0.44162587       0.12472514      -0.34516498 </v>
   <v>       0.31639535       0.37489931      -0.34509991 </v>
   <v>      -0.30864494      -0.37495611      -0.34506661 </v>
   <v>      -0.43359297      -0.12504177      -0.34510297 </v>
   <v>       0.44146901      -0.37506821      -0.34512474 </v>
   <v>      -0.43344887       0.37486032      -0.34510981 </v>
   <v>       0.05871134       0.03799179      -0.38916069 </v>
   <v>       0.18359534      -0.21187347      -0.38916500 </v>
   <v>      -0.06632200      -0.21242514      -0.38910313 </v>
   <v>       0.30863778       0.03797547      -0.38904152 </v>
   <v>      -0.19116723       0.03793976      -0.38912844 </v>
   <v>       0.18374247       0.28794507      -0.38910091 </v>
   <v>      -0.06632817       0.28780951      -0.38909486 </v>
   <v>       0.43368644      -0.21198423      -0.38913933 </v>
   <v>       0.05864560      -0.46229079      -0.38908003 </v>
   <v>      -0.31632017      -0.21199671      -0.38913657 </v>
   <v>       0.43374734       0.28796239      -0.38913478 </v>
   <v>      -0.31640307       0.28800747      -0.38906358 </v>
   <v>       0.30878981      -0.46208708      -0.38912939 </v>
   <v>      -0.19127457      -0.46213500      -0.38909785 </v>
   <v>      -0.44098449       0.03837307      -0.38902382 </v>
   <v>      -0.44136805      -0.46195499      -0.38914379 </v>
  </varray>
 </structure>
 <varray name="primitive_index" >
  <v type="int" >        1 </v>
  <v type="int" >      125 </v>
  <v type="int" >       60 </v>
  <v type="int" >       83 </v>
  <v type="int" >       44 </v>
  <v type="int" >       26 </v>
  <v type="int" >      202 </v>
  <v type="int" >      256 </v>
  <v type="int" >      111 </v>
  <v type="int" >      155 </v>
  <v type="int" >      277 </v>
  <v type="int" >       51 </v>
  <v type="int" >      102 </v>
  <v type="int" >      182 </v>
  <v type="int" >      212 </v>
  <v type="int" >      108 </v>
  <v type="int" >      170 </v>
  <v type="int" >       20 </v>
  <v type="int" >      146 </v>
  <v type="int" >       50 </v>
  <v type="int" >      104 </v>
  <v type="int" >      163 </v>
  <v type="int" >      176 </v>
  <v type="int" >      284 </v>
  <v type="int" >      166 </v>
  <v type="int" >      117 </v>
  <v type="int" >      145 </v>
  <v type="int" >      250 </v>
  <v type="int" >      167 </v>
  <v type="int" >      114 </v>
  <v type="int" >      205 </v>
  <v type="int" >      249 </v>
  <v type="int" >       91 </v>
  <v type="int" >      192 </v>
  <v type="int" >      213 </v>
  <v type="int" >      174 </v>
  <v type="int" >       92 </v>
  <v type="int" >      276 </v>
  <v type="int" >      229 </v>
  <v type="int" >       97 </v>
  <v type="int" >      189 </v>
  <v type="int" >      175 </v>
  <v type="int" >       30 </v>
  <v type="int" >      185 </v>
  <v type="int" >      200 </v>
  <v type="int" >       52 </v>
  <v type="int" >      103 </v>
  <v type="int" >      179 </v>
  <v type="int" >       24 </v>
  <v type="int" >      283 </v>
  <v type="int" >      112 </v>
  <v type="int" >      127 </v>
  <v type="int" >      261 </v>
  <v type="int" >      139 </v>
  <v type="int" >      243 </v>
  <v type="int" >      168 </v>
  <v type="int" >      137 </v>
  <v type="int" >      118 </v>
  <v type="int" >      265 </v>
  <v type="int" >       58 </v>
  <v type="int" >      275 </v>
  <v type="int" >      221 </v>
  <v type="int" >       81 </v>
  <v type="int" >      214 </v>
  <v type="int" >      135 </v>
  <v type="int" >      215 </v>
  <v type="int" >       72 </v>
  <v type="int" >       98 </v>
  <v type="int" >      226 </v>
  <v type="int" >      178 </v>
  <v type="int" >       28 </v>
  <v type="int" >      109 </v>
  <v type="int" >      263 </v>
  <v type="int" >      220 </v>
  <v type="int" >      159 </v>
  <v type="int" >      242 </v>
  <v type="int" >      130 </v>
  <v type="int" >      210 </v>
  <v type="int" >      101 </v>
  <v type="int" >      171 </v>
  <v type="int" >      194 </v>
  <v type="int" >      258 </v>
  <v type="int" >       47 </v>
  <v type="int" >      216 </v>
  <v type="int" >       86 </v>
  <v type="int" >      207 </v>
  <v type="int" >      208 </v>
  <v type="int" >      172 </v>
  <v type="int" >       73 </v>
  <v type="int" >       25 </v>
  <v type="int" >       12 </v>
  <v type="int" >      116 </v>
  <v type="int" >      219 </v>
  <v type="int" >      206 </v>
  <v type="int" >       48 </v>
  <v type="int" >      282 </v>
  <v type="int" >      164 </v>
  <v type="int" >      268 </v>
  <v type="int" >      245 </v>
  <v type="int" >      281 </v>
  <v type="int" >       14 </v>
  <v type="int" >      120 </v>
  <v type="int" >        7 </v>
  <v type="int" >      124 </v>
  <v type="int" >      150 </v>
  <v type="int" >      266 </v>
  <v type="int" >       29 </v>
  <v type="int" >      191 </v>
  <v type="int" >      255 </v>
  <v type="int" >      190 </v>
  <v type="int" >      287 </v>
  <v type="int" >      279 </v>
  <v type="int" >       13 </v>
  <v type="int" >      165 </v>
  <v type="int" >      248 </v>
  <v type="int" >      231 </v>
  <v type="int" >       18 </v>
  <v type="int" >      161 </v>
  <v type="int" >       45 </v>
  <v type="int" >      273 </v>
  <v type="int" >       84 </v>
  <v type="int" >      264 </v>
  <v type="int" >        4 </v>
  <v type="int" >      123 </v>
  <v type="int" >       16 </v>
  <v type="int" >       67 </v>
  <v type="int" >       64 </v>
  <v type="int" >      280 </v>
  <v type="int" >       17 </v>
  <v type="int" >      259 </v>
  <v type="int" >      134 </v>
  <v type="int" >        6 </v>
  <v type="int" >       39 </v>
  <v type="int" >      222 </v>
  <v type="int" >      253 </v>
  <v type="int" >       88 </v>
  <v type="int" >        5 </v>
  <v type="int" >      110 </v>
  <v type="int" >       36 </v>
  <v type="int" >      181 </v>
  <v type="int" >      285 </v>
  <v type="int" >      160 </v>
  <v type="int" >      158 </v>
  <v type="int" >      143 </v>
  <v type="int" >       82 </v>
  <v type="int" >       74 </v>
  <v type="int" >      235 </v>
  <v type="int" >      241 </v>
  <v type="int" >       23 </v>
  <v type="int" >      218 </v>
  <v type="int" >      131 </v>
  <v type="int" >      238 </v>
  <v type="int" >      257 </v>
  <v type="int" >       80 </v>
  <v type="int" >      201 </v>
  <v type="int" >      113 </v>
  <v type="int" >      232 </v>
  <v type="int" >      278 </v>
  <v type="int" >       69 </v>
  <v type="int" >      251 </v>
  <v type="int" >        3 </v>
  <v type="int" >      197 </v>
  <v type="int" >      149 </v>
  <v type="int" >       55 </v>
  <v type="int" >      224 </v>
  <v type="int" >      254 </v>
  <v type="int" >       49 </v>
  <v type="int" >      272 </v>
  <v type="int" >      132 </v>
  <v type="int" >      188 </v>
  <v type="int" >      138 </v>
  <v type="int" >       57 </v>
  <v type="int" >      184 </v>
  <v type="int" >       33 </v>
  <v type="int" >       66 </v>
  <v type="int" >       94 </v>
  <v type="int" >      236 </v>
  <v type="int" >      223 </v>
  <v type="int" >      106 </v>
  <v type="int" >      157 </v>
  <v type="int" >       21 </v>
  <v type="int" >      230 </v>
  <v type="int" >      234 </v>
  <v type="int" >       99 </v>
  <v type="int" >       75 </v>
  <v type="int" >      105 </v>
  <v type="int" >      269 </v>
  <v type="int" >      244 </v>
  <v type="int" >      237 </v>
  <v type="int" >      199 </v>
  <v type="int" >      156 </v>
  <v type="int" >      169 </v>
  <v type="int" >        9 </v>
  <v type="int" >       46 </v>
  <v type="int" >      262 </v>
  <v type="int" >      151 </v>
  <v type="int" >      187 </v>
  <v type="int" >      239 </v>
  <v type="int" >       11 </v>
  <v type="int" >      211 </v>
  <v type="int" >       43 </v>
  <v type="int" >       31 </v>
  <v type="int" >       19 </v>
  <v type="int" >       71 </v>
  <v type="int" >      288 </v>
  <v type="int" >       87 </v>
  <v type="int" >      267 </v>
  <v type="int" >       27 </v>
  <v type="int" >      140 </v>
  <v type="int" >      286 </v>
  <v type="int" >       10 </v>
  <v type="int" >      144 </v>
  <v type="int" >      107 </v>
  <v type="int" >      203 </v>
  <v type="int" >       68 </v>
  <v type="int" >       34 </v>
  <v type="int" >      119 </v>
  <v type="int" >      183 </v>
  <v type="int" >      177 </v>
  <v type="int" >      270 </v>
  <v type="int" >      195 </v>
  <v type="int" >      252 </v>
  <v type="int" >       77 </v>
  <v type="int" >      247 </v>
  <v type="int" >      173 </v>
  <v type="int" >      225 </v>
  <v type="int" >       37 </v>
  <v type="int" >      274 </v>
  <v type="int" >       63 </v>
  <v type="int" >      233 </v>
  <v type="int" >      154 </v>
  <v type="int" >      141 </v>
  <v type="int" >       38 </v>
  <v type="int" >       54 </v>
  <v type="int" >      152 </v>
  <v type="int" >      246 </v>
  <v type="int" >       53 </v>
  <v type="int" >      193 </v>
  <v type="int" >       76 </v>
  <v type="int" >      129 </v>
  <v type="int" >      162 </v>
  <v type="int" >       62 </v>
  <v type="int" >      133 </v>
  <v type="int" >       65 </v>
  <v type="int" >      271 </v>
  <v type="int" >       93 </v>
  <v type="int" >       90 </v>
  <v type="int" >       32 </v>
  <v type="int" >       56 </v>
  <v type="int" >       95 </v>
  <v type="int" >       59 </v>
  <v type="int" >       42 </v>
  <v type="int" >        8 </v>
  <v type="int" >      228 </v>
  <v type="int" >       70 </v>
  <v type="int" >      186 </v>
  <v type="int" >      196 </v>
  <v type="int" >      122 </v>
  <v type="int" >      121 </v>
  <v type="int" >       79 </v>
  <v type="int" >        2 </v>
  <v type="int" >      198 </v>
  <v type="int" >      240 </v>
  <v type="int" >      153 </v>
  <v type="int" >      209 </v>
  <v type="int" >       35 </v>
  <v type="int" >      204 </v>
  <v type="int" >       85 </v>
  <v type="int" >      227 </v>
  <v type="int" >       89 </v>
  <v type="int" >       40 </v>
  <v type="int" >       78 </v>
  <v type="int" >      142 </v>
  <v type="int" >       15 </v>
  <v type="int" >      136 </v>
  <v type="int" >      148 </v>
  <v type="int" >      217 </v>
  <v type="int" >       61 </v>
  <v type="int" >      100 </v>
  <v type="int" >       96 </v>
  <v type="int" >      126 </v>
  <v type="int" >      180 </v>
  <v type="int" >      115 </v>
  <v type="int" >      147 </v>
  <v type="int" >       41 </v>
  <v type="int" >       22 </v>
  <v type="int" >      260 </v>
  <v type="int" >      128 </v>
 </varray>
 <kpoints>
  <generation param="Gamma">
   <v type="int" name="divisions">       4        4        1 </v>
   <v name="usershift">      0.00000000       0.00000000       0.00000000 </v>
   <v name="genvec1">      0.25000000       0.00000000       0.00000000 </v>
   <v name="genvec2">      0.00000000       0.25000000       0.00000000 </v>
   <v name="genvec3">      0.00000000       0.00000000       1.00000000 </v>
   <v name="shift">      0.00000000       0.00000000       0.00000000 </v>
  </generation>
  <varray name="kpointlist" >
   <v>       0.00000000       0.00000000       0.00000000 </v>
   <v>       0.25000000       0.00000000       0.00000000 </v>
   <v>       0.50000000       0.00000000       0.00000000 </v>
   <v>       0.00000000       0.25000000       0.00000000 </v>
   <v>       0.25000000       0.25000000       0.00000000 </v>
   <v>       0.50000000       0.25000000       0.00000000 </v>
   <v>      -0.25000000       0.25000000       0.00000000 </v>
   <v>       0.00000000       0.50000000       0.00000000 </v>
   <v>       0.25000000       0.50000000       0.00000000 </v>
   <v>       0.50000000       0.50000000       0.00000000 </v>
  </varray>
  <varray name="weights" >
   <v>       0.06250000 </v>
   <v>       0.12500000 </v>
   <v>       0.06250000 </v>
   <v>       0.12500000 </v>
   <v>       0.12500000 </v>
   <v>       0.12500000 </v>
   <v>       0.12500000 </v>
   <v>       0.06250000 </v>
   <v>       0.12500000 </v>
   <v>       0.06250000 </v>
  </varray>
 </kpoints>
 <parameters>
  <separator name="general" >
   <i type="string" name="SYSTEM">unknown system</i>
   <i type="logical" name="LCOMPAT"> F  </i>
  </separator>
  <separator name="electronic" >
   <i type="string" name="PREC">accura</i>
   <i name="ENMAX">    450.00000000</i>
   <i name="ENAUG">    838.43500000</i>
   <i name="EDIFF">      0.00000100</i>
   <i type="int" name="IALGO">    68</i>
   <i type="int" name="IWAVPR">    11</i>
   <i type="int" name="NBANDS">  1386</i>
   <i name="NELECT">   2290.00000000</i>
   <i type="int" name="TURBO">     0</i>
   <i type="int" name="IRESTART">     0</i>
   <i type="int" name="NREBOOT">     0</i>
   <i type="int" name="NMIN">     0</i>
   <i name="EREF">      0.00000000</i>
   <separator name="electronic smearing" >
    <i type="int" name="ISMEAR">     0</i>
    <i name="SIGMA">      0.15000000</i>
    <i name="KSPACING">      0.50000000</i>
    <i type="logical" name="KGAMMA"> T  </i>
   </separator>
   <separator name="electronic projectors" >
    <i type="logical" name="LREAL"> T  </i>
    <v name="ROPT">     -0.00025000     -0.00025000</v>
    <i type="int" name="LMAXPAW">  -100</i>
    <i type="int" name="LMAXMIX">     2</i>
    <i type="logical" name="NLSPLINE"> F  </i>
   </separator>
   <separator name="electronic startup" >
    <i type="int" name="ISTART">     0</i>
    <i type="int" name="ICHARG">     2</i>
    <i type="int" name="INIWAV">     1</i>
   </separator>
   <separator name="electronic spin" >
    <i type="int" name="ISPIN">     1</i>
    <i type="logical" name="LNONCOLLINEAR"> F  </i>
    <v name="MAGMOM">      1.00000000      1.00000000      1.00000000      1.00000000      1.00000000      1.00000000      1.00000000      1.00000000      1.00000000      1.00000000      1.00000000      1.00000000      1.00000000      1.00000000      1.00000000      1.00000000      1.00000000      1.00000000      1.00000000      1.00000000
      1.00000000      1.00000000      1.00000000      1.00000000      1.00000000      1.00000000      1.00000000      1.00000000      1.00000000      1.00000000      1.00000000      1.00000000      1.00000000      1.00000000      1.00000000      1.00000000      1.00000000      1.00000000      1.00000000      1.00000000
      1.00000000      1.00000000      1.00000000      1.00000000      1.00000000      1.00000000      1.00000000      1.00000000      1.00000000      1.00000000      1.00000000      1.00000000      1.00000000      1.00000000      1.00000000      1.00000000      1.00000000      1.00000000      1.00000000      1.00000000
      1.00000000      1.00000000      1.00000000      1.00000000      1.00000000      1.00000000      1.00000000      1.00000000      1.00000000      1.00000000      1.00000000      1.00000000      1.00000000      1.00000000      1.00000000      1.00000000      1.00000000      1.00000000      1.00000000      1.00000000
      1.00000000      1.00000000      1.00000000      1.00000000      1.00000000      1.00000000      1.00000000      1.00000000      1.00000000      1.00000000      1.00000000      1.00000000      1.00000000      1.00000000      1.00000000      1.00000000      1.00000000      1.00000000      1.00000000      1.00000000
      1.00000000      1.00000000      1.00000000      1.00000000      1.00000000      1.00000000      1.00000000      1.00000000      1.00000000      1.00000000      1.00000000      1.00000000      1.00000000      1.00000000      1.00000000      1.00000000      1.00000000      1.00000000      1.00000000      1.00000000
      1.00000000      1.00000000      1.00000000      1.00000000      1.00000000      1.00000000      1.00000000      1.00000000      1.00000000      1.00000000      1.00000000      1.00000000      1.00000000      1.00000000      1.00000000      1.00000000      1.00000000      1.00000000      1.00000000      1.00000000
      1.00000000      1.00000000      1.00000000      1.00000000      1.00000000      1.00000000      1.00000000      1.00000000      1.00000000      1.00000000      1.00000000      1.00000000      1.00000000      1.00000000      1.00000000      1.00000000      1.00000000      1.00000000      1.00000000      1.00000000
      1.00000000      1.00000000      1.00000000      1.00000000      1.00000000      1.00000000      1.00000000      1.00000000      1.00000000      1.00000000      1.00000000      1.00000000      1.00000000      1.00000000      1.00000000      1.00000000      1.00000000      1.00000000      1.00000000      1.00000000
      1.00000000      1.00000000      1.00000000      1.00000000      1.00000000      1.00000000      1.00000000      1.00000000      1.00000000      1.00000000      1.00000000      1.00000000      1.00000000      1.00000000      1.00000000      1.00000000      1.00000000      1.00000000      1.00000000      1.00000000
      1.00000000      1.00000000      1.00000000      1.00000000      1.00000000      1.00000000      1.00000000      1.00000000      1.00000000      1.00000000      1.00000000      1.00000000      1.00000000      1.00000000      1.00000000      1.00000000      1.00000000      1.00000000      1.00000000      1.00000000
      1.00000000      1.00000000      1.00000000      1.00000000      1.00000000      1.00000000      1.00000000      1.00000000      1.00000000      1.00000000      1.00000000      1.00000000      1.00000000      1.00000000      1.00000000      1.00000000      1.00000000      1.00000000      1.00000000      1.00000000
      1.00000000      1.00000000      1.00000000      1.00000000      1.00000000      1.00000000      1.00000000      1.00000000      1.00000000      1.00000000      1.00000000      1.00000000      1.00000000      1.00000000      1.00000000      1.00000000      1.00000000      1.00000000      1.00000000      1.00000000
      1.00000000      1.00000000      1.00000000      1.00000000      1.00000000      1.00000000      1.00000000      1.00000000      1.00000000      1.00000000      1.00000000      1.00000000      1.00000000      1.00000000      1.00000000      1.00000000      1.00000000      1.00000000      1.00000000      1.00000000
      1.00000000      1.00000000      1.00000000      1.00000000      1.00000000      1.00000000      1.00000000      1.00000000</v>
    <i name="NUPDOWN">     -1.00000000</i>
    <i type="logical" name="LSORBIT"> F  </i>
    <v name="SAXIS">      0.00000000      0.00000000      1.00000000</v>
    <i type="logical" name="LSPIRAL"> F  </i>
    <v name="QSPIRAL">      0.00000000      0.00000000      0.00000000</v>
    <i type="logical" name="LZEROZ"> F  </i>
   </separator>
   <separator name="electronic exchange-correlation" >
    <i type="logical" name="LASPH"> F  </i>
    <i type="logical" name="LMETAGGA"> F  </i>
   </separator>
   <separator name="electronic convergence" >
    <i type="int" name="NELM">   100</i>
    <i type="int" name="NELMDL">     0</i>
    <i type="int" name="NELMIN">     4</i>
    <i name="ENINI">    450.00000000</i>
    <separator name="electronic convergence detail" >
     <i type="logical" name="LDIAG"> T  </i>
     <i type="logical" name="LSUBROT"> F  </i>
     <i name="WEIMIN">      0.00100000</i>
     <i name="EBREAK">      0.00000000</i>
     <i name="DEPER">      0.30000000</i>
     <i type="int" name="NRMM">     4</i>
     <i name="TIME">      0.40000000</i>
    </separator>
   </separator>
   <separator name="electronic mixer" >
    <i name="AMIX">      0.40000000</i>
    <i name="BMIX">      1.00000000</i>
    <i name="AMIN">      0.10000000</i>
    <i name="AMIX_MAG">      1.60000000</i>
    <i name="BMIX_MAG">      1.00000000</i>
    <separator name="electronic mixer details" >
     <i type="int" name="IMIX">     4</i>
     <i type="logical" name="MIXFIRST"> F  </i>
     <i type="int" name="MAXMIX">   -45</i>
     <i name="WC">    100.00000000</i>
     <i type="int" name="INIMIX">     1</i>
     <i type="int" name="MIXPRE">     1</i>
     <i type="int" name="MREMOVE">     5</i>
    </separator>
   </separator>
   <separator name="electronic dipolcorrection" >
    <i type="logical" name="LDIPOL"> F  </i>
    <i type="logical" name="LMONO"> F  </i>
    <i type="int" name="IDIPOL">     0</i>
    <i name="EPSILON">      1.00000000</i>
    <v name="DIPOL">   -100.00000000   -100.00000000   -100.00000000</v>
    <i name="EFIELD">      0.00000000</i>
   </separator>
  </separator>
  <separator name="grids" >
   <i type="int" name="NGX">    70</i>
   <i type="int" name="NGY">    60</i>
   <i type="int" name="NGZ">   320</i>
   <i type="int" name="NGXF">   140</i>
   <i type="int" name="NGYF">   120</i>
   <i type="int" name="NGZF">   640</i>
   <i type="logical" name="ADDGRID"> F  </i>
  </separator>
  <separator name="ionic" >
   <i type="int" name="NSW">     5</i>
   <i type="int" name="IBRION">     2</i>
   <i type="int" name="MDALGO">     0</i>
   <i type="int" name="ISIF">     2</i>
   <i name="PSTRESS">      0.00000000</i>
   <i name="EDIFFG">      0.00001000</i>
   <i type="int" name="NFREE">     1</i>
   <i name="POTIM">      0.25000000</i>
   <i name="SMASS">     -3.00000000</i>
   <i name="SCALEE">      1.00000000</i>
  </separator>
  <separator name="ionic md" >
   <i name="TEBEG">      0.00010000</i>
   <i name="TEEND">      0.00010000</i>
   <i type="int" name="NBLOCK">     1</i>
   <i type="int" name="KBLOCK">     5</i>
   <i type="int" name="NPACO">   256</i>
   <i name="APACO">     16.00000000</i>
  </separator>
  <separator name="symmetry" >
   <i type="int" name="ISYM">     2</i>
   <i name="SYMPREC">      0.00001000</i>
  </separator>
  <separator name="dos" >
   <i type="int" name="LORBIT">     0</i>
   <v name="RWIGS">     -1.00000000     -1.00000000</v>
   <i type="int" name="NEDOS">   301</i>
   <i name="EMIN">     10.00000000</i>
   <i name="EMAX">    -10.00000000</i>
   <i name="EFERMI">      0.00000000</i>
  </separator>
  <separator name="writing" >
   <i type="int" name="NWRITE">     2</i>
   <i type="logical" name="LWAVE"> F  </i>
   <i type="logical" name="LDOWNSAMPLE"> F  </i>
   <i type="logical" name="LCHARG"> F  </i>
   <i type="logical" name="LPARD"> F  </i>
   <i type="logical" name="LVTOT"> F  </i>
   <i type="logical" name="LVHAR"> F  </i>
   <i type="logical" name="LELF"> F  </i>
   <i type="logical" name="LOPTICS"> F  </i>
   <v name="STM">      0.00000000      0.00000000      0.00000000      0.00000000      0.00000000      0.00000000      0.00000000</v>
  </separator>
  <separator name="performance" >
   <i type="int" name="NPAR">    14</i>
   <i type="int" name="NSIM">     4</i>
   <i type="int" name="NBLK">    -1</i>
   <i type="logical" name="LPLANE"> T  </i>
   <i type="logical" name="LSCALAPACK"> T  </i>
   <i type="logical" name="LSCAAWARE"> T  </i>
   <i type="logical" name="LSCALU"> F  </i>
   <i type="logical" name="LASYNC"> F  </i>
   <i type="logical" name="LORBITALREAL"> F  </i>
  </separator>
  <separator name="miscellaneous" >
   <i type="int" name="IDIOT">     3</i>
   <i type="int" name="ISPECIAL">     0</i>
   <i type="logical" name="LMUSIC"> F  </i>
   <v name="POMASS">     55.84700000     54.93800000</v>
   <v name="DARWINR">      0.00000000      0.00000000</v>
   <v name="DARWINV">      1.00000000      1.00000000</v>
   <i type="logical" name="LCORR"> T  </i>
  </separator>
  <i type="logical" name="GGA_COMPAT"> T  </i>
  <i type="logical" name="LBERRY"> F  </i>
  <i type="int" name="ICORELEVEL">     0</i>
  <i type="logical" name="LDAU"> F  </i>
  <i type="int" name="I_CONSTRAINED_M">     0</i>
  <separator name="electronic exchange-correlation" >
   <i type="string" name="GGA">--</i>
   <i type="int" name="VOSKOWN">     0</i>
   <i type="logical" name="LHFCALC"> F  </i>
   <i type="string" name="PRECFOCK"></i>
   <i type="logical" name="LSYMGRAD"> F  </i>
   <i type="logical" name="LHFONE"> F  </i>
   <i type="logical" name="LRHFCALC"> F  </i>
   <i type="logical" name="LTHOMAS"> F  </i>
   <i type="logical" name="LMODELHF"> F  </i>
   <i name="ENCUT4O">     -1.00000000</i>
   <i type="int" name="EXXOEP">     0</i>
   <i type="int" name="FOURORBIT">     0</i>
   <i name="AEXX">      0.00000000</i>
   <i name="HFALPHA">      0.00000000</i>
   <i name="MCALPHA">      0.00000000</i>
   <i name="ALDAX">      1.00000000</i>
   <i name="AGGAX">      1.00000000</i>
   <i name="ALDAC">      1.00000000</i>
   <i name="AGGAC">      1.00000000</i>
   <i type="int" name="NKREDX">     1</i>
   <i type="int" name="NKREDY">     1</i>
   <i type="int" name="NKREDZ">     1</i>
   <i type="logical" name="SHIFTRED"> F  </i>
   <i type="logical" name="ODDONLY"> F  </i>
   <i type="logical" name="EVENONLY"> F  </i>
   <i type="int" name="LMAXFOCK">     0</i>
   <i type="int" name="NMAXFOCKAE">     0</i>
   <i type="logical" name="LFOCKAEDFT"> F  </i>
   <i name="HFSCREEN">      0.00000000</i>
   <i name="HFSCREENC">      0.00000000</i>
   <i type="int" name="NBANDSGWLOW">     0</i>
  </separator>
  <separator name="vdW DFT" >
   <i type="logical" name="LUSE_VDW"> F  </i>
   <i name="Zab_VDW">     -0.84910000</i>
   <i name="PARAM1">      0.12340000</i>
   <i name="PARAM2">      1.00000000</i>
   <i name="PARAM3">      0.00000000</i>
  </separator>
  <separator name="model GW" >
   <i type="int" name="MODEL_GW">     0</i>
   <i name="MODEL_EPS0">      7.68123389</i>
   <i name="MODEL_ALPHA">      1.00000000</i>
  </separator>
  <separator name="linear response parameters" >
   <i type="logical" name="LEPSILON"> F  </i>
   <i type="logical" name="LRPA"> F  </i>
   <i type="logical" name="LNABLA"> F  </i>
   <i type="logical" name="LVEL"> F  </i>
   <i type="int" name="KINTER">     0</i>
   <i name="CSHIFT">      0.10000000</i>
   <i name="OMEGAMAX">     -1.00000000</i>
   <i name="DEG_THRESHOLD">      0.00200000</i>
   <i name="RTIME">     -0.10000000</i>
   <i name="WPLASMAI">      0.00000000</i>
   <v name="DFIELD">      0.00000000      0.00000000      0.00000000</v>
   <v name="WPLASMA">      0.00000000      0.00000000      0.00000000      0.00000000      0.00000000      0.00000000      0.00000000      0.00000000      0.00000000</v>
  </separator>
  <separator name="orbital magnetization" >
   <i type="logical" name="NUCIND"> F  </i>
   <v name="MAGPOS">      0.00000000      0.00000000      0.00000000</v>
   <i type="logical" name="LNICSALL"> T  </i>
   <i type="logical" name="ORBITALMAG"> F  </i>
   <i type="logical" name="LMAGBLOCH"> F  </i>
   <i type="logical" name="LCHIMAG"> F  </i>
   <i type="logical" name="LGAUGE"> T  </i>
   <i type="int" name="MAGATOM">     0</i>
   <v name="MAGDIPOL">      0.00000000      0.00000000      0.00000000</v>
   <v name="AVECCONST">      0.00000000      0.00000000      0.00000000</v>
  </separator>
  <separator name="response functions" >
   <i type="logical" name="LADDER"> F  </i>
   <i type="logical" name="LRPAFORCE"> F  </i>
   <i type="logical" name="LFXC"> F  </i>
   <i type="logical" name="LHARTREE"> T  </i>
   <i type="int" name="IBSE">     0</i>
   <v type="int" name="KPOINT">    -1     0     0     0</v>
   <i type="logical" name="LTCTE"> F  </i>
   <i type="logical" name="LTETE"> F  </i>
   <i type="logical" name="LTRIPLET"> F  </i>
   <i type="logical" name="LFXCEPS"> F  </i>
   <i type="logical" name="LFXHEG"> F  </i>
   <i type="int" name="NATURALO">     2</i>
   <i type="logical" name="L2ORDER"> F  </i>
   <i type="logical" name="LMP2LT"> F  </i>
   <i type="logical" name="LUSEW"> F  </i>
   <i name="ENCUTGW">     -2.00000000</i>
   <i name="ENCUTGWSOFT">     -2.00000000</i>
   <i name="ENCUTLF">     -1.00000000</i>
   <i type="int" name="LMAXMP2">    -1</i>
   <i name="SCISSOR">      0.00000000</i>
   <i type="int" name="NOMEGA">     0</i>
   <i type="int" name="NOMEGAR">     0</i>
   <i type="int" name="NBANDSGW">    -1</i>
   <i type="int" name="NBANDSO">    -1</i>
   <i type="int" name="NBANDSV">    -1</i>
   <i type="int" name="NELM">   100</i>
   <i type="int" name="NELMHF">     1</i>
   <i type="int" name="DIM">     3</i>
   <i type="int" name="ANTIRES">     0</i>
   <i name="OMEGAMAX">    -30.00000000</i>
   <i name="OMEGAMIN">    -30.00000000</i>
   <i name="OMEGATL">   -200.00000000</i>
   <i type="int" name="OMEGAGRID">   140</i>
   <i name="CSHIFT">     -0.10000000</i>
   <i type="logical" name="SELFENERGY"> F  </i>
   <i type="logical" name="LSPECTRAL"> F  </i>
   <i type="logical" name="LSPECTRALGW"> F  </i>
   <i type="logical" name="LSINGLES"> F  </i>
   <i type="logical" name="LFERMIGW"> F  </i>
   <i type="logical" name="ODDONLYGW"> F  </i>
   <i type="logical" name="EVENONLYGW"> F  </i>
   <i type="int" name="NKREDLFX">     1</i>
   <i type="int" name="NKREDLFY">     1</i>
   <i type="int" name="NKREDLFZ">     1</i>
   <i type="int" name="MAXMEM">  2800</i>
   <i type="int" name="TELESCOPE">     0</i>
   <i type="int" name="TAUPAR">     1</i>
   <i type="int" name="OMEGAPAR">    -1</i>
   <i name="LAMBDA">      1.00000000</i>
  </separator>
  <separator name="External order field" >
   <i name="OFIELD_KAPPA">      0.00000000</i>
   <v name="OFIELD_K">      0.00000000      0.00000000      0.00000000</v>
   <i name="OFIELD_Q6_NEAR">      0.00000000</i>
   <i name="OFIELD_Q6_FAR">      0.00000000</i>
   <i name="OFIELD_A">      0.00000000</i>
  </separator>
 </parameters>
 <atominfo>
  <atoms>     288 </atoms>
  <types>       2 </types>
  <array name="atoms" >
   <dimension dim="1">ion</dimension>
   <field type="string">element</field>
   <field type="int">atomtype</field>
   <set>
    <rc><c>Fe</c><c>   1</c></rc>
    <rc><c>Fe</c><c>   1</c></rc>
    <rc><c>Fe</c><c>   1</c></rc>
    <rc><c>Fe</c><c>   1</c></rc>
    <rc><c>Fe</c><c>   1</c></rc>
    <rc><c>Fe</c><c>   1</c></rc>
    <rc><c>Fe</c><c>   1</c></rc>
    <rc><c>Fe</c><c>   1</c></rc>
    <rc><c>Fe</c><c>   1</c></rc>
    <rc><c>Fe</c><c>   1</c></rc>
    <rc><c>Fe</c><c>   1</c></rc>
    <rc><c>Fe</c><c>   1</c></rc>
    <rc><c>Fe</c><c>   1</c></rc>
    <rc><c>Fe</c><c>   1</c></rc>
    <rc><c>Fe</c><c>   1</c></rc>
    <rc><c>Fe</c><c>   1</c></rc>
    <rc><c>Fe</c><c>   1</c></rc>
    <rc><c>Fe</c><c>   1</c></rc>
    <rc><c>Fe</c><c>   1</c></rc>
    <rc><c>Fe</c><c>   1</c></rc>
    <rc><c>Fe</c><c>   1</c></rc>
    <rc><c>Fe</c><c>   1</c></rc>
    <rc><c>Fe</c><c>   1</c></rc>
    <rc><c>Fe</c><c>   1</c></rc>
    <rc><c>Fe</c><c>   1</c></rc>
    <rc><c>Fe</c><c>   1</c></rc>
    <rc><c>Fe</c><c>   1</c></rc>
    <rc><c>Fe</c><c>   1</c></rc>
    <rc><c>Fe</c><c>   1</c></rc>
    <rc><c>Fe</c><c>   1</c></rc>
    <rc><c>Fe</c><c>   1</c></rc>
    <rc><c>Fe</c><c>   1</c></rc>
    <rc><c>Fe</c><c>   1</c></rc>
    <rc><c>Fe</c><c>   1</c></rc>
    <rc><c>Fe</c><c>   1</c></rc>
    <rc><c>Fe</c><c>   1</c></rc>
    <rc><c>Fe</c><c>   1</c></rc>
    <rc><c>Fe</c><c>   1</c></rc>
    <rc><c>Fe</c><c>   1</c></rc>
    <rc><c>Fe</c><c>   1</c></rc>
    <rc><c>Fe</c><c>   1</c></rc>
    <rc><c>Fe</c><c>   1</c></rc>
    <rc><c>Fe</c><c>   1</c></rc>
    <rc><c>Fe</c><c>   1</c></rc>
    <rc><c>Fe</c><c>   1</c></rc>
    <rc><c>Fe</c><c>   1</c></rc>
    <rc><c>Fe</c><c>   1</c></rc>
    <rc><c>Fe</c><c>   1</c></rc>
    <rc><c>Fe</c><c>   1</c></rc>
    <rc><c>Fe</c><c>   1</c></rc>
    <rc><c>Fe</c><c>   1</c></rc>
    <rc><c>Fe</c><c>   1</c></rc>
    <rc><c>Fe</c><c>   1</c></rc>
    <rc><c>Fe</c><c>   1</c></rc>
    <rc><c>Fe</c><c>   1</c></rc>
    <rc><c>Fe</c><c>   1</c></rc>
    <rc><c>Fe</c><c>   1</c></rc>
    <rc><c>Fe</c><c>   1</c></rc>
    <rc><c>Fe</c><c>   1</c></rc>
    <rc><c>Fe</c><c>   1</c></rc>
    <rc><c>Fe</c><c>   1</c></rc>
    <rc><c>Fe</c><c>   1</c></rc>
    <rc><c>Fe</c><c>   1</c></rc>
    <rc><c>Fe</c><c>   1</c></rc>
    <rc><c>Fe</c><c>   1</c></rc>
    <rc><c>Fe</c><c>   1</c></rc>
    <rc><c>Fe</c><c>   1</c></rc>
    <rc><c>Fe</c><c>   1</c></rc>
    <rc><c>Fe</c><c>   1</c></rc>
    <rc><c>Fe</c><c>   1</c></rc>
    <rc><c>Fe</c><c>   1</c></rc>
    <rc><c>Fe</c><c>   1</c></rc>
    <rc><c>Fe</c><c>   1</c></rc>
    <rc><c>Fe</c><c>   1</c></rc>
    <rc><c>Fe</c><c>   1</c></rc>
    <rc><c>Fe</c><c>   1</c></rc>
    <rc><c>Fe</c><c>   1</c></rc>
    <rc><c>Fe</c><c>   1</c></rc>
    <rc><c>Fe</c><c>   1</c></rc>
    <rc><c>Fe</c><c>   1</c></rc>
    <rc><c>Fe</c><c>   1</c></rc>
    <rc><c>Fe</c><c>   1</c></rc>
    <rc><c>Fe</c><c>   1</c></rc>
    <rc><c>Fe</c><c>   1</c></rc>
    <rc><c>Fe</c><c>   1</c></rc>
    <rc><c>Fe</c><c>   1</c></rc>
    <rc><c>Fe</c><c>   1</c></rc>
    <rc><c>Fe</c><c>   1</c></rc>
    <rc><c>Fe</c><c>   1</c></rc>
    <rc><c>Fe</c><c>   1</c></rc>
    <rc><c>Fe</c><c>   1</c></rc>
    <rc><c>Fe</c><c>   1</c></rc>
    <rc><c>Fe</c><c>   1</c></rc>
    <rc><c>Fe</c><c>   1</c></rc>
    <rc><c>Fe</c><c>   1</c></rc>
    <rc><c>Fe</c><c>   1</c></rc>
    <rc><c>Fe</c><c>   1</c></rc>
    <rc><c>Fe</c><c>   1</c></rc>
    <rc><c>Fe</c><c>   1</c></rc>
    <rc><c>Fe</c><c>   1</c></rc>
    <rc><c>Fe</c><c>   1</c></rc>
    <rc><c>Fe</c><c>   1</c></rc>
    <rc><c>Fe</c><c>   1</c></rc>
    <rc><c>Fe</c><c>   1</c></rc>
    <rc><c>Fe</c><c>   1</c></rc>
    <rc><c>Fe</c><c>   1</c></rc>
    <rc><c>Fe</c><c>   1</c></rc>
    <rc><c>Fe</c><c>   1</c></rc>
    <rc><c>Fe</c><c>   1</c></rc>
    <rc><c>Fe</c><c>   1</c></rc>
    <rc><c>Fe</c><c>   1</c></rc>
    <rc><c>Fe</c><c>   1</c></rc>
    <rc><c>Fe</c><c>   1</c></rc>
    <rc><c>Fe</c><c>   1</c></rc>
    <rc><c>Fe</c><c>   1</c></rc>
    <rc><c>Fe</c><c>   1</c></rc>
    <rc><c>Fe</c><c>   1</c></rc>
    <rc><c>Fe</c><c>   1</c></rc>
    <rc><c>Fe</c><c>   1</c></rc>
    <rc><c>Fe</c><c>   1</c></rc>
    <rc><c>Fe</c><c>   1</c></rc>
    <rc><c>Fe</c><c>   1</c></rc>
    <rc><c>Fe</c><c>   1</c></rc>
    <rc><c>Fe</c><c>   1</c></rc>
    <rc><c>Fe</c><c>   1</c></rc>
    <rc><c>Fe</c><c>   1</c></rc>
    <rc><c>Fe</c><c>   1</c></rc>
    <rc><c>Fe</c><c>   1</c></rc>
    <rc><c>Fe</c><c>   1</c></rc>
    <rc><c>Fe</c><c>   1</c></rc>
    <rc><c>Fe</c><c>   1</c></rc>
    <rc><c>Fe</c><c>   1</c></rc>
    <rc><c>Fe</c><c>   1</c></rc>
    <rc><c>Fe</c><c>   1</c></rc>
    <rc><c>Fe</c><c>   1</c></rc>
    <rc><c>Fe</c><c>   1</c></rc>
    <rc><c>Fe</c><c>   1</c></rc>
    <rc><c>Fe</c><c>   1</c></rc>
    <rc><c>Fe</c><c>   1</c></rc>
    <rc><c>Fe</c><c>   1</c></rc>
    <rc><c>Fe</c><c>   1</c></rc>
    <rc><c>Fe</c><c>   1</c></rc>
    <rc><c>Fe</c><c>   1</c></rc>
    <rc><c>Fe</c><c>   1</c></rc>
    <rc><c>Fe</c><c>   1</c></rc>
    <rc><c>Fe</c><c>   1</c></rc>
    <rc><c>Fe</c><c>   1</c></rc>
    <rc><c>Fe</c><c>   1</c></rc>
    <rc><c>Fe</c><c>   1</c></rc>
    <rc><c>Fe</c><c>   1</c></rc>
    <rc><c>Fe</c><c>   1</c></rc>
    <rc><c>Fe</c><c>   1</c></rc>
    <rc><c>Fe</c><c>   1</c></rc>
    <rc><c>Fe</c><c>   1</c></rc>
    <rc><c>Fe</c><c>   1</c></rc>
    <rc><c>Fe</c><c>   1</c></rc>
    <rc><c>Fe</c><c>   1</c></rc>
    <rc><c>Fe</c><c>   1</c></rc>
    <rc><c>Fe</c><c>   1</c></rc>
    <rc><c>Fe</c><c>   1</c></rc>
    <rc><c>Fe</c><c>   1</c></rc>
    <rc><c>Fe</c><c>   1</c></rc>
    <rc><c>Fe</c><c>   1</c></rc>
    <rc><c>Fe</c><c>   1</c></rc>
    <rc><c>Fe</c><c>   1</c></rc>
    <rc><c>Fe</c><c>   1</c></rc>
    <rc><c>Fe</c><c>   1</c></rc>
    <rc><c>Fe</c><c>   1</c></rc>
    <rc><c>Fe</c><c>   1</c></rc>
    <rc><c>Fe</c><c>   1</c></rc>
    <rc><c>Fe</c><c>   1</c></rc>
    <rc><c>Fe</c><c>   1</c></rc>
    <rc><c>Fe</c><c>   1</c></rc>
    <rc><c>Fe</c><c>   1</c></rc>
    <rc><c>Fe</c><c>   1</c></rc>
    <rc><c>Fe</c><c>   1</c></rc>
    <rc><c>Fe</c><c>   1</c></rc>
    <rc><c>Fe</c><c>   1</c></rc>
    <rc><c>Fe</c><c>   1</c></rc>
    <rc><c>Fe</c><c>   1</c></rc>
    <rc><c>Fe</c><c>   1</c></rc>
    <rc><c>Fe</c><c>   1</c></rc>
    <rc><c>Fe</c><c>   1</c></rc>
    <rc><c>Fe</c><c>   1</c></rc>
    <rc><c>Fe</c><c>   1</c></rc>
    <rc><c>Fe</c><c>   1</c></rc>
    <rc><c>Fe</c><c>   1</c></rc>
    <rc><c>Fe</c><c>   1</c></rc>
    <rc><c>Fe</c><c>   1</c></rc>
    <rc><c>Fe</c><c>   1</c></rc>
    <rc><c>Fe</c><c>   1</c></rc>
    <rc><c>Fe</c><c>   1</c></rc>
    <rc><c>Fe</c><c>   1</c></rc>
    <rc><c>Fe</c><c>   1</c></rc>
    <rc><c>Fe</c><c>   1</c></rc>
    <rc><c>Fe</c><c>   1</c></rc>
    <rc><c>Fe</c><c>   1</c></rc>
    <rc><c>Fe</c><c>   1</c></rc>
    <rc><c>Fe</c><c>   1</c></rc>
    <rc><c>Fe</c><c>   1</c></rc>
    <rc><c>Fe</c><c>   1</c></rc>
    <rc><c>Fe</c><c>   1</c></rc>
    <rc><c>Fe</c><c>   1</c></rc>
    <rc><c>Fe</c><c>   1</c></rc>
    <rc><c>Fe</c><c>   1</c></rc>
    <rc><c>Fe</c><c>   1</c></rc>
    <rc><c>Fe</c><c>   1</c></rc>
    <rc><c>Fe</c><c>   1</c></rc>
    <rc><c>Fe</c><c>   1</c></rc>
    <rc><c>Fe</c><c>   1</c></rc>
    <rc><c>Fe</c><c>   1</c></rc>
    <rc><c>Fe</c><c>   1</c></rc>
    <rc><c>Fe</c><c>   1</c></rc>
    <rc><c>Fe</c><c>   1</c></rc>
    <rc><c>Fe</c><c>   1</c></rc>
    <rc><c>Fe</c><c>   1</c></rc>
    <rc><c>Fe</c><c>   1</c></rc>
    <rc><c>Fe</c><c>   1</c></rc>
    <rc><c>Fe</c><c>   1</c></rc>
    <rc><c>Fe</c><c>   1</c></rc>
    <rc><c>Fe</c><c>   1</c></rc>
    <rc><c>Fe</c><c>   1</c></rc>
    <rc><c>Fe</c><c>   1</c></rc>
    <rc><c>Fe</c><c>   1</c></rc>
    <rc><c>Fe</c><c>   1</c></rc>
    <rc><c>Fe</c><c>   1</c></rc>
    <rc><c>Fe</c><c>   1</c></rc>
    <rc><c>Fe</c><c>   1</c></rc>
    <rc><c>Fe</c><c>   1</c></rc>
    <rc><c>Fe</c><c>   1</c></rc>
    <rc><c>Fe</c><c>   1</c></rc>
    <rc><c>Fe</c><c>   1</c></rc>
    <rc><c>Fe</c><c>   1</c></rc>
    <rc><c>Fe</c><c>   1</c></rc>
    <rc><c>Fe</c><c>   1</c></rc>
    <rc><c>Fe</c><c>   1</c></rc>
    <rc><c>Fe</c><c>   1</c></rc>
    <rc><c>Fe</c><c>   1</c></rc>
    <rc><c>Fe</c><c>   1</c></rc>
    <rc><c>Fe</c><c>   1</c></rc>
    <rc><c>Fe</c><c>   1</c></rc>
    <rc><c>Fe</c><c>   1</c></rc>
    <rc><c>Fe</c><c>   1</c></rc>
    <rc><c>Fe</c><c>   1</c></rc>
    <rc><c>Fe</c><c>   1</c></rc>
    <rc><c>Fe</c><c>   1</c></rc>
    <rc><c>Fe</c><c>   1</c></rc>
    <rc><c>Fe</c><c>   1</c></rc>
    <rc><c>Fe</c><c>   1</c></rc>
    <rc><c>Fe</c><c>   1</c></rc>
    <rc><c>Fe</c><c>   1</c></rc>
    <rc><c>Fe</c><c>   1</c></rc>
    <rc><c>Fe</c><c>   1</c></rc>
    <rc><c>Fe</c><c>   1</c></rc>
    <rc><c>Fe</c><c>   1</c></rc>
    <rc><c>Fe</c><c>   1</c></rc>
    <rc><c>Fe</c><c>   1</c></rc>
    <rc><c>Fe</c><c>   1</c></rc>
    <rc><c>Fe</c><c>   1</c></rc>
    <rc><c>Fe</c><c>   1</c></rc>
    <rc><c>Fe</c><c>   1</c></rc>
    <rc><c>Fe</c><c>   1</c></rc>
    <rc><c>Fe</c><c>   1</c></rc>
    <rc><c>Fe</c><c>   1</c></rc>
    <rc><c>Fe</c><c>   1</c></rc>
    <rc><c>Fe</c><c>   1</c></rc>
    <rc><c>Fe</c><c>   1</c></rc>
    <rc><c>Fe</c><c>   1</c></rc>
    <rc><c>Fe</c><c>   1</c></rc>
    <rc><c>Fe</c><c>   1</c></rc>
    <rc><c>Fe</c><c>   1</c></rc>
    <rc><c>Fe</c><c>   1</c></rc>
    <rc><c>Fe</c><c>   1</c></rc>
    <rc><c>Fe</c><c>   1</c></rc>
    <rc><c>Mn</c><c>   2</c></rc>
    <rc><c>Mn</c><c>   2</c></rc>
    <rc><c>Mn</c><c>   2</c></rc>
    <rc><c>Mn</c><c>   2</c></rc>
    <rc><c>Mn</c><c>   2</c></rc>
    <rc><c>Mn</c><c>   2</c></rc>
    <rc><c>Mn</c><c>   2</c></rc>
    <rc><c>Mn</c><c>   2</c></rc>
    <rc><c>Mn</c><c>   2</c></rc>
    <rc><c>Mn</c><c>   2</c></rc>
    <rc><c>Mn</c><c>   2</c></rc>
    <rc><c>Mn</c><c>   2</c></rc>
    <rc><c>Mn</c><c>   2</c></rc>
    <rc><c>Mn</c><c>   2</c></rc>
   </set>
  </array>
  <array name="atomtypes" >
   <dimension dim="1">type</dimension>
   <field type="int">atomspertype</field>
   <field type="string">element</field>
   <field>mass</field>
   <field>valence</field>
   <field type="string">pseudopotential</field>
   <set>
    <rc><c> 274</c><c>Fe</c><c>     55.84700000</c><c>      8.00000000</c><c>  PAW_PBE Fe_GW 31Mar2010               </c></rc>
    <rc><c>  14</c><c>Mn</c><c>     54.93800000</c><c>      7.00000000</c><c>  PAW_PBE Mn_GW 31Mar2010               </c></rc>
   </set>
  </array>
 </atominfo>
 <structure name="initialpos" >
  <crystal>
   <varray name="basis" >
    <v>       9.72667804       0.00000000       0.00000000 </v>
    <v>       0.00000000       8.42355028       0.00000000 </v>
    <v>       0.00000000       0.00000000      45.00000000 </v>
   </varray>
   <i name="volume">   3686.99226691 </i>
   <varray name="rec_basis" >
    <v>       0.10281002       0.00000000       0.00000000 </v>
    <v>       0.00000000       0.11871479       0.00000000 </v>
    <v>       0.00000000       0.00000000       0.02222222 </v>
   </varray>
  </crystal>
  <varray name="positions" >
   <v>       0.06169398       0.03113106       0.12436051 </v>
   <v>       0.31656394       0.87490812       0.65485692 </v>
   <v>       0.18404813       0.12276163       0.78840990 </v>
   <v>       0.44149122       0.28763491       0.38911300 </v>
   <v>       0.31715742       0.71426591       0.83304855 </v>
   <v>       0.81768289       0.21364788       0.83333695 </v>
   <v>       0.93623988       0.29418905       0.87574907 </v>
   <v>       0.56218839       0.20705406       0.56549136 </v>
   <v>       0.06564547       0.03966602       0.74396113 </v>
   <v>       0.81156909       0.87136973       0.52139135 </v>
   <v>       0.19094213       0.29023947       0.74398949 </v>
   <v>       0.93353115       0.45240610       0.34491036 </v>
   <v>       0.94109470       0.28667039       0.38895837 </v>
   <v>       0.81191598       0.04156589       0.87543498 </v>
   <v>       0.18359534       0.78812653       0.61083500 </v>
   <v>       0.56640680       0.03776432       0.38906893 </v>
   <v>       0.94182379       0.96284249       0.83345512 </v>
   <v>       0.31421221       0.53871619       0.87557807 </v>
   <v>       0.69054481       0.29022992       0.74394006 </v>
   <v>       0.18222253       0.61372885       0.16668263 </v>
   <v>       0.81226910       0.20574363       0.47868955 </v>
   <v>       0.80872543       0.53786500       0.61090215 </v>
   <v>       0.31194432       0.87035127       0.43448578 </v>
   <v>       0.80933892       0.03823515       0.25613237 </v>
   <v>       0.68357237       0.95167073       0.34487368 </v>
   <v>       0.93135225       0.11458938       0.16723886 </v>
   <v>       0.06164101       0.87131809       0.52138837 </v>
   <v>       0.55877186       0.53829227       0.25606204 </v>
   <v>       0.68565237       0.79467731       0.87549860 </v>
   <v>       0.55603140       0.36559034       0.16676773 </v>
   <v>       0.44012192       0.79046039       0.74401352 </v>
   <v>       0.81145011       0.70660401       0.56547590 </v>
   <v>       0.55938058       0.87256235       0.78838379 </v>
   <v>       0.68661548       0.12154277       0.52136993 </v>
   <v>       0.81653728       0.37484440       0.65489186 </v>
   <v>       0.94151921       0.46350749       0.83333632 </v>
   <v>       0.06033552       0.20789023       0.69953461 </v>
   <v>       0.43494318       0.95804252       0.69960463 </v>
   <v>       0.31635199       0.21246259       0.83330875 </v>
   <v>       0.44146901       0.62493179       0.65487526 </v>
   <v>       0.30878981       0.53791292       0.61087061 </v>
   <v>       0.93658785       0.45649538       0.56558797 </v>
   <v>       0.69000373       0.79123406       0.74400088 </v>
   <v>       0.93370320       0.78839893       0.12465035 </v>
   <v>       0.69165482       0.78776960       0.38906666 </v>
   <v>       0.94030581       0.79063509       0.74397818 </v>
   <v>       0.05876403       0.20281234       0.34505077 </v>
   <v>       0.68368352       0.45237133       0.34506590 </v>
   <v>       0.43443049       0.12196487       0.78854761 </v>
   <v>       0.06474660       0.20518991       0.21160345 </v>
   <v>       0.05535340       0.36563460       0.16680197 </v>
   <v>       0.93325663       0.78827190       0.25578774 </v>
   <v>       0.56044335       0.20782379       0.69963981 </v>
   <v>       0.68490133       0.95817810       0.69962134 </v>
   <v>       0.80978748       0.87234045       0.78833369 </v>
   <v>       0.43700237       0.95711406       0.56537524 </v>
   <v>       0.80988316       0.37301447       0.78824301 </v>
   <v>       0.68397419       0.28922480       0.25614309 </v>
   <v>       0.18732472       0.45719544       0.56546860 </v>
   <v>       0.05575816       0.86562480       0.16677231 </v>
   <v>       0.18374247       0.28794507       0.61089909 </v>
   <v>       0.06218617       0.20720330       0.56535577 </v>
   <v>       0.31039816       0.20803328       0.69963217 </v>
   <v>       0.56446928       0.53905468       0.87561433 </v>
   <v>       0.06181187       0.70626976       0.56551932 </v>
   <v>       0.68452896       0.62126827       0.78823087 </v>
   <v>       0.31620226       0.53789943       0.38904216 </v>
   <v>       0.18676258       0.62129861       0.52142358 </v>
   <v>       0.56239432       0.87027558       0.43445346 </v>
   <v>       0.43683447       0.45701672       0.56548973 </v>
   <v>       0.44004759       0.29071791       0.74403812 </v>
   <v>       0.81948632       0.87491946       0.30039161 </v>
   <v>       0.80871210       0.70270283       0.34506138 </v>
   <v>       0.44195054       0.46247731       0.83316835 </v>
   <v>       0.68745551       0.95563028       0.47867529 </v>
   <v>       0.68499680       0.45805134       0.69959480 </v>
   <v>       0.56176310       0.87188762       0.52141765 </v>
   <v>       0.56655113       0.37486032       0.65489019 </v>
   <v>       0.81635329       0.87485263       0.65492401 </v>
   <v>       0.81162980       0.37107744       0.43421963 </v>
   <v>       0.80870777       0.53806606       0.25623082 </v>
   <v>       0.69144550       0.46248715       0.83309696 </v>
   <v>       0.18615233       0.78847471       0.12424637 </v>
   <v>       0.69134477       0.28734817       0.38904376 </v>
   <v>       0.31639535       0.37489931       0.65490009 </v>
   <v>       0.30861302       0.20247048       0.34486169 </v>
   <v>       0.81600033       0.54013739       0.74395101 </v>
   <v>       0.69160785       0.96240177       0.83315954 </v>
   <v>       0.56640703       0.87495823       0.65489703 </v>
   <v>       0.31133806       0.70718119       0.56545657 </v>
   <v>       0.31239951       0.53140706       0.12426380 </v>
   <v>       0.68981483       0.95563508       0.21188015 </v>
   <v>       0.31140304       0.20662013       0.56549135 </v>
   <v>       0.18733293       0.95571475       0.47869904 </v>
   <v>       0.68741579       0.95708675       0.56549738 </v>
   <v>       0.43368644       0.78801577       0.61086067 </v>
   <v>       0.68226801       0.61203659       0.16669852 </v>
   <v>       0.31911984       0.87442894       0.30015284 </v>
   <v>       0.31219770       0.70581608       0.47867972 </v>
   <v>       0.93367183       0.28780951       0.61090514 </v>
   <v>       0.44538187       0.62472270       0.30041540 </v>
   <v>       0.80679912       0.86408269       0.16721396 </v>
   <v>       0.56666787       0.20313531       0.21172281 </v>
   <v>       0.93292795       0.61294399       0.16684226 </v>
   <v>       0.43723776       0.95567616       0.47864360 </v>
   <v>       0.56051378       0.37194996       0.78834324 </v>
   <v>       0.06140523       0.37209400       0.52134572 </v>
   <v>       0.30681218       0.36463501       0.16689513 </v>
   <v>       0.69503089       0.12379476       0.30036628 </v>
   <v>       0.44245044       0.96204152       0.83326938 </v>
   <v>       0.18466262       0.28739840       0.12448621 </v>
   <v>       0.18403145       0.28933681       0.25613437 </v>
   <v>       0.31247180       0.37026409       0.43445957 </v>
   <v>       0.56252563       0.03271418       0.12458987 </v>
   <v>       0.43374734       0.28796239       0.61086522 </v>
   <v>       0.18364472       0.45269644       0.34507667 </v>
   <v>       0.43465128       0.28724537       0.12452571 </v>
   <v>       0.68394059       0.78918890       0.25603784 </v>
   <v>       0.43661902       0.12147568       0.52138393 </v>
   <v>       0.18788628       0.29451023       0.87579559 </v>
   <v>       0.19153180       0.12503011       0.65486857 </v>
   <v>       0.94146681       0.12503923       0.65489231 </v>
   <v>       0.81633530       0.53752432       0.38907809 </v>
   <v>       0.06640933       0.03799490       0.38913763 </v>
   <v>       0.18294296       0.11219906       0.16664533 </v>
   <v>       0.05864560       0.53770921       0.61091997 </v>
   <v>       0.93417068       0.28927475       0.25607198 </v>
   <v>       0.55863195       0.53804501       0.61085621 </v>
   <v>       0.93697820       0.95735446       0.56544323 </v>
   <v>       0.69419926       0.62473432       0.30021018 </v>
   <v>       0.93738446       0.62028313       0.43446556 </v>
   <v>       0.93386809       0.62207044       0.78813671 </v>
   <v>       0.56037965       0.70762932       0.69958063 </v>
   <v>       0.06617611       0.71511195       0.83361923 </v>
   <v>       0.94499915       0.12358185       0.30032151 </v>
   <v>       0.93367800       0.78757486       0.61089687 </v>
   <v>       0.43362075       0.78938078       0.25603827 </v>
   <v>       0.30975420       0.37251585       0.78828609 </v>
   <v>       0.43987586       0.45533112       0.21180954 </v>
   <v>       0.18671331       0.12143533       0.52137590 </v>
   <v>       0.81019035       0.70779703       0.69954897 </v>
   <v>       0.05871134       0.03799179       0.61083931 </v>
   <v>       0.56662479       0.21344651       0.83307985 </v>
   <v>       0.31168754       0.87166363       0.52141356 </v>
   <v>       0.68628605       0.28714622       0.12435950 </v>
   <v>       0.19006459       0.95627312       0.21204623 </v>
   <v>       0.68359693       0.28800747       0.61093642 </v>
   <v>       0.30863778       0.03797547       0.61095848 </v>
   <v>       0.93534585       0.12235194       0.78826174 </v>
   <v>       0.43702939       0.79527420       0.87571456 </v>
   <v>       0.81541122       0.04040727       0.74385848 </v>
   <v>       0.93486521       0.45814818       0.69964204 </v>
   <v>       0.19145805       0.62500256       0.65489597 </v>
   <v>       0.31025060       0.70763953       0.69959927 </v>
   <v>       0.93444421       0.28709310       0.12441912 </v>
   <v>       0.43744341       0.45587227       0.47858529 </v>
   <v>       0.06221354       0.70577334       0.47857246 </v>
   <v>       0.93709951       0.11958934       0.43462298 </v>
   <v>       0.44427035       0.12433652       0.30045616 </v>
   <v>       0.18746313       0.11987111       0.43440297 </v>
   <v>       0.56355056       0.03949239       0.87573990 </v>
   <v>       0.18683239       0.95705265       0.56551299 </v>
   <v>       0.68423853       0.78841086       0.12474837 </v>
   <v>       0.55881865       0.70257581       0.34504946 </v>
   <v>       0.31635936       0.03709823       0.38902582 </v>
   <v>       0.68239530       0.11430784       0.16716239 </v>
   <v>       0.81517068       0.20491110       0.21163646 </v>
   <v>       0.05976093       0.53815373       0.25596462 </v>
   <v>       0.56225043       0.70576215       0.47863101 </v>
   <v>       0.43463182       0.78770789       0.12450051 </v>
   <v>       0.56910539       0.37380854       0.30038803 </v>
   <v>       0.43358508       0.95276716       0.34506432 </v>
   <v>       0.18512899       0.95816562       0.69964906 </v>
   <v>       0.43188026       0.61369091       0.16664903 </v>
   <v>       0.94017208       0.45551303       0.21198237 </v>
   <v>       0.06181477       0.53111696       0.12432080 </v>
   <v>       0.81177757       0.37182085       0.52138025 </v>
   <v>       0.94467064       0.62437849       0.30014632 </v>
   <v>       0.30920106       0.03807513       0.25584567 </v>
   <v>       0.68367983       0.78800329       0.61086343 </v>
   <v>       0.19251538       0.46368074       0.83311835 </v>
   <v>       0.43192445       0.11236099       0.16668992 </v>
   <v>       0.31151449       0.37158683       0.52137470 </v>
   <v>       0.43411750       0.62219437       0.78841246 </v>
   <v>       0.05894924       0.03833668       0.25607274 </v>
   <v>       0.56202653       0.70711504       0.56549781 </v>
   <v>       0.94033930       0.28988075       0.74406171 </v>
   <v>       0.68420906       0.12224440       0.78849897 </v>
   <v>       0.18954677       0.45508627       0.21162370 </v>
   <v>       0.94127605       0.78755595       0.38905487 </v>
   <v>       0.68660505       0.29617446       0.87595137 </v>
   <v>       0.55553267       0.86486660       0.16666885 </v>
   <v>       0.43524742       0.45791862       0.69952219 </v>
   <v>       0.93402631       0.95163701       0.34491047 </v>
   <v>       0.68652985       0.62138013       0.52127117 </v>
   <v>       0.06654513       0.87485675       0.65487933 </v>
   <v>       0.05880305       0.87308626       0.78820567 </v>
   <v>       0.06639335       0.37489577       0.65489208 </v>
   <v>       0.68712179       0.45569283       0.47863235 </v>
   <v>       0.18428002       0.78924468       0.25594819 </v>
   <v>       0.43716125       0.12047945       0.43442909 </v>
   <v>       0.81355742       0.03154882       0.12433591 </v>
   <v>       0.93651369       0.62146660       0.52138973 </v>
   <v>       0.44162587       0.12472514       0.65483502 </v>
   <v>       0.81259585       0.53069703       0.12437226 </v>
   <v>       0.43364019       0.45255862       0.34509787 </v>
   <v>       0.80881112       0.20251568       0.34507587 </v>
   <v>       0.30889972       0.70195607       0.34491584 </v>
   <v>       0.69136935       0.12487052       0.65487310 </v>
   <v>       0.56950168       0.87402982       0.30047582 </v>
   <v>       0.06534967       0.54033615       0.74400308 </v>
   <v>       0.94083388       0.95538407       0.21160051 </v>
   <v>       0.81673385       0.70524549       0.21171282 </v>
   <v>       0.06932566       0.87419010       0.30046488 </v>
   <v>       0.19457416       0.12429068       0.30041877 </v>
   <v>       0.05845115       0.70214651       0.34497646 </v>
   <v>       0.80883277       0.03793976       0.61087156 </v>
   <v>       0.06292928       0.37100850       0.43438027 </v>
   <v>       0.55872667       0.20259949       0.34492516 </v>
   <v>       0.81944130       0.37439276       0.30033629 </v>
   <v>       0.55935510       0.03879699       0.25588178 </v>
   <v>       0.56642730       0.53770543       0.38909034 </v>
   <v>       0.06251274       0.20579620       0.47869668 </v>
   <v>       0.31112858       0.87181736       0.78804965 </v>
   <v>       0.93501907       0.95829452       0.69959727 </v>
   <v>       0.06903406       0.37493429       0.30041503 </v>
   <v>       0.69135506       0.62504389       0.65493339 </v>
   <v>       0.68678423       0.45691994       0.56544457 </v>
   <v>       0.44014590       0.95661861       0.21225094 </v>
   <v>       0.31232712       0.20567288       0.47869363 </v>
   <v>       0.81364371       0.53929840       0.87557534 </v>
   <v>       0.68764978       0.62026661       0.43446560 </v>
   <v>       0.81049861       0.20768259       0.69965042 </v>
   <v>       0.81240518       0.70576440       0.47864027 </v>
   <v>       0.81163696       0.87081829       0.43426706 </v>
   <v>       0.93731429       0.95515098       0.47871757 </v>
   <v>       0.56225723       0.20559877       0.47864742 </v>
   <v>       0.18702611       0.61995006       0.43447488 </v>
   <v>       0.31539749       0.04055550       0.74390255 </v>
   <v>       0.94148940       0.62517363       0.65486341 </v>
   <v>       0.56657226       0.71277290       0.83303967 </v>
   <v>       0.32011533       0.37326370       0.30028953 </v>
   <v>       0.56523390       0.70442510       0.21171636 </v>
   <v>       0.18729984       0.45570403       0.47867158 </v>
   <v>       0.31368581       0.04097880       0.87571063 </v>
   <v>       0.18501492       0.45811222       0.69954578 </v>
   <v>       0.56163873       0.37152020       0.52138583 </v>
   <v>       0.19125566       0.28771489       0.38904786 </v>
   <v>       0.31574447       0.20509138       0.21158076 </v>
   <v>       0.06700069       0.70559389       0.21166723 </v>
   <v>       0.56210005       0.37048821       0.43444212 </v>
   <v>       0.43658033       0.62173908       0.52132214 </v>
   <v>       0.81674816       0.71355148       0.83309105 </v>
   <v>       0.06120623       0.37389858       0.78809559 </v>
   <v>       0.43727572       0.29704711       0.87586599 </v>
   <v>       0.31128007       0.03162295       0.12441720 </v>
   <v>       0.68783769       0.11974285       0.43437536 </v>
   <v>       0.18369408       0.95270467       0.34509856 </v>
   <v>       0.06706306       0.21262146       0.83351042 </v>
   <v>       0.55901551       0.03837307       0.61097618 </v>
   <v>       0.68967171       0.45540404       0.21199661 </v>
   <v>       0.19037000       0.79049971       0.74402051 </v>
   <v>       0.19436711       0.62436267       0.30044504 </v>
   <v>       0.44142538       0.78769810       0.38907278 </v>
   <v>       0.43372285       0.28944840       0.25607498 </v>
   <v>       0.06328440       0.53889902       0.87553706 </v>
   <v>       0.56597622       0.04045590       0.74392166 </v>
   <v>       0.18699392       0.79468866       0.87561133 </v>
   <v>       0.93729709       0.45548968       0.47864819 </v>
   <v>       0.56530731       0.54067816       0.74394084 </v>
   <v>       0.81138309       0.20673047       0.56542362 </v>
   <v>       0.18528775       0.62072725       0.78812638 </v>
   <v>       0.06700516       0.53863266       0.38919604 </v>
   <v>       0.06032887       0.70761796       0.69958292 </v>
   <v>       0.30832663       0.53850624       0.25568361 </v>
   <v>       0.31519163       0.70379907       0.21237520 </v>
   <v>       0.30515659       0.86525691       0.16612740 </v>
   <v>       0.43687079       0.62074429       0.43442443 </v>
   <v>       0.81801410       0.03908824       0.38926038 </v>
   <v>       0.19178253       0.96310352       0.83401230 </v>
   <v>       0.93713750       0.79369191       0.87505624 </v>
   <v>       0.06435133       0.04051250       0.87550484 </v>
   <v>       0.56285561       0.52985761       0.12486953 </v>
   <v>       0.80490165       0.36629127       0.16644092 </v>
   <v>       0.06207065       0.87088752       0.43443951 </v>
   <v>       0.93644393       0.12159064       0.52146817 </v>
   <v>       0.19293454       0.78756315       0.38904427 </v>
   <v>       0.31555939       0.54036227       0.74424104 </v>
  </varray>
 </structure>
 <calculation>
  <scstep>
   <time name="dav">   54.81   54.82</time>
   <time name="total">   54.96   55.02</time>
   <energy>
    <i name="alphaZ">  16293.21160653 </i>
    <i name="ewald"> 733488.51502483 </i>
    <i name="hartreedc">-923988.87376663 </i>
    <i name="XCdc">  -6511.97153786 </i>
    <i name="pawpsdc"> 162273.92519768 </i>
    <i name="pawaedc">-159623.75899949 </i>
    <i name="eentropy">     -1.07024271 </i>
    <i name="bandstr">  38483.98801506 </i>
    <i name="atom"> 168671.76673737 </i>
    <i name="e_fr_energy">  29085.73203476 </i>
    <i name="e_wo_entrp">  29086.80227748 </i>
    <i name="e_0_energy">  29086.26715612 </i>
   </energy>
  </scstep>
  <scstep>
   <time name="dav">   54.17   54.20</time>
   <time name="total">   54.18   54.20</time>
   <energy>
    <i name="e_fr_energy">   1189.57143884 </i>
    <i name="e_wo_entrp">   1191.04932299 </i>
    <i name="e_0_energy">   1190.31038092 </i>
   </energy>
  </scstep>
  <scstep>
   <time name="dav">   70.99   71.03</time>
   <time name="total">   71.00   71.04</time>
   <energy>
    <i name="e_fr_energy">  -1949.69599367 </i>
    <i name="e_wo_entrp">  -1946.14263785 </i>
    <i name="e_0_energy">  -1947.91931576 </i>
   </energy>
  </scstep>
  <scstep>
   <time name="dav">   89.10   89.15</time>
   <time name="total">   89.11   89.15</time>
   <energy>
    <i name="e_fr_energy">  -2619.10590830 </i>
    <i name="e_wo_entrp">  -2615.58551748 </i>
    <i name="e_0_energy">  -2617.34571289 </i>
   </energy>
  </scstep>
  <scstep>
   <time name="dav">   85.13   85.18</time>
   <time name="total">   87.16   87.21</time>
   <energy>
    <i name="e_fr_energy">  -2738.90356123 </i>
    <i name="e_wo_entrp">  -2735.26830281 </i>
    <i name="e_0_energy">  -2737.08593202 </i>
   </energy>
  </scstep>
  <scstep>
   <time name="diag">    8.23    8.23</time>
   <time name="diis">   37.71   37.71</time>
   <time name="orth">    2.31    2.31</time>
   <time name="total">   50.40   50.44</time>
   <energy>
    <i name="e_fr_energy">  -5464.49399426 </i>
    <i name="e_wo_entrp">  -5461.83778059 </i>
    <i name="e_0_energy">  -5463.16588743 </i>
   </energy>
  </scstep>
  <scstep>
   <time name="diag">    8.26    8.26</time>
   <time name="diis">   22.41   22.41</time>
   <time name="orth">    2.34    2.34</time>
   <time name="total">   35.12   35.16</time>
[...]
       <r>     5.8961     0.0000  2772.0000 </r>
       <r>     5.9390     0.0000  2772.0000 </r>
       <r>     5.9819     0.0000  2772.0000 </r>
       <r>     6.0248     0.0000  2772.0000 </r>
       <r>     6.0678     0.0000  2772.0000 </r>
       <r>     6.1107     0.0000  2772.0000 </r>
       <r>     6.1536     0.0000  2772.0000 </r>
       <r>     6.1965     0.0000  2772.0000 </r>
       <r>     6.2394     0.0000  2772.0000 </r>
       <r>     6.2823     0.0000  2772.0000 </r>
       <r>     6.3252     0.0000  2772.0000 </r>
       <r>     6.3681     0.0000  2772.0000 </r>
       <r>     6.4110     0.0000  2772.0000 </r>
       <r>     6.4540     0.0000  2772.0000 </r>
       <r>     6.4969     0.0000  2772.0000 </r>
       <r>     6.5398     0.0000  2772.0000 </r>
       <r>     6.5827     0.0000  2772.0000 </r>
       <r>     6.6256     0.0000  2772.0000 </r>
       <r>     6.6685     0.0000  2772.0000 </r>
       <r>     6.7114     0.0000  2772.0000 </r>
       <r>     6.7543     0.0000  2772.0000 </r>
       <r>     6.7972     0.0000  2772.0000 </r>
       <r>     6.8402     0.0000  2772.0000 </r>
      </set>
     </set>
    </array>
   </total>
  </dos>
 </calculation>
 <structure name="finalpos" >
  <crystal>
   <varray name="basis" >
    <v>       9.72667804       0.00000000       0.00000000 </v>
    <v>       0.00000000       8.42355028       0.00000000 </v>
    <v>       0.00000000       0.00000000      45.00000000 </v>
   </varray>
   <i name="volume">   3686.99226691 </i>
   <varray name="rec_basis" >
    <v>       0.10281002       0.00000000       0.00000000 </v>
    <v>       0.00000000       0.11871479       0.00000000 </v>
    <v>       0.00000000       0.00000000       0.02222222 </v>
   </varray>
  </crystal>
  <varray name="positions" >
   <v>       0.06190768       0.03153681       0.12425456 </v>
   <v>       0.31652072       0.87451649       0.65496075 </v>
   <v>       0.18490290       0.12391867       0.78813819 </v>
   <v>       0.44152121       0.28762868       0.38917584 </v>
   <v>       0.31726019       0.71264667       0.83243504 </v>
   <v>       0.81780695       0.21340255       0.83283886 </v>
   <v>       0.93710952       0.29409883       0.87548456 </v>
   <v>       0.56224051       0.20703360       0.56568785 </v>
   <v>       0.06589020       0.03964277       0.74422740 </v>
   <v>       0.81187888       0.87178556       0.52131951 </v>
   <v>       0.19132949       0.29076288       0.74433164 </v>
   <v>       0.93355889       0.45251880       0.34479626 </v>
   <v>       0.94078361       0.28646817       0.38903472 </v>
   <v>       0.81242500       0.04184658       0.87519932 </v>
   <v>       0.18379301       0.78797474       0.61098518 </v>
   <v>       0.56671673       0.03790088       0.38914336 </v>
   <v>       0.94079988       0.96264838       0.83296119 </v>
   <v>       0.31331594       0.54002550       0.87516447 </v>
   <v>       0.69010894       0.29047104       0.74412209 </v>
   <v>       0.18199916       0.61341431       0.16644434 </v>
   <v>       0.81275889       0.20530171       0.47875057 </v>
   <v>       0.80878599       0.53798589       0.61108733 </v>
   <v>       0.31136223       0.86949654       0.43451613 </v>
   <v>       0.80934623       0.03821830       0.25623429 </v>
   <v>       0.68387381       0.95183379       0.34479047 </v>
   <v>       0.93212439       0.11426366       0.16711336 </v>
   <v>       0.06144772       0.87173575       0.52125196 </v>
   <v>       0.55820289       0.53868837       0.25625739 </v>
   <v>       0.68559231       0.79464187       0.87513167 </v>
   <v>       0.55551458       0.36612858       0.16656736 </v>
   <v>       0.43964014       0.78994072       0.74435788 </v>
   <v>       0.81144130       0.70654904       0.56568940 </v>
   <v>       0.55853902       0.87229292       0.78836186 </v>
   <v>       0.68706154       0.12157688       0.52135690 </v>
   <v>       0.81626831       0.37506948       0.65506557 </v>
   <v>       0.94213344       0.46395077       0.83279067 </v>
   <v>       0.06018855       0.20813980       0.69979629 </v>
   <v>       0.43525158       0.95763905       0.69988158 </v>
   <v>       0.31693232       0.21396096       0.83254142 </v>
   <v>       0.44147481       0.62488505       0.65502968 </v>
   <v>       0.30894754       0.53818374       0.61101794 </v>
   <v>       0.93656580       0.45650976       0.56578809 </v>
   <v>       0.68949620       0.79094679       0.74414557 </v>
   <v>       0.93414887       0.78793923       0.12452547 </v>
   <v>       0.69183107       0.78800825       0.38915955 </v>
   <v>       0.94037802       0.79035986       0.74410684 </v>
   <v>       0.05880798       0.20305187       0.34495366 </v>
   <v>       0.68395453       0.45246940       0.34491838 </v>
   <v>       0.43404072       0.12214682       0.78847185 </v>
   <v>       0.06456934       0.20508630       0.21175998 </v>
   <v>       0.05605631       0.36539011       0.16663437 </v>
   <v>       0.93355630       0.78808167       0.25596414 </v>
   <v>       0.56073275       0.20803658       0.69989745 </v>
   <v>       0.68522376       0.95790202       0.69983988 </v>
   <v>       0.80965218       0.87209626       0.78829371 </v>
   <v>       0.43700142       0.95693726       0.56561659 </v>
   <v>       0.81010239       0.37337417       0.78816585 </v>
   <v>       0.68390147       0.28933297       0.25626934 </v>
   <v>       0.18723273       0.45721513       0.56568669 </v>
   <v>       0.05523208       0.86566734       0.16658921 </v>
   <v>       0.18385329       0.28826626       0.61103164 </v>
   <v>       0.06207496       0.20718911       0.56550313 </v>
   <v>       0.31061730       0.20835473       0.69993891 </v>
   <v>       0.56341922       0.53991900       0.87527579 </v>
   <v>       0.06179561       0.70621446       0.56573436 </v>
   <v>       0.68401728       0.62156357       0.78820330 </v>
   <v>       0.31619030       0.53829484       0.38923377 </v>
   <v>       0.18667620       0.62144326       0.52136070 </v>
   <v>       0.56222565       0.86964290       0.43446767 </v>
   <v>       0.43687201       0.45709924       0.56572893 </v>
   <v>       0.43955815       0.29118182       0.74439339 </v>
   <v>       0.81893550       0.87453585       0.30035439 </v>
   <v>       0.80879353       0.70256235       0.34492318 </v>
   <v>       0.44117017       0.46256993       0.83245077 </v>
   <v>       0.68811044       0.95556365       0.47869612 </v>
   <v>       0.68520835       0.45831161       0.69981465 </v>
   <v>       0.56199622       0.87190104       0.52141458 </v>
   <v>       0.56658658       0.37512120       0.65502058 </v>
   <v>       0.81607474       0.87457434       0.65510884 </v>
   <v>       0.81163430       0.37085501       0.43425342 </v>
   <v>       0.80876171       0.53815212       0.25637563 </v>
   <v>       0.69104971       0.46309531       0.83237994 </v>
   <v>       0.18566529       0.78794243       0.12392056 </v>
   <v>       0.69141045       0.28706167       0.38909163 </v>
   <v>       0.31633437       0.37518644       0.65503520 </v>
   <v>       0.30892140       0.20269623       0.34475043 </v>
   <v>       0.81579929       0.54022062       0.74409160 </v>
   <v>       0.69114548       0.96200037       0.83259376 </v>
   <v>       0.56642557       0.87459543       0.65504147 </v>
   <v>       0.31142257       0.70707424       0.56569707 </v>
   <v>       0.31284093       0.53192924       0.12415996 </v>
   <v>       0.68982620       0.95567632       0.21205261 </v>
   <v>       0.31139903       0.20661857       0.56568643 </v>
   <v>       0.18652449       0.95528229       0.47862156 </v>
   <v>       0.68743251       0.95698540       0.56567007 </v>
   <v>       0.43386398       0.78789478       0.61101276 </v>
   <v>       0.68146637       0.61286433       0.16652678 </v>
   <v>       0.31930286       0.87440432       0.29997339 </v>
   <v>       0.31220996       0.70561649       0.47852888 </v>
   <v>       0.93372766       0.28813442       0.61106399 </v>
   <v>       0.44522589       0.62450185       0.30018521 </v>
   <v>       0.80694178       0.86416821       0.16713412 </v>
   <v>       0.56668370       0.20333649       0.21191420 </v>
   <v>       0.93342830       0.61376208       0.16673924 </v>
   <v>       0.43694861       0.95529854       0.47860257 </v>
   <v>       0.55953734       0.37227725       0.78824788 </v>
   <v>       0.06131497       0.37174919       0.52131638 </v>
   <v>       0.30675015       0.36483499       0.16670071 </v>
   <v>       0.69460369       0.12383987       0.30035293 </v>
   <v>       0.44317306       0.96147356       0.83246739 </v>
   <v>       0.18443059       0.28671534       0.12434704 </v>
   <v>       0.18473183       0.28986010       0.25628267 </v>
   <v>       0.31274165       0.37113025       0.43449550 </v>
   <v>       0.56215905       0.03300838       0.12441853 </v>
   <v>       0.43395150       0.28822862       0.61100143 </v>
   <v>       0.18371445       0.45266877       0.34498608 </v>
   <v>       0.43488240       0.28726469       0.12434673 </v>
   <v>       0.68360838       0.78896138       0.25623135 </v>
   <v>       0.43662884       0.12164282       0.52141800 </v>
   <v>       0.18773289       0.29531073       0.87543110 </v>
   <v>       0.19134081       0.12497000       0.65498094 </v>
   <v>       0.94104782       0.12501782       0.65506057 </v>
   <v>       0.81618110       0.53750443       0.38911252 </v>
   <v>       0.06596335       0.03738488       0.38931734 </v>
   <v>       0.18242711       0.11332114       0.16649858 </v>
   <v>       0.05871932       0.53789170       0.61108244 </v>
   <v>       0.93443498       0.28944436       0.25619230 </v>
   <v>       0.55882612       0.53824781       0.61103411 </v>
   <v>       0.93691995       0.95727176       0.56558386 </v>
   <v>       0.69396690       0.62457743       0.30018569 </v>
   <v>       0.93769870       0.62115580       0.43451915 </v>
   <v>       0.93457605       0.62202674       0.78817618 </v>
   <v>       0.56058107       0.70745025       0.69982339 </v>
   <v>       0.06664829       0.71294942       0.83312635 </v>
   <v>       0.94459868       0.12376773       0.30030043 </v>
   <v>       0.93371716       0.78736473       0.61106694 </v>
   <v>       0.43346205       0.78873252       0.25628701 </v>
   <v>       0.30997231       0.37290131       0.78825052 </v>
   <v>       0.44006425       0.45509412       0.21210184 </v>
   <v>       0.18624886       0.12140704       0.52130204 </v>
   <v>       0.81024798       0.70768892       0.69975083 </v>
   <v>       0.05882102       0.03797596       0.61097757 </v>
   <v>       0.56555277       0.21311279       0.83240059 </v>
   <v>       0.31136721       0.87164422       0.52137154 </v>
   <v>       0.68565348       0.28715490       0.12403942 </v>
   <v>       0.18964878       0.95688806       0.21234761 </v>
   <v>       0.68371489       0.28830203       0.61110881 </v>
   <v>       0.30884474       0.03785951       0.61108034 </v>
   <v>       0.93581905       0.12279725       0.78812587 </v>
   <v>       0.43588915       0.79447512       0.87534060 </v>
   <v>       0.81522666       0.04036034       0.74399676 </v>
   <v>       0.93484753       0.45834922       0.69985872 </v>
   <v>       0.19128635       0.62492541       0.65503964 </v>
   <v>       0.31053842       0.70721942       0.69993953 </v>
   <v>       0.93496794       0.28643130       0.12411185 </v>
   <v>       0.43739189       0.45649327       0.47849190 </v>
   <v>       0.06228758       0.70656570       0.47848219 </v>
   <v>       0.93713339       0.11875074       0.43470004 </v>
   <v>       0.44424292       0.12424027       0.30036781 </v>
   <v>       0.18701591       0.11908577       0.43446665 </v>
   <v>       0.56360749       0.03956540       0.87539932 </v>
   <v>       0.18680885       0.95694865       0.56569904 </v>
   <v>       0.68385226       0.78732819       0.12462153 </v>
   <v>       0.55922594       0.70253880       0.34489962 </v>
   <v>       0.31621314       0.03686591       0.38913154 </v>
   <v>       0.68212128       0.11380691       0.16707877 </v>
   <v>       0.81506935       0.20472112       0.21189267 </v>
   <v>       0.06064639       0.53826838       0.25613570 </v>
   <v>       0.56200778       0.70526905       0.47851036 </v>
   <v>       0.43500702       0.78663796       0.12421533 </v>
   <v>       0.56900924       0.37386318       0.30034057 </v>
   <v>       0.43390713       0.95289083       0.34491642 </v>
   <v>       0.18522393       0.95779773       0.69993451 </v>
   <v>       0.43273457       0.61324149       0.16634744 </v>
   <v>       0.93994693       0.45536348       0.21221405 </v>
   <v>       0.06189720       0.53129749       0.12422973 </v>
   <v>       0.81191153       0.37148556       0.52135423 </v>
   <v>       0.94415343       0.62406693       0.30011364 </v>
   <v>       0.30949086       0.03782123       0.25602776 </v>
   <v>       0.68377237       0.78781411       0.61104535 </v>
   <v>       0.19262404       0.46416043       0.83249540 </v>
   <v>       0.43233323       0.11329366       0.16657352 </v>
   <v>       0.31139714       0.37167373       0.52135572 </v>
   <v>       0.43348823       0.62236918       0.78838234 </v>
   <v>       0.05947359       0.03824047       0.25617960 </v>
   <v>       0.56197666       0.70696844       0.56575058 </v>
   <v>       0.94047121       0.29010204       0.74424087 </v>
   <v>       0.68371622       0.12229762       0.78840635 </v>
   <v>       0.18932364       0.45481467       0.21194237 </v>
   <v>       0.94143366       0.78807132       0.38924334 </v>
   <v>       0.68684372       0.29532420       0.87573847 </v>
   <v>       0.55630398       0.86453336       0.16656475 </v>
   <v>       0.43534048       0.45834536       0.69987664 </v>
   <v>       0.93390051       0.95184022       0.34488193 </v>
   <v>       0.68666513       0.62148050       0.52125818 </v>
   <v>       0.06618681       0.87453201       0.65501640 </v>
   <v>       0.05926698       0.87235465       0.78798196 </v>
   <v>       0.06602367       0.37514361       0.65502524 </v>
   <v>       0.68720511       0.45579901       0.47862137 </v>
   <v>       0.18511270       0.78856567       0.25617615 </v>
   <v>       0.43723249       0.12036822       0.43442155 </v>
   <v>       0.81358457       0.03216421       0.12424504 </v>
   <v>       0.93655403       0.62162788       0.52134148 </v>
   <v>       0.44163633       0.12463895       0.65495785 </v>
   <v>       0.81196821       0.53127419       0.12406287 </v>
   <v>       0.43399925       0.45253877       0.34496905 </v>
   <v>       0.80890290       0.20256892       0.34502027 </v>
   <v>       0.30905534       0.70207999       0.34487048 </v>
   <v>       0.69131711       0.12485764       0.65503932 </v>
   <v>       0.56927425       0.87382410       0.30036008 </v>
   <v>       0.06592131       0.54041381       0.74425288 </v>
   <v>       0.94059632       0.95567896       0.21173876 </v>
   <v>       0.81633261       0.70493017       0.21189896 </v>
   <v>       0.06910890       0.87398430       0.30036381 </v>
   <v>       0.19459435       0.12434662       0.30031518 </v>
   <v>       0.05850188       0.70212263       0.34492932 </v>
   <v>       0.80886414       0.03789530       0.61103996 </v>
   <v>       0.06281895       0.37100090       0.43442120 </v>
   <v>       0.55900724       0.20277974       0.34480457 </v>
   <v>       0.81905879       0.37453854       0.30034182 </v>
   <v>       0.55909152       0.03845990       0.25607642 </v>
   <v>       0.56624224       0.53780183       0.38924309 </v>
   <v>       0.06212567       0.20517999       0.47876917 </v>
   <v>       0.31205371       0.87093454       0.78781800 </v>
   <v>       0.93484810       0.95802725       0.69981955 </v>
   <v>       0.06873439       0.37496760       0.30033731 </v>
   <v>       0.69124434       0.62501455       0.65510132 </v>
   <v>       0.68681875       0.45694824       0.56567568 </v>
   <v>       0.44041151       0.95695995       0.21255854 </v>
   <v>       0.31196992       0.20560416       0.47872076 </v>
   <v>       0.81470220       0.53972364       0.87526797 </v>
   <v>       0.68708683       0.62048220       0.43451431 </v>
   <v>       0.81057632       0.20776376       0.69985638 </v>
   <v>       0.81259929       0.70611348       0.47862584 </v>
   <v>       0.81244491       0.87105670       0.43430609 </v>
   <v>       0.93777786       0.95509601       0.47864771 </v>
   <v>       0.56254936       0.20565890       0.47864984 </v>
   <v>       0.18740510       0.62101759       0.43450663 </v>
   <v>       0.31542605       0.04046809       0.74431692 </v>
   <v>       0.94110048       0.62508741       0.65502626 </v>
   <v>       0.56584148       0.71280075       0.83231005 </v>
   <v>       0.32005805       0.37355364       0.30010499 </v>
   <v>       0.56548836       0.70449311       0.21193281 </v>
   <v>       0.18723718       0.45590730       0.47867027 </v>
   <v>       0.31388236       0.04098334       0.87567715 </v>
   <v>       0.18528517       0.45845060       0.69987714 </v>
   <v>       0.56174510       0.37156926       0.52138554 </v>
   <v>       0.19108702       0.28777346       0.38909850 </v>
   <v>       0.31561943       0.20473205       0.21183934 </v>
   <v>       0.06658482       0.70556187       0.21186165 </v>
   <v>       0.56193086       0.37117485       0.43446106 </v>
   <v>       0.43649848       0.62176187       0.52129124 </v>
   <v>       0.81639863       0.71320087       0.83237081 </v>
   <v>       0.06209066       0.37419484       0.78809212 </v>
   <v>       0.43669363       0.29709943       0.87546560 </v>
   <v>       0.31105266       0.03228116       0.12405302 </v>
   <v>       0.68819038       0.11967107       0.43434563 </v>
   <v>       0.18386240       0.95264745       0.34504745 </v>
   <v>       0.06699144       0.21409438       0.83288392 </v>
   <v>       0.55914442       0.03828465       0.61111658 </v>
   <v>       0.68957374       0.45535546       0.21224949 </v>
   <v>       0.19085983       0.78999470       0.74435472 </v>
   <v>       0.19441595       0.62399717       0.30017851 </v>
   <v>       0.44110903       0.78734639       0.38925807 </v>
   <v>       0.43337720       0.28984089       0.25625220 </v>
   <v>       0.06430510       0.53989660       0.87516093 </v>
   <v>       0.56536234       0.04037824       0.74419574 </v>
   <v>       0.18724332       0.79244973       0.87557167 </v>
   <v>       0.93735835       0.45536366       0.47868862 </v>
   <v>       0.56438011       0.54074988       0.74419755 </v>
   <v>       0.81141896       0.20673929       0.56557415 </v>
   <v>       0.18625603       0.62063509       0.78811790 </v>
   <v>       0.06698565       0.53885643       0.38927319 </v>
   <v>       0.06026595       0.70738258       0.69983413 </v>
   <v>       0.30855784       0.53890927       0.25598948 </v>
   <v>       0.31540960       0.70332876       0.21284715 </v>
   <v>       0.30512414       0.86497339       0.16594967 </v>
   <v>       0.43673563       0.62092229       0.43452558 </v>
   <v>       0.81783910       0.03901543       0.38938037 </v>
   <v>       0.19219726       0.96193675       0.83341729 </v>
   <v>       0.93862560       0.79315692       0.87481627 </v>
   <v>       0.06364064       0.04102908       0.87557266 </v>
   <v>       0.56250568       0.53036157       0.12457941 </v>
   <v>       0.80527268       0.36612791       0.16642211 </v>
   <v>       0.06209312       0.87077109       0.43456593 </v>
   <v>       0.93647526       0.12144598       0.52129272 </v>
   <v>       0.19243678       0.78762011       0.38932101 </v>
   <v>       0.31559948       0.54046714       0.74459477 </v>
  </varray>
 </structure>
</modeling>
