 288 288   0   0
  0.1280206E+02  0.9726678E-09  0.8423550E-09  0.4500000E-08  0.2500000E-15
  1.000000000000000E-004
  CAR 
 unknown system                          
      6.78167091     -6.03715174  301      4.31552711      1.00000000
     -6.037  0.0000E+00  0.0000E+00
     -5.994  0.0000E+00  0.0000E+00
     -5.952  0.0000E+00  0.0000E+00
     -5.909  0.0000E+00  0.0000E+00
     -5.866  0.0000E+00  0.0000E+00
     -5.824  0.0000E+00  0.0000E+00
     -5.781  0.0000E+00  0.0000E+00
     -5.738  0.0000E+00  0.0000E+00
     -5.695  0.0000E+00  0.0000E+00
     -5.653  0.0000E+00  0.0000E+00
     -5.610  0.0000E+00  0.0000E+00
     -5.567  0.0000E+00  0.0000E+00
     -5.524  0.0000E+00  0.0000E+00
     -5.482  0.0000E+00  0.0000E+00
     -5.439  0.0000E+00  0.0000E+00
     -5.396  0.1624E-15  0.6939E-17
     -5.353  0.3930E-14  0.1749E-15
     -5.311  0.8428E-13  0.3776E-14
     -5.268  0.1537E-11  0.6945E-13
     -5.225  0.2388E-10  0.1090E-11
     -5.183  0.3160E-09  0.1459E-10
     -5.140  0.3562E-08  0.1668E-09
     -5.097  0.3423E-07  0.1629E-08
     -5.054  0.2803E-06  0.1361E-07
     -5.012  0.1959E-05  0.9730E-07
     -4.969  0.1169E-04  0.5966E-06
     -4.926  0.5961E-04  0.3144E-05
     -4.883  0.2606E-03  0.1428E-04
     -4.841  0.9791E-03  0.5611E-04
     -4.798  0.3177E-02  0.1919E-03
     -4.755  0.8963E-02  0.5748E-03
     -4.713  0.2218E-01  0.1523E-02
     -4.670  0.4872E-01  0.3604E-02
     -4.627  0.9620E-01  0.7715E-02
     -4.584  0.1730E+00  0.1511E-01
     -4.542  0.2865E+00  0.2735E-01
     -4.499  0.4405E+00  0.4617E-01
     -4.456  0.6324E+00  0.7320E-01
     -4.413  0.8519E+00  0.1096E+00
     -4.371  0.1082E+01  0.1558E+00
     -4.328  0.1300E+01  0.2114E+00
     -4.285  0.1486E+01  0.2749E+00
     -4.243  0.1627E+01  0.3444E+00
     -4.200  0.1721E+01  0.4179E+00
     -4.157  0.1786E+01  0.4943E+00
     -4.114  0.1849E+01  0.5732E+00
     -4.072  0.1939E+01  0.6561E+00
     -4.029  0.2081E+01  0.7450E+00
     -3.986  0.2283E+01  0.8426E+00
     -3.943  0.2528E+01  0.9506E+00
     -3.901  0.2783E+01  0.1070E+01
     -3.858  0.3003E+01  0.1198E+01
     -3.815  0.3149E+01  0.1332E+01
     -3.772  0.3203E+01  0.1469E+01
     -3.730  0.3173E+01  0.1605E+01
     -3.687  0.3098E+01  0.1737E+01
     -3.644  0.3034E+01  0.1867E+01
     -3.602  0.3030E+01  0.1996E+01
     -3.559  0.3120E+01  0.2130E+01
     -3.516  0.3302E+01  0.2271E+01
     -3.473  0.3549E+01  0.2422E+01
     -3.431  0.3812E+01  0.2585E+01
     -3.388  0.4037E+01  0.2758E+01
     -3.345  0.4184E+01  0.2937E+01
     -3.302  0.4240E+01  0.3118E+01
     -3.260  0.4218E+01  0.3298E+01
     -3.217  0.4163E+01  0.3476E+01
     -3.174  0.4130E+01  0.3652E+01
     -3.132  0.4172E+01  0.3831E+01
     -3.089  0.4315E+01  0.4015E+01
     -3.046  0.4549E+01  0.4209E+01
     -3.003  0.4833E+01  0.4416E+01
     -2.961  0.5106E+01  0.4634E+01
     -2.918  0.5313E+01  0.4861E+01
     -2.875  0.5418E+01  0.5092E+01
     -2.832  0.5427E+01  0.5324E+01
     -2.790  0.5387E+01  0.5555E+01
     -2.747  0.5364E+01  0.5784E+01
     -2.704  0.5401E+01  0.6015E+01
     -2.662  0.5493E+01  0.6249E+01
     -2.619  0.5588E+01  0.6488E+01
     -2.576  0.5626E+01  0.6728E+01
     -2.533  0.5592E+01  0.6967E+01
     -2.491  0.5541E+01  0.7204E+01
     -2.448  0.5575E+01  0.7442E+01
     -2.405  0.5791E+01  0.7690E+01
     -2.362  0.6216E+01  0.7955E+01
     -2.320  0.6769E+01  0.8245E+01
     -2.277  0.7279E+01  0.8556E+01
     -2.234  0.7557E+01  0.8879E+01
     -2.192  0.7509E+01  0.9199E+01
     -2.149  0.7202E+01  0.9507E+01
     -2.106  0.6845E+01  0.9800E+01
     -2.063  0.6681E+01  0.1009E+02
     -2.021  0.6859E+01  0.1038E+02
     -1.978  0.7363E+01  0.1069E+02
     -1.935  0.8025E+01  0.1104E+02
     -1.892  0.8610E+01  0.1140E+02
     -1.850  0.8930E+01  0.1179E+02
     -1.807  0.8940E+01  0.1217E+02
     -1.764  0.8752E+01  0.1254E+02
     -1.721  0.8565E+01  0.1291E+02
     -1.679  0.8536E+01  0.1327E+02
     -1.636  0.8710E+01  0.1364E+02
     -1.593  0.9020E+01  0.1403E+02
     -1.551  0.9360E+01  0.1443E+02
     -1.508  0.9659E+01  0.1484E+02
     -1.465  0.9904E+01  0.1527E+02
     -1.422  0.1011E+02  0.1570E+02
     -1.380  0.1030E+02  0.1614E+02
     -1.337  0.1047E+02  0.1659E+02
     -1.294  0.1065E+02  0.1704E+02
     -1.251  0.1093E+02  0.1751E+02
     -1.209  0.1148E+02  0.1800E+02
     -1.166  0.1234E+02  0.1852E+02
     -1.123  0.1343E+02  0.1910E+02
     -1.081  0.1447E+02  0.1972E+02
     -1.038  0.1518E+02  0.2037E+02
     -0.995  0.1544E+02  0.2103E+02
     -0.952  0.1546E+02  0.2169E+02
     -0.910  0.1561E+02  0.2235E+02
     -0.867  0.1627E+02  0.2305E+02
     -0.824  0.1757E+02  0.2380E+02
     -0.781  0.1943E+02  0.2463E+02
     -0.739  0.2171E+02  0.2556E+02
     -0.696  0.2443E+02  0.2660E+02
     -0.653  0.2773E+02  0.2779E+02
     -0.611  0.3172E+02  0.2914E+02
     -0.568  0.3623E+02  0.3069E+02
     -0.525  0.4078E+02  0.3243E+02
     -0.482  0.4480E+02  0.3435E+02
     -0.440  0.4796E+02  0.3640E+02
     -0.397  0.5028E+02  0.3854E+02
     -0.354  0.5207E+02  0.4077E+02
     -0.311  0.5361E+02  0.4306E+02
     -0.269  0.5501E+02  0.4541E+02
     -0.226  0.5618E+02  0.4781E+02
     -0.183  0.5697E+02  0.5024E+02
     -0.140  0.5735E+02  0.5270E+02
     -0.098  0.5745E+02  0.5515E+02
     -0.055  0.5754E+02  0.5761E+02
     -0.012  0.5788E+02  0.6008E+02
      0.030  0.5863E+02  0.6259E+02
      0.073  0.5993E+02  0.6515E+02
      0.116  0.6188E+02  0.6779E+02
      0.159  0.6450E+02  0.7055E+02
      0.201  0.6768E+02  0.7344E+02
      0.244  0.7111E+02  0.7648E+02
      0.287  0.7445E+02  0.7966E+02
      0.330  0.7746E+02  0.8297E+02
      0.372  0.8002E+02  0.8639E+02
      0.415  0.8213E+02  0.8990E+02
      0.458  0.8385E+02  0.9348E+02
      0.500  0.8519E+02  0.9712E+02
      0.543  0.8615E+02  0.1008E+03
      0.586  0.8667E+02  0.1045E+03
      0.629  0.8675E+02  0.1082E+03
      0.671  0.8636E+02  0.1119E+03
      0.714  0.8548E+02  0.1156E+03
      0.757  0.8409E+02  0.1191E+03
      0.800  0.8224E+02  0.1227E+03
      0.842  0.8017E+02  0.1261E+03
      0.885  0.7827E+02  0.1294E+03
      0.928  0.7684E+02  0.1327E+03
      0.970  0.7600E+02  0.1360E+03
      1.013  0.7561E+02  0.1392E+03
      1.056  0.7538E+02  0.1424E+03
      1.099  0.7503E+02  0.1456E+03
      1.141  0.7449E+02  0.1488E+03
      1.184  0.7387E+02  0.1520E+03
      1.227  0.7344E+02  0.1551E+03
      1.270  0.7335E+02  0.1582E+03
      1.312  0.7351E+02  0.1614E+03
      1.355  0.7358E+02  0.1645E+03
      1.398  0.7316E+02  0.1676E+03
      1.440  0.7209E+02  0.1707E+03
      1.483  0.7061E+02  0.1737E+03
      1.526  0.6922E+02  0.1767E+03
      1.569  0.6849E+02  0.1796E+03
      1.611  0.6876E+02  0.1826E+03
      1.654  0.7004E+02  0.1856E+03
      1.697  0.7207E+02  0.1886E+03
      1.740  0.7447E+02  0.1918E+03
      1.782  0.7687E+02  0.1951E+03
      1.825  0.7909E+02  0.1985E+03
      1.868  0.8109E+02  0.2019E+03
      1.911  0.8293E+02  0.2055E+03
      1.953  0.8467E+02  0.2091E+03
      1.996  0.8633E+02  0.2128E+03
      2.039  0.8791E+02  0.2166E+03
      2.081  0.8939E+02  0.2204E+03
      2.124  0.9080E+02  0.2243E+03
      2.167  0.9214E+02  0.2282E+03
      2.210  0.9349E+02  0.2322E+03
      2.252  0.9501E+02  0.2362E+03
      2.295  0.9695E+02  0.2404E+03
      2.338  0.9958E+02  0.2446E+03
      2.381  0.1030E+03  0.2490E+03
      2.423  0.1072E+03  0.2536E+03
      2.466  0.1118E+03  0.2584E+03
      2.509  0.1163E+03  0.2634E+03
      2.551  0.1203E+03  0.2685E+03
      2.594  0.1236E+03  0.2738E+03
      2.637  0.1259E+03  0.2792E+03
      2.680  0.1273E+03  0.2846E+03
      2.722  0.1280E+03  0.2901E+03
      2.765  0.1285E+03  0.2956E+03
      2.808  0.1294E+03  0.3011E+03
      2.851  0.1313E+03  0.3067E+03
      2.893  0.1342E+03  0.3124E+03
      2.936  0.1374E+03  0.3183E+03
      2.979  0.1398E+03  0.3243E+03
      3.021  0.1399E+03  0.3303E+03
      3.064  0.1365E+03  0.3361E+03
      3.107  0.1299E+03  0.3417E+03
      3.150  0.1211E+03  0.3468E+03
      3.192  0.1118E+03  0.3516E+03
      3.235  0.1036E+03  0.3560E+03
      3.278  0.9755E+02  0.3602E+03
      3.321  0.9386E+02  0.3642E+03
      3.363  0.9219E+02  0.3681E+03
      3.406  0.9180E+02  0.3721E+03
      3.449  0.9180E+02  0.3760E+03
      3.492  0.9143E+02  0.3799E+03
      3.534  0.9023E+02  0.3838E+03
      3.577  0.8827E+02  0.3875E+03
      3.620  0.8613E+02  0.3912E+03
      3.662  0.8468E+02  0.3948E+03
      3.705  0.8463E+02  0.3984E+03
      3.748  0.8618E+02  0.4021E+03
      3.791  0.8891E+02  0.4059E+03
      3.833  0.9202E+02  0.4099E+03
      3.876  0.9484E+02  0.4139E+03
      3.919  0.9708E+02  0.4181E+03
      3.962  0.9885E+02  0.4223E+03
      4.004  0.1003E+03  0.4266E+03
      4.047  0.1016E+03  0.4309E+03
      4.090  0.1024E+03  0.4353E+03
      4.132  0.1025E+03  0.4397E+03
      4.175  0.1020E+03  0.4440E+03
      4.218  0.1009E+03  0.4483E+03
      4.261  0.9968E+02  0.4526E+03
      4.303  0.9869E+02  0.4568E+03
      4.346  0.9817E+02  0.4610E+03
      4.389  0.9820E+02  0.4652E+03
      4.432  0.9869E+02  0.4694E+03
      4.474  0.9933E+02  0.4737E+03
      4.517  0.9976E+02  0.4779E+03
      4.560  0.9971E+02  0.4822E+03
      4.602  0.9919E+02  0.4864E+03
      4.645  0.9849E+02  0.4906E+03
      4.688  0.9814E+02  0.4948E+03
      4.731  0.9862E+02  0.4990E+03
      4.773  0.1002E+03  0.5033E+03
      4.816  0.1028E+03  0.5077E+03
      4.859  0.1061E+03  0.5122E+03
      4.902  0.1094E+03  0.5169E+03
      4.944  0.1124E+03  0.5217E+03
      4.987  0.1144E+03  0.5266E+03
      5.030  0.1145E+03  0.5315E+03
      5.072  0.1116E+03  0.5363E+03
      5.115  0.1046E+03  0.5407E+03
      5.158  0.9285E+02  0.5447E+03
      5.201  0.7689E+02  0.5480E+03
      5.243  0.5858E+02  0.5505E+03
      5.286  0.4056E+02  0.5522E+03
      5.329  0.2526E+02  0.5533E+03
      5.372  0.1404E+02  0.5539E+03
      5.414  0.6916E+01  0.5542E+03
      5.457  0.3003E+01  0.5543E+03
      5.500  0.1145E+01  0.5544E+03
      5.543  0.3817E+00  0.5544E+03
      5.585  0.1110E+00  0.5544E+03
      5.628  0.2809E-01  0.5544E+03
      5.671  0.6174E-02  0.5544E+03
      5.713  0.1176E-02  0.5544E+03
      5.756  0.1939E-03  0.5544E+03
      5.799  0.2763E-04  0.5544E+03
      5.842  0.3398E-05  0.5544E+03
      5.884  0.3602E-06  0.5544E+03
      5.927  0.3288E-07  0.5544E+03
      5.970  0.2582E-08  0.5544E+03
      6.013  0.1742E-09  0.5544E+03
      6.055  0.1009E-10  0.5544E+03
      6.098  0.5022E-12  0.5544E+03
      6.141  0.1994E-13  0.5544E+03
      6.183  0.3248E-15  0.5544E+03
      6.226  0.0000E+00  0.5544E+03
      6.269  0.0000E+00  0.5544E+03
      6.312  0.0000E+00  0.5544E+03
      6.354  0.0000E+00  0.5544E+03
      6.397  0.0000E+00  0.5544E+03
      6.440  0.0000E+00  0.5544E+03
      6.483  0.0000E+00  0.5544E+03
      6.525  0.0000E+00  0.5544E+03
      6.568  0.0000E+00  0.5544E+03
      6.611  0.0000E+00  0.5544E+03
      6.653  0.0000E+00  0.5544E+03
      6.696  0.0000E+00  0.5544E+03
      6.739  0.0000E+00  0.5544E+03
      6.782  0.0000E+00  0.5544E+03
