unknown system                          
           1
     9.726678    0.000000    0.000000
     0.000000    8.423550    0.000000
     0.000000    0.000000   45.000000
   Fe   Mn
 274  14
Direct configuration=     1
   0.06183992  0.03111570  0.12436414
   0.31658682  0.87495737  0.65486452
   0.18483870  0.12161179  0.78828021
   0.44157078  0.28771918  0.38909430
   0.31769949  0.71259155  0.83279312
   0.81770330  0.21390957  0.83336386
   0.19127362  0.96267991  0.83330132
   0.56214603  0.20710013  0.56550688
   0.06555828  0.03976610  0.74396294
   0.81153974  0.87142376  0.52134025
   0.19103531  0.29049208  0.74391505
   0.93369673  0.45212050  0.34491828
   0.94096640  0.28658911  0.38895994
   0.81313988  0.03977942  0.87542647
   0.18355593  0.78804737  0.61086384
   0.56642793  0.03764532  0.38910050
   0.94172911  0.96319915  0.83356753
   0.31432905  0.53889661  0.87578846
   0.69057897  0.29027672  0.74392752
   0.18235533  0.61385225  0.16668660
   0.81215527  0.20569535  0.47871140
   0.80874873  0.53793912  0.61090372
   0.31210625  0.87031019  0.43450722
   0.80923083  0.03829094  0.25614054
   0.68366194  0.95165902  0.34488860
   0.93127587  0.11450086  0.16724343
   0.06159861  0.87132783  0.52135789
   0.55883683  0.53823934  0.25604592
   0.68463519  0.79540113  0.87546433
   0.55626665  0.36573906  0.16676038
   0.43991065  0.79078990  0.74405285
   0.81162386  0.70676445  0.56546459
   0.55996578  0.87221881  0.78829293
   0.68663938  0.12146152  0.52137867
   0.81648798  0.37493205  0.65489288
   0.94156658  0.46282557  0.83353277
   0.06036510  0.20801540  0.69955228
   0.43510086  0.95797298  0.69955311
   0.31687716  0.21192601  0.83331690
   0.44147110  0.62477043  0.65488238
   0.30876290  0.53790350  0.61087782
   0.93669014  0.45667814  0.56556401
   0.69006777  0.79106498  0.74404015
   0.93358563  0.78830949  0.12467725
   0.69172267  0.78758069  0.38904765
   0.94053324  0.79012808  0.74413670
   0.05900671  0.20290557  0.34497807
   0.43687174  0.62010658  0.43450500
   0.43504455  0.12129036  0.78862165
   0.06474475  0.20525364  0.21162362
   0.05542142  0.36577755  0.16681055
   0.93344509  0.78859885  0.25582995
   0.56045440  0.20779737  0.69959255
   0.68500897  0.95800018  0.69961850
   0.80986906  0.87226335  0.78823230
   0.43694109  0.95713490  0.56540894
   0.81045413  0.37329569  0.78818609
   0.68399680  0.28955117  0.25614765
   0.18725055  0.45719852  0.56548626
   0.05577219  0.86569284  0.16679121
   0.18374632  0.28797137  0.61090278
   0.06225071  0.20709245  0.56537465
   0.31042148  0.20791144  0.69962809
   0.56354619  0.53912101  0.87568941
   0.06171420  0.70651475  0.56550304
   0.68490428  0.62167233  0.78818465
   0.31616004  0.53755678  0.38896948
   0.18673962  0.62137339  0.52142483
   0.56200476  0.87055032  0.43452428
   0.43693686  0.45708057  0.56548419
   0.43987822  0.29090605  0.74402705
   0.81933169  0.87497741  0.30040985
   0.80840667  0.70265528  0.34508869
   0.44164989  0.46236597  0.83313970
   0.68728318  0.95574111  0.47864333
   0.68503477  0.45795798  0.69962161
   0.56182643  0.87182708  0.52138598
   0.56652732  0.37478720  0.65487691
   0.81639579  0.87493592  0.65492079
   0.81195895  0.37159508  0.43428325
   0.80877572  0.53821237  0.25626147
   0.69187832  0.46150880  0.83305696
   0.18613163  0.78847067  0.12427006
   0.69124397  0.28744539  0.38907684
   0.31643458  0.37476965  0.65487123
   0.30920160  0.20263035  0.34499520
   0.81565042  0.53986928  0.74394018
   0.69146554  0.96200739  0.83313764
   0.56636007  0.87462192  0.65490205
   0.31183036  0.70691268  0.56542421
   0.31231618  0.53154832  0.12426425
   0.68960828  0.95553263  0.21196077
   0.31141258  0.20657347  0.56547425
   0.18726955  0.95576506  0.47868525
   0.68737648  0.95716712  0.56546899
   0.43371288  0.78799547  0.61088012
   0.68247461  0.61221788  0.16672063
   0.31916362  0.87446458  0.30023448
   0.31225107  0.70575478  0.47864939
   0.93362673  0.28796939  0.61086602
   0.44492457  0.62471924  0.30045676
   0.80687935  0.86430011  0.16721531
   0.56665660  0.20372872  0.21177870
   0.93296887  0.61287563  0.16685044
   0.43730176  0.95566220  0.47866434
   0.56018974  0.37185526  0.78836020
   0.06139871  0.37203612  0.52137408
   0.30688759  0.36467614  0.16689615
   0.69482927  0.12429039  0.30039872
   0.44270650  0.96188995  0.83309256
   0.18469551  0.28744208  0.12450046
   0.18404951  0.28938278  0.25611264
   0.31207032  0.37033588  0.43447734
   0.56239162  0.03290263  0.12460808
   0.43366278  0.28791051  0.61085781
   0.18386757  0.45286915  0.34508673
   0.43452982  0.28742266  0.12457579
   0.68402655  0.78959506  0.25599507
   0.43657606  0.12130514  0.52133730
   0.18839786  0.29448815  0.87576651
   0.19148397  0.12495820  0.65490512
   0.94148366  0.12494635  0.65488428
   0.81628708  0.53750138  0.38907131
   0.06645259  0.03768980  0.38909604
   0.18300214  0.11225392  0.16663229
   0.05863439  0.53776562  0.61091002
   0.93442503  0.28960668  0.25606517
   0.55861325  0.53802151  0.61086514
   0.93695177  0.95739530  0.56543662
   0.69396004  0.62495424  0.30038188
   0.93773245  0.62052745  0.43450153
   0.93403413  0.62292816  0.78798789
   0.56038647  0.70761353  0.69957898
   0.06591424  0.71517121  0.83363292
   0.94475907  0.12380821  0.30030169
   0.93370141  0.78760196  0.61091116
   0.43375663  0.78955657  0.25611851
   0.31070627  0.37209979  0.78821393
   0.43990325  0.45559120  0.21182174
   0.18664180  0.12136731  0.52137291
   0.81038316  0.70796588  0.69955225
   0.05856685  0.03794367  0.61085990
   0.56607296  0.21297558  0.83301435
   0.31161711  0.87157808  0.52135406
   0.68623488  0.28743468  0.12433132
   0.18995983  0.95636142  0.21202537
   0.68359669  0.28793446  0.61090320
   0.30865448  0.03792862  0.61094890
   0.93525656  0.12272274  0.78834116
   0.43697357  0.79539948  0.87569506
   0.81552008  0.04036585  0.74387345
   0.93495263  0.45804011  0.69959048
   0.19146240  0.62493802  0.65491269
   0.31031853  0.70767730  0.69959305
   0.93439211  0.28724964  0.12443903
   0.43724471  0.45570312  0.47863578
   0.06226180  0.70572847  0.47857205
   0.93693184  0.12015835  0.43462376
   0.44392618  0.12467852  0.30041531
   0.18775601  0.12025557  0.43435821
   0.56342084  0.03911047  0.87581077
   0.18700999  0.95728361  0.56544583
   0.68423357  0.78842333  0.12476157
   0.55928995  0.70278871  0.34506213
   0.31615890  0.03696014  0.38905477
   0.68244136  0.11435614  0.16721001
   0.81486116  0.20505840  0.21166647
   0.05982525  0.53860857  0.25594478
   0.56220976  0.70567467  0.47863026
   0.43467000  0.78771704  0.12450471
   0.56916350  0.37458684  0.30041518
   0.43341310  0.95242932  0.34508827
   0.18513123  0.95818754  0.69969837
   0.43180454  0.61369579  0.16666690
   0.94007330  0.45554642  0.21197032
   0.06179608  0.53114159  0.12429656
   0.81167609  0.37169663  0.52136176
   0.94413358  0.62447445  0.30014759
   0.30949479  0.03820670  0.25592722
   0.68367389  0.78790306  0.61086832
   0.19175833  0.46261649  0.83318781
   0.43227194  0.11243856  0.16669967
   0.31157063  0.37146670  0.52132912
   0.43407239  0.62158868  0.78853567
   0.05869117  0.03816322  0.25610629
   0.56169389  0.70685904  0.56554071
   0.94002871  0.28960478  0.74401103
   0.68347224  0.12221719  0.78834373
   0.18959370  0.45495811  0.21163065
   0.94113871  0.78771416  0.38908248
   0.68615896  0.29757221  0.87575289
   0.55566972  0.86495144  0.16666749
   0.43535024  0.45796805  0.69953671
   0.93424872  0.95138818  0.34486655
   0.68638917  0.62143240  0.52128736
   0.06650125  0.87483044  0.65487840
   0.06020842  0.87304317  0.78821816
   0.06636235  0.37490725  0.65490297
   0.68717016  0.45567077  0.47863868
   0.18435376  0.78949697  0.25597161
   0.43697299  0.12052038  0.43438884
   0.81351233  0.03156766  0.12433403
   0.93649016  0.62148619  0.52138997
   0.44151871  0.12479231  0.65482698
   0.81267005  0.53069888  0.12435946
   0.43405091  0.45231519  0.34512054
   0.80899247  0.20284156  0.34501709
   0.30917142  0.70271677  0.34500231
   0.69135457  0.12490235  0.65493192
   0.56937030  0.87451452  0.30049210
   0.06557425  0.53982415  0.74398374
   0.94048208  0.95525208  0.21165326
   0.81658682  0.70560116  0.21178702
   0.06911745  0.87457104  0.30044706
   0.19439449  0.12461132  0.30045683
   0.05874530  0.70270800  0.34507839
   0.80872206  0.03791439  0.61088694
   0.06231310  0.37079861  0.43444352
   0.55929931  0.20306459  0.34509028
   0.81960412  0.37428780  0.30020549
   0.55930718  0.03878614  0.25587616
   0.56633449  0.53741856  0.38909337
   0.06256392  0.20572632  0.47867038
   0.31120629  0.87146974  0.78805604
   0.93516144  0.95834536  0.69958686
   0.06898179  0.37479957  0.30041591
   0.69127954  0.62493800  0.65494348
   0.68701472  0.45713327  0.56544534
   0.43997603  0.95665572  0.21226033
   0.31226059  0.20565015  0.47867658
   0.81334490  0.53855911  0.87561387
   0.68760417  0.62029728  0.43446063
   0.81050999  0.20775901  0.69964261
   0.81233165  0.70574280  0.47864825
   0.81178031  0.87110461  0.43430076
   0.93721627  0.95543250  0.47872625
   0.56217947  0.20576331  0.47864016
   0.18701040  0.62022573  0.43441924
   0.31533383  0.04072738  0.74388187
   0.94152872  0.62520283  0.65486493
   0.56633852  0.71274999  0.83307206
   0.31936908  0.37367554  0.30037837
   0.56512317  0.70458274  0.21172161
   0.18727537  0.45565537  0.47865876
   0.31456033  0.04013832  0.87558025
   0.18485516  0.45802942  0.69955694
   0.56160177  0.37141354  0.52132212
   0.19117011  0.28772091  0.38908916
   0.31533753  0.20567137  0.21168450
   0.06689844  0.70559945  0.21168703
   0.56212053  0.37070082  0.43446169
   0.43660630  0.62163677  0.52135966
   0.81693781  0.71426160  0.83302776
   0.06077530  0.37305497  0.78812985
   0.43664449  0.29629747  0.87603202
   0.31135258  0.03159613  0.12442236
   0.68754758  0.11935597  0.43441229
   0.18381996  0.95263514  0.34510885
   0.06642941  0.21362067  0.83364974
   0.55880881  0.03795810  0.61092847
   0.68955453  0.45552375  0.21203478
   0.19039432  0.79027365  0.74399029
   0.19404463  0.62459166  0.30043323
   0.44121861  0.78772657  0.38909125
   0.43372050  0.28950487  0.25608047
   0.06458144  0.53862675  0.87554874
   0.56586015  0.04046249  0.74391278
   0.18762273  0.79523415  0.87570562
   0.93727249  0.45563898  0.47865890
   0.56558756  0.54063064  0.74385173
   0.81142522  0.20678170  0.56544106
   0.18553189  0.62084494  0.78808687
   0.06710649  0.53800004  0.38905260
   0.06044434  0.70785693  0.69955820
   0.30834523  0.53852518  0.25572140
   0.31522307  0.70402376  0.21239549
   0.30528323  0.86527137  0.16613149
   0.68307625  0.45242715  0.34525616
   0.81746460  0.03825043  0.38924639
   0.93529735  0.29612079  0.87528445
   0.93761218  0.79359167  0.87521899
   0.06558003  0.03759092  0.87534311
   0.56291365  0.53005195  0.12486621
   0.80509685  0.36627146  0.16643956
   0.06155130  0.87101920  0.43443208
   0.93649034  0.12138199  0.52141762
   0.19197091  0.78818339  0.38904703
   0.31554013  0.54007023  0.74413102
Direct configuration=     2
   0.06196122  0.03248741  0.12423249
   0.31619069  0.87503993  0.65550976
   0.18528610  0.12172175  0.78784911
   0.44178021  0.28740634  0.38947011
   0.31684620  0.71243479  0.83278184
   0.81733548  0.21310608  0.83319927
   0.19120329  0.96181243  0.83289463
   0.56261653  0.20654391  0.56544246
   0.06555807  0.03985913  0.74361540
   0.81078323  0.87186372  0.52120917
   0.19081037  0.29036162  0.74348789
   0.93463410  0.45250116  0.34511858
   0.94037179  0.28712711  0.38935620
   0.81290758  0.04040121  0.87555421
   0.18250747  0.78815937  0.61145246
   0.56554437  0.03727681  0.38947344
   0.94178705  0.96255696  0.83325426
   0.31410538  0.54042865  0.87561478
   0.68948872  0.29024857  0.74348955
   0.18334760  0.61459982  0.16661413
   0.81062777  0.20534408  0.47833934
   0.80943478  0.53849980  0.61129926
   0.31230393  0.87061231  0.43477756
   0.80967285  0.03830114  0.25615582
   0.68372878  0.95219683  0.34515993
   0.93171231  0.11549483  0.16704334
   0.06211515  0.87151403  0.52100562
   0.55927992  0.53845578  0.25610426
   0.68515555  0.79465977  0.87551841
   0.55655032  0.36623939  0.16665409
   0.43935901  0.79100116  0.74355343
   0.81143027  0.70665762  0.56571208
   0.56012538  0.87265280  0.78781520
   0.68597358  0.12080282  0.52110240
   0.81549938  0.37474656  0.65519770
   0.94226925  0.46306596  0.83327245
   0.06111028  0.20788269  0.69930684
   0.43571424  0.95796668  0.69928633
   0.31630817  0.21187997  0.83308312
   0.44172030  0.62477742  0.65549934
   0.30854346  0.53771740  0.61143886
   0.93590118  0.45745920  0.56580894
   0.68920888  0.79124612  0.74363116
   0.93330004  0.78652146  0.12454727
   0.69083646  0.78749543  0.38939474
   0.94076268  0.79037130  0.74378004
   0.05925554  0.20292045  0.34510111
   0.43677698  0.62091286  0.43473415
   0.43513559  0.12142087  0.78810345
   0.06511275  0.20529142  0.21193354
   0.05546364  0.36599916  0.16671992
   0.93416976  0.78843249  0.25594417
   0.56048054  0.20767354  0.69926604
   0.68465155  0.95796006  0.69920716
   0.81023349  0.87241777  0.78779793
   0.43788276  0.95710789  0.56532701
   0.81069976  0.37324137  0.78772453
   0.68412042  0.28974139  0.25624895
   0.18643870  0.45744108  0.56564173
   0.05731722  0.86585578  0.16683942
   0.18297964  0.28840575  0.61154551
   0.06218111  0.20749475  0.56565656
   0.31103209  0.20762893  0.69942504
   0.56344353  0.54092632  0.87565245
   0.06050045  0.70626255  0.56567577
   0.68519747  0.62227176  0.78775673
   0.31635287  0.53803887  0.38934367
   0.18668260  0.62209906  0.52090109
   0.56144684  0.87090749  0.43466663
   0.43786306  0.45708647  0.56559781
   0.43958420  0.29083645  0.74350711
   0.81870296  0.87439129  0.30061926
   0.80898416  0.70346480  0.34532827
   0.44080883  0.46207718  0.83312814
   0.68627146  0.95565591  0.47832044
   0.68463377  0.45784494  0.69925293
   0.56255259  0.87315359  0.52100591
   0.56667149  0.37430943  0.65542434
   0.81549693  0.87498036  0.65520504
   0.81148353  0.37134875  0.43429705
   0.80913352  0.53811860  0.25635811
   0.69148493  0.46158385  0.83290999
   0.18695780  0.78723986  0.12429529
   0.69052233  0.28711223  0.38954177
   0.31610880  0.37409312  0.65543117
   0.31040639  0.20262626  0.34512769
   0.81520472  0.54002636  0.74354237
   0.69125319  0.96132943  0.83308995
   0.56675949  0.87473788  0.65548105
   0.31205565  0.70697193  0.56547351
   0.31267356  0.53199502  0.12411401
   0.68915678  0.95492220  0.21220560
   0.31206335  0.20649866  0.56539015
   0.18857851  0.95496706  0.47820823
   0.68758539  0.95644305  0.56549077
   0.43496178  0.78816080  0.61144724
   0.68267127  0.61220483  0.16665348
   0.31855571  0.87373819  0.30044478
   0.31232862  0.70648119  0.47807169
   0.93379020  0.28842111  0.61145805
   0.44416473  0.62434665  0.30073728
   0.80646851  0.86410471  0.16711507
   0.56577283  0.20433703  0.21205502
   0.93259868  0.61238454  0.16668646
   0.43670686  0.95518638  0.47817928
   0.56052746  0.37167127  0.78783659
   0.06152194  0.37259506  0.52111171
   0.30757297  0.36509556  0.16673597
   0.69398802  0.12452869  0.30073157
   0.44202918  0.96107395  0.83284134
   0.18540175  0.28677285  0.12446001
   0.18441495  0.28880527  0.25623539
   0.31261381  0.37019804  0.43469808
   0.56121184  0.03323374  0.12436164
   0.43456480  0.28827385  0.61143950
   0.18468240  0.45366288  0.34515378
   0.43449599  0.28619270  0.12433525
   0.68396472  0.78914778  0.25606136
   0.43685372  0.12094139  0.52091825
   0.18848570  0.29453813  0.87563255
   0.19069026  0.12467887  0.65542430
   0.94080656  0.12442089  0.65512961
   0.81626950  0.53793061  0.38952948
   0.06650954  0.03728494  0.38960602
   0.18400106  0.11215525  0.16663742
   0.05782378  0.53789111  0.61133739
   0.93501234  0.28964061  0.25617284
   0.56033797  0.53811617  0.61136438
   0.93612488  0.95544310  0.56567556
   0.69315093  0.62485535  0.30050475
   0.93807195  0.62114422  0.43448004
   0.93450878  0.62345311  0.78764007
   0.56053306  0.70776005  0.69928458
   0.06622029  0.71448738  0.83338304
   0.94425126  0.12397031  0.30049404
   0.93344854  0.78771053  0.61143247
   0.43429095  0.78941837  0.25620949
   0.31064244  0.37119595  0.78776843
   0.43993412  0.45562939  0.21195251
   0.18770903  0.12060494  0.52086015
   0.81001884  0.70806357  0.69918279
   0.05773603  0.03812026  0.61153157
   0.56532909  0.21260062  0.83285141
   0.31122054  0.87252242  0.52074348
   0.68585257  0.28666876  0.12433027
   0.19027428  0.95570564  0.21207608
   0.68464200  0.28832765  0.61148739
   0.30847699  0.03823652  0.61158625
   0.93588767  0.12282343  0.78785283
   0.43731483  0.79375355  0.87559174
   0.81509893  0.04039525  0.74350009
   0.93530297  0.45796764  0.69931501
   0.19076962  0.62499005  0.65537461
   0.31086402  0.70798565  0.69944829
   0.93394999  0.28708861  0.12432345
   0.43671443  0.45610175  0.47805734
   0.06392506  0.70633103  0.47813070
   0.93735840  0.11991580  0.43464296
   0.44325659  0.12486914  0.30066233
   0.18807992  0.11922565  0.43451709
   0.56407484  0.03985780  0.87576949
   0.18646792  0.95671313  0.56538389
   0.68349173  0.78718856  0.12461092
   0.55904239  0.70366353  0.34528018
   0.31643925  0.03645685  0.38952157
   0.68231505  0.11511941  0.16696884
   0.81460063  0.20558370  0.21191904
   0.05979934  0.53865904  0.25605667
   0.56120145  0.70642641  0.47807958
   0.43475380  0.78708048  0.12440722
   0.56776212  0.37434359  0.30052403
   0.43398353  0.95257947  0.34535628
   0.18586345  0.95819572  0.69943031
   0.43199361  0.61484631  0.16661045
   0.93964479  0.45528032  0.21216093
   0.06138705  0.53159944  0.12413041
   0.81125513  0.37180884  0.52122887
   0.94384530  0.62402763  0.30035207
   0.30987402  0.03814051  0.25602825
   0.68516041  0.78800878  0.61139843
   0.19149365  0.46263559  0.83310906
   0.43204878  0.11257310  0.16647258
   0.31115568  0.37079142  0.52088643
   0.43486939  0.62261735  0.78804891
   0.05927981  0.03825662  0.25617685
   0.56284918  0.70678239  0.56567800
   0.94044215  0.28950509  0.74363590
   0.68366580  0.12233269  0.78783805
   0.18949516  0.45477911  0.21178676
   0.94084178  0.78747202  0.38952019
   0.68621138  0.29598867  0.87579243
   0.55500634  0.86462608  0.16652863
   0.43601372  0.45749584  0.69937306
   0.93472153  0.95163016  0.34506941
   0.68682010  0.62199406  0.52111948
   0.06564678  0.87504624  0.65523070
   0.06081256  0.87327402  0.78782078
   0.06580310  0.37430892  0.65519806
   0.68645695  0.45554078  0.47817858
   0.18479711  0.78955761  0.25612599
   0.43697141  0.12003944  0.43455506
   0.81241418  0.03266768  0.12416554
   0.93629762  0.62219013  0.52127074
   0.44176840  0.12452063  0.65553176
   0.81239774  0.53120875  0.12424759
   0.43394570  0.45268358  0.34518740
   0.80924687  0.20248885  0.34516064
   0.31017227  0.70291388  0.34510604
   0.69084441  0.12442918  0.65538200
   0.56836386  0.87379714  0.30070851
   0.06558441  0.53971789  0.74354889
   0.94030390  0.95498770  0.21198743
   0.81573464  0.70515613  0.21202617
   0.06913120  0.87404059  0.30064492
   0.19415668  0.12453206  0.30059615
   0.05942000  0.70278024  0.34521329
   0.80942356  0.03765577  0.61153398
   0.06265156  0.37077141  0.43447438
   0.55953862  0.20243634  0.34530338
   0.81928145  0.37414183  0.30037458
   0.55931890  0.03869259  0.25597686
   0.56554469  0.53800514  0.38959695
   0.06424027  0.20518147  0.47826456
   0.31117458  0.87224612  0.78763321
   0.93542714  0.95827552  0.69924482
   0.06886090  0.37489206  0.30053144
   0.69093175  0.62520626  0.65533759
   0.68755784  0.45755499  0.56564606
   0.43925271  0.95561258  0.21233073
   0.31258218  0.20427081  0.47825112
   0.81355324  0.54053384  0.87566403
   0.68716943  0.62048896  0.43450377
   0.81014878  0.20767649  0.69928920
   0.81156092  0.70631392  0.47832017
   0.81155175  0.87122395  0.43438617
   0.93750789  0.95423577  0.47830699
   0.56162928  0.20447149  0.47829286
   0.18734694  0.62100494  0.43465960
   0.31509465  0.04068002  0.74350176
   0.94060997  0.62548330  0.65509208
   0.56588751  0.71281717  0.83301270
   0.31900625  0.37357798  0.30065749
   0.56443633  0.70429243  0.21193926
   0.18835680  0.45635432  0.47821273
   0.31519198  0.04113906  0.87550330
   0.18546167  0.45771981  0.69941179
   0.56242449  0.37052284  0.52105967
   0.19113671  0.28744822  0.38953947
   0.31515186  0.20587325  0.21194509
   0.06701616  0.70531349  0.21198247
   0.56189801  0.37056980  0.43458139
   0.43653142  0.62235428  0.52088953
   0.81656934  0.71389588  0.83289335
   0.06121152  0.37279919  0.78774638
   0.43695700  0.29550857  0.87595572
   0.31247828  0.03224696  0.12433319
   0.68695108  0.11932019  0.43454701
   0.18473086  0.95269864  0.34525926
   0.06684405  0.21352972  0.83322006
   0.56047161  0.03784820  0.61148997
   0.68902679  0.45560776  0.21206507
   0.19048172  0.79057720  0.74356619
   0.19372038  0.62453533  0.30070835
   0.44124764  0.78813058  0.38951863
   0.43422067  0.28921233  0.25617042
   0.06502173  0.54010602  0.87551394
   0.56522169  0.04056743  0.74347582
   0.18802178  0.79326215  0.87557827
   0.93733719  0.45561416  0.47831642
   0.56492476  0.54052499  0.74335594
   0.81027434  0.20717601  0.56565694
   0.18529850  0.62186671  0.78775273
   0.06656255  0.53836302  0.38944958
   0.06111253  0.70804952  0.69933886
   0.30893586  0.53849999  0.25590862
   0.31560010  0.70493091  0.21232722
   0.30621202  0.86541864  0.16625714
   0.68329791  0.45222623  0.34540663
   0.81686903  0.03807312  0.38962682
   0.93556040  0.29533425  0.87554571
   0.93705170  0.79236863  0.87538801
   0.06482867  0.03886112  0.87553510
   0.56217716  0.53100656  0.12458334
   0.80536493  0.36724906  0.16636370
   0.06250617  0.87141412  0.43462133
   0.93578498  0.12085700  0.52097880
   0.19207213  0.78843028  0.38953570
   0.31543419  0.54005982  0.74345973
Direct configuration=     3
   0.06194675  0.03232374  0.12424820
   0.31623796  0.87503008  0.65543277
   0.18523272  0.12170863  0.78790055
   0.44175522  0.28744366  0.38942527
   0.31694801  0.71245349  0.83278318
   0.81737937  0.21320195  0.83321890
   0.19121168  0.96191593  0.83294316
   0.56256039  0.20661027  0.56545015
   0.06555809  0.03984803  0.74365687
   0.81087350  0.87181123  0.52122481
   0.19083721  0.29037719  0.74353886
   0.93452226  0.45245574  0.34509468
   0.94044274  0.28706292  0.38930892
   0.81293529  0.04032702  0.87553897
   0.18263257  0.78814601  0.61138223
   0.56564979  0.03732078  0.38942894
   0.94178013  0.96263359  0.83329164
   0.31413207  0.54024585  0.87563550
   0.68961880  0.29025193  0.74354180
   0.18322921  0.61451062  0.16662278
   0.81081002  0.20538599  0.47838373
   0.80935293  0.53843290  0.61125207
   0.31228035  0.87057627  0.43474530
   0.80962011  0.03829993  0.25615400
   0.68372080  0.95213266  0.34512756
   0.93166024  0.11537623  0.16706721
   0.06205351  0.87149181  0.52104765
   0.55922705  0.53842995  0.25609730
   0.68509346  0.79474823  0.87551195
   0.55651647  0.36617969  0.16666677
   0.43942483  0.79097595  0.74361301
   0.81145336  0.70667037  0.56568255
   0.56010634  0.87260102  0.78787220
   0.68605302  0.12088141  0.52113537
   0.81561733  0.37476870  0.65516133
   0.94218541  0.46303728  0.83330351
   0.06102137  0.20789852  0.69933612
   0.43564105  0.95796743  0.69931816
   0.31637606  0.21188546  0.83311101
   0.44169056  0.62477659  0.65542572
   0.30856964  0.53773961  0.61137192
   0.93599531  0.45736601  0.56577971
   0.68931136  0.79122450  0.74367996
   0.93333412  0.78673480  0.12456278
   0.69094220  0.78750560  0.38935333
   0.94073530  0.79034228  0.74382260
   0.05922585  0.20291867  0.34508643
   0.43678829  0.62081666  0.43470681
   0.43512473  0.12140529  0.78816528
   0.06506884  0.20528691  0.21189657
   0.05545861  0.36597271  0.16673073
   0.93408329  0.78845234  0.25593054
   0.56047742  0.20768832  0.69930500
   0.68469420  0.95796484  0.69925624
   0.81019000  0.87239935  0.78784976
   0.43777041  0.95711112  0.56533678
   0.81067045  0.37324785  0.78777960
   0.68410567  0.28971870  0.25623687
   0.18653556  0.45741214  0.56562318
   0.05713287  0.86583634  0.16683367
   0.18307112  0.28835392  0.61146882
   0.06218941  0.20744675  0.56562293
   0.31095923  0.20766264  0.69944926
   0.56345578  0.54071091  0.87565686
   0.06064527  0.70629264  0.56565516
   0.68516248  0.62220024  0.78780778
   0.31632986  0.53798135  0.38929903
   0.18668941  0.62201248  0.52096358
   0.56151341  0.87086488  0.43464965
   0.43775255  0.45708577  0.56558425
   0.43961928  0.29084475  0.74356915
   0.81877797  0.87446122  0.30059427
   0.80891526  0.70336821  0.34529968
   0.44090918  0.46211163  0.83312952
   0.68639218  0.95566608  0.47835896
   0.68468162  0.45785843  0.69929692
   0.56246595  0.87299532  0.52105126
   0.56665429  0.37436644  0.65535902
   0.81560418  0.87497506  0.65517113
   0.81154026  0.37137814  0.43429540
   0.80909083  0.53812979  0.25634658
   0.69153187  0.46157489  0.83292753
   0.18685923  0.78738671  0.12429228
   0.69060843  0.28715198  0.38948629
   0.31614767  0.37417384  0.65536436
   0.31026264  0.20262675  0.34511189
   0.81525790  0.54000762  0.74358983
   0.69127853  0.96141032  0.83309564
   0.56671183  0.87472405  0.65541196
   0.31202877  0.70696486  0.56546763
   0.31263092  0.53194172  0.12413194
   0.68921065  0.95499503  0.21217638
   0.31198570  0.20650759  0.56540018
   0.18842233  0.95506227  0.47826514
   0.68756046  0.95652945  0.56548818
   0.43481276  0.78814107  0.61137958
   0.68264780  0.61220639  0.16666149
   0.31862824  0.87382486  0.30041969
   0.31231937  0.70639452  0.47814062
   0.93377069  0.28836722  0.61138742
   0.44425539  0.62439110  0.30070381
   0.80651753  0.86412802  0.16712703
   0.56587828  0.20426445  0.21202205
   0.93264285  0.61244313  0.16670603
   0.43677784  0.95524315  0.47823715
   0.56048716  0.37169322  0.78789906
   0.06150724  0.37252837  0.52114302
   0.30749119  0.36504551  0.16675508
   0.69408839  0.12450026  0.30069186
   0.44211000  0.96117132  0.83287131
   0.18531748  0.28685270  0.12446483
   0.18437134  0.28887417  0.25622074
   0.31254897  0.37021449  0.43467175
   0.56135261  0.03319424  0.12439104
   0.43445718  0.28823049  0.61137009
   0.18458518  0.45356818  0.34514578
   0.43450003  0.28633946  0.12436395
   0.68397210  0.78920115  0.25605345
   0.43682059  0.12098479  0.52096825
   0.18847522  0.29453216  0.87564853
   0.19078496  0.12471220  0.65536236
   0.94088734  0.12448358  0.65510034
   0.81627160  0.53787940  0.38947481
   0.06650275  0.03733325  0.38954518
   0.18388188  0.11216702  0.16663681
   0.05792049  0.53787614  0.61128640
   0.93494227  0.28963656  0.25615999
   0.56013218  0.53810488  0.61130481
   0.93622354  0.95567603  0.56564705
   0.69324747  0.62486714  0.30049009
   0.93803144  0.62107063  0.43448261
   0.93445215  0.62339048  0.78768157
   0.56051557  0.70774256  0.69931971
   0.06618377  0.71456897  0.83341286
   0.94431185  0.12395096  0.30047109
   0.93347871  0.78769758  0.61137027
   0.43422719  0.78943486  0.25619863
   0.31065006  0.37130379  0.78782158
   0.43993044  0.45562483  0.21193691
   0.18758169  0.12069590  0.52092133
   0.81006231  0.70805192  0.69922688
   0.05783516  0.03809919  0.61145143
   0.56541784  0.21264536  0.83287085
   0.31126785  0.87240974  0.52081633
   0.68589819  0.28676015  0.12433040
   0.19023676  0.95578388  0.21207003
   0.68451728  0.28828074  0.61141768
   0.30849817  0.03819978  0.61151021
   0.93581237  0.12281141  0.78791110
   0.43727411  0.79394994  0.87560407
   0.81514918  0.04039175  0.74354464
   0.93526117  0.45797629  0.69934788
   0.19085228  0.62498384  0.65531950
   0.31079893  0.70794886  0.69946556
   0.93400274  0.28710783  0.12433724
   0.43677770  0.45605419  0.47812636
   0.06372661  0.70625913  0.47818336
   0.93730750  0.11994474  0.43464067
   0.44333649  0.12484640  0.30063286
   0.18804127  0.11934854  0.43449813
   0.56399681  0.03976863  0.87577441
   0.18653259  0.95678120  0.56539128
   0.68358024  0.78733589  0.12462889
   0.55907193  0.70355915  0.34525417
   0.31640580  0.03651690  0.38946587
   0.68233012  0.11502834  0.16699762
   0.81463172  0.20552102  0.21188890
   0.05980243  0.53865302  0.25604332
   0.56132176  0.70633671  0.47814529
   0.43474380  0.78715643  0.12441885
   0.56792933  0.37437261  0.30051104
   0.43391547  0.95256155  0.34532430
   0.18577608  0.95819475  0.69946229
   0.43197105  0.61470904  0.16661718
   0.93969592  0.45531207  0.21213819
   0.06143586  0.53154481  0.12415024
   0.81130536  0.37179545  0.52124473
   0.94387970  0.62408094  0.30032768
   0.30982877  0.03814840  0.25601620
   0.68498304  0.78799617  0.61133518
   0.19152523  0.46263331  0.83311845
   0.43207541  0.11255704  0.16649967
   0.31120519  0.37087199  0.52093925
   0.43477430  0.62249462  0.78810699
   0.05920957  0.03824548  0.25616843
   0.56271134  0.70679153  0.56566162
   0.94039282  0.28951699  0.74368066
   0.68364271  0.12231891  0.78789839
   0.18950692  0.45480047  0.21176813
   0.94087721  0.78750091  0.38946796
   0.68620513  0.29617761  0.87578771
   0.55508549  0.86466490  0.16654520
   0.43593456  0.45755218  0.69939259
   0.93466511  0.95160129  0.34504521
   0.68676868  0.62192705  0.52113951
   0.06574873  0.87502049  0.65518867
   0.06074048  0.87324647  0.78786820
   0.06586983  0.37438031  0.65516286
   0.68654205  0.45555629  0.47823348
   0.18474421  0.78955037  0.25610757
   0.43697160  0.12009683  0.43453523
   0.81254520  0.03253643  0.12418564
   0.93632059  0.62210614  0.52128497
   0.44173861  0.12455304  0.65544767
   0.81243023  0.53114791  0.12426094
   0.43395825  0.45263963  0.34517942