 288 288   0   0
  0.1280206E+02  0.9726678E-09  0.8423550E-09  0.4500000E-08  0.2500000E-15
   1.0000000000000000E-004
  CAR 
 unknown system                          
      6.77975522     -6.07283760  301      4.30942937      1.00000000
     -6.073  0.0000E+00  0.0000E+00
     -6.030  0.0000E+00  0.0000E+00
     -5.987  0.0000E+00  0.0000E+00
     -5.944  0.0000E+00  0.0000E+00
     -5.901  0.0000E+00  0.0000E+00
     -5.859  0.0000E+00  0.0000E+00
     -5.816  0.0000E+00  0.0000E+00
     -5.773  0.0000E+00  0.0000E+00
     -5.730  0.0000E+00  0.0000E+00
     -5.687  0.0000E+00  0.0000E+00
     -5.644  0.0000E+00  0.0000E+00
     -5.602  0.0000E+00  0.0000E+00
     -5.559  0.0000E+00  0.0000E+00
     -5.516  0.0000E+00  0.0000E+00
     -5.473  0.0000E+00  0.0000E+00
     -5.430  0.1944E-17  0.8327E-19
     -5.387  0.4470E-16  0.1998E-17
     -5.345  0.9608E-15  0.4316E-16
     -5.302  0.1753E-13  0.7942E-15
     -5.259  0.2722E-12  0.1245E-13
     -5.216  0.3596E-11  0.1665E-12
     -5.173  0.4045E-10  0.1899E-11
     -5.130  0.3873E-09  0.1849E-10
     -5.087  0.3159E-08  0.1538E-09
     -5.045  0.2196E-07  0.1095E-08
     -5.002  0.1302E-06  0.6674E-08
     -4.959  0.6596E-06  0.3493E-07
     -4.916  0.2859E-05  0.1574E-06
     -4.873  0.1064E-04  0.6134E-06
     -4.830  0.3417E-04  0.2077E-05
     -4.788  0.9526E-04  0.6158E-05
     -4.745  0.2328E-03  0.1613E-04
     -4.702  0.5043E-03  0.3774E-04
     -4.659  0.9824E-03  0.7983E-04
     -4.616  0.1744E-02  0.1545E-03
     -4.573  0.2852E-02  0.2767E-03
     -4.531  0.4335E-02  0.4624E-03
     -4.488  0.6160E-02  0.7263E-03
     -4.445  0.8228E-02  0.1079E-02
     -4.402  0.1038E-01  0.1524E-02
     -4.359  0.1244E-01  0.2057E-02
     -4.316  0.1424E-01  0.2667E-02
     -4.273  0.1567E-01  0.3338E-02
     -4.231  0.1676E-01  0.4056E-02
     -4.188  0.1765E-01  0.4813E-02
     -4.145  0.1855E-01  0.5607E-02
     -4.102  0.1968E-01  0.6450E-02
     -4.059  0.2119E-01  0.7358E-02
     -4.016  0.2310E-01  0.8348E-02
     -3.974  0.2526E-01  0.9430E-02
     -3.931  0.2738E-01  0.1060E-01
     -3.888  0.2918E-01  0.1185E-01
     -3.845  0.3042E-01  0.1316E-01
     -3.802  0.3102E-01  0.1449E-01
     -3.759  0.3108E-01  0.1582E-01
     -3.717  0.3091E-01  0.1714E-01
     -3.674  0.3085E-01  0.1846E-01
     -3.631  0.3120E-01  0.1980E-01
     -3.588  0.3211E-01  0.2118E-01
     -3.545  0.3357E-01  0.2261E-01
     -3.502  0.3542E-01  0.2413E-01
     -3.459  0.3740E-01  0.2573E-01
     -3.417  0.3924E-01  0.2741E-01
     -3.374  0.4069E-01  0.2916E-01
     -3.331  0.4159E-01  0.3094E-01
     -3.288  0.4196E-01  0.3274E-01
     -3.245  0.4197E-01  0.3454E-01
     -3.202  0.4196E-01  0.3633E-01
     -3.160  0.4236E-01  0.3815E-01
     -3.117  0.4348E-01  0.4001E-01
     -3.074  0.4537E-01  0.4195E-01
     -3.031  0.4783E-01  0.4400E-01
     -2.988  0.5041E-01  0.4616E-01
     -2.945  0.5253E-01  0.4841E-01
     -2.903  0.5375E-01  0.5072E-01
     -2.860  0.5395E-01  0.5303E-01
     -2.817  0.5351E-01  0.5532E-01
     -2.774  0.5310E-01  0.5759E-01
     -2.731  0.5333E-01  0.5988E-01
     -2.688  0.5432E-01  0.6221E-01
     -2.645  0.5566E-01  0.6459E-01
     -2.603  0.5667E-01  0.6702E-01
     -2.560  0.5693E-01  0.6946E-01
     -2.517  0.5665E-01  0.7189E-01
     -2.474  0.5661E-01  0.7431E-01
     -2.431  0.5779E-01  0.7679E-01
     -2.388  0.6080E-01  0.7939E-01
     -2.346  0.6540E-01  0.8219E-01
     -2.303  0.7036E-01  0.8521E-01
     -2.260  0.7396E-01  0.8838E-01
     -2.217  0.7494E-01  0.9159E-01
     -2.174  0.7337E-01  0.9473E-01
     -2.131  0.7066E-01  0.9776E-01
     -2.089  0.6882E-01  0.1007E+00
     -2.046  0.6940E-01  0.1037E+00
     -2.003  0.7275E-01  0.1068E+00
     -1.960  0.7796E-01  0.1101E+00
     -1.917  0.8331E-01  0.1137E+00
     -1.874  0.8711E-01  0.1174E+00
     -1.831  0.8856E-01  0.1212E+00
     -1.789  0.8818E-01  0.1250E+00
     -1.746  0.8726E-01  0.1287E+00
     -1.703  0.8700E-01  0.1325E+00
     -1.660  0.8790E-01  0.1362E+00
     -1.617  0.8975E-01  0.1401E+00
     -1.574  0.9212E-01  0.1440E+00
     -1.532  0.9479E-01  0.1481E+00
     -1.489  0.9771E-01  0.1523E+00
     -1.446  0.1008E+00  0.1566E+00
     -1.403  0.1038E+00  0.1610E+00
     -1.360  0.1062E+00  0.1656E+00
     -1.317  0.1081E+00  0.1702E+00
     -1.275  0.1105E+00  0.1750E+00
     -1.232  0.1150E+00  0.1799E+00
     -1.189  0.1227E+00  0.1851E+00
     -1.146  0.1330E+00  0.1908E+00
     -1.103  0.1435E+00  0.1970E+00
     -1.060  0.1514E+00  0.2035E+00
     -1.017  0.1552E+00  0.2101E+00
     -0.975  0.1563E+00  0.2168E+00
     -0.932  0.1583E+00  0.2236E+00
     -0.889  0.1650E+00  0.2307E+00
     -0.846  0.1786E+00  0.2383E+00
     -0.803  0.1987E+00  0.2468E+00
     -0.760  0.2242E+00  0.2564E+00
     -0.718  0.2543E+00  0.2673E+00
     -0.675  0.2895E+00  0.2797E+00
     -0.632  0.3299E+00  0.2939E+00
     -0.589  0.3737E+00  0.3099E+00
     -0.546  0.4170E+00  0.3277E+00
     -0.503  0.4552E+00  0.3473E+00
     -0.461  0.4857E+00  0.3681E+00
     -0.418  0.5082E+00  0.3898E+00
     -0.375  0.5252E+00  0.4123E+00
     -0.332  0.5394E+00  0.4354E+00
     -0.289  0.5523E+00  0.4591E+00
     -0.246  0.5633E+00  0.4832E+00
     -0.203  0.5710E+00  0.5077E+00
     -0.161  0.5748E+00  0.5323E+00
     -0.118  0.5757E+00  0.5570E+00
     -0.075  0.5763E+00  0.5817E+00
     -0.032  0.5796E+00  0.6065E+00
      0.011  0.5878E+00  0.6317E+00
      0.054  0.6025E+00  0.6575E+00
      0.096  0.6246E+00  0.6843E+00
      0.139  0.6537E+00  0.7123E+00
      0.182  0.6875E+00  0.7417E+00
      0.225  0.7225E+00  0.7727E+00
      0.268  0.7552E+00  0.8050E+00
      0.311  0.7835E+00  0.8386E+00
      0.353  0.8068E+00  0.8732E+00
      0.396  0.8257E+00  0.9085E+00
      0.439  0.8410E+00  0.9446E+00
      0.482  0.8523E+00  0.9811E+00
      0.525  0.8592E+00  0.1018E+01
      0.568  0.8610E+00  0.1055E+01
      0.611  0.8582E+00  0.1092E+01
      0.653  0.8515E+00  0.1128E+01
      0.696  0.8410E+00  0.1164E+01
      0.739  0.8266E+00  0.1199E+01
      0.782  0.8090E+00  0.1234E+01
      0.825  0.7907E+00  0.1268E+01
      0.868  0.7753E+00  0.1301E+01
      0.910  0.7651E+00  0.1334E+01
      0.953  0.7603E+00  0.1367E+01
      0.996  0.7582E+00  0.1399E+01
      1.039  0.7550E+00  0.1431E+01
      1.082  0.7481E+00  0.1463E+01
      1.125  0.7374E+00  0.1495E+01
      1.167  0.7266E+00  0.1526E+01
      1.210  0.7205E+00  0.1557E+01
      1.253  0.7218E+00  0.1588E+01
      1.296  0.7282E+00  0.1619E+01
      1.339  0.7334E+00  0.1651E+01
      1.382  0.7309E+00  0.1682E+01
      1.425  0.7186E+00  0.1713E+01
      1.467  0.7005E+00  0.1743E+01
      1.510  0.6836E+00  0.1772E+01
      1.553  0.6744E+00  0.1801E+01
      1.596  0.6761E+00  0.1830E+01
      1.639  0.6882E+00  0.1859E+01
      1.682  0.7079E+00  0.1890E+01
      1.724  0.7317E+00  0.1921E+01
      1.767  0.7567E+00  0.1953E+01
      1.810  0.7806E+00  0.1987E+01
      1.853  0.8019E+00  0.2021E+01
      1.896  0.8198E+00  0.2056E+01
      1.939  0.8350E+00  0.2092E+01
      1.981  0.8491E+00  0.2128E+01
      2.024  0.8636E+00  0.2165E+01
      2.067  0.8794E+00  0.2203E+01
      2.110  0.8961E+00  0.2242E+01
      2.153  0.9131E+00  0.2281E+01
      2.196  0.9300E+00  0.2321E+01
      2.239  0.9475E+00  0.2361E+01
      2.281  0.9674E+00  0.2403E+01
      2.324  0.9926E+00  0.2445E+01
      2.367  0.1025E+01  0.2489E+01
      2.410  0.1064E+01  0.2535E+01
      2.453  0.1109E+01  0.2582E+01
      2.496  0.1154E+01  0.2632E+01
      2.538  0.1197E+01  0.2683E+01
      2.581  0.1233E+01  0.2736E+01
      2.624  0.1260E+01  0.2790E+01
      2.667  0.1277E+01  0.2844E+01
      2.710  0.1287E+01  0.2899E+01
      2.753  0.1294E+01  0.2955E+01
      2.795  0.1303E+01  0.3011E+01
      2.838  0.1322E+01  0.3067E+01
      2.881  0.1352E+01  0.3125E+01
      2.924  0.1386E+01  0.3185E+01
      2.967  0.1413E+01  0.3245E+01
      3.010  0.1414E+01  0.3306E+01
      3.053  0.1379E+01  0.3365E+01
      3.095  0.1307E+01  0.3421E+01
      3.138  0.1213E+01  0.3473E+01
      3.181  0.1116E+01  0.3521E+01
      3.224  0.1032E+01  0.3565E+01
      3.267  0.9689E+00  0.3606E+01
      3.310  0.9277E+00  0.3646E+01
      3.352  0.9051E+00  0.3685E+01
      3.395  0.8959E+00  0.3723E+01
      3.438  0.8935E+00  0.3762E+01
      3.481  0.8907E+00  0.3800E+01
      3.524  0.8819E+00  0.3838E+01
      3.567  0.8655E+00  0.3875E+01
      3.609  0.8461E+00  0.3911E+01
      3.652  0.8322E+00  0.3946E+01
      3.695  0.8311E+00  0.3982E+01
      3.738  0.8451E+00  0.4018E+01
      3.781  0.8702E+00  0.4056E+01
      3.824  0.8997E+00  0.4094E+01
      3.867  0.9281E+00  0.4134E+01
      3.909  0.9530E+00  0.4175E+01
      3.952  0.9745E+00  0.4216E+01
      3.995  0.9934E+00  0.4259E+01
      4.038  0.1010E+01  0.4302E+01
      4.081  0.1023E+01  0.4346E+01
      4.124  0.1029E+01  0.4390E+01
      4.166  0.1029E+01  0.4434E+01
      4.209  0.1021E+01  0.4478E+01
      4.252  0.1007E+01  0.4521E+01
      4.295  0.9933E+00  0.4564E+01
      4.338  0.9824E+00  0.4606E+01
      4.381  0.9774E+00  0.4648E+01
      4.423  0.9784E+00  0.4690E+01
      4.466  0.9831E+00  0.4732E+01
      4.509  0.9878E+00  0.4774E+01
      4.552  0.9890E+00  0.4816E+01
      4.595  0.9854E+00  0.4859E+01
      4.638  0.9793E+00  0.4901E+01
      4.680  0.9749E+00  0.4942E+01
      4.723  0.9772E+00  0.4984E+01
      4.766  0.9887E+00  0.5027E+01
      4.809  0.1009E+01  0.5070E+01
      4.852  0.1034E+01  0.5114E+01
      4.895  0.1062E+01  0.5160E+01
      4.938  0.1086E+01  0.5206E+01
      4.980  0.1103E+01  0.5253E+01
      5.023  0.1103E+01  0.5301E+01
      5.066  0.1074E+01  0.5347E+01
      5.109  0.1005E+01  0.5390E+01
      5.152  0.8897E+00  0.5428E+01
      5.195  0.7341E+00  0.5459E+01
      5.237  0.5568E+00  0.5483E+01
      5.280  0.3837E+00  0.5500E+01
      5.323  0.2378E+00  0.5510E+01
      5.366  0.1315E+00  0.5515E+01
      5.409  0.6441E-01  0.5518E+01
      5.452  0.2781E-01  0.5519E+01
      5.494  0.1054E-01  0.5520E+01
      5.537  0.3494E-02  0.5520E+01
      5.580  0.1010E-02  0.5520E+01
      5.623  0.2541E-03  0.5520E+01
      5.666  0.5551E-04  0.5520E+01
      5.709  0.1051E-04  0.5520E+01
      5.752  0.1722E-05  0.5520E+01
      5.794  0.2440E-06  0.5520E+01
      5.837  0.2982E-07  0.5520E+01
      5.880  0.3143E-08  0.5520E+01
      5.923  0.2853E-09  0.5520E+01
      5.966  0.2227E-10  0.5520E+01
      6.009  0.1495E-11  0.5520E+01
      6.051  0.8613E-13  0.5520E+01
      6.094  0.4247E-14  0.5520E+01
      6.137  0.1730E-15  0.5520E+01
      6.180  0.3239E-17  0.5520E+01
      6.223  0.0000E+00  0.5520E+01
      6.266  0.0000E+00  0.5520E+01
      6.308  0.0000E+00  0.5520E+01
      6.351  0.0000E+00  0.5520E+01
      6.394  0.0000E+00  0.5520E+01
      6.437  0.0000E+00  0.5520E+01
      6.480  0.0000E+00  0.5520E+01
      6.523  0.0000E+00  0.5520E+01
      6.566  0.0000E+00  0.5520E+01
      6.608  0.0000E+00  0.5520E+01
      6.651  0.0000E+00  0.5520E+01
      6.694  0.0000E+00  0.5520E+01
      6.737  0.0000E+00  0.5520E+01
      6.780  0.0000E+00  0.5520E+01
