<?xml version="1.0" encoding="ISO-8859-1"?>
<modeling>
 <generator>
  <i name="program" type="string">vasp </i>
  <i name="version" type="string">5.4.4.18Apr17-6-g9f103f2a35  </i>
  <i name="subversion" type="string">(build May 29 2019 08:40:53) complex            parallel </i>
  <i name="platform" type="string">LinuxPGI </i>
  <i name="date" type="string">2021 11 22 </i>
  <i name="time" type="string">02:55:20 </i>
 </generator>
 <incar>
  <i type="int" name="ISTART">     2</i>
  <i type="string" name="PREC">accurate</i>
  <i type="string" name="ALGO"> Fast</i>
  <i type="int" name="ICHARG">     2</i>
  <i type="int" name="INIWAV">     1</i>
  <i type="int" name="NELM">   100</i>
  <i type="int" name="NELMIN">     4</i>
  <i type="int" name="IBRION">     2</i>
  <i name="EDIFF">      0.00001000</i>
  <i type="int" name="NSW">   500</i>
  <i type="int" name="ISIF">     2</i>
  <i type="int" name="ISYM">     2</i>
  <i name="ENCUT">    500.00000000</i>
  <i name="POTIM">      0.25000000</i>
  <i type="string" name="LREAL"> Auto</i>
  <i type="int" name="ISMEAR">     0</i>
  <i name="SIGMA">      0.15000000</i>
  <i type="logical" name="LWAVE"> F  </i>
  <i type="logical" name="LCHARG"> F  </i>
  <v type="int" name="KPOINT_BSE">    -1     0     0     0</v>
  <i type="int" name="NELM">   100</i>
 </incar>
 <structure name="primitive_cell" >
  <crystal>
   <varray name="basis" >
    <v>       9.72667800       0.00000000       0.00000000 </v>
    <v>       0.00000000       8.42355000       0.00000000 </v>
    <v>       0.00000000       0.00000000      45.00000000 </v>
   </varray>
   <i name="volume">   3686.99213101 </i>
   <varray name="rec_basis" >
    <v>       0.10281002       0.00000000       0.00000000 </v>
    <v>       0.00000000       0.11871479       0.00000000 </v>
    <v>       0.00000000       0.00000000       0.02222222 </v>
   </varray>
  </crystal>
  <varray name="positions" >
   <v>      -0.06233404      -0.38047330       0.16901673 </v>
   <v>      -0.06247651      -0.21421700       0.12670824 </v>
   <v>       0.06238353      -0.46402119       0.12673554 </v>
   <v>      -0.18742017      -0.46433130       0.12674400 </v>
   <v>       0.06260533      -0.13120342       0.16879163 </v>
   <v>       0.18712151      -0.38096265       0.16888369 </v>
   <v>      -0.18742005      -0.13100909       0.16889732 </v>
   <v>      -0.18739414       0.36983639       0.16888662 </v>
   <v>       0.06226865       0.36947091       0.16897305 </v>
   <v>      -0.31224407      -0.38060421       0.16894109 </v>
   <v>       0.06242730      -0.29741143       0.21361724 </v>
   <v>      -0.06250086       0.45275072       0.21364759 </v>
   <v>      -0.18748274      -0.29711804       0.21369067 </v>
   <v>       0.18726902      -0.21459270       0.12679718 </v>
   <v>      -0.31246158      -0.21479717       0.12677300 </v>
   <v>      -0.06248592       0.28597863       0.12676220 </v>
   <v>      -0.06242484      -0.04726551       0.21364353 </v>
   <v>       0.18750582       0.45266726       0.21368037 </v>
   <v>      -0.31253674       0.45266376       0.21369739 </v>
   <v>       0.31211783      -0.46379642       0.12679788 </v>
   <v>      -0.43710661      -0.46369879       0.12679748 </v>
   <v>       0.06182958       0.03616268       0.12677032 </v>
   <v>      -0.18686566       0.03607343       0.12678347 </v>
   <v>       0.18760216       0.28591592       0.12675522 </v>
   <v>      -0.31259072       0.28595697       0.12673264 </v>
   <v>      -0.06252571       0.11902491       0.16890681 </v>
   <v>       0.31297926      -0.13071718       0.16891380 </v>
   <v>       0.31240445       0.36840109       0.16895427 </v>
   <v>      -0.43729891       0.36852590       0.16892518 </v>
   <v>      -0.43812936      -0.13085401       0.16879273 </v>
   <v>       0.31242636      -0.29733229       0.21357006 </v>
   <v>      -0.43737817      -0.29746999       0.21357484 </v>
   <v>       0.18779300      -0.04736812       0.21366318 </v>
   <v>       0.06252185       0.20266726       0.21365535 </v>
   <v>      -0.31271530      -0.04724303       0.21366684 </v>
   <v>      -0.18760895       0.20269196       0.21368677 </v>
   <v>      -0.06254839      -0.21383187       0.25781276 </v>
   <v>       0.06276238      -0.46370969       0.25781677 </v>
   <v>      -0.18750066      -0.46386557       0.25785851 </v>
   <v>       0.18748924       0.11939102       0.16888085 </v>
   <v>       0.43747798      -0.38122834       0.16891342 </v>
   <v>      -0.31246201       0.11952746       0.16888021 </v>
   <v>       0.18738430      -0.21383395       0.25779750 </v>
   <v>      -0.31244715      -0.21383084       0.25779454 </v>
   <v>      -0.06246659       0.28605784       0.25782813 </v>
   <v>       0.43768826      -0.21367657       0.12675018 </v>
   <v>       0.31292063       0.03626266       0.12656704 </v>
   <v>      -0.43789423       0.03623599       0.12656714 </v>
   <v>       0.31220309       0.20308572       0.21369275 </v>
   <v>       0.43754091       0.45264751       0.21363847 </v>
   <v>      -0.43712387       0.20277229       0.21372647 </v>
   <v>      -0.18742625       0.03612413       0.25773366 </v>
   <v>       0.18752376       0.28661222       0.25785340 </v>
   <v>       0.06278748       0.03616383       0.25781440 </v>
   <v>       0.31253550      -0.46366779       0.25785599 </v>
   <v>      -0.31252550       0.28612717       0.25780358 </v>
   <v>      -0.43776207      -0.46383349       0.25779216 </v>
   <v>       0.43745658       0.28553877       0.12660665 </v>
   <v>       0.43739593      -0.04785001       0.21370985 </v>
   <v>      -0.06241971      -0.38029979       0.30188658 </v>
   <v>       0.43751720       0.11899763       0.16824762 </v>
   <v>       0.43764969      -0.21393821       0.25781027 </v>
   <v>      -0.18750692       0.37003019       0.30179796 </v>
   <v>       0.31264483       0.03637446       0.25783380 </v>
   <v>       0.06225959      -0.13007476       0.30182504 </v>
   <v>      -0.43795994       0.03627504       0.25784648 </v>
   <v>       0.06227078       0.36987965       0.30191240 </v>
   <v>      -0.31256612      -0.38030628       0.30188422 </v>
   <v>       0.18754733      -0.38010266       0.30191571 </v>
   <v>      -0.18750188      -0.13010858       0.30194063 </v>
   <v>       0.43750655       0.28639030       0.25787381 </v>
   <v>      -0.06238319       0.12023757       0.30192702 </v>
   <v>      -0.43727306      -0.13008640       0.30183183 </v>
   <v>       0.31251405      -0.13015770       0.30190176 </v>
   <v>       0.31250519       0.36995560       0.30195337 </v>
   <v>      -0.43724761       0.36991551       0.30196678 </v>
   <v>       0.18740981       0.11998713       0.30194038 </v>
   <v>       0.43746829      -0.38005990       0.30191275 </v>
   <v>      -0.31255943       0.12013197       0.30197873 </v>
   <v>       0.06267315      -0.29619823       0.34628161 </v>
   <v>      -0.06241233       0.45397478       0.34637761 </v>
   <v>      -0.18754344      -0.29613116       0.34637117 </v>
   <v>       0.18753954       0.45378123       0.34628054 </v>
   <v>      -0.31264318       0.45393796       0.34629908 </v>
   <v>      -0.06247855      -0.04615861       0.34633551 </v>
   <v>       0.43755686       0.11994881       0.30188206 </v>
   <v>      -0.18745468       0.20382783       0.34633921 </v>
   <v>       0.06243394       0.20380187       0.34638808 </v>
   <v>       0.31251588      -0.29622044       0.34630267 </v>
   <v>      -0.43760264      -0.29620190       0.34629327 </v>
   <v>       0.18757598      -0.04632817       0.34633326 </v>
   <v>      -0.31254825      -0.04606368       0.34632892 </v>
   <v>       0.43759379       0.45370050       0.34632690 </v>
   <v>       0.31241921       0.20365255       0.34638280 </v>
   <v>      -0.43735740       0.20380665       0.34645313 </v>
   <v>       0.43748970      -0.04628495       0.34634365 </v>
   <v>      -0.18729630      -0.46243394       0.39017875 </v>
   <v>       0.06275669      -0.46257114       0.39021505 </v>
   <v>      -0.06255057      -0.21204187       0.39018542 </v>
   <v>      -0.06233804       0.28789173       0.39025248 </v>
   <v>       0.18743775      -0.21267053       0.39022438 </v>
   <v>      -0.31246394      -0.21236684       0.39022987 </v>
   <v>       0.18748457       0.28763477       0.39013094 </v>
   <v>      -0.31264629       0.28747354       0.39020704 </v>
   <v>      -0.43786188      -0.46241145       0.39019618 </v>
   <v>       0.31245511      -0.46278061       0.39027529 </v>
   <v>      -0.18745009       0.03782298       0.39014273 </v>
   <v>       0.06266679       0.03791002       0.39028786 </v>
   <v>       0.43763932      -0.21265091       0.39023171 </v>
   <v>       0.31253404       0.03736197       0.39023629 </v>
   <v>      -0.43762550       0.03758922       0.39032378 </v>
   <v>       0.43758544       0.28767756       0.39020101 </v>
   <v>      -0.06257973      -0.37806999       0.43469394 </v>
   <v>      -0.18789446       0.37113782       0.43473707 </v>
   <v>       0.18738036      -0.37846794       0.43471748 </v>
   <v>      -0.31223193      -0.37875938       0.43478923 </v>
   <v>      -0.18744354      -0.12853798       0.43487980 </v>
   <v>       0.06234523      -0.12830528       0.43488263 </v>
   <v>       0.06267412       0.37148420       0.43508533 </v>
   <v>      -0.06241658       0.12148288       0.43477316 </v>
   <v>       0.31257861       0.37142853       0.43477978 </v>
   <v>      -0.43751735       0.37136769       0.43484798 </v>
   <v>       0.31252597      -0.12857292       0.43478010 </v>
   <v>      -0.43744592      -0.12855104       0.43487710 </v>
   <v>       0.18774092       0.12167955       0.43476362 </v>
   <v>      -0.31276676       0.12160889       0.43489121 </v>
   <v>       0.43743167      -0.37855265       0.43484225 </v>
   <v>       0.06257639      -0.45743170      -0.12642405 </v>
   <v>      -0.06228627      -0.20879929      -0.12642886 </v>
   <v>      -0.18758842      -0.45792466      -0.12659032 </v>
   <v>       0.43749371       0.12163793       0.43489759 </v>
   <v>      -0.06376157       0.29233193      -0.12661574 </v>
   <v>       0.18682452      -0.20947256      -0.12641289 </v>
   <v>      -0.31254592      -0.20863620      -0.12670030 </v>
   <v>      -0.31240608       0.29217061      -0.12644026 </v>
   <v>       0.18876007       0.29163061      -0.12657171 </v>
   <v>       0.31254996      -0.45786206      -0.12654257 </v>
   <v>      -0.43746207      -0.45768036      -0.12658118 </v>
   <v>      -0.18844007       0.04341962      -0.12664434 </v>
   <v>       0.06293593       0.04193481      -0.12681949 </v>
   <v>      -0.18793588      -0.29484877       0.47856562 </v>
   <v>       0.06277213      -0.29483417       0.47857639 </v>
   <v>      -0.06257895       0.45535949       0.47865943 </v>
   <v>      -0.31285613       0.45550498       0.47857738 </v>
   <v>       0.18821206       0.45575207       0.47862674 </v>
   <v>      -0.06245111      -0.04458320       0.47860174 </v>
   <v>       0.43816375      -0.20889065      -0.12670691 </v>
   <v>      -0.43727073       0.04209748      -0.12656310 </v>
   <v>       0.31317279       0.04321223      -0.12660317 </v>
   <v>      -0.18716391       0.20512304       0.47861226 </v>
   <v>       0.31241210      -0.29459969       0.47856960 </v>
   <v>      -0.43731820      -0.29482524       0.47856710 </v>
   <v>       0.06253363       0.20453309       0.47870830 </v>
   <v>       0.18784600      -0.04463562       0.47859481 </v>
   <v>       0.43746497       0.29219827      -0.12647053 </v>
   <v>      -0.31278543      -0.04463393       0.47869316 </v>
   <v>       0.31222896       0.20533021       0.47865754 </v>
   <v>       0.43741141       0.45526164       0.47858943 </v>
   <v>      -0.43756619       0.20531982       0.47866715 </v>
   <v>       0.43742155      -0.04456770       0.47858319 </v>
   <v>       0.06279858      -0.29020552      -0.16797231 </v>
   <v>      -0.06254408       0.45960204      -0.16883190 </v>
   <v>      -0.18761159      -0.29147688      -0.16884551 </v>
   <v>      -0.31243518       0.45820680      -0.16883260 </v>
   <v>       0.18745614       0.46000377      -0.16889331 </v>
   <v>      -0.06136969      -0.04105204      -0.16865180 </v>
   <v>      -0.18753978       0.20836628      -0.16856851 </v>
   <v>       0.06260990       0.20832572      -0.16862607 </v>
   <v>      -0.43783383      -0.29124756      -0.16873918 </v>
   <v>       0.31302062      -0.29180085      -0.16876773 </v>
   <v>       0.18672567      -0.04052713      -0.16864332 </v>
   <v>      -0.31255014      -0.04108177      -0.16885830 </v>
   <v>      -0.06254045      -0.37682796      -0.47873947 </v>
   <v>       0.31226622       0.20838481      -0.16857012 </v>
   <v>      -0.43733538       0.20825329      -0.16883350 </v>
   <v>       0.43763191       0.45842343      -0.16878792 </v>
   <v>       0.06261984       0.37236841      -0.47877030 </v>
   <v>      -0.18811939       0.37198212      -0.47871261 </v>
   <v>       0.18723012      -0.37725010      -0.47870061 </v>
   <v>      -0.31221969      -0.37751525      -0.47868837 </v>
   <v>       0.06249823      -0.12757993      -0.47872424 </v>
   <v>      -0.18770065      -0.12764383      -0.47866683 </v>
   <v>       0.43776146      -0.04099405      -0.16878041 </v>
   <v>      -0.06293001       0.12249491      -0.47860093 </v>
   <v>      -0.43756341       0.37254260      -0.47864539 </v>
   <v>       0.31277439       0.37216697      -0.47861925 </v>
   <v>       0.31277178      -0.12758747      -0.47868804 </v>
   <v>      -0.43765159      -0.12756695      -0.47866924 </v>
   <v>      -0.31239022       0.12254911      -0.47863278 </v>
   <v>       0.18782945       0.12236915      -0.47862940 </v>
   <v>       0.43738712      -0.37751348      -0.47873718 </v>
   <v>       0.43744543       0.12228732      -0.47862614 </v>
   <v>      -0.06277309      -0.37489113      -0.21369426 </v>
   <v>      -0.18721987       0.37555176      -0.21363314 </v>
   <v>       0.06226037       0.37620696      -0.21372424 </v>
   <v>      -0.31215536      -0.37483305      -0.21358883 </v>
   <v>       0.18777245      -0.37496483      -0.21364996 </v>
   <v>       0.06260129      -0.12418550      -0.21363132 </v>
   <v>      -0.18757437      -0.12536529      -0.21379944 </v>
   <v>      -0.06269418       0.12539960      -0.21354861 </v>
   <v>      -0.43740203       0.37534158      -0.21355792 </v>
   <v>       0.31254941       0.37543909      -0.21364740 </v>
   <v>      -0.43740224      -0.12507351      -0.21365089 </v>
   <v>       0.31248247      -0.12541321      -0.21381965 </v>
   <v>      -0.06243836       0.45632353      -0.43518020 </v>
   <v>       0.06237755      -0.29407875      -0.43489478 </v>
   <v>      -0.18746253      -0.29364656      -0.43480409 </v>
   <v>       0.18737297       0.12489444      -0.21377756 </v>
   <v>      -0.31248958       0.12510419      -0.21395171 </v>
   <v>       0.43724073      -0.37509976      -0.21384494 </v>
   <v>      -0.31278727       0.45625352      -0.43491351 </v>
   <v>      -0.06214657      -0.04362082      -0.43504224 </v>
   <v>       0.18808660       0.45606342      -0.43485906 </v>
   <v>       0.31265431      -0.29420890      -0.43499109 </v>
   <v>      -0.18736774       0.20655493      -0.43478564 </v>
   <v>       0.06244534       0.20607362      -0.43479729 </v>
   <v>      -0.43780156      -0.29375209      -0.43491367 </v>
   <v>       0.18737593      -0.04392866      -0.43489646 </v>
   <v>      -0.31261509      -0.04368846      -0.43486019 </v>
   <v>       0.43768323       0.12537539      -0.21360511 </v>
   <v>       0.31227791       0.20642722      -0.43492106 </v>
   <v>      -0.43748453       0.20625472      -0.43490348 </v>
   <v>       0.43713017       0.45629640      -0.43491167 </v>
   <v>       0.43720810      -0.04383887      -0.43489460 </v>
   <v>      -0.18724892      -0.45827011      -0.25763483 </v>
   <v>       0.06251111      -0.45848009      -0.25780271 </v>
   <v>      -0.06219714      -0.20864187      -0.25787290 </v>
   <v>      -0.06261691       0.29121598      -0.25771855 </v>
   <v>      -0.31255195      -0.20816764      -0.25766445 </v>
   <v>       0.18752229      -0.20797462      -0.25771997 </v>
   <v>       0.18739098       0.29095465      -0.25778841 </v>
   <v>      -0.31246277       0.29159296      -0.25780595 </v>
   <v>       0.31255642      -0.45827903      -0.25778574 </v>
   <v>      -0.43783942      -0.45801535      -0.25786500 </v>
   <v>       0.06283840       0.04153190      -0.25776469 </v>
   <v>      -0.18770043       0.04171342      -0.25778697 </v>
   <v>       0.43733161      -0.20806831      -0.25775776 </v>
   <v>      -0.43767161       0.04231480      -0.25772594 </v>
   <v>       0.31252735       0.04197838      -0.25777660 </v>
   <v>       0.06232517      -0.45968984      -0.39029759 </v>
   <v>      -0.06288055      -0.21014115      -0.39031245 </v>
   <v>      -0.18767620      -0.45978019      -0.39020720 </v>
   <v>       0.43758311       0.29163783      -0.25778649 </v>
   <v>      -0.06230858       0.29047141      -0.39029405 </v>
   <v>       0.18730781      -0.20987951      -0.39036944 </v>
   <v>      -0.31239976      -0.20990713      -0.39037042 </v>
   <v>       0.18732484       0.29065510      -0.39033977 </v>
   <v>      -0.31261615       0.28991637      -0.39029295 </v>
   <v>      -0.43764356      -0.45995412      -0.39029403 </v>
   <v>       0.31266995      -0.45951119      -0.39021991 </v>
   <v>       0.06250324       0.04033278      -0.39023185 </v>
   <v>      -0.18745726       0.04042578      -0.39020161 </v>
   <v>       0.43773059      -0.20993971      -0.39030939 </v>
   <v>       0.31240161       0.04027200      -0.39027945 </v>
   <v>      -0.43764035       0.04020894      -0.39025477 </v>
   <v>       0.43741302       0.29015694      -0.39025395 </v>
   <v>      -0.06268926       0.45775748      -0.30197199 </v>
   <v>       0.06224647      -0.29232351      -0.30194363 </v>
   <v>      -0.18755841      -0.29212202      -0.30198358 </v>
   <v>       0.18721975       0.45802142      -0.30210151 </v>
   <v>      -0.31226289       0.45836354      -0.30215308 </v>
   <v>      -0.06267858      -0.04247612      -0.30211839 </v>
   <v>      -0.18741323       0.20818775      -0.30190042 </v>
   <v>       0.06241531       0.20760637      -0.30198303 </v>
   <v>      -0.43750555      -0.29223412      -0.30195144 </v>
   <v>       0.31253498      -0.29189658      -0.30197083 </v>
   <v>      -0.31269939      -0.04205988      -0.30195926 </v>
   <v>       0.18759267      -0.04192485      -0.30201211 </v>
   <v>      -0.43769497       0.20839957      -0.30193392 </v>
   <v>       0.31256776       0.20790451      -0.30198867 </v>
   <v>       0.43771539       0.45805940      -0.30197623 </v>
   <v>      -0.06259388      -0.37595620      -0.34645146 </v>
   <v>       0.06260632       0.37423041      -0.34641417 </v>
   <v>       0.43780534      -0.04206509      -0.30216097 </v>
   <v>      -0.18752288       0.37397161      -0.34633817 </v>
   <v>      -0.31271461      -0.37642993      -0.34634486 </v>
   <v>       0.06252095      -0.12570375      -0.34641506 </v>
   <v>       0.18767179      -0.37573995      -0.34631724 </v>
   <v>      -0.18766474      -0.12587542      -0.34637907 </v>
   <v>      -0.43775056       0.37335381      -0.34649514 </v>
   <v>       0.31255843       0.37393027      -0.34639736 </v>
   <v>      -0.06224801       0.12426580      -0.34630948 </v>
   <v>       0.31256326      -0.12573490      -0.34637456 </v>
   <v>      -0.43745872      -0.12584770      -0.34635035 </v>
   <v>       0.18775305       0.12396427      -0.34630760 </v>
   <v>      -0.31283526       0.12391995      -0.34629332 </v>
   <v>       0.43753679      -0.37602972      -0.34638700 </v>
   <v>       0.43718785       0.12403511      -0.34630237 </v>
  </varray>
 </structure>
 <varray name="primitive_index" >
  <v type="int" >        1 </v>
  <v type="int" >      164 </v>
  <v type="int" >      160 </v>
  <v type="int" >      240 </v>
  <v type="int" >      268 </v>
  <v type="int" >      148 </v>
  <v type="int" >      172 </v>
  <v type="int" >      162 </v>
  <v type="int" >      100 </v>
  <v type="int" >      257 </v>
  <v type="int" >      243 </v>
  <v type="int" >      238 </v>
  <v type="int" >      177 </v>
  <v type="int" >      188 </v>
  <v type="int" >       19 </v>
  <v type="int" >      101 </v>
  <v type="int" >      125 </v>
  <v type="int" >      194 </v>
  <v type="int" >      202 </v>
  <v type="int" >      206 </v>
  <v type="int" >       69 </v>
  <v type="int" >      233 </v>
  <v type="int" >      171 </v>
  <v type="int" >       93 </v>
  <v type="int" >       53 </v>
  <v type="int" >       58 </v>
  <v type="int" >      114 </v>
  <v type="int" >       42 </v>
  <v type="int" >      186 </v>
  <v type="int" >      214 </v>
  <v type="int" >       18 </v>
  <v type="int" >      142 </v>
  <v type="int" >      262 </v>
  <v type="int" >      105 </v>
  <v type="int" >      146 </v>
  <v type="int" >        8 </v>
  <v type="int" >      273 </v>
  <v type="int" >      168 </v>
  <v type="int" >      129 </v>
  <v type="int" >       61 </v>
  <v type="int" >      209 </v>
  <v type="int" >      103 </v>
  <v type="int" >      242 </v>
  <v type="int" >        2 </v>
  <v type="int" >      223 </v>
  <v type="int" >      190 </v>
  <v type="int" >       46 </v>
  <v type="int" >      231 </v>
  <v type="int" >       44 </v>
  <v type="int" >       71 </v>
  <v type="int" >      118 </v>
  <v type="int" >      274 </v>
  <v type="int" >       50 </v>
  <v type="int" >      226 </v>
  <v type="int" >      250 </v>
  <v type="int" >      183 </v>
  <v type="int" >       10 </v>
  <v type="int" >      203 </v>
  <v type="int" >      196 </v>
  <v type="int" >      254 </v>
  <v type="int" >      286 </v>
  <v type="int" >      135 </v>
  <v type="int" >      265 </v>
  <v type="int" >       54 </v>
  <v type="int" >      197 </v>
  <v type="int" >      267 </v>
  <v type="int" >      219 </v>
  <v type="int" >       17 </v>
  <v type="int" >      124 </v>
  <v type="int" >      113 </v>
  <v type="int" >       94 </v>
  <v type="int" >      236 </v>
  <v type="int" >       97 </v>
  <v type="int" >      277 </v>
  <v type="int" >      193 </v>
  <v type="int" >       88 </v>
  <v type="int" >       67 </v>
  <v type="int" >      221 </v>
  <v type="int" >       90 </v>
  <v type="int" >      178 </v>
  <v type="int" >        6 </v>
  <v type="int" >       47 </v>
  <v type="int" >      213 </v>
  <v type="int" >      211 </v>
  <v type="int" >      122 </v>
  <v type="int" >       73 </v>
  <v type="int" >       63 </v>
  <v type="int" >       41 </v>
  <v type="int" >      159 </v>
  <v type="int" >       98 </v>
  <v type="int" >      237 </v>
  <v type="int" >       29 </v>
  <v type="int" >      144 </v>
  <v type="int" >       60 </v>
  <v type="int" >       86 </v>
  <v type="int" >        7 </v>
  <v type="int" >      157 </v>
  <v type="int" >      189 </v>
  <v type="int" >       64 </v>
  <v type="int" >      181 </v>
  <v type="int" >      249 </v>
  <v type="int" >       55 </v>
  <v type="int" >      176 </v>
  <v type="int" >      272 </v>
  <v type="int" >      227 </v>
  <v type="int" >       89 </v>
  <v type="int" >      281 </v>
  <v type="int" >      224 </v>
  <v type="int" >      150 </v>
  <v type="int" >      216 </v>
  <v type="int" >      138 </v>
  <v type="int" >      258 </v>
  <v type="int" >       25 </v>
  <v type="int" >       11 </v>
  <v type="int" >      246 </v>
  <v type="int" >       40 </v>
  <v type="int" >      245 </v>
  <v type="int" >      139 </v>
  <v type="int" >       45 </v>
  <v type="int" >      156 </v>
  <v type="int" >      128 </v>
  <v type="int" >      210 </v>
  <v type="int" >      208 </v>
  <v type="int" >      217 </v>
  <v type="int" >      121 </v>
  <v type="int" >      269 </v>
  <v type="int" >      198 </v>
  <v type="int" >       20 </v>
  <v type="int" >       95 </v>
  <v type="int" >      170 </v>
  <v type="int" >      167 </v>
  <v type="int" >      256 </v>
  <v type="int" >      253 </v>
  <v type="int" >      116 </v>
  <v type="int" >       68 </v>
  <v type="int" >      218 </v>
  <v type="int" >      136 </v>
  <v type="int" >      161 </v>
  <v type="int" >      141 </v>
  <v type="int" >      280 </v>
  <v type="int" >       38 </v>
  <v type="int" >       30 </v>
  <v type="int" >      275 </v>
  <v type="int" >       14 </v>
  <v type="int" >       37 </v>
  <v type="int" >      185 </v>
  <v type="int" >      115 </v>
  <v type="int" >      248 </v>
  <v type="int" >       92 </v>
  <v type="int" >      149 </v>
  <v type="int" >      200 </v>
  <v type="int" >       12 </v>
  <v type="int" >      204 </v>
  <v type="int" >      108 </v>
  <v type="int" >       13 </v>
  <v type="int" >       16 </v>
  <v type="int" >      137 </v>
  <v type="int" >      230 </v>
  <v type="int" >       65 </v>
  <v type="int" >       82 </v>
  <v type="int" >      279 </v>
  <v type="int" >      207 </v>
  <v type="int" >      106 </v>
  <v type="int" >      174 </v>
  <v type="int" >      234 </v>
  <v type="int" >      111 </v>
  <v type="int" >       74 </v>
  <v type="int" >       34 </v>
  <v type="int" >      239 </v>
  <v type="int" >      195 </v>
  <v type="int" >      154 </v>
  <v type="int" >      127 </v>
  <v type="int" >       76 </v>
  <v type="int" >      184 </v>
  <v type="int" >       32 </v>
  <v type="int" >      266 </v>
  <v type="int" >      288 </v>
  <v type="int" >      179 </v>
  <v type="int" >        3 </v>
  <v type="int" >        9 </v>
  <v type="int" >      215 </v>
  <v type="int" >       35 </v>
  <v type="int" >      166 </v>
  <v type="int" >      220 </v>
  <v type="int" >      259 </v>
  <v type="int" >      264 </v>
  <v type="int" >      251 </v>
  <v type="int" >       83 </v>
  <v type="int" >      158 </v>
  <v type="int" >      165 </v>
  <v type="int" >      131 </v>
  <v type="int" >       36 </v>
  <v type="int" >      175 </v>
  <v type="int" >      151 </v>
  <v type="int" >       80 </v>
  <v type="int" >       70 </v>
  <v type="int" >      247 </v>
  <v type="int" >      120 </v>
  <v type="int" >      153 </v>
  <v type="int" >       85 </v>
  <v type="int" >       52 </v>
  <v type="int" >       49 </v>
  <v type="int" >       87 </v>
  <v type="int" >       81 </v>
  <v type="int" >      173 </v>
  <v type="int" >      241 </v>
  <v type="int" >      271 </v>
  <v type="int" >      284 </v>
  <v type="int" >      276 </v>
  <v type="int" >      287 </v>
  <v type="int" >      112 </v>
  <v type="int" >      107 </v>
  <v type="int" >      126 </v>
  <v type="int" >       21 </v>
  <v type="int" >      123 </v>
  <v type="int" >       27 </v>
  <v type="int" >        4 </v>
  <v type="int" >       57 </v>
  <v type="int" >      278 </v>
  <v type="int" >      182 </v>
  <v type="int" >      191 </v>
  <v type="int" >       84 </v>
  <v type="int" >       22 </v>
  <v type="int" >      260 </v>
  <v type="int" >      285 </v>
  <v type="int" >      205 </v>
  <v type="int" >      152 </v>
  <v type="int" >      134 </v>
  <v type="int" >      104 </v>
  <v type="int" >      235 </v>
  <v type="int" >       15 </v>
  <v type="int" >      187 </v>
  <v type="int" >      140 </v>
  <v type="int" >       31 </v>
  <v type="int" >       51 </v>
  <v type="int" >       96 </v>
  <v type="int" >      229 </v>
  <v type="int" >       62 </v>
  <v type="int" >      133 </v>
  <v type="int" >      109 </v>
  <v type="int" >       59 </v>
  <v type="int" >      252 </v>
  <v type="int" >       72 </v>
  <v type="int" >       91 </v>
  <v type="int" >       43 </v>
  <v type="int" >       66 </v>
  <v type="int" >      228 </v>
  <v type="int" >      261 </v>
  <v type="int" >      110 </v>
  <v type="int" >      155 </v>
  <v type="int" >      244 </v>
  <v type="int" >       28 </v>
  <v type="int" >      201 </v>
  <v type="int" >      225 </v>
  <v type="int" >       48 </v>
  <v type="int" >        5 </v>
  <v type="int" >      145 </v>
  <v type="int" >       23 </v>
  <v type="int" >      222 </v>
  <v type="int" >      270 </v>
  <v type="int" >      169 </v>
  <v type="int" >       78 </v>
  <v type="int" >       33 </v>
  <v type="int" >      180 </v>
  <v type="int" >       79 </v>
  <v type="int" >      117 </v>
  <v type="int" >      163 </v>
  <v type="int" >      283 </v>
  <v type="int" >       24 </v>
  <v type="int" >      147 </v>
  <v type="int" >       77 </v>
  <v type="int" >      282 </v>
  <v type="int" >       56 </v>
  <v type="int" >      119 </v>
  <v type="int" >      263 </v>
  <v type="int" >      255 </v>
  <v type="int" >      132 </v>
  <v type="int" >       75 </v>
  <v type="int" >      199 </v>
  <v type="int" >      102 </v>
  <v type="int" >      232 </v>
  <v type="int" >      143 </v>
  <v type="int" >       99 </v>
  <v type="int" >      130 </v>
  <v type="int" >       26 </v>
  <v type="int" >      192 </v>
  <v type="int" >       39 </v>
  <v type="int" >      212 </v>
 </varray>
 <kpoints>
  <generation param="Gamma">
   <v type="int" name="divisions">       4        4        1 </v>
   <v name="usershift">      0.00000000       0.00000000       0.00000000 </v>
   <v name="genvec1">      0.25000000       0.00000000       0.00000000 </v>
   <v name="genvec2">      0.00000000       0.25000000       0.00000000 </v>
   <v name="genvec3">      0.00000000       0.00000000       1.00000000 </v>
   <v name="shift">      0.00000000       0.00000000       0.00000000 </v>
  </generation>
  <varray name="kpointlist" >
   <v>       0.00000000       0.00000000       0.00000000 </v>
   <v>       0.25000000       0.00000000       0.00000000 </v>
   <v>       0.50000000       0.00000000       0.00000000 </v>
   <v>       0.00000000       0.25000000       0.00000000 </v>
   <v>       0.25000000       0.25000000       0.00000000 </v>
   <v>       0.50000000       0.25000000       0.00000000 </v>
   <v>      -0.25000000       0.25000000       0.00000000 </v>
   <v>       0.00000000       0.50000000       0.00000000 </v>
   <v>       0.25000000       0.50000000       0.00000000 </v>
   <v>       0.50000000       0.50000000       0.00000000 </v>
  </varray>
  <varray name="weights" >
   <v>       0.06250000 </v>
   <v>       0.12500000 </v>
   <v>       0.06250000 </v>
   <v>       0.12500000 </v>
   <v>       0.12500000 </v>
   <v>       0.12500000 </v>
   <v>       0.12500000 </v>
   <v>       0.06250000 </v>
   <v>       0.12500000 </v>
   <v>       0.06250000 </v>
  </varray>
 </kpoints>
 <parameters>
  <separator name="general" >
   <i type="string" name="SYSTEM">unknown system</i>
   <i type="logical" name="LCOMPAT"> F  </i>
  </separator>
  <separator name="electronic" >
   <i type="string" name="PREC">accura</i>
   <i name="ENMAX">    500.00000000</i>
   <i name="ENAUG">    838.43500000</i>
   <i name="EDIFF">      0.00001000</i>
   <i type="int" name="IALGO">    68</i>
   <i type="int" name="IWAVPR">    11</i>
   <i type="int" name="NBANDS">  1380</i>
   <i name="NELECT">   2289.00000000</i>
   <i type="int" name="TURBO">     0</i>
   <i type="int" name="IRESTART">     0</i>
   <i type="int" name="NREBOOT">     0</i>
   <i type="int" name="NMIN">     0</i>
   <i name="EREF">      0.00000000</i>
   <separator name="electronic smearing" >
    <i type="int" name="ISMEAR">     0</i>
    <i name="SIGMA">      0.15000000</i>
    <i name="KSPACING">      0.50000000</i>
    <i type="logical" name="KGAMMA"> T  </i>
   </separator>
   <separator name="electronic projectors" >
    <i type="logical" name="LREAL"> T  </i>
    <v name="ROPT">     -0.00025000     -0.00025000</v>
    <i type="int" name="LMAXPAW">  -100</i>
    <i type="int" name="LMAXMIX">     2</i>
    <i type="logical" name="NLSPLINE"> F  </i>
   </separator>
   <separator name="electronic startup" >
    <i type="int" name="ISTART">     0</i>
    <i type="int" name="ICHARG">     2</i>
    <i type="int" name="INIWAV">     1</i>
   </separator>
   <separator name="electronic spin" >
    <i type="int" name="ISPIN">     1</i>
    <i type="logical" name="LNONCOLLINEAR"> F  </i>
    <v name="MAGMOM">      1.00000000      1.00000000      1.00000000      1.00000000      1.00000000      1.00000000      1.00000000      1.00000000      1.00000000      1.00000000      1.00000000      1.00000000      1.00000000      1.00000000      1.00000000      1.00000000      1.00000000      1.00000000      1.00000000      1.00000000
      1.00000000      1.00000000      1.00000000      1.00000000      1.00000000      1.00000000      1.00000000      1.00000000      1.00000000      1.00000000      1.00000000      1.00000000      1.00000000      1.00000000      1.00000000      1.00000000      1.00000000      1.00000000      1.00000000      1.00000000
      1.00000000      1.00000000      1.00000000      1.00000000      1.00000000      1.00000000      1.00000000      1.00000000      1.00000000      1.00000000      1.00000000      1.00000000      1.00000000      1.00000000      1.00000000      1.00000000      1.00000000      1.00000000      1.00000000      1.00000000
      1.00000000      1.00000000      1.00000000      1.00000000      1.00000000      1.00000000      1.00000000      1.00000000      1.00000000      1.00000000      1.00000000      1.00000000      1.00000000      1.00000000      1.00000000      1.00000000      1.00000000      1.00000000      1.00000000      1.00000000
      1.00000000      1.00000000      1.00000000      1.00000000      1.00000000      1.00000000      1.00000000      1.00000000      1.00000000      1.00000000      1.00000000      1.00000000      1.00000000      1.00000000      1.00000000      1.00000000      1.00000000      1.00000000      1.00000000      1.00000000
      1.00000000      1.00000000      1.00000000      1.00000000      1.00000000      1.00000000      1.00000000      1.00000000      1.00000000      1.00000000      1.00000000      1.00000000      1.00000000      1.00000000      1.00000000      1.00000000      1.00000000      1.00000000      1.00000000      1.00000000
      1.00000000      1.00000000      1.00000000      1.00000000      1.00000000      1.00000000      1.00000000      1.00000000      1.00000000      1.00000000      1.00000000      1.00000000      1.00000000      1.00000000      1.00000000      1.00000000      1.00000000      1.00000000      1.00000000      1.00000000
      1.00000000      1.00000000      1.00000000      1.00000000      1.00000000      1.00000000      1.00000000      1.00000000      1.00000000      1.00000000      1.00000000      1.00000000      1.00000000      1.00000000      1.00000000      1.00000000      1.00000000      1.00000000      1.00000000      1.00000000
      1.00000000      1.00000000      1.00000000      1.00000000      1.00000000      1.00000000      1.00000000      1.00000000      1.00000000      1.00000000      1.00000000      1.00000000      1.00000000      1.00000000      1.00000000      1.00000000      1.00000000      1.00000000      1.00000000      1.00000000
      1.00000000      1.00000000      1.00000000      1.00000000      1.00000000      1.00000000      1.00000000      1.00000000      1.00000000      1.00000000      1.00000000      1.00000000      1.00000000      1.00000000      1.00000000      1.00000000      1.00000000      1.00000000      1.00000000      1.00000000
      1.00000000      1.00000000      1.00000000      1.00000000      1.00000000      1.00000000      1.00000000      1.00000000      1.00000000      1.00000000      1.00000000      1.00000000      1.00000000      1.00000000      1.00000000      1.00000000      1.00000000      1.00000000      1.00000000      1.00000000
      1.00000000      1.00000000      1.00000000      1.00000000      1.00000000      1.00000000      1.00000000      1.00000000      1.00000000      1.00000000      1.00000000      1.00000000      1.00000000      1.00000000      1.00000000      1.00000000      1.00000000      1.00000000      1.00000000      1.00000000
      1.00000000      1.00000000      1.00000000      1.00000000      1.00000000      1.00000000      1.00000000      1.00000000      1.00000000      1.00000000      1.00000000      1.00000000      1.00000000      1.00000000      1.00000000      1.00000000      1.00000000      1.00000000      1.00000000      1.00000000
      1.00000000      1.00000000      1.00000000      1.00000000      1.00000000      1.00000000      1.00000000      1.00000000      1.00000000      1.00000000      1.00000000      1.00000000      1.00000000      1.00000000      1.00000000      1.00000000      1.00000000      1.00000000      1.00000000      1.00000000
      1.00000000      1.00000000      1.00000000      1.00000000      1.00000000      1.00000000      1.00000000      1.00000000</v>
    <i name="NUPDOWN">     -1.00000000</i>
    <i type="logical" name="LSORBIT"> F  </i>
    <v name="SAXIS">      0.00000000      0.00000000      1.00000000</v>
    <i type="logical" name="LSPIRAL"> F  </i>
    <v name="QSPIRAL">      0.00000000      0.00000000      0.00000000</v>
    <i type="logical" name="LZEROZ"> F  </i>
   </separator>
   <separator name="electronic exchange-correlation" >
    <i type="logical" name="LASPH"> F  </i>
    <i type="logical" name="LMETAGGA"> F  </i>
   </separator>
   <separator name="electronic convergence" >
    <i type="int" name="NELM">   100</i>
    <i type="int" name="NELMDL">     0</i>
    <i type="int" name="NELMIN">     4</i>
    <i name="ENINI">    500.00000000</i>
    <separator name="electronic convergence detail" >
     <i type="logical" name="LDIAG"> T  </i>
     <i type="logical" name="LSUBROT"> F  </i>
     <i name="WEIMIN">      0.00100000</i>
     <i name="EBREAK">      0.00000000</i>
     <i name="DEPER">      0.30000000</i>
     <i type="int" name="NRMM">     4</i>
     <i name="TIME">      0.40000000</i>
    </separator>
   </separator>
   <separator name="electronic mixer" >
    <i name="AMIX">      0.40000000</i>
    <i name="BMIX">      1.00000000</i>
    <i name="AMIN">      0.10000000</i>
    <i name="AMIX_MAG">      1.60000000</i>
    <i name="BMIX_MAG">      1.00000000</i>
    <separator name="electronic mixer details" >
     <i type="int" name="IMIX">     4</i>
     <i type="logical" name="MIXFIRST"> F  </i>
     <i type="int" name="MAXMIX">   -45</i>
     <i name="WC">    100.00000000</i>
     <i type="int" name="INIMIX">     1</i>
     <i type="int" name="MIXPRE">     1</i>
     <i type="int" name="MREMOVE">     5</i>
    </separator>
   </separator>
   <separator name="electronic dipolcorrection" >
    <i type="logical" name="LDIPOL"> F  </i>
    <i type="logical" name="LMONO"> F  </i>
    <i type="int" name="IDIPOL">     0</i>
    <i name="EPSILON">      1.00000000</i>
    <v name="DIPOL">   -100.00000000   -100.00000000   -100.00000000</v>
    <i name="EFIELD">      0.00000000</i>
   </separator>
  </separator>
  <separator name="grids" >
   <i type="int" name="NGX">    72</i>
   <i type="int" name="NGY">    64</i>
   <i type="int" name="NGZ">   336</i>
   <i type="int" name="NGXF">   144</i>
   <i type="int" name="NGYF">   128</i>
   <i type="int" name="NGZF">   672</i>
   <i type="logical" name="ADDGRID"> F  </i>
  </separator>
  <separator name="ionic" >
   <i type="int" name="NSW">   500</i>
   <i type="int" name="IBRION">     2</i>
   <i type="int" name="MDALGO">     0</i>
   <i type="int" name="ISIF">     2</i>
   <i name="PSTRESS">      0.00000000</i>
   <i name="EDIFFG">      0.00010000</i>
   <i type="int" name="NFREE">     1</i>
   <i name="POTIM">      0.25000000</i>
   <i name="SMASS">     -3.00000000</i>
   <i name="SCALEE">      1.00000000</i>
  </separator>
  <separator name="ionic md" >
   <i name="TEBEG">      0.00010000</i>
   <i name="TEEND">      0.00010000</i>
   <i type="int" name="NBLOCK">     1</i>
   <i type="int" name="KBLOCK">   500</i>
   <i type="int" name="NPACO">   256</i>
   <i name="APACO">     16.00000000</i>
  </separator>
  <separator name="symmetry" >
   <i type="int" name="ISYM">     2</i>
   <i name="SYMPREC">      0.00001000</i>
  </separator>
  <separator name="dos" >
   <i type="int" name="LORBIT">     0</i>
   <v name="RWIGS">     -1.00000000     -1.00000000</v>
   <i type="int" name="NEDOS">   301</i>
   <i name="EMIN">     10.00000000</i>
   <i name="EMAX">    -10.00000000</i>
   <i name="EFERMI">      0.00000000</i>
  </separator>
  <separator name="writing" >
   <i type="int" name="NWRITE">     2</i>
   <i type="logical" name="LWAVE"> F  </i>
   <i type="logical" name="LDOWNSAMPLE"> F  </i>
   <i type="logical" name="LCHARG"> F  </i>
   <i type="logical" name="LPARD"> F  </i>
   <i type="logical" name="LVTOT"> F  </i>
   <i type="logical" name="LVHAR"> F  </i>
   <i type="logical" name="LELF"> F  </i>
   <i type="logical" name="LOPTICS"> F  </i>
   <v name="STM">      0.00000000      0.00000000      0.00000000      0.00000000      0.00000000      0.00000000      0.00000000</v>
  </separator>
  <separator name="performance" >
   <i type="int" name="NPAR">    10</i>
   <i type="int" name="NSIM">     4</i>
   <i type="int" name="NBLK">    -1</i>
   <i type="logical" name="LPLANE"> T  </i>
   <i type="logical" name="LSCALAPACK"> F  </i>
   <i type="logical" name="LSCAAWARE"> F  </i>
   <i type="logical" name="LSCALU"> F  </i>
   <i type="logical" name="LASYNC"> F  </i>
   <i type="logical" name="LORBITALREAL"> F  </i>
  </separator>
  <separator name="miscellaneous" >
   <i type="int" name="IDIOT">     3</i>
   <i type="int" name="ISPECIAL">     0</i>
   <i type="logical" name="LMUSIC"> F  </i>
   <v name="POMASS">     55.84700000     54.93800000</v>
   <v name="DARWINR">      0.00000000      0.00000000</v>
   <v name="DARWINV">      1.00000000      1.00000000</v>
   <i type="logical" name="LCORR"> T  </i>
  </separator>
  <i type="logical" name="GGA_COMPAT"> T  </i>
  <i type="logical" name="LBERRY"> F  </i>
  <i type="int" name="ICORELEVEL">     0</i>
  <i type="logical" name="LDAU"> F  </i>
  <i type="int" name="I_CONSTRAINED_M">     0</i>
  <separator name="electronic exchange-correlation" >
   <i type="string" name="GGA">--</i>
   <i type="int" name="VOSKOWN">     0</i>
   <i type="logical" name="LHFCALC"> F  </i>
   <i type="string" name="PRECFOCK"></i>
   <i type="logical" name="LSYMGRAD"> F  </i>
   <i type="logical" name="LHFONE"> F  </i>
   <i type="logical" name="LRHFCALC"> F  </i>
   <i type="logical" name="LTHOMAS"> F  </i>
   <i type="logical" name="LMODELHF"> F  </i>
   <i name="ENCUT4O">     -1.00000000</i>
   <i type="int" name="EXXOEP">     0</i>
   <i type="int" name="FOURORBIT">     0</i>
   <i name="AEXX">      0.00000000</i>
   <i name="HFALPHA">      0.00000000</i>
   <i name="MCALPHA">      0.00000000</i>
   <i name="ALDAX">      1.00000000</i>
   <i name="AGGAX">      1.00000000</i>
   <i name="ALDAC">      1.00000000</i>
   <i name="AGGAC">      1.00000000</i>
   <i type="int" name="NKREDX">     1</i>
   <i type="int" name="NKREDY">     1</i>
   <i type="int" name="NKREDZ">     1</i>
   <i type="logical" name="SHIFTRED"> F  </i>
   <i type="logical" name="ODDONLY"> F  </i>
   <i type="logical" name="EVENONLY"> F  </i>
   <i type="int" name="LMAXFOCK">     0</i>
   <i type="int" name="NMAXFOCKAE">     0</i>
   <i type="logical" name="LFOCKAEDFT"> F  </i>
   <i name="HFSCREEN">      0.00000000</i>
   <i name="HFSCREENC">      0.00000000</i>
   <i type="int" name="NBANDSGWLOW">     0</i>
  </separator>
  <separator name="vdW DFT" >
   <i type="logical" name="LUSE_VDW"> F  </i>
   <i name="Zab_VDW">     -0.84910000</i>
   <i name="PARAM1">      0.12340000</i>
   <i name="PARAM2">      1.00000000</i>
   <i name="PARAM3">      0.00000000</i>
  </separator>
  <separator name="model GW" >
   <i type="int" name="MODEL_GW">     0</i>
   <i name="MODEL_EPS0">      7.68123361</i>
   <i name="MODEL_ALPHA">      1.00000000</i>
  </separator>
  <separator name="linear response parameters" >
   <i type="logical" name="LEPSILON"> F  </i>
   <i type="logical" name="LRPA"> F  </i>
   <i type="logical" name="LNABLA"> F  </i>
   <i type="logical" name="LVEL"> F  </i>
   <i type="int" name="KINTER">     0</i>
   <i name="CSHIFT">      0.10000000</i>
   <i name="OMEGAMAX">     -1.00000000</i>
   <i name="DEG_THRESHOLD">      0.00200000</i>
   <i name="RTIME">     -0.10000000</i>
   <i name="WPLASMAI">      0.00000000</i>
   <v name="DFIELD">      0.00000000      0.00000000      0.00000000</v>
   <v name="WPLASMA">      0.00000000      0.00000000      0.00000000      0.00000000      0.00000000      0.00000000      0.00000000      0.00000000      0.00000000</v>
  </separator>
  <separator name="orbital magnetization" >
   <i type="logical" name="NUCIND"> F  </i>
   <v name="MAGPOS">      0.00000000      0.00000000      0.00000000</v>
   <i type="logical" name="LNICSALL"> T  </i>
   <i type="logical" name="ORBITALMAG"> F  </i>
   <i type="logical" name="LMAGBLOCH"> F  </i>
   <i type="logical" name="LCHIMAG"> F  </i>
   <i type="logical" name="LGAUGE"> T  </i>
   <i type="int" name="MAGATOM">     0</i>
   <v name="MAGDIPOL">      0.00000000      0.00000000      0.00000000</v>
   <v name="AVECCONST">      0.00000000      0.00000000      0.00000000</v>
  </separator>
  <separator name="response functions" >
   <i type="logical" name="LADDER"> F  </i>
   <i type="logical" name="LRPAFORCE"> F  </i>
   <i type="logical" name="LFXC"> F  </i>
   <i type="logical" name="LHARTREE"> T  </i>
   <i type="int" name="IBSE">     0</i>
   <v type="int" name="KPOINT">    -1     0     0     0</v>
   <i type="logical" name="LTCTE"> F  </i>
   <i type="logical" name="LTETE"> F  </i>
   <i type="logical" name="LTRIPLET"> F  </i>
   <i type="logical" name="LFXCEPS"> F  </i>
   <i type="logical" name="LFXHEG"> F  </i>
   <i type="int" name="NATURALO">     2</i>
   <i type="logical" name="L2ORDER"> F  </i>
   <i type="logical" name="LMP2LT"> F  </i>
   <i type="logical" name="LUSEW"> F  </i>
   <i name="ENCUTGW">     -2.00000000</i>
   <i name="ENCUTGWSOFT">     -2.00000000</i>
   <i name="ENCUTLF">     -1.00000000</i>
   <i type="int" name="LMAXMP2">    -1</i>
   <i name="SCISSOR">      0.00000000</i>
   <i type="int" name="NOMEGA">     0</i>
   <i type="int" name="NOMEGAR">     0</i>
   <i type="int" name="NBANDSGW">    -1</i>
   <i type="int" name="NBANDSO">    -1</i>
   <i type="int" name="NBANDSV">    -1</i>
   <i type="int" name="NELM">   100</i>
   <i type="int" name="NELMHF">     1</i>
   <i type="int" name="DIM">     3</i>
   <i type="int" name="ANTIRES">     0</i>
   <i name="OMEGAMAX">    -30.00000000</i>
   <i name="OMEGAMIN">    -30.00000000</i>
   <i name="OMEGATL">   -200.00000000</i>
   <i type="int" name="OMEGAGRID">   140</i>
   <i name="CSHIFT">     -0.10000000</i>
   <i type="logical" name="SELFENERGY"> F  </i>
   <i type="logical" name="LSPECTRAL"> F  </i>
   <i type="logical" name="LSPECTRALGW"> F  </i>
   <i type="logical" name="LSINGLES"> F  </i>
   <i type="logical" name="LFERMIGW"> F  </i>
   <i type="logical" name="ODDONLYGW"> F  </i>
   <i type="logical" name="EVENONLYGW"> F  </i>
   <i type="int" name="NKREDLFX">     1</i>
   <i type="int" name="NKREDLFY">     1</i>
   <i type="int" name="NKREDLFZ">     1</i>
   <i type="int" name="MAXMEM">  2800</i>
   <i type="int" name="TELESCOPE">     0</i>
   <i type="int" name="TAUPAR">     1</i>
   <i type="int" name="OMEGAPAR">    -1</i>
   <i name="LAMBDA">      1.00000000</i>
  </separator>
  <separator name="External order field" >
   <i name="OFIELD_KAPPA">      0.00000000</i>
   <v name="OFIELD_K">      0.00000000      0.00000000      0.00000000</v>
   <i name="OFIELD_Q6_NEAR">      0.00000000</i>
   <i name="OFIELD_Q6_FAR">      0.00000000</i>
   <i name="OFIELD_A">      0.00000000</i>
  </separator>
 </parameters>
 <atominfo>
  <atoms>     288 </atoms>
  <types>       2 </types>
  <array name="atoms" >
   <dimension dim="1">ion</dimension>
   <field type="string">element</field>
   <field type="int">atomtype</field>
   <set>
    <rc><c>Fe</c><c>   1</c></rc>
    <rc><c>Fe</c><c>   1</c></rc>
    <rc><c>Fe</c><c>   1</c></rc>
    <rc><c>Fe</c><c>   1</c></rc>
    <rc><c>Fe</c><c>   1</c></rc>
    <rc><c>Fe</c><c>   1</c></rc>
    <rc><c>Fe</c><c>   1</c></rc>
    <rc><c>Fe</c><c>   1</c></rc>
    <rc><c>Fe</c><c>   1</c></rc>
    <rc><c>Fe</c><c>   1</c></rc>
    <rc><c>Fe</c><c>   1</c></rc>
    <rc><c>Fe</c><c>   1</c></rc>
    <rc><c>Fe</c><c>   1</c></rc>
    <rc><c>Fe</c><c>   1</c></rc>
    <rc><c>Fe</c><c>   1</c></rc>
    <rc><c>Fe</c><c>   1</c></rc>
    <rc><c>Fe</c><c>   1</c></rc>
    <rc><c>Fe</c><c>   1</c></rc>
    <rc><c>Fe</c><c>   1</c></rc>
    <rc><c>Fe</c><c>   1</c></rc>
    <rc><c>Fe</c><c>   1</c></rc>
    <rc><c>Fe</c><c>   1</c></rc>
    <rc><c>Fe</c><c>   1</c></rc>
    <rc><c>Fe</c><c>   1</c></rc>
    <rc><c>Fe</c><c>   1</c></rc>
    <rc><c>Fe</c><c>   1</c></rc>
    <rc><c>Fe</c><c>   1</c></rc>
    <rc><c>Fe</c><c>   1</c></rc>
    <rc><c>Fe</c><c>   1</c></rc>
    <rc><c>Fe</c><c>   1</c></rc>
    <rc><c>Fe</c><c>   1</c></rc>
    <rc><c>Fe</c><c>   1</c></rc>
    <rc><c>Fe</c><c>   1</c></rc>
    <rc><c>Fe</c><c>   1</c></rc>
    <rc><c>Fe</c><c>   1</c></rc>
    <rc><c>Fe</c><c>   1</c></rc>
    <rc><c>Fe</c><c>   1</c></rc>
    <rc><c>Fe</c><c>   1</c></rc>
    <rc><c>Fe</c><c>   1</c></rc>
    <rc><c>Fe</c><c>   1</c></rc>
    <rc><c>Fe</c><c>   1</c></rc>
    <rc><c>Fe</c><c>   1</c></rc>
    <rc><c>Fe</c><c>   1</c></rc>
    <rc><c>Fe</c><c>   1</c></rc>
    <rc><c>Fe</c><c>   1</c></rc>
    <rc><c>Fe</c><c>   1</c></rc>
    <rc><c>Fe</c><c>   1</c></rc>
    <rc><c>Fe</c><c>   1</c></rc>
    <rc><c>Fe</c><c>   1</c></rc>
    <rc><c>Fe</c><c>   1</c></rc>
    <rc><c>Fe</c><c>   1</c></rc>
    <rc><c>Fe</c><c>   1</c></rc>
    <rc><c>Fe</c><c>   1</c></rc>
    <rc><c>Fe</c><c>   1</c></rc>
    <rc><c>Fe</c><c>   1</c></rc>
    <rc><c>Fe</c><c>   1</c></rc>
    <rc><c>Fe</c><c>   1</c></rc>
    <rc><c>Fe</c><c>   1</c></rc>
    <rc><c>Fe</c><c>   1</c></rc>
    <rc><c>Fe</c><c>   1</c></rc>
    <rc><c>Fe</c><c>   1</c></rc>
    <rc><c>Fe</c><c>   1</c></rc>
    <rc><c>Fe</c><c>   1</c></rc>
    <rc><c>Fe</c><c>   1</c></rc>
    <rc><c>Fe</c><c>   1</c></rc>
    <rc><c>Fe</c><c>   1</c></rc>
    <rc><c>Fe</c><c>   1</c></rc>
    <rc><c>Fe</c><c>   1</c></rc>
    <rc><c>Fe</c><c>   1</c></rc>
    <rc><c>Fe</c><c>   1</c></rc>
    <rc><c>Fe</c><c>   1</c></rc>
    <rc><c>Fe</c><c>   1</c></rc>
    <rc><c>Fe</c><c>   1</c></rc>
    <rc><c>Fe</c><c>   1</c></rc>
    <rc><c>Fe</c><c>   1</c></rc>
    <rc><c>Fe</c><c>   1</c></rc>
    <rc><c>Fe</c><c>   1</c></rc>
    <rc><c>Fe</c><c>   1</c></rc>
    <rc><c>Fe</c><c>   1</c></rc>
    <rc><c>Fe</c><c>   1</c></rc>
    <rc><c>Fe</c><c>   1</c></rc>
    <rc><c>Fe</c><c>   1</c></rc>
    <rc><c>Fe</c><c>   1</c></rc>
    <rc><c>Fe</c><c>   1</c></rc>
    <rc><c>Fe</c><c>   1</c></rc>
    <rc><c>Fe</c><c>   1</c></rc>
    <rc><c>Fe</c><c>   1</c></rc>
    <rc><c>Fe</c><c>   1</c></rc>
    <rc><c>Fe</c><c>   1</c></rc>
    <rc><c>Fe</c><c>   1</c></rc>
    <rc><c>Fe</c><c>   1</c></rc>
    <rc><c>Fe</c><c>   1</c></rc>
    <rc><c>Fe</c><c>   1</c></rc>
    <rc><c>Fe</c><c>   1</c></rc>
    <rc><c>Fe</c><c>   1</c></rc>
    <rc><c>Fe</c><c>   1</c></rc>
    <rc><c>Fe</c><c>   1</c></rc>
    <rc><c>Fe</c><c>   1</c></rc>
    <rc><c>Fe</c><c>   1</c></rc>
    <rc><c>Fe</c><c>   1</c></rc>
    <rc><c>Fe</c><c>   1</c></rc>
    <rc><c>Fe</c><c>   1</c></rc>
    <rc><c>Fe</c><c>   1</c></rc>
    <rc><c>Fe</c><c>   1</c></rc>
    <rc><c>Fe</c><c>   1</c></rc>
    <rc><c>Fe</c><c>   1</c></rc>
    <rc><c>Fe</c><c>   1</c></rc>
    <rc><c>Fe</c><c>   1</c></rc>
    <rc><c>Fe</c><c>   1</c></rc>
    <rc><c>Fe</c><c>   1</c></rc>
    <rc><c>Fe</c><c>   1</c></rc>
    <rc><c>Fe</c><c>   1</c></rc>
    <rc><c>Fe</c><c>   1</c></rc>
    <rc><c>Fe</c><c>   1</c></rc>
    <rc><c>Fe</c><c>   1</c></rc>
    <rc><c>Fe</c><c>   1</c></rc>
    <rc><c>Fe</c><c>   1</c></rc>
    <rc><c>Fe</c><c>   1</c></rc>
    <rc><c>Fe</c><c>   1</c></rc>
    <rc><c>Fe</c><c>   1</c></rc>
    <rc><c>Fe</c><c>   1</c></rc>
    <rc><c>Fe</c><c>   1</c></rc>
    <rc><c>Fe</c><c>   1</c></rc>
    <rc><c>Fe</c><c>   1</c></rc>
    <rc><c>Fe</c><c>   1</c></rc>
    <rc><c>Fe</c><c>   1</c></rc>
    <rc><c>Fe</c><c>   1</c></rc>
    <rc><c>Fe</c><c>   1</c></rc>
    <rc><c>Fe</c><c>   1</c></rc>
    <rc><c>Fe</c><c>   1</c></rc>
    <rc><c>Fe</c><c>   1</c></rc>
    <rc><c>Fe</c><c>   1</c></rc>
    <rc><c>Fe</c><c>   1</c></rc>
    <rc><c>Fe</c><c>   1</c></rc>
    <rc><c>Fe</c><c>   1</c></rc>
    <rc><c>Fe</c><c>   1</c></rc>
    <rc><c>Fe</c><c>   1</c></rc>
    <rc><c>Fe</c><c>   1</c></rc>
    <rc><c>Fe</c><c>   1</c></rc>
    <rc><c>Fe</c><c>   1</c></rc>
    <rc><c>Fe</c><c>   1</c></rc>
    <rc><c>Fe</c><c>   1</c></rc>
    <rc><c>Fe</c><c>   1</c></rc>
    <rc><c>Fe</c><c>   1</c></rc>
    <rc><c>Fe</c><c>   1</c></rc>
    <rc><c>Fe</c><c>   1</c></rc>
    <rc><c>Fe</c><c>   1</c></rc>
    <rc><c>Fe</c><c>   1</c></rc>
    <rc><c>Fe</c><c>   1</c></rc>
    <rc><c>Fe</c><c>   1</c></rc>
    <rc><c>Fe</c><c>   1</c></rc>
    <rc><c>Fe</c><c>   1</c></rc>
    <rc><c>Fe</c><c>   1</c></rc>
    <rc><c>Fe</c><c>   1</c></rc>
    <rc><c>Fe</c><c>   1</c></rc>
    <rc><c>Fe</c><c>   1</c></rc>
    <rc><c>Fe</c><c>   1</c></rc>
    <rc><c>Fe</c><c>   1</c></rc>
    <rc><c>Fe</c><c>   1</c></rc>
    <rc><c>Fe</c><c>   1</c></rc>
    <rc><c>Fe</c><c>   1</c></rc>
    <rc><c>Fe</c><c>   1</c></rc>
    <rc><c>Fe</c><c>   1</c></rc>
    <rc><c>Fe</c><c>   1</c></rc>
    <rc><c>Fe</c><c>   1</c></rc>
    <rc><c>Fe</c><c>   1</c></rc>
    <rc><c>Fe</c><c>   1</c></rc>
    <rc><c>Fe</c><c>   1</c></rc>
    <rc><c>Fe</c><c>   1</c></rc>
    <rc><c>Fe</c><c>   1</c></rc>
    <rc><c>Fe</c><c>   1</c></rc>
    <rc><c>Fe</c><c>   1</c></rc>
    <rc><c>Fe</c><c>   1</c></rc>
    <rc><c>Fe</c><c>   1</c></rc>
    <rc><c>Fe</c><c>   1</c></rc>
    <rc><c>Fe</c><c>   1</c></rc>
    <rc><c>Fe</c><c>   1</c></rc>
    <rc><c>Fe</c><c>   1</c></rc>
    <rc><c>Fe</c><c>   1</c></rc>
    <rc><c>Fe</c><c>   1</c></rc>
    <rc><c>Fe</c><c>   1</c></rc>
    <rc><c>Fe</c><c>   1</c></rc>
    <rc><c>Fe</c><c>   1</c></rc>
    <rc><c>Fe</c><c>   1</c></rc>
    <rc><c>Fe</c><c>   1</c></rc>
    <rc><c>Fe</c><c>   1</c></rc>
    <rc><c>Fe</c><c>   1</c></rc>
    <rc><c>Fe</c><c>   1</c></rc>
    <rc><c>Fe</c><c>   1</c></rc>
    <rc><c>Fe</c><c>   1</c></rc>
    <rc><c>Fe</c><c>   1</c></rc>
    <rc><c>Fe</c><c>   1</c></rc>
    <rc><c>Fe</c><c>   1</c></rc>
    <rc><c>Fe</c><c>   1</c></rc>
    <rc><c>Fe</c><c>   1</c></rc>
    <rc><c>Fe</c><c>   1</c></rc>
    <rc><c>Fe</c><c>   1</c></rc>
    <rc><c>Fe</c><c>   1</c></rc>
    <rc><c>Fe</c><c>   1</c></rc>
    <rc><c>Fe</c><c>   1</c></rc>
    <rc><c>Fe</c><c>   1</c></rc>
    <rc><c>Fe</c><c>   1</c></rc>
    <rc><c>Fe</c><c>   1</c></rc>
    <rc><c>Fe</c><c>   1</c></rc>
    <rc><c>Fe</c><c>   1</c></rc>
    <rc><c>Fe</c><c>   1</c></rc>
    <rc><c>Fe</c><c>   1</c></rc>
    <rc><c>Fe</c><c>   1</c></rc>
    <rc><c>Fe</c><c>   1</c></rc>
    <rc><c>Fe</c><c>   1</c></rc>
    <rc><c>Fe</c><c>   1</c></rc>
    <rc><c>Fe</c><c>   1</c></rc>
    <rc><c>Fe</c><c>   1</c></rc>
    <rc><c>Fe</c><c>   1</c></rc>
    <rc><c>Fe</c><c>   1</c></rc>
    <rc><c>Fe</c><c>   1</c></rc>
    <rc><c>Fe</c><c>   1</c></rc>
    <rc><c>Fe</c><c>   1</c></rc>
    <rc><c>Fe</c><c>   1</c></rc>
    <rc><c>Fe</c><c>   1</c></rc>
    <rc><c>Fe</c><c>   1</c></rc>
    <rc><c>Fe</c><c>   1</c></rc>
    <rc><c>Fe</c><c>   1</c></rc>
    <rc><c>Fe</c><c>   1</c></rc>
    <rc><c>Fe</c><c>   1</c></rc>
    <rc><c>Fe</c><c>   1</c></rc>
    <rc><c>Fe</c><c>   1</c></rc>
    <rc><c>Fe</c><c>   1</c></rc>
    <rc><c>Fe</c><c>   1</c></rc>
    <rc><c>Fe</c><c>   1</c></rc>
    <rc><c>Fe</c><c>   1</c></rc>
    <rc><c>Fe</c><c>   1</c></rc>
    <rc><c>Fe</c><c>   1</c></rc>
    <rc><c>Fe</c><c>   1</c></rc>
    <rc><c>Fe</c><c>   1</c></rc>
    <rc><c>Fe</c><c>   1</c></rc>
    <rc><c>Fe</c><c>   1</c></rc>
    <rc><c>Fe</c><c>   1</c></rc>
    <rc><c>Fe</c><c>   1</c></rc>
    <rc><c>Fe</c><c>   1</c></rc>
    <rc><c>Fe</c><c>   1</c></rc>
    <rc><c>Fe</c><c>   1</c></rc>
    <rc><c>Fe</c><c>   1</c></rc>
    <rc><c>Fe</c><c>   1</c></rc>
    <rc><c>Fe</c><c>   1</c></rc>
    <rc><c>Fe</c><c>   1</c></rc>
    <rc><c>Fe</c><c>   1</c></rc>
    <rc><c>Fe</c><c>   1</c></rc>
    <rc><c>Fe</c><c>   1</c></rc>
    <rc><c>Fe</c><c>   1</c></rc>
    <rc><c>Fe</c><c>   1</c></rc>
    <rc><c>Fe</c><c>   1</c></rc>
    <rc><c>Fe</c><c>   1</c></rc>
    <rc><c>Fe</c><c>   1</c></rc>
    <rc><c>Fe</c><c>   1</c></rc>
    <rc><c>Fe</c><c>   1</c></rc>
    <rc><c>Fe</c><c>   1</c></rc>
    <rc><c>Fe</c><c>   1</c></rc>
    <rc><c>Fe</c><c>   1</c></rc>
    <rc><c>Fe</c><c>   1</c></rc>
    <rc><c>Fe</c><c>   1</c></rc>
    <rc><c>Fe</c><c>   1</c></rc>
    <rc><c>Fe</c><c>   1</c></rc>
    <rc><c>Fe</c><c>   1</c></rc>
    <rc><c>Fe</c><c>   1</c></rc>
    <rc><c>Fe</c><c>   1</c></rc>
    <rc><c>Fe</c><c>   1</c></rc>
    <rc><c>Fe</c><c>   1</c></rc>
    <rc><c>Fe</c><c>   1</c></rc>
    <rc><c>Fe</c><c>   1</c></rc>
    <rc><c>Fe</c><c>   1</c></rc>
    <rc><c>Fe</c><c>   1</c></rc>
    <rc><c>Fe</c><c>   1</c></rc>
    <rc><c>Mn</c><c>   2</c></rc>
    <rc><c>Mn</c><c>   2</c></rc>
    <rc><c>Mn</c><c>   2</c></rc>
    <rc><c>Mn</c><c>   2</c></rc>
    <rc><c>Mn</c><c>   2</c></rc>
    <rc><c>Mn</c><c>   2</c></rc>
    <rc><c>Mn</c><c>   2</c></rc>
    <rc><c>Mn</c><c>   2</c></rc>
    <rc><c>Mn</c><c>   2</c></rc>
    <rc><c>Mn</c><c>   2</c></rc>
    <rc><c>Mn</c><c>   2</c></rc>
    <rc><c>Mn</c><c>   2</c></rc>
    <rc><c>Mn</c><c>   2</c></rc>
    <rc><c>Mn</c><c>   2</c></rc>
    <rc><c>Mn</c><c>   2</c></rc>
   </set>
  </array>
  <array name="atomtypes" >
   <dimension dim="1">type</dimension>
   <field type="int">atomspertype</field>
   <field type="string">element</field>
   <field>mass</field>
   <field>valence</field>
   <field type="string">pseudopotential</field>
   <set>
    <rc><c> 273</c><c>Fe</c><c>     55.84700000</c><c>      8.00000000</c><c>  PAW_PBE Fe_GW 31Mar2010               </c></rc>
    <rc><c>  15</c><c>Mn</c><c>     54.93800000</c><c>      7.00000000</c><c>  PAW_PBE Mn_GW 31Mar2010               </c></rc>
   </set>
  </array>
 </atominfo>
 <structure name="initialpos" >
  <crystal>
   <varray name="basis" >
    <v>       9.72667800       0.00000000       0.00000000 </v>
    <v>       0.00000000       8.42355000       0.00000000 </v>
    <v>       0.00000000       0.00000000      45.00000000 </v>
   </varray>
   <i name="volume">   3686.99213101 </i>
   <varray name="rec_basis" >
    <v>       0.10281002       0.00000000       0.00000000 </v>
    <v>       0.00000000       0.11871479       0.00000000 </v>
    <v>       0.00000000       0.00000000       0.02222222 </v>
   </varray>
  </crystal>
  <varray name="positions" >
   <v>       0.93766596       0.61952670       0.16901673 </v>
   <v>       0.68755285       0.78616916       0.25779454 </v>
   <v>       0.18723012       0.62274990       0.52129939 </v>
   <v>       0.56219844       0.70624791       0.56508633 </v>
   <v>       0.43741302       0.29015694       0.60974605 </v>
   <v>       0.93758767       0.45397478       0.34637761 </v>
   <v>       0.43748970       0.95371505       0.34634365 </v>
   <v>       0.81239105       0.20269196       0.21368677 </v>
   <v>       0.68778031       0.62248475       0.52131163 </v>
   <v>       0.56223793       0.53616651       0.25779216 </v>
   <v>       0.81210554       0.37113782       0.43473707 </v>
   <v>       0.56268180       0.70517476       0.47856710 </v>
   <v>       0.43746497       0.29219827       0.87352947 </v>
   <v>       0.68714387       0.45550498       0.47857738 </v>
   <v>       0.18739098       0.29095465       0.74221159 </v>
   <v>       0.68721457       0.95536607       0.47869316 </v>
   <v>       0.68743388       0.61969372       0.30188422 </v>
   <v>       0.31242636       0.70266771       0.21357006 </v>
   <v>       0.68753842       0.78520283       0.12677300 </v>
   <v>       0.06257639       0.54256830       0.87357595 </v>
   <v>       0.31265431       0.70579110       0.56500891 </v>
   <v>       0.43713017       0.45629640       0.56508833 </v>
   <v>       0.06224647       0.70767649       0.69805637 </v>
   <v>       0.56230503       0.20839957       0.69806608 </v>
   <v>       0.93742027       0.62193001       0.43469394 </v>
   <v>       0.18775305       0.12396427       0.65369240 </v>
   <v>       0.06244534       0.20607362       0.56520271 </v>
   <v>       0.81254274       0.04042578       0.60979839 </v>
   <v>       0.68745175       0.95393632       0.34632892 </v>
   <v>       0.06277213       0.70516583       0.47857639 </v>
   <v>       0.56216058       0.54198465       0.74213500 </v>
   <v>       0.56266462       0.20825329       0.83116650 </v>
   <v>       0.81258677       0.20818775       0.69809958 </v>
   <v>       0.06260990       0.20832572       0.83137393 </v>
   <v>       0.81229935       0.87235617       0.52133317 </v>
   <v>       0.43744543       0.12228732       0.52137386 </v>
   <v>       0.18821206       0.45575207       0.47862674 </v>
   <v>       0.81206412       0.70515123       0.47856562 </v>
   <v>       0.43753679       0.62397028       0.65361300 </v>
   <v>       0.68776807       0.62124062       0.43478923 </v>
   <v>       0.06243394       0.20380187       0.34638808 </v>
   <v>       0.31240445       0.36840109       0.16895427 </v>
   <v>       0.18730781       0.79012049       0.60963056 </v>
   <v>       0.31220309       0.20308572       0.21369275 </v>
   <v>       0.06267412       0.37148420       0.43508533 </v>
   <v>       0.31292063       0.03626266       0.12656704 </v>
   <v>       0.81245656       0.70386884       0.34637117 </v>
   <v>       0.56235965       0.04020894       0.60974523 </v>
   <v>       0.31254941       0.37543909       0.78635260 </v>
   <v>       0.18752376       0.28661222       0.25785340 </v>
   <v>       0.06283840       0.04153190       0.74223531 </v>
   <v>       0.56259797       0.37534158       0.78644208 </v>
   <v>       0.68740928       0.28595697       0.12673264 </v>
   <v>       0.31264483       0.03637446       0.25783380 </v>
   <v>       0.68753606       0.78763316       0.39022987 </v>
   <v>       0.06260632       0.37423041       0.65358583 </v>
   <v>       0.18737593       0.95607134       0.56510354 </v>
   <v>       0.93747429       0.11902491       0.16890681 </v>
   <v>       0.93711945       0.78985885       0.60968755 </v>
   <v>       0.31241921       0.20365255       0.34638280 </v>
   <v>       0.18748924       0.11939102       0.16888085 </v>
   <v>       0.56232839       0.04231480       0.74227406 </v>
   <v>       0.81254532       0.20382783       0.34633921 </v>
   <v>       0.93744943       0.78795813       0.39018542 </v>
   <v>       0.56243381       0.20531982       0.47866715 </v>
   <v>       0.68760024       0.79009287       0.60962958 </v>
   <v>       0.18740981       0.11998713       0.30194038 </v>
   <v>       0.68759392       0.29217061       0.87355974 </v>
   <v>       0.56289339       0.53630121       0.12679748 </v>
   <v>       0.68784464       0.62516695       0.78641117 </v>
   <v>       0.43754091       0.45264751       0.21363847 </v>
   <v>       0.43758311       0.29163783       0.74221351 </v>
   <v>       0.43755686       0.11994881       0.30188206 </v>
   <v>       0.81246022       0.20836628       0.83143149 </v>
   <v>       0.18767179       0.62426005       0.65368276 </v>
   <v>       0.93745955       0.62317204       0.52126053 </v>
   <v>       0.43771539       0.45805940       0.69802377 </v>
   <v>       0.93732142       0.95752388       0.69788161 </v>
   <v>       0.56249445       0.70776588       0.69804856 </v>
   <v>       0.06226037       0.37620696       0.78627576 </v>
   <v>       0.31248247       0.87458679       0.78618035 </v>
   <v>       0.43742155       0.95543230       0.47858319 </v>
   <v>       0.56234841       0.87243305       0.52133076 </v>
   <v>       0.56251547       0.20625472       0.56509652 </v>
   <v>       0.93730582       0.12539960       0.78645139 </v>
   <v>       0.56264260       0.20380665       0.34645313 </v>
   <v>       0.56259776       0.87492649       0.78634911 </v>
   <v>       0.56275239       0.36991551       0.30196678 </v>
   <v>       0.31245511       0.53721939       0.39027529 </v>
   <v>       0.68744057       0.12013197       0.30197873 </v>
   <v>       0.93769142       0.29047141       0.60970595 </v>
   <v>       0.31317279       0.04321223       0.87339683 </v>
   <v>       0.18760216       0.28591592       0.12675522 </v>
   <v>       0.43750655       0.28639030       0.25787381 </v>
   <v>       0.93771373       0.79120071       0.87357114 </v>
   <v>       0.81229957       0.04171342       0.74221303 </v>
   <v>       0.56272694       0.86991360       0.30183183 </v>
   <v>       0.56239736       0.70379810       0.34629327 </v>
   <v>       0.31256326       0.87426510       0.65362544 </v>
   <v>       0.06226865       0.36947091       0.16897305 </v>
   <v>       0.93751408       0.28597863       0.12676220 </v>
   <v>       0.56224944       0.37335381       0.65350486 </v>
   <v>       0.68753799       0.11952746       0.16888021 </v>
   <v>       0.68744805       0.79183236       0.74233555 </v>
   <v>       0.06252185       0.20266726       0.21365535 </v>
   <v>       0.81238841       0.70852312       0.83115449 </v>
   <v>       0.93785343       0.95637918       0.56495776 </v>
   <v>       0.18784600       0.95536438       0.47859481 </v>
   <v>       0.06232517       0.54031016       0.60970241 </v>
   <v>       0.56235644       0.54004588       0.60970597 </v>
   <v>       0.93863031       0.95894796       0.83134820 </v>
   <v>       0.68721273       0.45625352       0.56508649 </v>
   <v>       0.81249812       0.86989142       0.30194063 </v>
   <v>       0.31297926       0.86928282       0.16891380 </v>
   <v>       0.43816375       0.79110935       0.87329309 </v>
   <v>       0.68745408       0.79136380       0.87329970 </v>
   <v>       0.31253498       0.70810342       0.69802917 </v>
   <v>       0.56287613       0.20277229       0.21372647 </v>
   <v>       0.43780534       0.95793491       0.69783903 </v>
   <v>       0.06260129       0.87581450       0.78636868 </v>
   <v>       0.18774092       0.12167955       0.43476362 </v>
   <v>       0.93752145       0.95384139       0.34633551 </v>
   <v>       0.81263226       0.20655493       0.56521436 </v>
   <v>       0.18754733       0.61989734       0.30191571 </v>
   <v>       0.93757516       0.95273449       0.21364353 </v>
   <v>       0.18808660       0.45606342       0.56514094 </v>
   <v>       0.68744986       0.95891823       0.83114170 </v>
   <v>       0.31257861       0.37142853       0.43477978 </v>
   <v>       0.81249934       0.53613443       0.25785851 </v>
   <v>       0.56254128       0.87415230       0.65364965 </v>
   <v>       0.43738712       0.62248652       0.52126282 </v>
   <v>       0.06252095       0.87429625       0.65358494 </v>
   <v>       0.31252735       0.04197838       0.74222340 </v>
   <v>       0.93738309       0.29121598       0.74228145 </v>
   <v>       0.43764969       0.78606179       0.25781027 </v>
   <v>       0.31254996       0.54213794       0.87345743 </v>
   <v>       0.31222896       0.20533021       0.47865754 </v>
   <v>       0.56237450       0.03758922       0.39032378 </v>
   <v>       0.06234523       0.87169472       0.43488263 </v>
   <v>       0.31255642       0.54172097       0.74221426 </v>
   <v>       0.81155993       0.04341962       0.87335566 </v>
   <v>       0.56262183       0.70253001       0.21357484 </v>
   <v>       0.93775199       0.12426580       0.65369052 </v>
   <v>       0.43759379       0.45370050       0.34632690 </v>
   <v>       0.93731074       0.45775748       0.69802801 </v>
   <v>       0.68728470       0.95275697       0.21366684 </v>
   <v>       0.31256776       0.20790451       0.69801133 </v>
   <v>       0.18712151       0.61903735       0.16888369 </v>
   <v>       0.81283609       0.20512304       0.47861226 </v>
   <v>       0.43763932       0.78734909       0.39023171 </v>
   <v>       0.81278013       0.37555176       0.78636686 </v>
   <v>       0.93780286       0.79135813       0.74212710 </v>
   <v>       0.81242563       0.87463471       0.78620056 </v>
   <v>       0.18672567       0.95947287       0.83135668 </v>
   <v>       0.31266995       0.54048881       0.60978009 </v>
   <v>       0.93758342       0.12148288       0.43477316 </v>
   <v>       0.81270370       0.53756606       0.39017875 </v>
   <v>       0.68760978       0.12254911       0.52136722 </v>
   <v>       0.31251588       0.70377956       0.34630267 </v>
   <v>       0.06238353       0.53597881       0.12673554 </v>
   <v>       0.56253793       0.54231964       0.87341882 </v>
   <v>       0.81260586       0.36983639       0.16888662 </v>
   <v>       0.68730061       0.95794012       0.69804074 </v>
   <v>       0.93752349       0.78578300       0.12670824 </v>
   <v>       0.18782945       0.12236915       0.52137060 </v>
   <v>       0.43776146       0.95900595       0.83121959 </v>
   <v>       0.43749371       0.12163793       0.43489759 </v>
   <v>       0.06276238       0.53629031       0.25781677 </v>
   <v>       0.68773711       0.45836354       0.69784692 </v>
   <v>       0.81241158       0.54207534       0.87340968 </v>
   <v>       0.81313434       0.03607343       0.12678347 </v>
   <v>       0.81257995       0.86899091       0.16889732 </v>
   <v>       0.93756164       0.45632353       0.56481980 </v>
   <v>       0.68756482       0.45820680       0.83116740 </v>
   <v>       0.93722691       0.62510887       0.78630574 </v>
   <v>       0.18748457       0.28763477       0.39013094 </v>
   <v>       0.81251726       0.70288196       0.21369067 </v>
   <v>       0.06267315       0.70380177       0.34628161 </v>
   <v>       0.81188061       0.37198212       0.52128739 </v>
   <v>       0.06241531       0.20760637       0.69801697 </v>
   <v>       0.93766196       0.28789173       0.39025248 </v>
   <v>       0.43768323       0.12537539       0.78639489 </v>
   <v>       0.68747450       0.28612717       0.25780358 </v>
   <v>       0.31226622       0.20838481       0.83142988 </v>
   <v>       0.93754889       0.95541680       0.47860174 </v>
   <v>       0.56270109       0.36852590       0.16892518 </v>
   <v>       0.68753723       0.29159296       0.74219405 </v>
   <v>       0.18726902       0.78540730       0.12679718 </v>
   <v>       0.06275669       0.53742886       0.39021505 </v>
   <v>       0.43768826       0.78632343       0.12675018 </v>
   <v>       0.31227791       0.20642722       0.56507894 </v>
   <v>       0.68716474       0.12391995       0.65370668 </v>
   <v>       0.31250519       0.36995560       0.30195337 </v>
   <v>       0.18750582       0.45266726       0.21368037 </v>
   <v>       0.31302062       0.70819915       0.83123227 </v>
   <v>       0.43739593       0.95214999       0.21370985 </v>
   <v>       0.06225959       0.86992524       0.30182504 </v>
   <v>       0.43743167       0.62144735       0.43484225 </v>
   <v>       0.81233526       0.87412458       0.65362093 </v>
   <v>       0.31241210       0.70540031       0.47856960 </v>
   <v>       0.43773059       0.79006029       0.60969061 </v>
   <v>       0.68746326       0.45266376       0.21369739 </v>
   <v>       0.43745658       0.28553877       0.12660665 </v>
   <v>       0.06253363       0.20453309       0.47870830 </v>
   <v>       0.06251111       0.54151991       0.74219729 </v>
   <v>       0.31211783       0.53620358       0.12679788 </v>
   <v>       0.93745592       0.45960204       0.83116810 </v>
   <v>       0.31252597       0.87142708       0.43478010 </v>
   <v>       0.43747798       0.61877166       0.16891342 </v>
   <v>       0.56248265       0.37136769       0.43484798 </v>
   <v>       0.68735682       0.45393796       0.34629908 </v>
   <v>       0.43718785       0.12403511       0.65369763 </v>
   <v>       0.18753954       0.45378123       0.34628054 </v>
   <v>       0.56187064       0.86914599       0.16879273 </v>
   <v>       0.06249823       0.87242007       0.52127576 </v>
   <v>       0.31253404       0.03736197       0.39023629 </v>
   <v>       0.56255408       0.87144896       0.43487710 </v>
   <v>       0.18876007       0.29163061       0.87342829 </v>
   <v>       0.06227078       0.36987965       0.30191240 </v>
   <v>       0.93706999       0.12249491       0.52139907 </v>
   <v>       0.43746829       0.61994010       0.30191275 </v>
   <v>       0.81244159       0.70787798       0.69801642 </v>
   <v>       0.93753341       0.28605784       0.25782813 </v>
   <v>       0.06266679       0.03791002       0.39028786 </v>
   <v>       0.31240161       0.04027200       0.60972055 </v>
   <v>       0.06278748       0.03616383       0.25781440 </v>
   <v>       0.56213812       0.53758855       0.39019618 </v>
   <v>       0.18732484       0.29065510       0.60966023 </v>
   <v>       0.43733161       0.79193169       0.74224224 </v>
   <v>       0.43741141       0.45526164       0.47858943 </v>
   <v>       0.56210577       0.03623599       0.12656714 </v>
   <v>       0.31255843       0.37393027       0.65360264 </v>
   <v>       0.06182958       0.03616268       0.12677032 </v>
   <v>       0.18745614       0.46000377       0.83110669 </v>
   <v>       0.18752229       0.79202538       0.74228003 </v>
   <v>       0.93761681       0.12023757       0.30192702 </v>
   <v>       0.18757598       0.95367183       0.34633326 </v>
   <v>       0.93749914       0.45275072       0.21364759 </v>
   <v>       0.56216617       0.70875244       0.83126082 </v>
   <v>       0.81257983       0.53566870       0.12674400 </v>
   <v>       0.06237755       0.70592125       0.56510522 </v>
   <v>       0.18738430       0.78616605       0.25779750 </v>
   <v>       0.06242730       0.70258857       0.21361724 </v>
   <v>       0.06250324       0.04033278       0.60976815 </v>
   <v>       0.81255646       0.87146202       0.43487980 </v>
   <v>       0.18738036       0.62153206       0.43471748 </v>
   <v>       0.18777245       0.62503517       0.78635004 </v>
   <v>       0.56272927       0.04209748       0.87343690 </v>
   <v>       0.18743775       0.78732947       0.39022438 </v>
   <v>       0.31253550       0.53633221       0.25785599 </v>
   <v>       0.31277178       0.87241253       0.52131196 </v>
   <v>       0.81232380       0.54021981       0.60979280 </v>
   <v>       0.18682452       0.79052744       0.87358711 </v>
   <v>       0.93758029       0.61970021       0.30188658 </v>
   <v>       0.68728539       0.62357007       0.65365514 </v>
   <v>       0.93623843       0.29233193       0.87338426 </v>
   <v>       0.68775593       0.61939579       0.16894109 </v>
   <v>       0.43758544       0.28767756       0.39020101 </v>
   <v>       0.56243659       0.37254260       0.52135461 </v>
   <v>       0.43720810       0.95616113       0.56510540 </v>
   <v>       0.68738385       0.28991637       0.60970705 </v>
   <v>       0.18779300       0.95263188       0.21366318 </v>
   <v>       0.81247712       0.37397161       0.65366183 </v>
   <v>       0.31277439       0.37216697       0.52138075 </v>
   <v>       0.81249308       0.37003019       0.30179796 </v>
   <v>       0.43763191       0.45842343       0.83121208 </v>
   <v>       0.56204006       0.03627504       0.25784648 </v>
   <v>       0.06260533       0.86879658       0.16879163 </v>
   <v>       0.68723324       0.12160889       0.43489121 </v>
   <v>       0.18721975       0.45802142       0.69789849 </v>
   <v>       0.81253747       0.70635344       0.56519591 </v>
   <v>       0.68735371       0.28747354       0.39020704 </v>
   <v>       0.93745161       0.78616813       0.25781276 </v>
   <v>       0.81257375       0.03612413       0.25773366 </v>
   <v>       0.93742105       0.45535949       0.47865943 </v>
   <v>       0.68751042       0.12510419       0.78604829 </v>
   <v>       0.31251405       0.86984230       0.30190176 </v>
   <v>       0.68738491       0.95631154       0.56513981 </v>
   <v>       0.06279858       0.70979448       0.83202769 </v>
   <v>       0.06293593       0.04193481       0.87318051 </v>
   <v>       0.81254991       0.03782298       0.39014273 </v>
   <v>       0.93740612       0.62404380       0.65354854 </v>
   <v>       0.18759267       0.95807515       0.69798789 </v>
   <v>       0.18737297       0.12489444       0.78622244 </v>
   <v>       0.81275108       0.54172989       0.74236517 </v>
   <v>       0.43751720       0.11899763       0.16824762 </v>
   <v>       0.43724073       0.62490024       0.78615506 </v>
   <v>       0.06261984       0.37236841       0.52122970 </v>
  </varray>
 </structure>
 <calculation>
  <scstep>
   <time name="dav">  146.36  146.36</time>
   <time name="total">  146.81  146.81</time>
   <energy>
    <i name="alphaZ">  16277.55763135 </i>
    <i name="ewald"> 774497.88441038 </i>
    <i name="hartreedc">-964739.10109569 </i>
    <i name="XCdc">  -6524.71626970 </i>
    <i name="pawpsdc"> 162148.49262465 </i>
    <i name="pawaedc">-159453.03229289 </i>
    <i name="eentropy">     -0.96828740 </i>
    <i name="bandstr">  39733.61056761 </i>
    <i name="atom"> 168497.18126305 </i>
    <i name="e_fr_energy">  30436.90855137 </i>
    <i name="e_wo_entrp">  30437.87683877 </i>
    <i name="e_0_energy">  30437.39269507 </i>
   </energy>
  </scstep>
  <scstep>
   <time name="dav">  140.21  140.20</time>
   <time name="total">  140.21  140.21</time>
   <energy>
    <i name="e_fr_energy">   1533.52422872 </i>
    <i name="e_wo_entrp">   1534.91302362 </i>
    <i name="e_0_energy">   1534.21862617 </i>
   </energy>
  </scstep>
  <scstep>
   <time name="dav">  176.20  176.19</time>
   <time name="total">  176.20  176.20</time>
   <energy>
    <i name="e_fr_energy">  -1896.41993176 </i>
    <i name="e_wo_entrp">  -1892.89168808 </i>
    <i name="e_0_energy">  -1894.65580992 </i>
   </energy>
  </scstep>
  <scstep>
   <time name="dav">  218.86  218.85</time>
   <time name="total">  218.86  218.86</time>
   <energy>
    <i name="e_fr_energy">  -2609.85991235 </i>
    <i name="e_wo_entrp">  -2606.39886589 </i>
    <i name="e_0_energy">  -2608.12938912 </i>
   </energy>
  </scstep>
  <scstep>
   <time name="dav">  208.53  208.53</time>
   <time name="total">  213.19  213.18</time>
   <energy>
    <i name="e_fr_energy">  -2739.53152620 </i>
    <i name="e_wo_entrp">  -2735.98954715 </i>
    <i name="e_0_energy">  -2737.76053667 </i>
   </energy>
  </scstep>
  <scstep>
   <time name="diag">   29.44   29.44</time>
   <time name="diis">   75.07   75.07</time>
   <time name="orth">    9.08    9.08</time>
   <time name="total">  118.69  118.69</time>
   <energy>
    <i name="e_fr_energy">  -6360.65917854 </i>
    <i name="e_wo_entrp">  -6356.98732015 </i>
    <i name="e_0_energy">  -6358.82324934 </i>
   </energy>
  </scstep>
  <scstep>
   <time name="diag">   30.51   30.51</time>
   <time name="diis">   77.81   77.80</time>
   <time name="orth">    8.96    8.96</time>
   <time name="total">  122.75  122.74</time>
   <energy>
    <i name="e_fr_energy">  -5225.01040105 </i>
    <i name="e_wo_entrp">  -5219.75900500 </i>
    <i name="e_0_energy">  -5222.38470303 </i>
   </energy>
  </scstep>
  <scstep>
[...]
       <r>     5.8372     0.0000  2760.0000 </r>
       <r>     5.8801     0.0000  2760.0000 </r>
       <r>     5.9229     0.0000  2760.0000 </r>
       <r>     5.9658     0.0000  2760.0000 </r>
       <r>     6.0086     0.0000  2760.0000 </r>
       <r>     6.0514     0.0000  2760.0000 </r>
       <r>     6.0943     0.0000  2760.0000 </r>
       <r>     6.1371     0.0000  2760.0000 </r>
       <r>     6.1800     0.0000  2760.0000 </r>
       <r>     6.2228     0.0000  2760.0000 </r>
       <r>     6.2657     0.0000  2760.0000 </r>
       <r>     6.3085     0.0000  2760.0000 </r>
       <r>     6.3513     0.0000  2760.0000 </r>
       <r>     6.3942     0.0000  2760.0000 </r>
       <r>     6.4370     0.0000  2760.0000 </r>
       <r>     6.4799     0.0000  2760.0000 </r>
       <r>     6.5227     0.0000  2760.0000 </r>
       <r>     6.5655     0.0000  2760.0000 </r>
       <r>     6.6084     0.0000  2760.0000 </r>
       <r>     6.6512     0.0000  2760.0000 </r>
       <r>     6.6941     0.0000  2760.0000 </r>
       <r>     6.7369     0.0000  2760.0000 </r>
       <r>     6.7798     0.0000  2760.0000 </r>
      </set>
     </set>
    </array>
   </total>
  </dos>
 </calculation>
 <structure name="finalpos" >
  <crystal>
   <varray name="basis" >
    <v>       9.72667800       0.00000000       0.00000000 </v>
    <v>       0.00000000       8.42355000       0.00000000 </v>
    <v>       0.00000000       0.00000000      45.00000000 </v>
   </varray>
   <i name="volume">   3686.99213101 </i>
   <varray name="rec_basis" >
    <v>       0.10281002       0.00000000       0.00000000 </v>
    <v>       0.00000000       0.11871479       0.00000000 </v>
    <v>       0.00000000       0.00000000       0.02222222 </v>
   </varray>
  </crystal>
  <varray name="positions" >
   <v>       0.93766549       0.61952819       0.16901692 </v>
   <v>       0.68755142       0.78617896       0.25779351 </v>
   <v>       0.18723151       0.62275575       0.52129680 </v>
   <v>       0.56219976       0.70624629       0.56508445 </v>
   <v>       0.43741345       0.29015466       0.60974636 </v>
   <v>       0.93758533       0.45397782       0.34637502 </v>
   <v>       0.43748914       0.95372112       0.34634023 </v>
   <v>       0.81238984       0.20269985       0.21368609 </v>
   <v>       0.68777700       0.62248809       0.52130951 </v>
   <v>       0.56223636       0.53617485       0.25779114 </v>
   <v>       0.81210347       0.37113854       0.43473774 </v>
   <v>       0.56268493       0.70517537       0.47856637 </v>
   <v>       0.43746457       0.29218958       0.87353123 </v>
   <v>       0.68714878       0.45550620       0.47857690 </v>
   <v>       0.18738971       0.29094659       0.74221291 </v>
   <v>       0.68721044       0.95536590       0.47869209 </v>
   <v>       0.68743268       0.61969856       0.30188249 </v>
   <v>       0.31242860       0.70267496       0.21356938 </v>
   <v>       0.68753769       0.78520730       0.12677379 </v>
   <v>       0.06257776       0.54257511       0.87357780 </v>
   <v>       0.31265678       0.70579473       0.56500676 </v>
   <v>       0.43713053       0.45629352       0.56508638 </v>
   <v>       0.06224511       0.70766815       0.69805781 </v>
   <v>       0.56230586       0.20839126       0.69806762 </v>
   <v>       0.93741735       0.62192508       0.43469515 </v>
   <v>       0.18775088       0.12396018       0.65369375 </v>
   <v>       0.06244315       0.20607036       0.56520187 </v>
   <v>       0.81254587       0.04042236       0.60979826 </v>
   <v>       0.68745135       0.95394287       0.34632682 </v>
   <v>       0.06277145       0.70516148       0.47857645 </v>
   <v>       0.56216239       0.54197444       0.74213685 </v>
   <v>       0.56266488       0.20824537       0.83116939 </v>
   <v>       0.81258689       0.20818094       0.69810101 </v>
   <v>       0.06261078       0.20831751       0.83137671 </v>
   <v>       0.81229834       0.87235304       0.52133154 </v>
   <v>       0.43744748       0.12228584       0.52137168 </v>
   <v>       0.18821242       0.45575518       0.47862576 </v>
   <v>       0.81206078       0.70514721       0.47856560 </v>
   <v>       0.43753853       0.62396201       0.65361439 </v>
   <v>       0.68776317       0.62123918       0.43478952 </v>
   <v>       0.06243716       0.20380649       0.34638581 </v>
   <v>       0.31240658       0.36840324       0.16895478 </v>
   <v>       0.18730657       0.79012010       0.60963133 </v>
   <v>       0.31220419       0.20309017       0.21369256 </v>
   <v>       0.06267257       0.37148431       0.43508596 </v>
   <v>       0.31292349       0.03627086       0.12656773 </v>
   <v>       0.81245457       0.70386965       0.34636892 </v>
   <v>       0.56236169       0.04020527       0.60974514 </v>
   <v>       0.31254981       0.37543162       0.78635335 </v>
   <v>       0.18752216       0.28662063       0.25785247 </v>
   <v>       0.06283746       0.04152620       0.74223710 </v>
   <v>       0.56259485       0.37533298       0.78644254 </v>
   <v>       0.68740679       0.28596306       0.12673292 </v>
   <v>       0.31264509       0.03637856       0.25783343 </v>
   <v>       0.68753482       0.78763722       0.39022869 </v>
   <v>       0.06260534       0.37422520       0.65358762 </v>
   <v>       0.18737391       0.95607250       0.56510168 </v>
   <v>       0.93747326       0.11903318       0.16890713 </v>
   <v>       0.93711946       0.78985793       0.60968755 </v>
   <v>       0.31242074       0.20366133       0.34638009 </v>
   <v>       0.18749397       0.11939442       0.16888163 </v>
   <v>       0.56232832       0.04230630       0.74227661 </v>
   <v>       0.81254285       0.20383408       0.34633711 </v>
   <v>       0.93744670       0.78796118       0.39018436 </v>
   <v>       0.56243108       0.20532084       0.47866617 </v>
   <v>       0.68760249       0.79008852       0.60962996 </v>
   <v>       0.18741354       0.11999132       0.30193819 </v>
   <v>       0.68759178       0.29216531       0.87356158 </v>
   <v>       0.56289698       0.53629932       0.12679835 </v>
   <v>       0.68784409       0.62516124       0.78641311 </v>
   <v>       0.43754073       0.45265481       0.21363766 </v>
   <v>       0.43758281       0.29163216       0.74221604 </v>
   <v>       0.43755374       0.11995185       0.30187987 </v>
   <v>       0.81246032       0.20835413       0.83143470 </v>
   <v>       0.18766891       0.62425577       0.65368413 </v>
   <v>       0.93746041       0.62317351       0.52125790 </v>
   <v>       0.43771598       0.45805063       0.69802525 </v>
   <v>       0.93732216       0.95751652       0.69788264 </v>
   <v>       0.56249404       0.70775758       0.69804999 </v>
   <v>       0.06225920       0.37620009       0.78627588 </v>
   <v>       0.31248235       0.87458120       0.78618217 </v>
   <v>       0.43742418       0.95543695       0.47858250 </v>
   <v>       0.56234750       0.87242979       0.52132882 </v>
   <v>       0.56251632       0.20625384       0.56509442 </v>
   <v>       0.93730722       0.12538850       0.78645284 </v>
   <v>       0.56263876       0.20381407       0.34645080 </v>
   <v>       0.56259887       0.87492098       0.78635082 </v>
   <v>       0.56275206       0.36991914       0.30196550 </v>
   <v>       0.31246020       0.53721665       0.39027435 </v>
   <v>       0.68744017       0.12013824       0.30197661 </v>
   <v>       0.93769212       0.29046914       0.60970620 </v>
   <v>       0.31318234       0.04319350       0.87339972 </v>
   <v>       0.18760245       0.28591907       0.12675510 </v>
   <v>       0.43750649       0.28639804       0.25787268 </v>
   <v>       0.93770981       0.79119748       0.87357348 </v>
   <v>       0.81230221       0.04170767       0.74221528 </v>
   <v>       0.56271984       0.86991877       0.30182956 </v>
   <v>       0.56239907       0.70380153       0.34629110 </v>
   <v>       0.31256245       0.87426249       0.65362668 </v>
   <v>       0.06226619       0.36947382       0.16897257 </v>
   <v>       0.93751380       0.28598824       0.12676141 </v>
   <v>       0.56225181       0.37335489       0.65350664 </v>
   <v>       0.68753244       0.11953444       0.16888035 </v>
   <v>       0.68744721       0.79182539       0.74233789 </v>
   <v>       0.06252172       0.20267534       0.21365445 </v>
   <v>       0.81238761       0.70852654       0.83115793 </v>
   <v>       0.93785157       0.95637992       0.56495652 </v>
   <v>       0.18784386       0.95536466       0.47859445 </v>
   <v>       0.06232359       0.54030724       0.60970170 </v>
   <v>       0.56236044       0.54004372       0.60970648 </v>
   <v>       0.93862516       0.95894339       0.83135096 </v>
   <v>       0.68721441       0.45625460       0.56508533 </v>
   <v>       0.81249781       0.86989935       0.30193807 </v>
   <v>       0.31298022       0.86928863       0.16891555 </v>
   <v>       0.43816100       0.79111318       0.87329572 </v>
   <v>       0.68745591       0.79136870       0.87330266 </v>
   <v>       0.31253455       0.70809309       0.69803036 </v>
   <v>       0.56287628       0.20278165       0.21372638 </v>
   <v>       0.43780322       0.95792576       0.69784081 </v>
   <v>       0.06259833       0.87580399       0.78637053 </v>
   <v>       0.18774486       0.12168178       0.43476352 </v>
   <v>       0.93752002       0.95384833       0.34633316 </v>
   <v>       0.81263378       0.20655463       0.56521257 </v>
   <v>       0.18754884       0.61990330       0.30191369 </v>
   <v>       0.93757494       0.95274108       0.21364370 </v>
   <v>       0.18808661       0.45606719       0.56513976 </v>
   <v>       0.68745028       0.95890999       0.83114506 </v>
   <v>       0.31258341       0.37142759       0.43477935 </v>
   <v>       0.81249959       0.53614220       0.25785683 </v>
   <v>       0.56254439       0.87414767       0.65365147 </v>
   <v>       0.43738737       0.62248832       0.52126123 </v>
   <v>       0.06252084       0.87429811       0.65358591 </v>
   <v>       0.31252428       0.04196688       0.74222538 </v>
   <v>       0.93738283       0.29120775       0.74228307 </v>
   <v>       0.43764632       0.78607181       0.25780952 </v>
   <v>       0.31255139       0.54214053       0.87345896 </v>
   <v>       0.31223320       0.20533364       0.47865643 </v>
   <v>       0.56238066       0.03759817       0.39032283 </v>
   <v>       0.06234632       0.87169763       0.43488354 </v>
   <v>       0.31255487       0.54171446       0.74221608 </v>
   <v>       0.81155455       0.04340348       0.87335816 </v>
   <v>       0.56262138       0.70254002       0.21357382 </v>
   <v>       0.93775091       0.12426230       0.65369216 </v>
   <v>       0.43759303       0.45370314       0.34632499 </v>
   <v>       0.93730988       0.45774721       0.69802877 </v>
   <v>       0.68728449       0.95276378       0.21366610 </v>
   <v>       0.31256723       0.20790205       0.69801272 </v>
   <v>       0.18712025       0.61904261       0.16888413 </v>
   <v>       0.81283642       0.20513192       0.47861137 </v>
   <v>       0.43764053       0.78734924       0.39023118 </v>
   <v>       0.81278246       0.37554488       0.78636731 </v>
   <v>       0.93780160       0.79135002       0.74212910 </v>
   <v>       0.81242657       0.87462399       0.78620224 </v>
   <v>       0.18672836       0.95946625       0.83135895 </v>
   <v>       0.31266829       0.54048713       0.60978041 </v>
   <v>       0.93757915       0.12148189       0.43477340 </v>
   <v>       0.81269955       0.53756561       0.39017712 </v>
   <v>       0.68760689       0.12254994       0.52136551 </v>
   <v>       0.31251711       0.70378219       0.34629932 </v>
   <v>       0.06238067       0.53597914       0.12673512 </v>
   <v>       0.56253792       0.54232377       0.87342089 </v>
   <v>       0.81260330       0.36984048       0.16888603 </v>
   <v>       0.68730226       0.95793217       0.69804220 </v>
   <v>       0.93752611       0.78578372       0.12670868 </v>
   <v>       0.18783148       0.12236657       0.52136918 </v>
   <v>       0.43776202       0.95899967       0.83122295 </v>
   <v>       0.43749507       0.12163917       0.43489720 </v>
   <v>       0.06276436       0.53630010       0.25781570 </v>
   <v>       0.68773741       0.45835244       0.69784878 </v>
   <v>       0.81241066       0.54207588       0.87341135 </v>
   <v>       0.81313245       0.03608391       0.12678398 </v>
   <v>       0.81257686       0.86899580       0.16889771 </v>
   <v>       0.93755987       0.45632607       0.56481959 </v>
   <v>       0.68756450       0.45820419       0.83116972 </v>
   <v>       0.93722761       0.62510348       0.78630652 </v>
   <v>       0.18748911       0.28763849       0.39012960 </v>
   <v>       0.81251683       0.70289061       0.21368956 </v>
   <v>       0.06267254       0.70380309       0.34627868 </v>
   <v>       0.81187873       0.37198101       0.52128444 </v>
   <v>       0.06241383       0.20760185       0.69801821 </v>
   <v>       0.93765864       0.28789420       0.39025051 </v>
   <v>       0.43768288       0.12536683       0.78639542 </v>
   <v>       0.68747609       0.28613192       0.25780255 </v>
   <v>       0.31226748       0.20837386       0.83143317 </v>
   <v>       0.93754892       0.95541922       0.47860124 </v>
   <v>       0.56270276       0.36852967       0.16892495 </v>
   <v>       0.68753717       0.29158413       0.74219604 </v>
   <v>       0.18726834       0.78541424       0.12679742 </v>
   <v>       0.06275835       0.53742910       0.39021304 </v>
   <v>       0.43768734       0.78633327       0.12675118 </v>
   <v>       0.31227584       0.20642639       0.56507681 </v>
   <v>       0.68716639       0.12391490       0.65370781 </v>
   <v>       0.31250359       0.36995994       0.30195194 </v>
   <v>       0.18750643       0.45267336       0.21367929 </v>
   <v>       0.31302167       0.70820128       0.83123658 </v>
   <v>       0.43739604       0.95215640       0.21370972 </v>
   <v>       0.06226832       0.86993085       0.30182252 </v>
   <v>       0.43743249       0.62144387       0.43484200 </v>
   <v>       0.81233512       0.87412614       0.65362178 </v>
   <v>       0.31241208       0.70539984       0.47856938 </v>
   <v>       0.43773177       0.79006038       0.60969068 </v>
   <v>       0.68746466       0.45267192       0.21369548 </v>
   <v>       0.43745895       0.28553609       0.12660771 </v>
   <v>       0.06253102       0.20453502       0.47870728 </v>
   <v>       0.06250907       0.54150871       0.74219946 </v>
   <v>       0.31211599       0.53620331       0.12679884 </v>
   <v>       0.93745350       0.45959559       0.83117152 </v>
   <v>       0.31253056       0.87142859       0.43478031 </v>
   <v>       0.43748084       0.61877795       0.16891389 </v>
   <v>       0.56247992       0.37136824       0.43484726 </v>
   <v>       0.68735479       0.45394210       0.34629687 </v>
   <v>       0.43718944       0.12402668       0.65369909 </v>
   <v>       0.18754379       0.45378319       0.34627768 </v>
   <v>       0.56187064       0.86915481       0.16879237 </v>
   <v>       0.06249735       0.87242041       0.52127387 </v>
   <v>       0.31253624       0.03736773       0.39023499 </v>
   <v>       0.56254983       0.87145067       0.43487696 </v>
   <v>       0.18876766       0.29162998       0.87343060 </v>
   <v>       0.06227200       0.36988302       0.30191094 </v>
   <v>       0.93706911       0.12249024       0.52139712 </v>
   <v>       0.43746554       0.61994613       0.30191059 </v>
   <v>       0.81244165       0.70786883       0.69801717 </v>
   <v>       0.93753285       0.28606442       0.25782681 </v>
   <v>       0.06266266       0.03791833       0.39028642 </v>
   <v>       0.31240118       0.04026929       0.60972066 </v>
   <v>       0.06278272       0.03617081       0.25781307 </v>
   <v>       0.56213722       0.53758622       0.39019480 </v>
   <v>       0.18732357       0.29065138       0.60966033 </v>
   <v>       0.43733344       0.79192028       0.74224513 </v>
   <v>       0.43740948       0.45526062       0.47858806 </v>
   <v>       0.56210445       0.03624591       0.12656778 </v>
   <v>       0.31255777       0.37392710       0.65360477 </v>
   <v>       0.06183135       0.03617059       0.12677049 </v>
   <v>       0.18745839       0.46000142       0.83110983 </v>
   <v>       0.18752177       0.79201708       0.74228279 </v>
   <v>       0.93761848       0.12024223       0.30192456 </v>
   <v>       0.18757786       0.95367741       0.34633002 </v>
   <v>       0.93749771       0.45275548       0.21364611 </v>
   <v>       0.56216614       0.70875389       0.83126507 </v>
   <v>       0.81258212       0.53566613       0.12674402 </v>
   <v>       0.06237422       0.70592306       0.56510416 </v>
   <v>       0.18738917       0.78617708       0.25779647 </v>
   <v>       0.06242521       0.70259662       0.21361637 </v>
   <v>       0.06250044       0.04032985       0.60976826 </v>
   <v>       0.81255300       0.87146639       0.43487967 </v>
   <v>       0.18738543       0.62152954       0.43471775 </v>
   <v>       0.18777449       0.62502992       0.78635029 </v>
   <v>       0.56272592       0.04208947       0.87343886 </v>
   <v>       0.18744140       0.78733138       0.39022329 </v>
   <v>       0.31253546       0.53633956       0.25785529 </v>
   <v>       0.31277474       0.87241014       0.52131008 </v>
   <v>       0.81232653       0.54021824       0.60979215 </v>
   <v>       0.18683291       0.79052248       0.87358941 </v>
   <v>       0.93758148       0.61970554       0.30188482 </v>
   <v>       0.68728849       0.62356337       0.65365618 </v>
   <v>       0.93623368       0.29233106       0.87338572 </v>
   <v>       0.68775777       0.61939713       0.16894088 </v>
   <v>       0.43758644       0.28768195       0.39019998 </v>
   <v>       0.56243793       0.37254098       0.52135240 </v>
   <v>       0.43721044       0.95616159       0.56510340 </v>
   <v>       0.68738528       0.28991461       0.60970748 </v>
   <v>       0.18779300       0.95263777       0.21366282 </v>
   <v>       0.81247595       0.37396717       0.65366342 </v>
   <v>       0.31277616       0.37216700       0.52137829 </v>
   <v>       0.81249362       0.37003489       0.30179613 </v>
   <v>       0.43763324       0.45842335       0.83121513 </v>
   <v>       0.56204390       0.03628173       0.25784500 </v>
   <v>       0.06260640       0.86879968       0.16879164 </v>
   <v>       0.68723210       0.12161171       0.43489084 </v>
   <v>       0.18721983       0.45800876       0.69790088 </v>
   <v>       0.81253742       0.70635164       0.56519463 </v>
   <v>       0.68734986       0.28747949       0.39020525 </v>
   <v>       0.93745088       0.78617680       0.25781174 </v>
   <v>       0.81257421       0.03613282       0.25773224 </v>
   <v>       0.93741693       0.45536137       0.47865777 </v>
   <v>       0.68751139       0.12509574       0.78604892 </v>
   <v>       0.31251388       0.86984675       0.30189871 </v>
   <v>       0.68738695       0.95631113       0.56513897 </v>
   <v>       0.06280122       0.70979381       0.83203040 </v>
   <v>       0.06293730       0.04191830       0.87318294 </v>
   <v>       0.81254572       0.03783182       0.39014162 </v>
   <v>       0.93740389       0.62403809       0.65355051 </v>
   <v>       0.18759165       0.95806876       0.69798890 </v>
   <v>       0.18737031       0.12488299       0.78622273 </v>
   <v>       0.81275085       0.54172095       0.74236729 </v>
   <v>       0.43751836       0.11900506       0.16824732 </v>
   <v>       0.43723946       0.62489758       0.78615542 </v>
   <v>       0.06261957       0.37237093       0.52122750 </v>
  </varray>
 </structure>
</modeling>
