unknown system                          
            1
     9.726678    0.000000    0.000000
     0.000000    8.423550    0.000000
     0.000000    0.000000   45.000000
   Fe   Mn
 273  15
Direct configuration=     1
   0.93766596  0.61952670  0.16901673
   0.68755285  0.78616916  0.25779454
   0.18723012  0.62274990  0.52129939
   0.56219844  0.70624791  0.56508633
   0.43741302  0.29015694  0.60974605
   0.93758767  0.45397478  0.34637761
   0.43748970  0.95371505  0.34634365
   0.81239105  0.20269196  0.21368677
   0.68778031  0.62248475  0.52131163
   0.56223793  0.53616651  0.25779216
   0.81210554  0.37113782  0.43473707
   0.56268180  0.70517476  0.47856710
   0.43746497  0.29219827  0.87352947
   0.68714387  0.45550498  0.47857738
   0.18739098  0.29095465  0.74221159
   0.68721457  0.95536607  0.47869316
   0.68743388  0.61969372  0.30188422
   0.31242636  0.70266771  0.21357006
   0.68753842  0.78520283  0.12677300
   0.06257639  0.54256830  0.87357595
   0.31265431  0.70579110  0.56500891
   0.43713017  0.45629640  0.56508833
   0.06224647  0.70767649  0.69805637
   0.56230503  0.20839957  0.69806608
   0.93742027  0.62193001  0.43469394
   0.18775305  0.12396427  0.65369240
   0.06244534  0.20607362  0.56520271
   0.81254274  0.04042578  0.60979839
   0.68745175  0.95393632  0.34632892
   0.06277213  0.70516583  0.47857639
   0.56216058  0.54198465  0.74213500
   0.56266462  0.20825329  0.83116650
   0.81258677  0.20818775  0.69809958
   0.06260990  0.20832572  0.83137393
   0.81229935  0.87235617  0.52133317
   0.43744543  0.12228732  0.52137386
   0.18821206  0.45575207  0.47862674
   0.81206412  0.70515123  0.47856562
   0.43753679  0.62397028  0.65361300
   0.68776807  0.62124062  0.43478923
   0.06243394  0.20380187  0.34638808
   0.31240445  0.36840109  0.16895427
   0.18730781  0.79012049  0.60963056
   0.31220309  0.20308572  0.21369275
   0.06267412  0.37148420  0.43508533
   0.31292063  0.03626266  0.12656704
   0.81245656  0.70386884  0.34637117
   0.56235965  0.04020894  0.60974523
   0.31254941  0.37543909  0.78635260
   0.18752376  0.28661222  0.25785340
   0.06283840  0.04153190  0.74223531
   0.56259797  0.37534158  0.78644208
   0.68740928  0.28595697  0.12673264
   0.31264483  0.03637446  0.25783380
   0.68753606  0.78763316  0.39022987
   0.06260632  0.37423041  0.65358583
   0.18737593  0.95607134  0.56510354
   0.93747429  0.11902491  0.16890681
   0.93711945  0.78985885  0.60968755
   0.31241921  0.20365255  0.34638280
   0.18748924  0.11939102  0.16888085
   0.56232839  0.04231480  0.74227406
   0.81254532  0.20382783  0.34633921
   0.93744943  0.78795813  0.39018542
   0.56243381  0.20531982  0.47866715
   0.68760024  0.79009287  0.60962958
   0.18740981  0.11998713  0.30194038
   0.68759392  0.29217061  0.87355974
   0.56289339  0.53630121  0.12679748
   0.68784464  0.62516695  0.78641117
   0.43754091  0.45264751  0.21363847
   0.43758311  0.29163783  0.74221351
   0.43755686  0.11994881  0.30188206
   0.81246022  0.20836628  0.83143149
   0.18767179  0.62426005  0.65368276
   0.93745955  0.62317204  0.52126053
   0.43771539  0.45805940  0.69802377
   0.93732142  0.95752388  0.69788161
   0.56249445  0.70776588  0.69804856
   0.06226037  0.37620696  0.78627576
   0.31248247  0.87458679  0.78618035
   0.43742155  0.95543230  0.47858319
   0.56234841  0.87243305  0.52133076
   0.56251547  0.20625472  0.56509652
   0.93730582  0.12539960  0.78645139
   0.56264260  0.20380665  0.34645313
   0.56259776  0.87492649  0.78634911
   0.56275239  0.36991551  0.30196678
   0.31245511  0.53721939  0.39027529
   0.68744057  0.12013197  0.30197873
   0.93769142  0.29047141  0.60970595
   0.31317279  0.04321223  0.87339683
   0.18760216  0.28591592  0.12675522
   0.43750655  0.28639030  0.25787381
   0.93771373  0.79120071  0.87357114
   0.81229957  0.04171342  0.74221303
   0.56272694  0.86991360  0.30183183
   0.56239736  0.70379810  0.34629327
   0.31256326  0.87426510  0.65362544
   0.06226865  0.36947091  0.16897305
   0.93751408  0.28597863  0.12676220
   0.56224944  0.37335381  0.65350486
   0.68753799  0.11952746  0.16888021
   0.68744805  0.79183236  0.74233555
   0.06252185  0.20266726  0.21365535
   0.81238841  0.70852312  0.83115449
   0.93785343  0.95637918  0.56495776
   0.18784600  0.95536438  0.47859481
   0.06232517  0.54031016  0.60970241
   0.56235644  0.54004588  0.60970597
   0.93863031  0.95894796  0.83134820
   0.68721273  0.45625352  0.56508649
   0.81249812  0.86989142  0.30194063
   0.31297926  0.86928282  0.16891380
   0.43816375  0.79110935  0.87329309
   0.68745408  0.79136380  0.87329970
   0.31253498  0.70810342  0.69802917
   0.56287613  0.20277229  0.21372647
   0.43780534  0.95793491  0.69783903
   0.06260129  0.87581450  0.78636868
   0.18774092  0.12167955  0.43476362
   0.93752145  0.95384139  0.34633551
   0.81263226  0.20655493  0.56521436
   0.18754733  0.61989734  0.30191571
   0.93757516  0.95273449  0.21364353
   0.18808660  0.45606342  0.56514094
   0.68744986  0.95891823  0.83114170
   0.31257861  0.37142853  0.43477978
   0.81249934  0.53613443  0.25785851
   0.56254128  0.87415230  0.65364965
   0.43738712  0.62248652  0.52126282
   0.06252095  0.87429625  0.65358494
   0.31252735  0.04197838  0.74222340
   0.93738309  0.29121598  0.74228145
   0.43764969  0.78606179  0.25781027
   0.31254996  0.54213794  0.87345743
   0.31222896  0.20533021  0.47865754
   0.56237450  0.03758922  0.39032378
   0.06234523  0.87169472  0.43488263
   0.31255642  0.54172097  0.74221426
   0.81155993  0.04341962  0.87335566
   0.56262183  0.70253001  0.21357484
   0.93775199  0.12426580  0.65369052
   0.43759379  0.45370050  0.34632690
   0.93731074  0.45775748  0.69802801
   0.68728470  0.95275697  0.21366684
   0.31256776  0.20790451  0.69801133
   0.18712151  0.61903735  0.16888369
   0.81283609  0.20512304  0.47861226
   0.43763932  0.78734909  0.39023171
   0.81278013  0.37555176  0.78636686
   0.93780286  0.79135813  0.74212710
   0.81242563  0.87463471  0.78620056
   0.18672567  0.95947287  0.83135668
   0.31266995  0.54048881  0.60978009
   0.93758342  0.12148288  0.43477316
   0.81270370  0.53756606  0.39017875
   0.68760978  0.12254911  0.52136722
   0.31251588  0.70377956  0.34630267
   0.06238353  0.53597881  0.12673554
   0.56253793  0.54231964  0.87341882
   0.81260586  0.36983639  0.16888662
   0.68730061  0.95794012  0.69804074
   0.93752349  0.78578300  0.12670824
   0.18782945  0.12236915  0.52137060
   0.43776146  0.95900595  0.83121959
   0.43749371  0.12163793  0.43489759
   0.06276238  0.53629031  0.25781677
   0.68773711  0.45836354  0.69784692
   0.81241158  0.54207534  0.87340968
   0.81313434  0.03607343  0.12678347
   0.81257995  0.86899091  0.16889732
   0.93756164  0.45632353  0.56481980
   0.68756482  0.45820680  0.83116740
   0.93722691  0.62510887  0.78630574
   0.18748457  0.28763477  0.39013094
   0.81251726  0.70288196  0.21369067
   0.06267315  0.70380177  0.34628161
   0.81188061  0.37198212  0.52128739
   0.06241531  0.20760637  0.69801697
   0.93766196  0.28789173  0.39025248
   0.43768323  0.12537539  0.78639489
   0.68747450  0.28612717  0.25780358
   0.31226622  0.20838481  0.83142988
   0.93754889  0.95541680  0.47860174
   0.56270109  0.36852590  0.16892518
   0.68753723  0.29159296  0.74219405
   0.18726902  0.78540730  0.12679718
   0.06275669  0.53742886  0.39021505
   0.43768826  0.78632343  0.12675018
   0.31227791  0.20642722  0.56507894
   0.68716474  0.12391995  0.65370668
   0.31250519  0.36995560  0.30195337
   0.18750582  0.45266726  0.21368037
   0.31302062  0.70819915  0.83123227
   0.43739593  0.95214999  0.21370985
   0.06225959  0.86992524  0.30182504
   0.43743167  0.62144735  0.43484225
   0.81233526  0.87412458  0.65362093
   0.31241210  0.70540031  0.47856960
   0.43773059  0.79006029  0.60969061
   0.68746326  0.45266376  0.21369739
   0.43745658  0.28553877  0.12660665
   0.06253363  0.20453309  0.47870830
   0.06251111  0.54151991  0.74219729
   0.31211783  0.53620358  0.12679788
   0.93745592  0.45960204  0.83116810
   0.31252597  0.87142708  0.43478010
   0.43747798  0.61877166  0.16891342
   0.56248265  0.37136769  0.43484798
   0.68735682  0.45393796  0.34629908
   0.43718785  0.12403511  0.65369763
   0.18753954  0.45378123  0.34628054
   0.56187064  0.86914599  0.16879273
   0.06249823  0.87242007  0.52127576
   0.31253404  0.03736197  0.39023629
   0.56255408  0.87144896  0.43487710
   0.18876007  0.29163061  0.87342829
   0.06227078  0.36987965  0.30191240
   0.93706999  0.12249491  0.52139907
   0.43746829  0.61994010  0.30191275
   0.81244159  0.70787798  0.69801642
   0.93753341  0.28605784  0.25782813
   0.06266679  0.03791002  0.39028786
   0.31240161  0.04027200  0.60972055
   0.06278748  0.03616383  0.25781440
   0.56213812  0.53758855  0.39019618
   0.18732484  0.29065510  0.60966023
   0.43733161  0.79193169  0.74224224
   0.43741141  0.45526164  0.47858943
   0.56210577  0.03623599  0.12656714
   0.31255843  0.37393027  0.65360264
   0.06182958  0.03616268  0.12677032
   0.18745614  0.46000377  0.83110669
   0.18752229  0.79202538  0.74228003
   0.93761681  0.12023757  0.30192702
   0.18757598  0.95367183  0.34633326
   0.93749914  0.45275072  0.21364759
   0.56216617  0.70875244  0.83126082
   0.81257983  0.53566870  0.12674400
   0.06237755  0.70592125  0.56510522
   0.18738430  0.78616605  0.25779750
   0.06242730  0.70258857  0.21361724
   0.06250324  0.04033278  0.60976815
   0.81255646  0.87146202  0.43487980
   0.18738036  0.62153206  0.43471748
   0.18777245  0.62503517  0.78635004
   0.56272927  0.04209748  0.87343690
   0.18743775  0.78732947  0.39022438
   0.31253550  0.53633221  0.25785599
   0.31277178  0.87241253  0.52131196
   0.81232380  0.54021981  0.60979280
   0.18682452  0.79052744  0.87358711
   0.93758029  0.61970021  0.30188658
   0.68728539  0.62357007  0.65365514
   0.93623843  0.29233193  0.87338426
   0.68775593  0.61939579  0.16894109
   0.43758544  0.28767756  0.39020101
   0.56243659  0.37254260  0.52135461
   0.43720810  0.95616113  0.56510540
   0.68738385  0.28991637  0.60970705
   0.18779300  0.95263188  0.21366318
   0.81247712  0.37397161  0.65366183
   0.31277439  0.37216697  0.52138075
   0.81249308  0.37003019  0.30179796
   0.43763191  0.45842343  0.83121208
   0.56204006  0.03627504  0.25784648
   0.06260533  0.86879658  0.16879163
   0.68723324  0.12160889  0.43489121
   0.18721975  0.45802142  0.69789849
   0.81253747  0.70635344  0.56519591
   0.68735371  0.28747354  0.39020704
   0.93745161  0.78616813  0.25781276
   0.81257375  0.03612413  0.25773366
   0.93742105  0.45535949  0.47865943
   0.68751042  0.12510419  0.78604829
   0.31251405  0.86984230  0.30190176
   0.68738491  0.95631154  0.56513981
   0.06279858  0.70979448  0.83202769
   0.06293593  0.04193481  0.87318051
   0.81254991  0.03782298  0.39014273
   0.93740612  0.62404380  0.65354854
   0.18759267  0.95807515  0.69798789
   0.18737297  0.12489444  0.78622244
   0.81275108  0.54172989  0.74236517
   0.43751720  0.11899763  0.16824762
   0.43724073  0.62490024  0.78615506
   0.06261984  0.37236841  0.52122970
Direct configuration=     2
   0.93766551  0.61952811  0.16901690
   0.68755150  0.78617843  0.25779357
   0.18723143  0.62275544  0.52129694
   0.56219969  0.70624638  0.56508455
   0.43741343  0.29015479  0.60974634
   0.93758545  0.45397766  0.34637516
   0.43748917  0.95372079  0.34634042
   0.81238990  0.20269942  0.21368613
   0.68777718  0.62248791  0.52130963
   0.56223645  0.53617440  0.25779120
   0.81210358  0.37113850  0.43473770
   0.56268476  0.70517534  0.47856641
   0.43746459  0.29219005  0.87353113
   0.68714851  0.45550614  0.47857692
   0.18738978  0.29094702  0.74221283
   0.68721066  0.95536591  0.47869215
   0.68743275  0.61969830  0.30188258
   0.31242848  0.70267457  0.21356942
   0.68753773  0.78520706  0.12677374
   0.06257769  0.54257474  0.87357770
   0.31265665  0.70579454  0.56500687
   0.43713051  0.45629368  0.56508649
   0.06224518  0.70766860  0.69805774
   0.56230581  0.20839171  0.69806754
   0.93741751  0.62192535  0.43469509
   0.18775100  0.12396040  0.65369368
   0.06244327  0.20607054  0.56520192
   0.81254570  0.04042254  0.60979827
   0.68745137  0.95394252  0.34632693
   0.06277149  0.70516172  0.47857645
   0.56216229  0.54197499  0.74213675
   0.56266486  0.20824580  0.83116923
   0.81258688  0.20818131  0.69810093
   0.06261073  0.20831796  0.83137656
   0.81229839  0.87235321  0.52133163
   0.43744737  0.12228592  0.52137180
   0.18821240  0.45575501  0.47862582
   0.81206096  0.70514743  0.47856560
   0.43753843  0.62396246  0.65361431
   0.68776344  0.62123926  0.43478951
   0.06243699  0.20380624  0.34638594
   0.31240647  0.36840312  0.16895475
   0.18730663  0.79012012  0.60963129
   0.31220413  0.20308993  0.21369257
   0.06267265  0.37148431  0.43508593
   0.31292334  0.03627042  0.12656769
   0.81245467  0.70386961  0.34636904
   0.56236158  0.04020547  0.60974514
   0.31254979  0.37543202  0.78635331
   0.18752225  0.28662018  0.25785252
   0.06283751  0.04152651  0.74223700
   0.56259502  0.37533344  0.78644251
   0.68740692  0.28596273  0.12673291
   0.31264508  0.03637834  0.25783345
   0.68753488  0.78763700  0.39022876
   0.06260539  0.37422548  0.65358753
   0.18737402  0.95607243  0.56510178
   0.93747332  0.11903273  0.16890712
   0.93711946  0.78985798  0.60968755
   0.31242065  0.20366085  0.34638024
   0.18749371  0.11939424  0.16888159
   0.56232833  0.04230676  0.74227647
   0.81254298  0.20383374  0.34633722
   0.93744685  0.78796101  0.39018442
   0.56243123  0.20532078  0.47866622
   0.68760237  0.79008875  0.60962994
   0.18741334  0.11999110  0.30193830
   0.68759190  0.29216560  0.87356148
   0.56289679  0.53629942  0.12679831
   0.68784412  0.62516155  0.78641301
   0.43754074  0.45265441  0.21363771
   0.43758282  0.29163246  0.74221590
   0.43755391  0.11995168  0.30187999
   0.81246031  0.20835478  0.83143453
   0.18766907  0.62425600  0.65368405
   0.93746037  0.62317343  0.52125804
   0.43771594  0.45805110  0.69802517
   0.93732212  0.95751691  0.69788258
   0.56249406  0.70775803  0.69804991
   0.06225926  0.37620047  0.78627587
   0.31248235  0.87458150  0.78618207
   0.43742404  0.95543670  0.47858253
   0.56234755  0.87242997  0.52132893
   0.56251627  0.20625388  0.56509454
   0.93730714  0.12538910  0.78645276
   0.56263896  0.20381366  0.34645093
   0.56259881  0.87492128  0.78635073
   0.56275207  0.36991895  0.30196557
   0.31245992  0.53721680  0.39027440
   0.68744020  0.12013790  0.30197673
   0.93769208  0.29046926  0.60970618
   0.31318182  0.04319452  0.87339957
   0.18760244  0.28591890  0.12675511
   0.43750649  0.28639762  0.25787274
   0.93771003  0.79119766  0.87357336
   0.81230206  0.04170798  0.74221515
   0.56272022  0.86991849  0.30182968
   0.56239898  0.70380134  0.34629122
   0.31256249  0.87426263  0.65362661
   0.06226632  0.36947366  0.16897259
   0.93751382  0.28598772  0.12676145
   0.56225168  0.37335483  0.65350655
   0.68753274  0.11953406  0.16888034
   0.68744725  0.79182576  0.74233776
   0.06252172  0.20267490  0.21365450
   0.81238765  0.70852635  0.83115775
   0.93785167  0.95637988  0.56495659
   0.18784397  0.95536464  0.47859447
   0.06232368  0.54030740  0.60970174
   0.56236023  0.54004384  0.60970645
   0.93862543  0.95894364  0.83135081
   0.68721432  0.45625455  0.56508540
   0.81249783  0.86989892  0.30193821
   0.31298017  0.86928831  0.16891546
   0.43816115  0.79111297  0.87329558
   0.68745581  0.79136844  0.87330250
   0.31253457  0.70809365  0.69803029
   0.56287627  0.20278114  0.21372639
   0.43780333  0.95792625  0.69784072
   0.06259849  0.87580456  0.78637043
   0.18774465  0.12168166  0.43476353
   0.93752010  0.95384795  0.34633329
   0.81263370  0.20655465  0.56521267
   0.18754876  0.61990297  0.30191380
   0.93757496  0.95274073  0.21364369
   0.18808661  0.45606699  0.56513983
   0.68745026  0.95891044  0.83114488
   0.31258315  0.37142764  0.43477938
   0.81249958  0.53614178  0.25785693
   0.56254422  0.87414793  0.65365137
   0.43738736  0.62248822  0.52126132
   0.06252084  0.87429801  0.65358586
   0.31252445  0.04196750  0.74222527
   0.93738285  0.29120819  0.74228299
   0.43764650  0.78607127  0.25780956
   0.31255132  0.54214039  0.87345887
   0.31223297  0.20533346  0.47865649
   0.56238033  0.03759768  0.39032288
   0.06234627  0.87169747  0.43488349
   0.31255495  0.54171481  0.74221598
   0.81155484  0.04340435  0.87335802
   0.56262141  0.70253948  0.21357387
   0.93775097  0.12426249  0.65369208
   0.43759307  0.45370299  0.34632509
   0.93730993  0.45774776  0.69802873
   0.68728450  0.95276341  0.21366614
   0.31256726  0.20790219  0.69801265
   0.18712032  0.61904233  0.16888411
   0.81283640  0.20513144  0.47861142
   0.43764046  0.78734923  0.39023121
   0.81278234  0.37554525  0.78636729
   0.93780167  0.79135046  0.74212899
   0.81242652  0.87462457  0.78620215
   0.18672822  0.95946660  0.83135883
   0.31266838  0.54048722  0.60978039
   0.93757938  0.12148195  0.43477339
   0.81269977  0.53756563  0.39017721
   0.68760705  0.12254990  0.52136561
   0.31251705  0.70378205  0.34629951
   0.06238082  0.53597912  0.12673514
   0.56253792  0.54232355  0.87342078
   0.81260343  0.36984026  0.16888607
   0.68730217  0.95793260  0.69804212
   0.93752597  0.78578368  0.12670866
   0.18783137  0.12236671  0.52136926
   0.43776199  0.95900001  0.83122277
   0.43749500  0.12163910  0.43489722
   0.06276425  0.53629957  0.25781576
   0.68773740  0.45835304  0.69784868
   0.81241071  0.54207585  0.87341126
   0.81313255  0.03608334  0.12678395
   0.81257703  0.86899553  0.16889769
   0.93755996  0.45632594  0.56481960
   0.68756452  0.45820433  0.83116960
   0.93722757  0.62510377  0.78630648
   0.18748886  0.28763829  0.39012968
   0.81251686  0.70289015  0.21368962
   0.06267257  0.70380302  0.34627884
   0.81187883  0.37198107  0.52128460
   0.06241391  0.20760210  0.69801814
   0.93765882  0.28789407  0.39025061
   0.43768290  0.12536729  0.78639539
   0.68747601  0.28613167  0.25780261
   0.31226741  0.20837445  0.83143299
   0.93754892  0.95541909  0.47860126
   0.56270267  0.36852946  0.16892497
   0.68753717  0.29158460  0.74219593
   0.18726838  0.78541387  0.12679741
   0.06275826  0.53742909  0.39021314
   0.43768739  0.78633274  0.12675112
   0.31227595  0.20642643  0.56507693
   0.68716630  0.12391518  0.65370775
   0.31250367  0.36995970  0.30195202
   0.18750640  0.45267303  0.21367935
   0.31302161  0.70820116  0.83123635
   0.43739603  0.95215605  0.21370973
   0.06226785  0.86993055  0.30182266
   0.43743245  0.62144406  0.43484201
   0.81233513  0.87412605  0.65362173
   0.31241208  0.70539986  0.47856939
   0.43773171  0.79006038  0.60969068
   0.68746458  0.45267148  0.21369558
   0.43745882  0.28553623  0.12660765
   0.06253116  0.20453492  0.47870733
   0.06250918  0.54150931  0.74219934
   0.31211609  0.53620332  0.12679879
   0.93745363  0.45959594  0.83117133
   0.31253031  0.87142851  0.43478030
   0.43748068  0.61877761  0.16891386
   0.56248007  0.37136821  0.43484730
   0.68735490  0.45394187  0.34629699
   0.43718935  0.12402713  0.65369901
   0.18754356  0.45378309  0.34627783
   0.56187064  0.86915433  0.16879239
   0.06249740  0.87242039  0.52127397
   0.31253612  0.03736741  0.39023506
   0.56255006  0.87145058  0.43487697
   0.18876725  0.29163002  0.87343047
   0.06227193  0.36988284  0.30191102
   0.93706916  0.12249049  0.52139722
   0.43746568  0.61994580  0.30191071
   0.81244164  0.70786933  0.69801713
   0.93753288  0.28606407  0.25782688
   0.06266288  0.03791788  0.39028650
   0.31240121  0.04026943  0.60972066
   0.06278298  0.03617043  0.25781314
   0.56213727  0.53758634  0.39019487
   0.18732363  0.29065158  0.60966032
   0.43733334  0.79192089  0.74224498
   0.43740959  0.45526068  0.47858813
   0.56210452  0.03624537  0.12656774
   0.31255780  0.37392727  0.65360465
   0.06183126  0.03617017  0.12677048
   0.18745827  0.46000155  0.83110966
   0.18752179  0.79201753  0.74228264
   0.93761839  0.12024198  0.30192469
   0.18757776  0.95367711  0.34633020
   0.93749779  0.45275522  0.21364619
   0.56216614  0.70875381  0.83126484
   0.81258199  0.53566627  0.12674402
   0.06237440  0.70592296  0.56510422
   0.18738890  0.78617649  0.25779652
   0.06242532  0.70259619  0.21361641
   0.06250059  0.04033001  0.60976825
   0.81255318  0.87146615  0.43487968
   0.18738516  0.62152968  0.43471773
   0.18777438  0.62503020  0.78635028
   0.56272611  0.04208990  0.87343875
   0.18744121  0.78733128  0.39022335
   0.31253546  0.53633916  0.25785533
   0.31277458  0.87241027  0.52131018
   0.81232638  0.54021833  0.60979218
   0.18683246  0.79052274  0.87358928
   0.93758141  0.61970525  0.30188492
   0.68728833  0.62356374  0.65365612
   0.93623394  0.29233110  0.87338564
   0.68775767  0.61939706  0.16894089
   0.43758639  0.28768171  0.39020004
   0.56243786  0.37254106  0.52135252
   0.43721032  0.95616156  0.56510350
   0.68738520  0.28991470  0.60970746
   0.18779300  0.95263745  0.21366284
   0.81247601  0.37396741  0.65366333
   0.31277607  0.37216700  0.52137843
   0.81249359  0.37003464  0.30179623
   0.43763317  0.45842335  0.83121496
   0.56204370  0.03628137  0.25784508
   0.06260634  0.86879952  0.16879164
   0.68723216  0.12161156  0.43489086
   0.18721983  0.45800945  0.69790075
   0.81253742  0.70635174  0.56519470
   0.68735007  0.28747917  0.39020535
   0.93745092  0.78617633  0.25781180
   0.81257418  0.03613235  0.25773232
   0.93741716  0.45536127  0.47865786
   0.68751134  0.12509620  0.78604888
   0.31251389  0.86984651  0.30189888
   0.68738684  0.95631115  0.56513902
   0.06280108  0.70979384  0.83203026
   0.06293722  0.04191919  0.87318281
   0.81254594  0.03783134  0.39014168
   0.93740401  0.62403840  0.65355041
   0.18759170  0.95806910  0.69798884
   0.18737045  0.12488361  0.78622272
   0.81275087  0.54172143  0.74236717
   0.43751830  0.11900466  0.16824734
   0.43723953  0.62489773  0.78615540
   0.06261959  0.37237079  0.52122762
Direct configuration=     3
   0.93766549  0.61952819  0.16901692
   0.68755142  0.78617896  0.25779351
   0.18723151  0.62275575  0.52129680
   0.56219976  0.70624629  0.56508445
   0.43741345  0.29015466  0.60974636
   0.93758533  0.45397782  0.34637502
   0.43748914  0.95372112  0.34634023
   0.81238984  0.20269985  0.21368609
   0.68777700  0.62248809  0.52130951
   0.56223636  0.53617485  0.25779114
   0.81210347  0.37113854  0.43473774
   0.56268493  0.70517537  0.47856637
   0.43746457  0.29218958  0.87353123
   0.68714878  0.45550620  0.47857690
   0.18738971  0.29094659  0.74221291
   0.68721044  0.95536590  0.47869209
   0.68743268  0.61969856  0.30188249
   0.31242860  0.70267496  0.21356938
   0.68753769  0.78520730  0.12677379
   0.06257776  0.54257511  0.87357780
   0.31265678  0.70579473  0.56500676
   0.43713053  0.45629352  0.56508638
   0.06224511  0.70766815  0.69805781
   0.56230586  0.20839126  0.69806762
   0.93741735  0.62192508  0.43469515
   0.18775088  0.12396018  0.65369375
   0.06244315  0.20607036  0.56520187
   0.81254587  0.04042236  0.60979826
   0.68745135  0.95394287  0.34632682
   0.06277145  0.70516148  0.47857645
   0.56216239  0.54197444  0.74213685
   0.56266488  0.20824537  0.83116939
   0.81258689  0.20818094  0.69810101
   0.06261078  0.20831751  0.83137671
   0.81229834  0.87235304  0.52133154
   0.43744748  0.12228584  0.52137168
   0.18821242  0.45575518  0.47862576
   0.81206078  0.70514721  0.47856560
   0.43753853  0.62396201  0.65361439
   0.68776317  0.62123918  0.43478952
   0.06243716  0.20380649  0.34638581
   0.31240658  0.36840324  0.16895478
   0.18730657  0.79012010  0.60963133
   0.31220419  0.20309017  0.21369256
   0.06267257  0.37148431  0.43508596
   0.31292349  0.03627086  0.12656773
   0.81245457  0.70386965  0.34636892
   0.56236169  0.04020527  0.60974514
   0.31254981  0.37543162  0.78635335
   0.18752216  0.28662063  0.25785247
   0.06283746  0.04152620  0.74223710
   0.56259485  0.37533298  0.78644254
   0.68740679  0.28596306  0.12673292
   0.31264509  0.03637856  0.25783343
   0.68753482  0.78763722  0.39022869
   0.06260534  0.37422520  0.65358762
   0.18737391  0.95607250  0.56510168
   0.93747326  0.11903318  0.16890713
   0.93711946  0.78985793  0.60968755
   0.31242074  0.20366133  0.34638009
   0.18749397  0.11939442  0.16888163
   0.56232832  0.04230630  0.74227661
   0.81254285  0.20383408  0.34633711
   0.93744670  0.78796118  0.39018436
   0.56243108  0.20532084  0.47866617
   0.68760249  0.79008852  0.60962996
   0.18741354  0.11999132  0.30193819
   0.68759178  0.29216531  0.87356158
   0.56289698  0.53629932  0.12679835
   0.68784409  0.62516124  0.78641311
   0.43754073  0.45265481  0.21363766
   0.43758281  0.29163216  0.74221604
   0.43755374  0.11995185  0.30187987
   0.81246032  0.20835413  0.83143470
   0.18766891  0.62425577  0.65368413
   0.93746041  0.62317351  0.52125790
   0.43771598  0.45805063  0.69802525
   0.93732216  0.95751652  0.69788264
   0.56249404  0.70775758  0.69804999
   0.06225920  0.37620009  0.78627588
   0.31248235  0.87458120  0.78618217
   0.43742418  0.95543695  0.47858250
   0.56234750  0.87242979  0.52132882
   0.56251632  0.20625384  0.56509442
   0.93730722  0.12538850  0.78645284
   0.56263876  0.20381407  0.34645080
   0.56259887  0.87492098  0.78635082
   0.56275206  0.36991914  0.30196550
   0.31246020  0.53721665  0.39027435
   0.68744017  0.12013824  0.30197661
   0.93769212  0.29046914  0.60970620
   0.31318234  0.04319350  0.87339972
   0.18760245  0.28591907  0.12675510
   0.43750649  0.28639804  0.25787268
   0.93770981  0.79119748  0.87357348
   0.81230221  0.04170767  0.74221528
   0.56271984  0.86991877  0.30182956
   0.56239907  0.70380153  0.34629110
   0.31256245  0.87426249  0.65362668
   0.06226619  0.36947382  0.16897257
   0.93751380  0.28598824  0.12676141
   0.56225181  0.37335489  0.65350664
   0.68753244  0.11953444  0.16888035
   0.68744721  0.79182539  0.74233789
   0.06252172  0.20267534  0.21365445
   0.81238761  0.70852654  0.83115793
   0.93785157  0.95637992  0.56495652
   0.18784386  0.95536466  0.47859445
   0.06232359  0.54030724  0.60970170
   0.56236044  0.54004372  0.60970648
   0.93862516  0.95894339  0.83135096
   0.68721441  0.45625460  0.56508533
   0.81249781  0.86989935  0.30193807
   0.31298022  0.86928863  0.16891555
   0.43816100  0.79111318  0.87329572
   0.68745591  0.79136870  0.87330266
   0.31253455  0.70809309  0.69803036
   0.56287628  0.20278165  0.21372638
   0.43780322  0.95792576  0.69784081
   0.06259833  0.87580399  0.78637053
   0.18774486  0.12168178  0.43476352
   0.93752002  0.95384833  0.34633316
   0.81263378  0.20655463  0.56521257
   0.18754884  0.61990330  0.30191369
   0.93757494  0.95274108  0.21364370
   0.18808661  0.45606719  0.56513976
   0.68745028  0.95890999  0.83114506
   0.31258341  0.37142759  0.43477935
   0.81249959  0.53614220  0.25785683
   0.56254439  0.87414767  0.65365147
   0.43738737  0.62248832  0.52126123
   0.06252084  0.87429811  0.65358591
   0.31252428  0.04196688  0.74222538
   0.93738283  0.29120775  0.74228307
   0.43764632  0.78607181  0.25780952
   0.31255139  0.54214053  0.87345896
   0.31223320  0.20533364  0.47865643
   0.56238066  0.03759817  0.39032283
   0.06234632  0.87169763  0.43488354
   0.31255487  0.54171446  0.74221608
   0.81155455  0.04340348  0.87335816
   0.56262138  0.70254002  0.21357382
   0.93775091  0.12426230  0.65369216
   0.43759303  0.45370314  0.34632499
   0.93730988  0.45774721  0.69802877
   0.68728449  0.95276378  0.21366610
   0.31256723  0.20790205  0.69801272
   0.18712025  0.61904261  0.16888413
   0.81283642  0.20513192  0.47861137
   0.43764053  0.78734924  0.39023118
   0.81278246  0.37554488  0.78636731
   0.93780160  0.79135002  0.74212910
   0.81242657  0.87462399  0.78620224
   0.18672836  0.95946625  0.83135895
   0.31266829  0.54048713  0.60978041
   0.93757915  0.12148189  0.43477340
   0.81269955  0.53756561  0.39017712
   0.68760689  0.12254994  0.52136551
   0.31251711  0.70378219  0.34629932
   0.06238067  0.53597914  0.12673512
   0.56253792  0.54232377  0.87342089
   0.81260330  0.36984048  0.16888603
   0.68730226  0.95793217  0.69804220
   0.93752611  0.78578372  0.12670868
   0.18783148  0.12236657  0.52136918
   0.43776202  0.95899967  0.83122295
   0.43749507  0.12163917  0.43489720
   0.06276436  0.53630010  0.25781570
   0.68773741  0.45835244  0.69784878
   0.81241066  0.54207588  0.87341135
   0.81313245  0.03608391  0.12678398
   0.81257686  0.86899580  0.16889771
   0.93755987  0.45632607  0.56481959
   0.68756450  0.45820419  0.83116972
   0.93722761  0.62510348  0.78630652
   0.18748911  0.28763849  0.39012960
   0.81251683  0.70289061  0.21368956
   0.06267254  0.70380309  0.34627868
   0.81187873  0.37198101  0.52128444
   0.06241383  0.20760185  0.69801821
   0.93765864  0.28789420  0.39025051
   0.43768288  0.12536683  0.78639542
   0.68747609  0.28613192  0.25780255
   0.31226748  0.20837386  0.83143317
   0.93754892  0.95541922  0.47860124
   0.56270276  0.36852967  0.16892495
   0.68753717  0.29158413  0.74219604
   0.18726834  0.78541424  0.12679742
   0.06275835  0.53742910  0.39021304
   0.43768734  0.78633327  0.12675118
   0.31227584  0.20642639  0.56507681
   0.68716639  0.12391490  0.65370781
   0.31250359  0.36995994  0.30195194
   0.18750643  0.45267336  0.21367929
   0.31302167  0.70820128  0.83123658
   0.43739604  0.95215640  0.21370972
   0.06226832  0.86993085  0.30182252
   0.43743249  0.62144387  0.43484200
   0.81233512  0.87412614  0.65362178
   0.31241208  0.70539984  0.47856938
   0.43773177  0.79006038  0.60969068
   0.68746466  0.45267192  0.21369548
   0.43745895  0.28553609  0.12660771
   0.06253102  0.20453502  0.47870728
   0.06250907  0.54150871  0.74219946
   0.31211599  0.53620331  0.12679884