unknown system                          
           1
     9.726678    0.000000    0.000000
     0.000000    8.423550    0.000000
     0.000000    0.000000   45.000000
   Fe   Mn
 281   7
Direct configuration=     1
   0.06254846  0.03288623  0.12451786
   0.81445949  0.04262284  0.87567624
   0.19575771  0.12489264  0.78846017
   0.43366141  0.28749251  0.38907355
   0.31759955  0.36151437  0.16678689
   0.80897642  0.21329767  0.83318924
   0.18350402  0.78728096  0.38903618
   0.56382986  0.20757108  0.56542483
   0.06052320  0.04218804  0.74416233
   0.81333153  0.87194205  0.52126718
   0.18566580  0.29195360  0.74412196
   0.94135942  0.45180370  0.34491631
   0.93382665  0.28716943  0.38894949
   0.43832366  0.62220121  0.52130924
   0.18773585  0.79195149  0.61083551
   0.55861405  0.03757641  0.38885981
   0.93332816  0.96367953  0.83311777
   0.31421472  0.54259534  0.87555132
   0.68559937  0.29149624  0.74406038
   0.19169335  0.61214664  0.16687180
   0.81316218  0.20563543  0.47853974
   0.81271022  0.54173718  0.61084210
   0.31336855  0.87078128  0.43438166
   0.81545931  0.03519485  0.25598022
   0.69135912  0.95188053  0.34498520
   0.94191183  0.11267428  0.16684825
   0.93863145  0.12225680  0.52131088
   0.56542322  0.53538119  0.25602824
   0.69250777  0.79605474  0.87562915
   0.56715839  0.36252017  0.16697353
   0.43585402  0.79178389  0.74414388
   0.81414024  0.70768894  0.56541067
   0.57037968  0.87426374  0.78837392
   0.68853133  0.12209964  0.52127567
   0.19036641  0.28526062  0.25600457
   0.93361370  0.46328489  0.83302268
   0.06540013  0.20844591  0.69969206
   0.80859845  0.03735858  0.38905776
   0.30894997  0.21388073  0.83329293
   0.43403169  0.62597935  0.65495345
   0.31269584  0.54183924  0.61084909
   0.93890482  0.45745737  0.56541891
   0.68565481  0.79189546  0.74416287
   0.30889380  0.87559487  0.65493164
   0.68371937  0.78763763  0.38906981
   0.93573653  0.79185955  0.74414790
   0.06575261  0.20264531  0.34507423
   0.43720386  0.78178422  0.12447358
   0.44542574  0.12495632  0.78856961
   0.05498599  0.20289736  0.21183187
   0.06734022  0.36157769  0.16688045
   0.94044591  0.78528672  0.25602994
   0.56578773  0.20827941  0.69971854
   0.69054502  0.95836813  0.69969061
   0.68365954  0.28753982  0.38908017
   0.43875831  0.95778158  0.56544999
   0.82060801  0.37445156  0.78841117
   0.69043871  0.28514695  0.25598929
   0.18881869  0.45757092  0.56543111
   0.06799826  0.86251696  0.16681242
   0.18789461  0.29172421  0.61078951
   0.56607721  0.70192383  0.34489925
   0.31535085  0.20842253  0.69966956
   0.56507617  0.54186045  0.87561001
   0.06367243  0.70780347  0.56545100
   0.69548407  0.62453246  0.78848688
   0.30850156  0.53775921  0.38908128
   0.18846701  0.62209791  0.52132422
   0.56269251  0.87040251  0.43440523
   0.43873983  0.45773360  0.56543716
   0.43579307  0.29188376  0.74413429
   0.80419651  0.87239448  0.30019485
   0.81669506  0.70236156  0.34498052
   0.43377011  0.46367205  0.83320539
   0.68783856  0.95593447  0.47863955
   0.69059581  0.45837751  0.69967993
   0.56329982  0.87202644  0.52133341
   0.55883106  0.37566361  0.65493467
   0.80877177  0.87562748  0.65492914
   0.81273762  0.37041515  0.43448307
   0.81549567  0.53530037  0.25603420
   0.68355541  0.46312517  0.83306849
   0.18672648  0.78221664  0.12436254
   0.06416672  0.04269205  0.87556225
   0.30892872  0.37574381  0.65493014
   0.31630662  0.20203248  0.34488531
   0.81058663  0.54219919  0.74413373
   0.68389702  0.96345882  0.83315433
   0.55887555  0.87570712  0.65490353
   0.31389140  0.70779488  0.56554116
   0.31249103  0.53333767  0.12447677
   0.68020429  0.95288578  0.21181566
   0.31392450  0.20781697  0.56553697
   0.31069094  0.54237496  0.74419679
   0.68885756  0.95765961  0.56543487
   0.43760951  0.79200507  0.61086761
   0.69202265  0.61232835  0.16695763
   0.30373919  0.87203666  0.30033279
   0.31244181  0.70560175  0.47866070
   0.93795425  0.29167923  0.61077612
   0.42873279  0.62208889  0.30031997
   0.81670181  0.86226662  0.16685031
   0.55544700  0.20226017  0.21158010
   0.94173008  0.61247674  0.16685626
   0.94008358  0.79515004  0.87564479
   0.57087768  0.37444385  0.78840037
   0.06344378  0.37234355  0.52136088
   0.56342585  0.37222713  0.52129151
   0.67928036  0.12185413  0.30026773
   0.43275462  0.96297928  0.83320418
   0.18738391  0.28194835  0.12458545
   0.82068641  0.87437782  0.78835752
   0.31287249  0.37095449  0.43442788
   0.93791374  0.79178055  0.61075443
   0.43793297  0.29176475  0.61077215
   0.19158925  0.45165031  0.34495499
   0.43721446  0.28225537  0.12443186
   0.69000756  0.78540580  0.25599930
   0.19045489  0.95844554  0.69968165
   0.19072954  0.29607708  0.87577722
   0.18386559  0.12583651  0.65492359
   0.93404551  0.12602066  0.65494970
   0.30565296  0.20302762  0.21189484
   0.05849843  0.03737954  0.38907443
   0.44030922  0.95827009  0.69967488
   0.06271346  0.54164965  0.61088020
   0.94038317  0.28521353  0.25597610
   0.56279624  0.54175570  0.61084219
   0.93854367  0.95777038  0.56545044
   0.67907757  0.62201816  0.30016523
   0.93747414  0.61938702  0.43449696
   0.94576181  0.62473909  0.78847805
   0.56532245  0.70839578  0.69967577
   0.05870843  0.71291698  0.83321828
   0.92863245  0.12214322  0.30029973
   0.94045234  0.45838335  0.69968556
   0.44041109  0.78530046  0.25596548
   0.32068076  0.37450801  0.78842784
   0.43075180  0.45236767  0.21159980
   0.18838575  0.12249922  0.52131995
   0.81550113  0.70843388  0.69968978
   0.06286246  0.04174675  0.61078541
   0.55906157  0.21350386  0.83327179
   0.31376166  0.87191305  0.52124731
   0.68716766  0.28227149  0.12441553
   0.18051719  0.95231113  0.21154595
   0.68763589  0.29191846  0.61086716
   0.31275855  0.04191794  0.61089434
   0.94562143  0.12474224  0.78848338
   0.44070110  0.79670535  0.87574119
   0.81073884  0.04213088  0.74406148
   0.43823373  0.12186997  0.52133123
   0.18402362  0.62594812  0.65496464
   0.31540850  0.70836198  0.69966018
   0.93689551  0.28232428  0.12450834
   0.43796707  0.45588821  0.47861660
   0.06311006  0.70512092  0.47865881
   0.93855743  0.12000532  0.43428184
   0.42868451  0.12186545  0.30035439
   0.18822662  0.12038289  0.43440494
   0.56497724  0.04304995  0.87560623
   0.18896048  0.95736441  0.56524387
   0.68711549  0.78207897  0.12444419
   0.56253235  0.53264368  0.12446398
   0.30873680  0.03739187  0.38904935
   0.69249079  0.11178740  0.16695912
   0.80571838  0.20263262  0.21168378
   0.06558326  0.53534583  0.25595441
   0.56276575  0.70575164  0.47862317
   0.06386131  0.20775428  0.56551354
   0.55376831  0.37206875  0.30030906
   0.44179712  0.95210672  0.34496900
   0.18385047  0.96316365  0.83317200
   0.44233506  0.61211096  0.16678500
   0.93003258  0.45299651  0.21179857
   0.06189438  0.53322478  0.12452185
   0.81332662  0.37205380  0.52130271
   0.92886425  0.62224969  0.30030071
   0.31524308  0.03546848  0.25601789
   0.68772258  0.79184769  0.61088947
   0.18378493  0.46429735  0.83325470
   0.44204449  0.11254848  0.16683579
   0.31355881  0.37223896  0.52129589
   0.44614591  0.62447597  0.78835073
   0.06543111  0.03524066  0.25598272
   0.56369468  0.70763534  0.56540509
   0.93597508  0.29177871  0.74415961
   0.69578257  0.12475684  0.78845158
   0.18060109  0.45260341  0.21166476
   0.93366143  0.78702866  0.38895469
   0.69308436  0.29699441  0.87579581
   0.31662684  0.86241759  0.16688161
   0.44033013  0.45824259  0.69967363
   0.80885839  0.37569553  0.65492613
   0.68849612  0.62236302  0.52135325
   0.05883084  0.87581245  0.65490451
   0.07083674  0.87450509  0.78841175
   0.05884545  0.37585694  0.65490373
   0.68774918  0.45569548  0.47863648
   0.19050131  0.78525045  0.25601643
   0.43803517  0.12008625  0.43446663
   0.81144974  0.03292114  0.12449163
   0.93829291  0.62205192  0.52133679
   0.06260788  0.87107576  0.43453853
   0.81118796  0.53273682  0.12442110
   0.44140330  0.45198382  0.34497601
   0.81644084  0.20173045  0.34499835
   0.31610714  0.70165724  0.34493176
   0.68392991  0.12593088  0.65493489
   0.55377022  0.87207856  0.30034280
   0.06060506  0.54216013  0.74418074
   0.93631999  0.78146101  0.12449450
   0.80545136  0.70264701  0.21171627
   0.05414264  0.87297961  0.30011517
   0.17925433  0.12240161  0.30029953
   0.06633525  0.70190333  0.34497865
   0.81292835  0.04171832  0.61072528
   0.06307715  0.37078820  0.43445895
   0.56622426  0.20191588  0.34497203
   0.80362033  0.37200628  0.30033661
   0.43789753  0.95593656  0.47862060
   0.55841568  0.53727456  0.38906334
   0.06281251  0.20569023  0.47863985
   0.32061754  0.87468392  0.78838649
   0.94049360  0.95848454  0.69970135
   0.05403260  0.37234941  0.30024766
   0.68402307  0.62600291  0.65495719
   0.68875234  0.45764827  0.56544320
   0.43028248  0.95253886  0.21168654
   0.31290293  0.20585094  0.47859940
   0.43392948  0.12578106  0.65490315
   0.68806786  0.62044644  0.43443671
   0.81544482  0.20840074  0.69967532
   0.81294133  0.70582276  0.47865544
   0.56309131  0.37039217  0.43442962
   0.93744546  0.95589218  0.47865083
   0.56283218  0.20570051  0.47858658
   0.18846775  0.62001155  0.43422754
   0.31070218  0.04206782  0.74408637
   0.93396572  0.62598987  0.65498474
   0.55884893  0.71310763  0.83321264
   0.30370367  0.37253661  0.30027380
   0.55553922  0.70256214  0.21168516
   0.18782969  0.45568484  0.47862552
   0.31494856  0.04152187  0.87572525
   0.19037798  0.45827490  0.69966627
   0.81450247  0.54260345  0.87564143
   0.18345540  0.28800863  0.38911233
   0.43827905  0.62062352  0.43429474
   0.05556337  0.70214265  0.21156467
   0.56295817  0.03306338  0.12449019
   0.81713926  0.36253543  0.16696707
   0.80837999  0.71387571  0.83310962
   0.07079433  0.37446415  0.78840414
   0.44256555  0.29619614  0.87573349
   0.31142363  0.03292953  0.12435608
   0.68801714  0.12027153  0.43448837
   0.19129394  0.95178288  0.34498847
   0.05857780  0.21341920  0.83329041
   0.56286696  0.04174278  0.61078823
   0.68052653  0.45250583  0.21167259
   0.18591778  0.79158772  0.74415336
   0.81305664  0.87075631  0.43436836
   0.43377877  0.78766218  0.38909859
   0.44048617  0.28533200  0.25598725
   0.06440103  0.54221171  0.87565432
   0.56050342  0.04227060  0.74417267
   0.19314552  0.79664505  0.87588776
   0.93771260  0.45577508  0.47862425
   0.80874581  0.53759613  0.38907695
   0.81387065  0.20766799  0.56543546
   0.19522226  0.62469903  0.78834742
   0.93071087  0.95306193  0.21182006
   0.06545758  0.70845966  0.69967047
   0.31569156  0.53532081  0.25599438
   0.30545478  0.70245512  0.21175950
   0.56741051  0.86216707  0.16691291
   0.56074404  0.54235256  0.74411203
   0.69099330  0.45174503  0.34495478
   0.94128359  0.29655147  0.87578549
   0.56559547  0.03541164  0.25599033
   0.19313555  0.11145475  0.16629977
   0.30799557  0.71483663  0.83390039
   0.06324062  0.87195347  0.52121894
   0.17895700  0.62192965  0.30024976
   0.05808736  0.53798730  0.38905737
   0.94247345  0.95227992  0.34502136
   0.18811865  0.95592293  0.47863042
Direct configuration=     2
   0.06265481  0.03274515  0.12453917
   0.81439716  0.04293737  0.87560808
   0.19519408  0.12501444  0.78844964
   0.43390559  0.28739180  0.38913060
   0.31717347  0.36183746  0.16676737
   0.80941119  0.21310327  0.83322172
   0.18380879  0.78731429  0.38910836
   0.56374781  0.20750125  0.56546312
   0.06089577  0.04215051  0.74411884
   0.81321548  0.87208344  0.52135121
   0.18602726  0.29198942  0.74408383
   0.94080455  0.45203430  0.34493355
   0.93407075  0.28710511  0.38903036
   0.43828454  0.62233683  0.52137699
   0.18764699  0.79191413  0.61077269
   0.55887518  0.03759133  0.38895822
   0.93377362  0.96350452  0.83318727
   0.31414210  0.54301866  0.87552883
   0.68595238  0.29161964  0.74402983
   0.19140979  0.61238198  0.16684095
   0.81313742  0.20551862  0.47847627
   0.81267458  0.54171234  0.61078406
   0.31335333  0.87079487  0.43433984
   0.81493171  0.03520594  0.25598687
   0.69076075  0.95204130  0.34499293
   0.94157657  0.11294615  0.16682729
   0.93862902  0.12246668  0.52137126
   0.56493267  0.53537076  0.25603109
   0.69218417  0.79579317  0.87557937
   0.56683386  0.36283736  0.16692917
   0.43615213  0.79182813  0.74410505
   0.81406618  0.70763154  0.56546559
   0.56983385  0.87444263  0.78835727
   0.68853429  0.12230951  0.52134680
   0.18984050  0.28529394  0.25602379
   0.93404172  0.46303268  0.83310247
   0.06519527  0.20842573  0.69969708
   0.80880576  0.03734793  0.38912923
   0.30939360  0.21366476  0.83332276
   0.43432099  0.62586832  0.65494666
   0.31265967  0.54182555  0.61078688
   0.93878355  0.45739207  0.56546112
   0.68602336  0.79196585  0.74412007
   0.30921664  0.87558093  0.65493499
   0.68405636  0.78764957  0.38913016
   0.93607529  0.79191365  0.74410505
   0.06530392  0.20277783  0.34507479
   0.43730421  0.78169072  0.12453594
   0.44494915  0.12505983  0.78854530
   0.05549087  0.20280311  0.21183068
   0.06691957  0.36188402  0.16686624
   0.93994218  0.78531860  0.25601733
   0.56549733  0.20831094  0.69972128
   0.69029282  0.95837013  0.69969393
   0.68392801  0.28745122  0.38914157
   0.43872282  0.95770858  0.56550504
   0.82006787  0.37460423  0.78838562
   0.68992209  0.28520626  0.25601228
   0.18874871  0.45750775  0.56547201
   0.06754399  0.86273571  0.16677712
   0.18781579  0.29167163  0.61073679
   0.56560254  0.70206424  0.34492905
   0.31515247  0.20841416  0.69967872
   0.56487544  0.54234764  0.87554281
   0.06359660  0.70760823  0.56551426
   0.69494746  0.62469214  0.78845697
   0.30883742  0.53772704  0.38914492
   0.18853130  0.62231795  0.52139349
   0.56269109  0.87048330  0.43437499
   0.43867789  0.45764785  0.56548264
   0.43611960  0.29192945  0.74409818
   0.80477045  0.87218090  0.30021173
   0.81605350  0.70254107  0.34500153
   0.43420559  0.46351054  0.83324530
   0.68783277  0.95571903  0.47855727
   0.69033470  0.45839074  0.69968590
   0.56329625  0.87223414  0.52139833
   0.55914498  0.37563026  0.65493559
   0.80910054  0.87562702  0.65493084
   0.81273624  0.37049573  0.43444111
   0.81494693  0.53533585  0.25604423
   0.68398440  0.46290198  0.83313730
   0.18686867  0.78222782  0.12442498
   0.06406760  0.04313473  0.87549603
   0.30924859  0.37572334  0.65492785
   0.31574750  0.20225720  0.34491256
   0.81093217  0.54215853  0.74408899
   0.68425978  0.96333845  0.83321373
   0.55920786  0.87566365  0.65490457
   0.31374315  0.70767518  0.56559042
   0.31260093  0.53316025  0.12453579
   0.68071686  0.95272083  0.21180995
   0.31386890  0.20774127  0.56557950
   0.31104383  0.54231892  0.74414187
   0.68875756  0.95759640  0.56547720
   0.43757573  0.79195627  0.61080234
   0.69169195  0.61262745  0.16692155
   0.30445650  0.87182988  0.30032892
   0.31249889  0.70542968  0.47857592
   0.93786719  0.29164971  0.61072878
   0.42946944  0.62189325  0.30031471
   0.81643259  0.86245226  0.16682347
   0.55591261  0.20216887  0.21161841
   0.94136763  0.61271729  0.16681482
   0.93995343  0.79502749  0.87558158
   0.57028964  0.37459328  0.78836517
   0.06341975  0.37241913  0.52142022
   0.56338833  0.37236649  0.52136487
   0.67986216  0.12167233  0.30027993
   0.43324283  0.96286066  0.83326247
   0.18746536  0.28191788  0.12458348
   0.82013095  0.87454032  0.78833229
   0.31284028  0.37100192  0.43440160
   0.93787081  0.79177058  0.61070050
   0.43786686  0.29174520  0.61072141
   0.19109788  0.45179683  0.34498040
   0.43726607  0.28216519  0.12448365
   0.68955161  0.78536156  0.25600078
   0.19021876  0.95845047  0.69968968
   0.19056892  0.29575228  0.87570214
   0.18419523  0.12578519  0.65492433
   0.93432991  0.12592748  0.65493947
   0.30615586  0.20284734  0.21188520
   0.05883600  0.03730699  0.38913786
   0.44011520  0.95832559  0.69968140
   0.06265636  0.54162341  0.61082223
   0.93983145  0.28532834  0.25597557
   0.56274198  0.54173696  0.61077939
   0.93841998  0.95770733  0.56551163
   0.67965439  0.62182638  0.30018516
   0.93749449  0.61959531  0.43445460
   0.94521893  0.62489219  0.78845690
   0.56513269  0.70839586  0.69967723
   0.05915373  0.71276261  0.83325724
   0.92922653  0.12200092  0.30029806
   0.94023458  0.45841611  0.69969421
   0.43984758  0.78531440  0.25597935
   0.32011957  0.37469304  0.78840724
   0.43119711  0.45225788  0.21162487
   0.18834667  0.12275728  0.52137695
   0.81527138  0.70844778  0.69969567
   0.06280193  0.04167568  0.61073143
   0.55956217  0.21331683  0.83331051
   0.31379398  0.87199563  0.52133091
   0.68728354  0.28218838  0.12448015
   0.18096098  0.95223326  0.21158328
   0.68760942  0.29188178  0.61080260
   0.31273940  0.04188649  0.61084103
   0.94507537  0.12487342  0.78845838
   0.44053505  0.79633230  0.87570137
   0.81106581  0.04210441  0.74403630
   0.43817166  0.12213537  0.52139140
   0.18432423  0.62585874  0.65495783
   0.31518443  0.70837141  0.69966956
   0.93705726  0.28225253  0.12456455
   0.43801761  0.45577163  0.47853594
   0.06306000  0.70498557  0.47857560
   0.93844493  0.12017977  0.43425035
   0.42943453  0.12168503  0.30035114
   0.18822956  0.12063758  0.43436064
   0.56484392  0.04349804  0.87553471
   0.18886863  0.95734957  0.56527917
   0.68718343  0.78206307  0.12449695
   0.56258583  0.53252530  0.12451465
   0.30907139  0.03739551  0.38912221
   0.69212763  0.11210857  0.16690961
   0.80616157  0.20249923  0.21170375
   0.06506147  0.53538204  0.25595637
   0.56274436  0.70560566  0.47854331
   0.06375992  0.20764327  0.56556319
   0.55441775  0.37181899  0.30029731
   0.44121411  0.95221885  0.34498184
   0.18431842  0.96308495  0.83323198
   0.44205216  0.61239379  0.16674722
   0.93058605  0.45273673  0.21179385
   0.06196146  0.53302779  0.12457392
   0.81324265  0.37222172  0.52137121
   0.92946365  0.62206741  0.30030413
   0.31473645  0.03548106  0.25602767
   0.68767712  0.79180933  0.61082094
   0.18417970  0.46401625  0.83330315
   0.44175601  0.11280065  0.16679754
   0.31356791  0.37236795  0.52137422
   0.44555813  0.62460845  0.78833311
   0.06494053  0.03529709  0.25598865
   0.56361886  0.70756942  0.56545058
   0.93627687  0.29183423  0.74411871
   0.69521428  0.12487332  0.78842917
   0.18107158  0.45243980  0.21167583
   0.93385233  0.78708994  0.38903537
   0.69260338  0.29662553  0.87572890
   0.31631209  0.86258071  0.16684527
   0.44014152  0.45825570  0.69968246
   0.80918884  0.37566808  0.65491785
   0.68846603  0.62241736  0.52141134
   0.05914375  0.87575563  0.65489913
   0.07025385  0.87465167  0.78838331
   0.05916527  0.37582918  0.65490252
   0.68776370  0.45559520  0.47855848
   0.18998073  0.78525572  0.25601026
   0.43794793  0.12024058  0.43442196
   0.81157409  0.03282080  0.12454815
   0.93818855  0.62222726  0.52140697
   0.06261455  0.87094367  0.43453332
   0.81141681  0.53258218  0.12448319
   0.44081451  0.45213724  0.34498870
   0.81581812  0.20194473  0.34500757
   0.31557062  0.70185002  0.34496241
   0.68426884  0.12583232  0.65492370
   0.55442354  0.87192674  0.30034515
   0.06096198  0.54210991  0.74413544
   0.93652371  0.78140437  0.12454993
   0.80593555  0.70250929  0.21173111
   0.05472574  0.87270366  0.30013794
   0.17982989  0.12217521  0.30030460
   0.06582030  0.70207535  0.34498138
   0.81282295  0.04171106  0.61069445
   0.06303556  0.37078385  0.43444145
   0.56568512  0.20216763  0.34498572
   0.80427525  0.37178492  0.30032511
   0.43799810  0.95581852  0.47853459
   0.55872738  0.53728769  0.38912255
   0.06272277  0.20550322  0.47857141
   0.32007049  0.87486620  0.78835144
   0.94026613  0.95847147  0.69970609
   0.05465110  0.37212243  0.30026522
   0.68432228  0.62590551  0.65494967
   0.68866933  0.45758537  0.56549030
   0.43076257  0.95242065  0.21171010
   0.31303088  0.20568143  0.47851002
   0.43421596  0.12571416  0.65489378
   0.68804578  0.62053203  0.43440660
   0.81523348  0.20841562  0.69967818
   0.81298490  0.70570739  0.47858482
   0.56303776  0.37049985  0.43439122
   0.93738670  0.95585003  0.47855775
   0.56280295  0.20558623  0.47850964
   0.18834825  0.62021286  0.43421766
   0.31103292  0.04206944  0.74405454
   0.93426564  0.62588904  0.65497666
   0.55931644  0.71290433  0.83324375
   0.30442919  0.37226584  0.30026745
   0.55599645  0.70245992  0.21171271
   0.18785249  0.45559286  0.47855244
   0.31477837  0.04206039  0.87565506
   0.19016625  0.45830526  0.69967163
   0.81441152  0.54299170  0.87556055
   0.18379216  0.28792663  0.38917336
   0.43818156  0.62071170  0.43429107
   0.05600568  0.70212207  0.21159026
   0.56304202  0.03293948  0.12455540
   0.81681356  0.36283179  0.16693612
   0.80888229  0.71364134  0.83316440
   0.07022012  0.37461964  0.78837899
   0.44222683  0.29590956  0.87567597
   0.31155915  0.03280761  0.12438359
   0.68796921  0.12039984  0.43445380
   0.19081072  0.95200695  0.34500399
   0.05898138  0.21327171  0.83333329
   0.56279416  0.04171854  0.61073333
   0.68097997  0.45236863  0.21169439
   0.18625095  0.79170226  0.74410893
   0.81295824  0.87070829  0.43433076
   0.43406546  0.78767732  0.38915070
   0.43995452  0.28534813  0.25599474
   0.06435439  0.54265557  0.87558961
   0.56084394  0.04222162  0.74413252
   0.19272393  0.79626059  0.87584908
   0.93765627  0.45559971  0.47854696
   0.80895058  0.53754336  0.38913636
   0.81375088  0.20757567  0.56547322
   0.19472536  0.62481201  0.78834656
   0.93121743  0.95283630  0.21181233
   0.06522360  0.70846340  0.69967377
   0.31517915  0.53530595  0.25599133
   0.30595534  0.70232804  0.21176545
   0.56702084  0.86239908  0.16687315
   0.56106055  0.54224808  0.74407527
   0.69043514  0.45198344  0.34497249
   0.94110276  0.29627867  0.87571622
   0.56503316  0.03542385  0.25600477
   0.19272502  0.11174315  0.16628991
   0.30845781  0.71448263  0.83391371
   0.06326231  0.87211278  0.52128374
   0.17949065  0.62181282  0.30024345
   0.05839687  0.53791358  0.38910528
   0.94180192  0.95239011  0.34503507
   0.18803803  0.95574941  0.47856787
Direct configuration=     3
   0.06297387  0.03232190  0.12460310
   0.81421019  0.04388095  0.87540358
   0.19350318  0.12537985  0.78841804
   0.43463811  0.28708968  0.38930174
   0.31589522  0.36280674  0.16670879
   0.81071552  0.21252005  0.83331916
   0.18472309  0.78741427  0.38932488
   0.56350167  0.20729177  0.56557797
   0.06201349  0.04203789  0.74398834
   0.81286734  0.87250760  0.52160329
   0.18711164  0.29209689  0.74396944
   0.93913994  0.45272608  0.34498527
   0.93480304  0.28691215  0.38927296
   0.43816719  0.62274368  0.52158022
   0.18738041  0.79180204  0.61058423
   0.55965857  0.03763612  0.38925343
   0.93511000  0.96297951  0.83339574
   0.31392425  0.54428863  0.87546134
   0.68701141  0.29198986  0.74393818
   0.19055913  0.61308801  0.16674841
   0.81306312  0.20516817  0.47828585
   0.81256764  0.54163783  0.61060993
   0.31330768  0.87083566  0.43421439
   0.81334893  0.03523919  0.25600681
   0.68896562  0.95252360  0.34501612
   0.94057080  0.11376177  0.16676444
   0.93862173  0.12309632  0.52155237
   0.56346101  0.53533947  0.25603963
   0.69121335  0.79500844  0.87543004
   0.56586027  0.36378892  0.16679609
   0.43704645  0.79196085  0.74398857
   0.81384401  0.70745932  0.56563037
   0.56819633  0.87497929  0.78830732
   0.68854318  0.12293911  0.52156017
   0.18826277  0.28539390  0.25608146
   0.93532577  0.46227605  0.83334181
   0.06458071  0.20836519  0.69971214
   0.80942771  0.03731597  0.38934363
   0.31072447  0.21301683  0.83341226
   0.43518891  0.62553526  0.65492629
   0.31255116  0.54178448  0.61060026
   0.93841976  0.45719617  0.56558775
   0.68712901  0.79217701  0.74399168
   0.31018517  0.87553910  0.65494503
   0.68506734  0.78768538  0.38931121
   0.93709156  0.79207595  0.74397651
   0.06395788  0.20317539  0.34507647
   0.43760527  0.78141022  0.12472302
   0.44351940  0.12537037  0.78847236
   0.05700552  0.20252038  0.21182712
   0.06565759  0.36280303  0.16682361
   0.93843099  0.78541423  0.25597947
   0.56462613  0.20840553  0.69972953
   0.68953623  0.95837616  0.69970390
   0.68473340  0.28718542  0.38932576
   0.43861633  0.95748957  0.56567022
   0.81844745  0.37506224  0.78830895
   0.68837223  0.28538419  0.25608126
   0.18853876  0.45731824  0.56559470
   0.06618116  0.86339195  0.16667122
   0.18757936  0.29151388  0.61057860
   0.56417854  0.70248544  0.34501847
   0.31455734  0.20838905  0.69970619
   0.56427324  0.54380920  0.87534119
   0.06336912  0.70702249  0.56570405
   0.69333764  0.62517118  0.78836725
   0.30984500  0.53763055  0.38933583
   0.18872419  0.62297806  0.52160133
   0.56268685  0.87072565  0.43428426
   0.43849207  0.45739060  0.56561907
   0.43709917  0.29206652  0.74398985
   0.80649225  0.87154019  0.30026238
   0.81412879  0.70307960  0.34506455
   0.43551204  0.46302600  0.83336502
   0.68781538  0.95507270  0.47831041
   0.68955139  0.45843045  0.69970383
   0.56328556  0.87285723  0.52159310
   0.56008673  0.37553022  0.65493835
   0.81008684  0.87562562  0.65493594
   0.81273212  0.37073749  0.43431524
   0.81330073  0.53544229  0.25607430
   0.68527135  0.46223238  0.83334376
   0.18729525  0.78226137  0.12461232
   0.06377023  0.04446277  0.87529738
   0.31020817  0.37566194  0.65492097
   0.31407012  0.20293136  0.34499433
   0.81196879  0.54203658  0.74395477
   0.68534806  0.96297735  0.83339196
   0.56020478  0.87553325  0.65490766
   0.31329838  0.70731608  0.56573819
   0.31293062  0.53262799  0.12471284
   0.68225455  0.95222598  0.21179282
   0.31370209  0.20751417  0.56570709
   0.31210250  0.54215080  0.74397712
   0.68845758  0.95740678  0.56560419
   0.43747440  0.79180987  0.61060652
   0.69069986  0.61352477  0.16681333
   0.30660844  0.87120955  0.30031733
   0.31267011  0.70491345  0.47832160
   0.93760599  0.29156113  0.61058676
   0.43167939  0.62130632  0.30029893
   0.81562494  0.86300919  0.16674295
   0.55730943  0.20189497  0.21173334
   0.94028026  0.61343896  0.16669049
   0.93956297  0.79465987  0.87539195
   0.56852553  0.37504156  0.78825958
   0.06334766  0.37264584  0.52159822
   0.56327577  0.37278456  0.52158497
   0.68160754  0.12112694  0.30031655
   0.43470744  0.96250482  0.83343733
   0.18770969  0.28182650  0.12457756
   0.81846456  0.87502782  0.78825663
   0.31274362  0.37114420  0.43432276
   0.93774201  0.79174066  0.61053872
   0.43766854  0.29168654  0.61056919
   0.18962376  0.45223638  0.34505663
   0.43742090  0.28189467  0.12463901
   0.68818377  0.78522885  0.25600521
   0.18951039  0.95846526  0.69971375
   0.19008707  0.29477788  0.87547691
   0.18518417  0.12563124  0.65492654
   0.93518311  0.12564792  0.65490877
   0.30766455  0.20230650  0.21185627
   0.05984870  0.03708933  0.38932814
   0.43953315  0.95849207  0.69970095
   0.06248506  0.54154470  0.61064833
   0.93817631  0.28567277  0.25597398
   0.56257921  0.54168074  0.61059099
   0.93804889  0.95751818  0.56569519
   0.68138486  0.62125103  0.30024493
   0.93755556  0.62022021  0.43432749
   0.94359030  0.62535149  0.78839345
   0.56456342  0.70839612  0.69968163
   0.06048964  0.71229950  0.83337410
   0.93100879  0.12157405  0.30029307
   0.93958131  0.45851438  0.69972015
   0.43815707  0.78535622  0.25602095
   0.31843602  0.37524813  0.78834543
   0.43253301  0.45192851  0.21170007
   0.18822941  0.12353145  0.52154796
   0.81458212  0.70848948  0.69971334
   0.06262034  0.04146248  0.61056949
   0.56106397  0.21275575  0.83342667
   0.31389095  0.87224337  0.52158168
   0.68763117  0.28193907  0.12467400
   0.18229237  0.95199965  0.21169526
   0.68753001  0.29177172  0.61060893
   0.31268198  0.04179215  0.61068112
   0.94343718  0.12526697  0.78838339
   0.44003693  0.79521314  0.87558190
   0.81204672  0.04202500  0.74396074
   0.43798546  0.12293158  0.52157192
   0.18522609  0.62559060  0.65493740
   0.31451224  0.70839968  0.69969771
   0.93754249  0.28203728  0.12473320
   0.43816922  0.45542189  0.47829394
   0.06290982  0.70457952  0.47832598
   0.93810743  0.12070314  0.43415588
   0.43168459  0.12114377  0.30034140
   0.18823840  0.12140165  0.43422774
   0.56444398  0.04484231  0.87532013
   0.18859305  0.95730505  0.56538506
   0.68738724  0.78201538  0.12465525
   0.56274624  0.53217016  0.12466666
   0.31007514  0.03740642  0.38934077
   0.69103817  0.11307206  0.16676107
   0.80749114  0.20209908  0.21176367
   0.06349610  0.53549068  0.25596224
   0.56268018  0.70516769  0.47830374
   0.06345577  0.20731025  0.56571217
   0.55636609  0.37106970  0.30026206
   0.43946509  0.95255524  0.34502037
   0.18572224  0.96284884  0.83341192
   0.44120346  0.61324227  0.16663389
   0.93224646  0.45195739  0.21177970
   0.06216269  0.53243681  0.12473015
   0.81299075  0.37272550  0.52157670
   0.93126183  0.62152059  0.30031441
   0.31321657  0.03551881  0.25605704
   0.68754074  0.79169425  0.61061537
   0.18536398  0.46317295  0.83344850
   0.44089055  0.11355716  0.16668279
   0.31359521  0.37275493  0.52160920
   0.44379478  0.62500590  0.78828023
   0.06346878  0.03546640  0.25600643
   0.56339142  0.70737164  0.56558704
   0.93718222  0.29200078  0.74399600
   0.69350940  0.12522276  0.78836194
   0.18248306  0.45194899  0.21170904
   0.93442503  0.78727377  0.38927742
   0.69116046  0.29551889  0.87552815
   0.31536785  0.86307008  0.16673624
   0.43957569  0.45829502  0.69970894
   0.81018017  0.37558574  0.65489303
   0.68837576  0.62258037  0.52158562
   0.06008247  0.87558518  0.65488296
   0.06850517  0.87509139  0.78829799
   0.06012472  0.37574590  0.65489887
   0.68780725  0.45529435  0.47832447
   0.18841901  0.78527152  0.25599176
   0.43768621  0.12070356  0.43428794
   0.81194714  0.03251980  0.12471770
   0.93787546  0.62275329  0.52161752
   0.06263457  0.87054741  0.43451771
   0.81210334  0.53211823  0.12466946
   0.43904812  0.45259752  0.34502675