 288 288   0   0
  0.1280206E+02  0.9726678E-09  0.8423550E-09  0.4500000E-08  0.2500000E-15
  1.000000000000000E-004
  CAR 
 unknown system                          
    153.59325887    -79.42706526  301    -27.23138768      1.00000000
    -79.427  0.0000E+00  0.0000E+00
    -78.650  0.0000E+00  0.0000E+00
    -77.874  0.0000E+00  0.0000E+00
    -77.097  0.0000E+00  0.0000E+00
    -76.320  0.0000E+00  0.0000E+00
    -75.543  0.0000E+00  0.0000E+00
    -74.767  0.0000E+00  0.0000E+00
    -73.990  0.0000E+00  0.0000E+00
    -73.213  0.0000E+00  0.0000E+00
    -72.436  0.0000E+00  0.0000E+00
    -71.660  0.0000E+00  0.0000E+00
    -70.883  0.0000E+00  0.0000E+00
    -70.106  0.0000E+00  0.0000E+00
    -69.330  0.6261E-07  0.4863E-07
    -68.553  0.4228E+00  0.3284E+00
    -67.776  0.1089E+01  0.1174E+01
    -66.999  0.1989E+01  0.2719E+01
    -66.223  0.3443E+01  0.5393E+01
    -65.446  0.4998E+01  0.9276E+01
    -64.669  0.6590E+01  0.1439E+02
    -63.892  0.8111E+01  0.2069E+02
    -63.116  0.9871E+01  0.2836E+02
    -62.339  0.5151E+01  0.3236E+02
    -61.562  0.3935E+01  0.3542E+02
    -60.785  0.5093E+01  0.3938E+02
    -60.009  0.5299E+01  0.4349E+02
    -59.232  0.6318E+01  0.4840E+02
    -58.455  0.6439E+01  0.5340E+02
    -57.679  0.6050E+01  0.5810E+02
    -56.902  0.7079E+01  0.6360E+02
    -56.125  0.7138E+01  0.6914E+02
    -55.348  0.7351E+01  0.7485E+02
    -54.572  0.7454E+01  0.8064E+02
    -53.795  0.7597E+01  0.8654E+02
    -53.018  0.6913E+01  0.9191E+02
    -52.241  0.7665E+01  0.9787E+02
    -51.465  0.7901E+01  0.1040E+03
    -50.688  0.8056E+01  0.1103E+03
    -49.911  0.9814E+01  0.1179E+03
    -49.134  0.1105E+02  0.1265E+03
    -48.358  0.1045E+02  0.1346E+03
    -47.581  0.9594E+01  0.1420E+03
    -46.804  0.7846E+01  0.1481E+03
    -46.027  0.6302E+01  0.1530E+03
    -45.251  0.6482E+01  0.1581E+03
    -44.474  0.5922E+01  0.1627E+03
    -43.697  0.6304E+01  0.1676E+03
    -42.921  0.8889E+01  0.1745E+03
    -42.144  0.6556E+01  0.1795E+03
    -41.367  0.7506E+01  0.1854E+03
    -40.590  0.8660E+01  0.1921E+03
    -39.814  0.9882E+01  0.1998E+03
    -39.037  0.1270E+02  0.2096E+03
    -38.260  0.1600E+02  0.2221E+03
    -37.483  0.1876E+02  0.2366E+03
    -36.707  0.2402E+02  0.2553E+03
    -35.930  0.2408E+02  0.2740E+03
    -35.153  0.2442E+02  0.2930E+03
    -34.376  0.2784E+02  0.3146E+03
    -33.600  0.2503E+02  0.3340E+03
    -32.823  0.2513E+02  0.3536E+03
    -32.046  0.2300E+02  0.3714E+03
    -31.270  0.2105E+02  0.3878E+03
    -30.493  0.1907E+02  0.4026E+03
    -29.716  0.1672E+02  0.4156E+03
    -28.939  0.1967E+02  0.4308E+03
    -28.163  0.1648E+02  0.4436E+03
    -27.386  0.1620E+02  0.4562E+03
    -26.609  0.1032E+02  0.4642E+03
    -25.832  0.1540E+02  0.4762E+03
    -25.056  0.1617E+02  0.4888E+03
    -24.279  0.1539E+02  0.5007E+03
    -23.502  0.1709E+02  0.5140E+03
    -22.725  0.1429E+02  0.5251E+03
    -21.949  0.1916E+01  0.5266E+03
    -21.172  0.1031E+01  0.5274E+03
    -20.395  0.9730E+00  0.5282E+03
    -19.619  0.7395E+00  0.5287E+03
    -18.842  0.8195E+00  0.5294E+03
    -18.065  0.5184E+00  0.5298E+03
    -17.288  0.6526E+00  0.5303E+03
    -16.512  0.3891E+00  0.5306E+03
    -15.735  0.1049E+00  0.5307E+03
    -14.958  0.3550E+00  0.5309E+03
    -14.181  0.2643E+00  0.5311E+03
    -13.405  0.3101E+00  0.5314E+03
    -12.628  0.1249E+00  0.5315E+03
    -11.851  0.6582E-01  0.5315E+03
    -11.074  0.2667E+00  0.5317E+03
    -10.298  0.4980E-01  0.5318E+03
     -9.521  0.1005E+00  0.5319E+03
     -8.744  0.1308E+00  0.5320E+03
     -7.967  0.3438E+00  0.5322E+03
     -7.191  0.2410E+00  0.5324E+03
     -6.414  0.1517E+00  0.5325E+03
     -5.637  0.1707E-02  0.5325E+03
     -4.861  0.4872E-01  0.5326E+03
     -4.084  0.1618E+00  0.5327E+03
     -3.307  0.1755E+00  0.5328E+03
     -2.530  0.1597E-03  0.5328E+03
     -1.754  0.5674E-10  0.5328E+03
     -0.977  0.1432E+00  0.5329E+03
     -0.200  0.9776E-01  0.5330E+03
      0.577  0.2260E+00  0.5332E+03
      1.353  0.1590E-01  0.5332E+03
      2.130  0.6439E-01  0.5333E+03
      2.907  0.6435E-01  0.5333E+03
      3.684  0.3729E-01  0.5333E+03
      4.460  0.8191E-01  0.5334E+03
      5.237  0.1098E+00  0.5335E+03
      6.014  0.9285E-01  0.5335E+03
      6.790  0.2538E-04  0.5336E+03
      7.567  0.3216E-01  0.5336E+03
      8.344  0.4315E-01  0.5336E+03
      9.121  0.2154E-01  0.5336E+03
      9.897  0.6791E-01  0.5337E+03
     10.674  0.2833E-01  0.5337E+03
     11.451  0.9599E-01  0.5338E+03
     12.228  0.1405E+00  0.5339E+03
     13.004  0.1001E+00  0.5340E+03
     13.781  0.1688E+00  0.5341E+03
     14.558  0.1072E+00  0.5342E+03
     15.335  0.6710E-01  0.5342E+03
     16.111  0.6663E-01  0.5343E+03
     16.888  0.2886E-01  0.5343E+03
     17.665  0.2961E-01  0.5343E+03
     18.441  0.1788E+00  0.5345E+03
     19.218  0.1415E-01  0.5345E+03
     19.995  0.2495E-01  0.5345E+03
     20.772  0.1215E+00  0.5346E+03
     21.548  0.7881E-01  0.5346E+03
     22.325  0.5467E-03  0.5347E+03
     23.102  0.3164E-01  0.5347E+03
     23.879  0.1417E-02  0.5347E+03
     24.655  0.1223E+00  0.5348E+03
     25.432  0.1013E+00  0.5348E+03
     26.209  0.2960E-01  0.5349E+03
     26.986  0.6727E-01  0.5349E+03
     27.762  0.5446E-01  0.5350E+03
     28.539  0.9930E-01  0.5350E+03
     29.316  0.1037E+00  0.5351E+03
     30.092  0.9251E-01  0.5352E+03
     30.869  0.6430E-01  0.5352E+03
     31.646  0.4803E-02  0.5353E+03
     32.423  0.5985E-01  0.5353E+03
     33.199  0.1292E+00  0.5354E+03
     33.976  0.9738E-01  0.5355E+03
     34.753  0.9899E-01  0.5355E+03
     35.530  0.6409E-01  0.5356E+03
     36.306  0.4010E-03  0.5356E+03
     37.083  0.5367E-01  0.5356E+03
     37.860  0.8849E-01  0.5357E+03
     38.637  0.1127E+00  0.5358E+03
     39.413  0.3824E-02  0.5358E+03
     40.190  0.1430E+00  0.5359E+03
     40.967  0.1791E+00  0.5361E+03
     41.744  0.1701E+00  0.5362E+03
     42.520  0.1737E+00  0.5363E+03
     43.297  0.4067E-01  0.5363E+03
     44.074  0.2215E-01  0.5364E+03
     44.850  0.1232E-01  0.5364E+03
     45.627  0.2398E+00  0.5366E+03
     46.404  0.1194E+00  0.5367E+03
     47.181  0.1252E+00  0.5368E+03
     47.957  0.2526E+00  0.5369E+03
     48.734  0.1439E-02  0.5370E+03
     49.511  0.1093E+00  0.5370E+03
     50.288  0.3448E-01  0.5371E+03
     51.064  0.1835E+00  0.5372E+03
     51.841  0.1152E+00  0.5373E+03
     52.618  0.8251E-01  0.5374E+03
     53.395  0.1104E+00  0.5374E+03
     54.171  0.1344E+00  0.5375E+03
     54.948  0.3547E-01  0.5376E+03
     55.725  0.2178E+00  0.5377E+03
     56.501  0.2921E+00  0.5380E+03
     57.278  0.6884E-01  0.5380E+03
     58.055  0.6526E-02  0.5380E+03
     58.832  0.1849E+00  0.5382E+03
     59.608  0.6610E-01  0.5382E+03
     60.385  0.4117E-01  0.5383E+03
     61.162  0.1454E+00  0.5384E+03
     61.939  0.5338E-01  0.5384E+03
     62.715  0.1291E+00  0.5385E+03
     63.492  0.8195E-01  0.5386E+03
     64.269  0.1558E+00  0.5387E+03
     65.046  0.9402E-01  0.5388E+03
     65.822  0.4675E-01  0.5388E+03
     66.599  0.1534E+00  0.5389E+03
     67.376  0.3302E-01  0.5390E+03
     68.152  0.1909E+00  0.5391E+03
     68.929  0.1170E+00  0.5392E+03
     69.706  0.4561E-01  0.5392E+03
     70.483  0.6241E-01  0.5393E+03
     71.259  0.1154E+00  0.5394E+03
     72.036  0.1126E+00  0.5395E+03
     72.813  0.1102E+00  0.5395E+03
     73.590  0.8762E-01  0.5396E+03
     74.366  0.2602E+00  0.5398E+03
     75.143  0.1827E+00  0.5399E+03
     75.920  0.2189E-02  0.5400E+03
     76.697  0.8729E-01  0.5400E+03
     77.473  0.1310E+00  0.5401E+03
     78.250  0.1664E+00  0.5402E+03
     79.027  0.9819E-01  0.5403E+03
     79.803  0.9444E-01  0.5404E+03
     80.580  0.1308E+00  0.5405E+03
     81.357  0.1010E+00  0.5406E+03
     82.134  0.1973E+00  0.5407E+03
     82.910  0.2361E-01  0.5407E+03
     83.687  0.2543E-01  0.5408E+03
     84.464  0.1963E+00  0.5409E+03
     85.241  0.2115E+00  0.5411E+03
     86.017  0.2194E+00  0.5413E+03
     86.794  0.1250E+00  0.5414E+03
     87.571  0.1675E+00  0.5415E+03
     88.348  0.3607E+00  0.5418E+03
     89.124  0.1666E+00  0.5419E+03
     89.901  0.3714E+00  0.5422E+03
     90.678  0.5784E-01  0.5422E+03
     91.455  0.1904E+00  0.5424E+03
     92.231  0.8620E-01  0.5424E+03
     93.008  0.1730E+00  0.5426E+03
     93.785  0.1269E+00  0.5427E+03
     94.561  0.9558E-01  0.5427E+03
     95.338  0.1008E+00  0.5428E+03
     96.115  0.1930E+00  0.5430E+03
     96.892  0.1899E+00  0.5431E+03
     97.668  0.1024E+00  0.5432E+03
     98.445  0.2716E+00  0.5434E+03
     99.222  0.1614E+00  0.5435E+03
     99.999  0.2776E+00  0.5438E+03
    100.775  0.1714E+00  0.5439E+03
    101.552  0.2066E+00  0.5440E+03
    102.329  0.1665E+00  0.5442E+03
    103.106  0.1940E+00  0.5443E+03
    103.882  0.9014E-01  0.5444E+03
    104.659  0.5013E-01  0.5444E+03
    105.436  0.1666E+00  0.5446E+03
    106.212  0.1852E+00  0.5447E+03
    106.989  0.2948E+00  0.5449E+03
    107.766  0.2550E+00  0.5451E+03
    108.543  0.8812E-01  0.5452E+03
    109.319  0.1884E+00  0.5454E+03
    110.096  0.2103E+00  0.5455E+03
    110.873  0.2291E+00  0.5457E+03
    111.650  0.1264E+00  0.5458E+03
    112.426  0.3114E+00  0.5460E+03
    113.203  0.1397E+00  0.5461E+03
    113.980  0.3308E+00  0.5464E+03
    114.757  0.3903E-01  0.5464E+03
    115.533  0.2168E+00  0.5466E+03
    116.310  0.4059E+00  0.5469E+03
    117.087  0.1100E+00  0.5470E+03
    117.863  0.1279E+00  0.5471E+03
    118.640  0.2366E+00  0.5473E+03
    119.417  0.2745E+00  0.5475E+03
    120.194  0.1007E+00  0.5476E+03
    120.970  0.1769E+00  0.5477E+03
    121.747  0.2259E+00  0.5479E+03
    122.524  0.5095E+00  0.5483E+03
    123.301  0.7765E+00  0.5489E+03
    124.077  0.2010E+00  0.5490E+03
    124.854  0.1068E+00  0.5491E+03
    125.631  0.2541E+00  0.5493E+03
    126.408  0.5050E+00  0.5497E+03
    127.184  0.2604E+00  0.5499E+03
    127.961  0.4442E+00  0.5503E+03
    128.738  0.6546E+00  0.5508E+03
    129.514  0.5329E+00  0.5512E+03
    130.291  0.4712E+00  0.5516E+03
    131.068  0.5172E+00  0.5520E+03
    131.845  0.2364E+00  0.5521E+03
    132.621  0.3709E+00  0.5524E+03
    133.398  0.4593E+00  0.5528E+03
    134.175  0.2954E+00  0.5530E+03
    134.952  0.2269E+00  0.5532E+03
    135.728  0.2465E+00  0.5534E+03
    136.505  0.1499E+00  0.5535E+03
    137.282  0.3661E+00  0.5538E+03
    138.059  0.3123E+00  0.5540E+03
    138.835  0.1331E+00  0.5541E+03
    139.612  0.7137E-01  0.5542E+03
    140.389  0.5743E-01  0.5542E+03
    141.166  0.9650E-01  0.5543E+03
    141.942  0.6290E-01  0.5543E+03
    142.719  0.1726E-02  0.5544E+03
    143.496  0.6412E-01  0.5544E+03
    144.272  0.0000E+00  0.5544E+03
    145.049  0.0000E+00  0.5544E+03
    145.826  0.0000E+00  0.5544E+03
    146.603  0.0000E+00  0.5544E+03
    147.379  0.0000E+00  0.5544E+03
    148.156  0.0000E+00  0.5544E+03
    148.933  0.0000E+00  0.5544E+03
    149.710  0.0000E+00  0.5544E+03
    150.486  0.0000E+00  0.5544E+03
    151.263  0.0000E+00  0.5544E+03
    152.040  0.0000E+00  0.5544E+03
    152.817  0.0000E+00  0.5544E+03
    153.593  0.0000E+00  0.5544E+03
