  288  288    5    1
  0.1280206E+02  0.9726678E-09  0.8423550E-09  0.4500000E-08  0.2500000E-15
  1.000000000000000E-004
  CAR 
 unknown system                          
   2290     10   1386
 
  0.0000000E+00  0.0000000E+00  0.0000000E+00  0.6250000E-01
    1      -68.835232   1.000000
    2      -67.872470   1.000000
    3      -67.846579   1.000000
    4      -67.565421   1.000000
    5      -67.298981   1.000000
    6      -67.138440   1.000000
    7      -67.063496   1.000000
    8      -66.907197   1.000000
    9      -66.868538   1.000000
   10      -66.657564   1.000000
   11      -66.551239   1.000000
   12      -66.441095   1.000000
   13      -66.361431   1.000000
   14      -66.248868   1.000000
   15      -66.019793   1.000000
   16      -65.949149   1.000000
   17      -65.900661   1.000000
   18      -65.781497   1.000000
   19      -65.721548   1.000000
   20      -65.653960   1.000000
   21      -65.647054   1.000000
   22      -65.480886   1.000000
   23      -65.428497   1.000000
   24      -65.371379   1.000000
   25      -65.250165   1.000000
   26      -65.216242   1.000000
   27      -65.174130   1.000000
   28      -65.116684   1.000000
   29      -65.112234   1.000000
   30      -65.078025   1.000000
   31      -64.962188   1.000000
   32      -64.910027   1.000000
   33      -64.885383   1.000000
   34      -64.793191   1.000000
   35      -64.789652   1.000000
   36      -64.741373   1.000000
   37      -64.581408   1.000000
   38      -64.546533   1.000000
   39      -64.537959   1.000000
   40      -64.491261   1.000000
   41      -64.450526   1.000000
   42      -64.468341   1.000000
   43      -64.405573   1.000000
   44      -64.286929   1.000000
   45      -64.255557   1.000000
   46      -64.200155   1.000000
   47      -64.176619   1.000000
   48      -64.096624   1.000000
   49      -64.060150   1.000000
   50      -63.982325   1.000000
   51      -63.980269   1.000000
   52      -63.919571   1.000000
   53      -63.858781   1.000000
   54      -63.894195   1.000000
   55      -63.830164   1.000000
   56      -63.782166   1.000000
   57      -63.754321   1.000000
   58      -63.730320   1.000000
   59      -63.594278   1.000000
   60      -63.567085   1.000000
   61      -63.559002   1.000000
   62      -63.495985   1.000000
   63      -63.454452   1.000000
   64      -63.432781   1.000000
   65      -63.355760   1.000000
   66      -63.372945   1.000000
   67      -63.351158   1.000000
   68      -63.302968   1.000000
   69      -63.241665   1.000000
   70      -63.162108   1.000000
   71      -63.151663   1.000000
   72      -63.127123   1.000000
   73      -63.122647   1.000000
   74      -62.883749   1.000000
   75      -62.888121   1.000000
   76      -62.931997   1.000000
   77      -62.882974   1.000000
   78      -62.662188   1.000000
   79      -62.585319   1.000000
   80      -62.509721   1.000000
   81      -62.455559   1.000000
   82      -62.285964   1.000000
   83      -62.199126   1.000000
   84      -61.988915   1.000000
   85      -62.072908   1.000000
   86      -61.786131   1.000000
   87      -61.634237   1.000000
   88      -61.578631   1.000000
   89      -61.584830   1.000000
   90      -61.533069   1.000000
   91      -61.327804   1.000000
   92      -61.275128   1.000000
   93      -61.263504   1.000000
   94      -61.205515   1.000000
   95      -61.194608   1.000000
   96      -60.998332   1.000000
   97      -60.898580   1.000000
   98      -60.772680   1.000000
   99      -60.693149   1.000000
  100      -60.665933   1.000000
  101      -60.553557   1.000000
  102      -60.495060   1.000000
  103      -60.472181   1.000000
  104      -60.276680   1.000000
  105      -60.250987   1.000000
  106      -60.184382   1.000000
  107      -60.142973   1.000000
  108      -60.050240   1.000000
  109      -59.977086   1.000000
  110      -59.870488   1.000000
  111      -59.824121   1.000000
  112      -59.686526   1.000000
  113      -59.651606   1.000000
  114      -59.631049   1.000000
  115      -59.583752   1.000000
  116      -59.541867   1.000000
  117      -59.365944   1.000000
  118      -59.331380   1.000000
  119      -59.282794   1.000000
  120      -59.233326   1.000000
  121      -59.232613   1.000000
  122      -59.134827   1.000000
  123      -59.100750   1.000000
  124      -59.072824   1.000000
  125      -58.970783   1.000000
  126      -58.957713   1.000000
  127      -58.796442   1.000000
  128      -58.791520   1.000000
  129      -58.731451   1.000000
  130      -58.672108   1.000000
  131      -58.624427   1.000000
  132      -58.580983   1.000000
  133      -58.500313   1.000000
  134      -58.391083   1.000000
  135      -58.383302   1.000000
  136      -58.338645   1.000000
  137      -58.203557   1.000000
  138      -58.204446   1.000000
  139      -58.096446   1.000000
  140      -58.053748   1.000000
  141      -57.978540   1.000000
  142      -57.970223   1.000000
  143      -57.862628   1.000000
  144      -57.802075   1.000000
  145      -57.757022   1.000000
  146      -57.668228   1.000000
  147      -57.664850   1.000000
  148      -57.640077   1.000000
  149      -57.486589   1.000000
  150      -57.464309   1.000000
  151      -57.432286   1.000000
  152      -57.374730   1.000000
  153      -57.307870   1.000000
  154      -57.199443   1.000000
  155      -57.223300   1.000000
  156      -57.150338   1.000000
  157      -57.148512   1.000000
  158      -57.039487   1.000000
  159      -56.962827   1.000000
  160      -56.939590   1.000000
  161      -56.918541   1.000000
  162      -56.870701   1.000000
  163      -56.736857   1.000000
  164      -56.598272   1.000000
  165      -56.589480   1.000000
  166      -56.532200   1.000000
  167      -56.565626   1.000000
  168      -56.447910   1.000000
  169      -56.440540   1.000000
  170      -56.296336   1.000000
  171      -56.274275   1.000000
  172      -56.236808   1.000000
  173      -56.176496   1.000000
  174      -56.051196   1.000000
  175      -55.972196   1.000000
  176      -55.886347   1.000000
  177      -55.827869   1.000000
  178      -55.773800   1.000000
  179      -55.708770   1.000000
  180      -55.723634   1.000000
  181      -55.671129   1.000000
  182      -55.581048   1.000000
  183      -55.523351   1.000000
  184      -55.451676   1.000000
  185      -55.373524   1.000000
  186      -55.330412   1.000000
  187      -55.280148   1.000000
  188      -55.326847   1.000000
  189      -55.212136   1.000000
  190      -55.167767   1.000000
  191      -55.126139   1.000000
  192      -55.094847   1.000000
  193      -55.029040   1.000000
  194      -55.009964   1.000000
  195      -54.878679   1.000000
  196      -54.865205   1.000000
  197      -54.768256   1.000000
  198      -54.724481   1.000000
  199      -54.742245   1.000000
  200      -54.647461   1.000000
  201      -54.604559   1.000000
  202      -54.484912   1.000000
  203      -54.528565   1.000000
  204      -54.433309   1.000000
  205      -54.285356   1.000000
  206      -54.258011   1.000000
  207      -54.247612   1.000000
  208      -54.181189   1.000000
  209      -54.156284   1.000000
  210      -54.120160   1.000000
  211      -54.062988   1.000000
  212      -54.122298   1.000000
  213      -54.009736   1.000000
  214      -53.906373   1.000000
  215      -53.858374   1.000000
  216      -53.866682   1.000000
  217      -53.740718   1.000000
  218      -53.769634   1.000000
  219      -53.681841   1.000000
  220      -53.615235   1.000000
  221      -53.465714   1.000000
  222      -53.498819   1.000000
  223      -53.427984   1.000000
  224      -53.413690   1.000000
  225      -53.361885   1.000000
  226      -53.263746   1.000000
  227      -53.133126   1.000000
  228      -53.105398   1.000000
  229      -53.122109   1.000000
  230      -53.073528   1.000000
  231      -52.906498   1.000000
  232      -52.866195   1.000000
  233      -52.829532   1.000000
  234      -52.757079   1.000000
  235      -52.746569   1.000000
  236      -52.716054   1.000000
  237      -52.619819   1.000000
  238      -52.615085   1.000000
  239      -52.539167   1.000000
  240      -52.517475   1.000000
  241      -52.527521   1.000000
  242      -52.433508   1.000000
  243      -52.370846   1.000000
  244      -52.267309   1.000000
  245      -52.226267   1.000000
  246      -52.149429   1.000000
  247      -52.098861   1.000000
  248      -52.103097   1.000000
  249      -52.029624   1.000000
  250      -51.946344   1.000000
  251      -51.922121   1.000000
  252      -51.814063   1.000000
  253      -51.834476   1.000000
  254      -51.797795   1.000000
  255      -51.741671   1.000000
  256      -51.676163   1.000000
  257      -51.727640   1.000000
  258      -51.589453   1.000000
  259      -51.579021   1.000000
  260      -51.447727   1.000000
  261      -51.420317   1.000000
  262      -51.471442   1.000000
  263      -51.339126   1.000000
  264      -51.281965   1.000000
  265      -51.147602   1.000000
  266      -51.067811   1.000000
  267      -51.032741   1.000000
  268      -50.977478   1.000000
  269      -50.890454   1.000000
  270      -50.928488   1.000000
  271      -50.876385   1.000000
  272      -50.797832   1.000000
  273      -50.856207   1.000000
  274      -50.673561   1.000000
  275      -50.663331   1.000000
  276      -50.636124   1.000000
  277      -50.560132   1.000000
  278      -50.565152   1.000000
  279      -50.478706   1.000000
  280      -50.536771   1.000000
  281      -50.494891   1.000000
  282      -50.368362   1.000000
  283      -50.341745   1.000000
  284      -50.312790   1.000000
  285      -50.280860   1.000000
  286      -50.236165   1.000000
  287      -50.153552   1.000000
  288      -50.179173   1.000000
  289      -50.145206   1.000000
  290      -50.094545   1.000000
  291      -50.078816   1.000000
  292      -50.034827   1.000000
  293      -50.030469   1.000000
  294      -49.952889   1.000000
  295      -49.912111   1.000000
  296      -49.915478   1.000000
  297      -49.892468   1.000000
  298      -49.756559   1.000000
  299      -49.720009   1.000000
  300      -49.695731   1.000000
  301      -49.572588   1.000000
  302      -49.619384   1.000000
  303      -49.664012   1.000000
  304      -49.524252   1.000000
  305      -49.592211   1.000000
  306      -49.738404   1.000000
  307      -49.433525   1.000000
  308      -49.355330   1.000000
  309      -49.320487   1.000000
  310      -49.306857   1.000000
  311      -49.275850   1.000000
  312      -49.199705   1.000000
  313      -49.083957   1.000000
  314      -49.065218   1.000000
  315      -49.159679   1.000000
  316      -48.918092   1.000000
  317      -49.030010   1.000000
  318      -48.908918   1.000000
  319      -48.988641   1.000000
  320      -48.846637   1.000000
  321      -48.772756   1.000000
  322      -48.874580   1.000000
  323      -49.053703   1.000000
  324      -48.770412   1.000000
  325      -48.902971   1.000000
  326      -49.192277   1.000000
  327      -48.852871   1.000000
  328      -48.478768   1.000000
  329      -48.970743   1.000000
  330      -48.380050   1.000000
  331      -48.400587   1.000000
  332      -48.496130   1.000000
  333      -48.389218   1.000000
  334      -48.480449   1.000000
  335      -48.207726   1.000000
  336      -48.308829   1.000000
  337      -48.495905   1.000000
  338      -48.318552   1.000000
  339      -48.109490   1.000000
  340      -48.121132   1.000000
  341      -47.986167   1.000000
  342      -48.422163   1.000000
  343      -48.035379   1.000000
  344      -48.073296   1.000000
  345      -48.406336   1.000000
  346      -48.034387   1.000000
  347      -47.882362   1.000000
  348      -48.013330   1.000000
  349      -47.927063   1.000000
  350      -47.623956   1.000000
  351      -47.891605   1.000000
  352      -47.700874   1.000000
  353      -47.687543   1.000000
  354      -47.663711   1.000000
  355      -47.553889   1.000000
  356      -47.563685   1.000000
  357      -47.546855   1.000000
  358      -47.555570   1.000000
  359      -47.580767   1.000000
  360      -47.444890   1.000000
  361      -47.091140   1.000000
  362      -47.079972   1.000000
  363      -47.120188   1.000000
  364      -47.035261   1.000000
  365      -47.205675   1.000000
  366      -46.877391   1.000000
  367      -46.923588   1.000000
  368      -46.966744   1.000000
  369      -46.893211   1.000000
  370      -46.957026   1.000000
  371      -47.041155   1.000000
  372      -46.609038   1.000000
  373      -46.469969   1.000000
  374      -46.445332   1.000000
  375      -46.516898   1.000000
  376      -46.478633   1.000000
  377      -46.409920   1.000000
  378      -46.172476   1.000000
  379      -46.401048   1.000000
  380      -46.304298   1.000000
  381      -46.252661   1.000000
  382      -46.211302   1.000000
  383      -46.015728   1.000000
  384      -45.815320   1.000000
  385      -45.907480   1.000000
  386      -45.812521   1.000000
  387      -45.709124   1.000000
  388      -45.864921   1.000000
  389      -45.560284   1.000000
  390      -45.833094   1.000000
  391      -45.535502   1.000000
  392      -45.428711   1.000000
  393      -45.391081   1.000000
  394      -45.370586   1.000000
  395      -45.246923   1.000000
  396      -45.123755   1.000000
  397      -45.183486   1.000000
  398      -45.251111   1.000000
  399      -45.056039   1.000000
  400      -44.885558   1.000000
  401      -45.016364   1.000000
  402      -44.838421   1.000000
  403      -44.219416   1.000000
  404      -44.617359   1.000000
  405      -44.492445   1.000000
  406      -44.543913   1.000000
  407      -44.561525   1.000000
  408      -44.464705   1.000000
  409      -44.394122   1.000000
  410      -44.218642   1.000000
  411      -44.239244   1.000000
  412      -44.237539   1.000000
  413      -44.137877   1.000000
  414      -43.975260   1.000000
  415      -44.089734   1.000000
  416      -43.848002   1.000000
  417      -43.848251   1.000000
  418      -43.400581   1.000000
  419      -43.682562   1.000000
  420      -43.420705   1.000000
  421      -43.638659   1.000000
  422      -43.660583   1.000000
  423      -43.215825   1.000000
  424      -43.455204   1.000000
  425      -43.319961   1.000000
  426      -43.304615   1.000000
  427      -43.223712   1.000000
  428      -43.322381   1.000000
  429      -43.348387   1.000000
  430      -43.436291   1.000000
  431      -43.244366   1.000000
  432      -43.097960   1.000000
  433      -43.036916   1.000000
  434      -42.910903   1.000000
  435      -43.013222   1.000000
  436      -42.986431   1.000000
  437      -43.010874   1.000000
  438      -42.939933   1.000000
  439      -42.887395   1.000000
  440      -42.790673   1.000000
  441      -42.630342   1.000000
  442      -42.593377   1.000000
  443      -42.639061   1.000000
  444      -42.503532   1.000000
  445      -42.615723   1.000000
  446      -42.402307   1.000000
  447      -42.503719   1.000000
  448      -42.234977   1.000000
  449      -42.110605   1.000000
  450      -42.140930   1.000000
  451      -41.937711   1.000000
  452      -42.006140   1.000000
  453      -41.812700   1.000000
  454      -41.833009   1.000000
  455      -41.975148   1.000000
  456      -41.809963   1.000000
  457      -41.513794   1.000000
  458      -41.480808   1.000000
  459      -41.522807   1.000000
  460      -41.579917   1.000000
  461      -41.596907   1.000000
  462      -41.481924   1.000000
  463      -41.520009   1.000000
  464      -41.433887   1.000000
  465      -41.474738   1.000000
  466      -41.380158   1.000000
  467      -41.384815   1.000000
  468      -41.089819   1.000000
  469      -41.383754   1.000000
  470      -41.204158   1.000000
  471      -41.033757   1.000000
  472      -41.088673   1.000000
  473      -40.897659   1.000000
  474      -40.955503   1.000000
  475      -40.944068   1.000000
  476      -40.839322   1.000000
  477      -40.813311   1.000000
  478      -40.703267   1.000000
  479      -40.745281   1.000000
  480      -40.821661   1.000000
  481      -40.716573   1.000000
  482      -40.673661   1.000000
  483      -40.621861   1.000000
  484      -40.534972   1.000000
  485      -40.431177   1.000000
  486      -40.341320   1.000000
  487      -40.285601   1.000000
  488      -40.307673   1.000000
  489      -40.134240   1.000000
  490      -40.116571   1.000000
  491      -39.974201   1.000000
  492      -40.176784   1.000000
  493      -40.025318   1.000000
  494      -40.147181   1.000000
  495      -40.105913   1.000000
  496      -40.112570   1.000000
  497      -40.059418   1.000000
  498      -39.680526   1.000000
  499      -39.932242   1.000000
  500      -39.894918   1.000000
  501      -39.796642   1.000000
  502      -39.669987   1.000000
  503      -39.605319   1.000000
  504      -39.596349   1.000000
  505      -39.632888   1.000000
  506      -39.443768   1.000000
  507      -39.556808   1.000000
  508      -39.575219   1.000000
  509      -39.518142   1.000000
  510      -39.417433   1.000000
  511      -39.215446   1.000000
  512      -39.432172   1.000000
  513      -39.347761   1.000000
  514      -39.347331   1.000000
  515      -39.443166   1.000000
  516      -39.288113   1.000000
  517      -39.329652   1.000000
  518      -39.172560   1.000000
  519      -39.173706   1.000000
  520      -39.013466   1.000000
  521      -39.154409   1.000000
  522      -39.033910   1.000000
  523      -39.008014   1.000000
  524      -38.992501   1.000000
  525      -39.009173   1.000000
  526      -38.991992   1.000000
  527      -38.976941   1.000000
  528      -38.958950   1.000000
  529      -38.975461   1.000000
  530      -38.965812   1.000000
  531      -38.968699   1.000000
  532      -38.845777   1.000000
  533      -38.966178   1.000000
  534      -38.859136   1.000000
  535      -38.865146   1.000000
  536      -38.782511   1.000000
  537      -38.713191   1.000000
  538      -38.803619   1.000000
  539      -38.676364   1.000000
  540      -38.608380   1.000000
  541      -38.628629   1.000000
  542      -38.676912   1.000000
  543      -38.665909   1.000000
  544      -38.774616   1.000000
  545      -38.597869   1.000000
  546      -38.523750   1.000000
  547      -38.471688   1.000000
  548      -38.526976   1.000000
  549      -38.458662   1.000000
  550      -38.360447   1.000000
  551      -38.494702   1.000000
  552      -38.340459   1.000000
  553      -38.411479   1.000000
  554      -38.369224   1.000000
  555      -38.457499   1.000000
  556      -38.239650   1.000000
  557      -38.099872   1.000000
  558      -38.318803   1.000000
  559      -38.237970   1.000000
  560      -38.162640   1.000000
  561      -38.194225   1.000000
  562      -38.246357   1.000000
  563      -38.194850   1.000000
  564      -38.156128   1.000000
  565      -38.175166   1.000000
  566      -38.013804   1.000000
  567      -38.005825   1.000000
  568      -38.324792   1.000000
  569      -38.057666   1.000000
  570      -37.799219   1.000000
  571      -38.132014   1.000000
  572      -37.796968   1.000000
  573      -37.761399   1.000000
  574      -37.868448   1.000000
  575      -37.785024   1.000000
  576      -37.759094   1.000000
  577      -38.051236   1.000000
  578      -37.708114   1.000000
  579      -37.763652   1.000000
  580      -37.595664   1.000000
  581      -37.772217   1.000000
  582      -37.741381   1.000000
  583      -37.828862   1.000000
  584      -37.368458   1.000000
  585      -37.672731   1.000000
  586      -37.578575   1.000000
  587      -37.599290   1.000000
  588      -37.421806   1.000000
  589      -37.501577   1.000000
  590      -37.550969   1.000000
  591      -37.399595   1.000000
  592      -37.664674   1.000000
  593      -37.525055   1.000000
  594      -37.497268   1.000000
  595      -37.424786   1.000000
  596      -37.420038   1.000000
  597      -38.053412   1.000000
  598      -37.584137   1.000000
  599      -37.497246   1.000000
  600      -37.281606   1.000000
  601      -37.393746   1.000000
  602      -37.134731   1.000000
  603      -37.176595   1.000000
  604      -37.060835   1.000000
  605      -37.390212   1.000000
  606      -37.505810   1.000000
  607      -37.220497   1.000000
  608      -37.033374   1.000000
  609      -37.512489   1.000000
  610      -37.349300   1.000000
  611      -37.154848   1.000000
  612      -37.056318   1.000000
  613      -37.105739   1.000000
  614      -37.282201   1.000000
  615      -37.227824   1.000000
  616      -36.859628   1.000000
  617      -37.338637   1.000000
  618      -36.864443   1.000000
  619      -37.190451   1.000000
  620      -36.916072   1.000000
  621      -36.943786   1.000000
  622      -36.806017   1.000000
  623      -36.886480   1.000000
  624      -37.052446   1.000000
  625      -37.097325   1.000000
  626      -36.923479   1.000000
  627      -36.962214   1.000000
  628      -36.748450   1.000000
  629      -36.953562   1.000000
  630      -37.008521   1.000000
  631      -36.998681   1.000000
  632      -36.973300   1.000000
  633      -36.805304   1.000000
  634      -36.890203   1.000000
  635      -36.922021   1.000000
  636      -36.536795   1.000000
  637      -36.924159   1.000000
  638      -36.663019   1.000000
  639      -36.784921   1.000000
  640      -37.076769   1.000000
  641      -36.549955   1.000000
  642      -36.842996   1.000000
  643      -36.819428   1.000000
  644      -36.710137   1.000000
  645      -36.425586   1.000000
  646      -36.612864   1.000000
  647      -36.380446   1.000000
  648      -36.616065   1.000000
  649      -36.549016   1.000000
  650      -36.510263   1.000000
  651      -36.471003   1.000000
  652      -36.435908   1.000000
  653      -36.503159   1.000000
  654      -36.540460   1.000000
  655      -36.595159   1.000000
  656      -36.507908   1.000000
  657      -36.586995   1.000000
  658      -36.405536   1.000000
  659      -36.479680   1.000000
  660      -36.409584   1.000000
  661      -36.440497   1.000000
  662      -36.331976   1.000000
  663      -36.472100   1.000000
  664      -36.192480   1.000000
  665      -36.243734   1.000000
  666      -36.081154   1.000000
  667      -36.444591   1.000000
  668      -36.119640   1.000000
  669      -36.360983   1.000000
  670      -36.195824   1.000000
  671      -36.263079   1.000000
  672      -36.292932   1.000000
  673      -36.100958   1.000000
  674      -36.068859   1.000000
  675      -36.130166   1.000000
  676      -36.211351   1.000000
  677      -36.242797   1.000000
  678      -36.091186   1.000000
  679      -35.919535   1.000000
  680      -36.082321   1.000000
  681      -36.029922   1.000000
  682      -36.113765   1.000000
  683      -35.759565   1.000000
  684      -35.923058   1.000000
  685      -36.060331   1.000000
  686      -36.036903   1.000000
  687      -35.862202   1.000000
  688      -35.885464   1.000000
  689      -35.863394   1.000000
  690      -35.567022   1.000000
  691      -35.817719   1.000000
  692      -35.918637   1.000000
  693      -35.934220   1.000000
  694      -35.822432   1.000000
  695      -35.641503   1.000000
  696      -35.902361   1.000000
  697      -35.660847   1.000000
  698      -35.550030   1.000000
  699      -35.681406   1.000000
  700      -35.768984   1.000000
  701      -35.754806   1.000000
  702      -35.867125   1.000000
  703      -35.522096   1.000000
  704      -35.841600   1.000000
  705      -35.826517   1.000000
  706      -35.616083   1.000000
  707      -35.612548   1.000000
  708      -35.423315   1.000000
  709      -35.626375   1.000000
  710      -35.512621   1.000000
  711      -35.742943   1.000000
  712      -35.429198   1.000000
  713      -35.547725   1.000000
  714      -35.366009   1.000000
  715      -35.551760   1.000000
  716      -35.638558   1.000000
  717      -35.537698   1.000000
  718      -35.171527   1.000000
  719      -35.600787   1.000000
  720      -35.374382   1.000000
  721      -35.213388   1.000000
  722      -35.459730   1.000000
  723      -35.215062   1.000000
  724      -35.414081   1.000000
  725      -35.541603   1.000000
  726      -35.393908   1.000000
  727      -35.339316   1.000000
  728      -35.002074   1.000000
  729      -35.342753   1.000000
  730      -35.089647   1.000000
  731      -35.138945   1.000000
  732      -35.289115   1.000000
  733      -35.159217   1.000000
  734      -34.991984   1.000000
  735      -35.035882   1.000000
  736      -35.006500   1.000000
  737      -35.042329   1.000000
  738      -34.991101   1.000000
  739      -35.151830   1.000000
  740      -35.381918   1.000000
  741      -34.943674   1.000000
  742      -35.092923   1.000000
  743      -35.035039   1.000000
  744      -34.992230   1.000000
  745      -35.306496   1.000000
  746      -34.928880   1.000000
  747      -34.746109   1.000000
  748      -34.908006   1.000000
  749      -34.923182   1.000000
  750      -34.804458   1.000000
  751      -34.841799   1.000000
  752      -34.889294   1.000000
  753      -34.870490   1.000000
  754      -34.847784   1.000000
  755      -34.909033   1.000000
  756      -34.899592   1.000000
  757      -34.807605   1.000000
  758      -34.612572   1.000000
  759      -34.795597   1.000000
  760      -34.759503   1.000000
  761      -34.784629   1.000000
  762      -34.733252   1.000000
  763      -34.603352   1.000000
  764      -34.869418   1.000000
  765      -34.778807   1.000000
  766      -34.785416   1.000000
  767      -34.682469   1.000000
  768      -34.576145   1.000000
  769      -34.635082   1.000000
  770      -34.808712   1.000000
  771      -34.844775   1.000000
  772      -34.517384   1.000000
  773      -34.544431   1.000000
  774      -34.760361   1.000000
  775      -34.714399   1.000000
  776      -34.534822   1.000000
  777      -34.466658   1.000000
  778      -34.545765   1.000000
  779      -34.558551   1.000000
  780      -34.499510   1.000000
  781      -34.386154   1.000000
  782      -34.402380   1.000000
  783      -34.411774   1.000000
  784      -34.531452   1.000000
  785      -34.352271   1.000000
  786      -34.400987   1.000000
  787      -34.451822   1.000000
  788      -34.372094   1.000000
  789      -34.591386   1.000000
  790      -34.316812   1.000000
  791      -34.314288   1.000000
  792      -34.550579   1.000000
  793      -34.130339   1.000000
  794      -34.477421   1.000000
  795      -34.476712   1.000000
  796      -34.364574   1.000000
  797      -34.350044   1.000000
  798      -34.197749   1.000000
  799      -33.941280   1.000000
  800      -34.203090   1.000000
  801      -34.190970   1.000000
  802      -34.235574   1.000000
  803      -34.114638   1.000000
  804      -34.130190   1.000000
  805      -34.203311   1.000000
  806      -34.146981   1.000000
  807      -34.138493   1.000000
  808      -34.274753   1.000000
  809      -34.026117   1.000000
  810      -33.950405   1.000000
  811      -34.145670   1.000000
  812      -33.838072   1.000000
  813      -33.959279   1.000000
  814      -33.932892   1.000000
  815      -34.136194   1.000000
  816      -33.998574   1.000000
  817      -34.189490   1.000000
  818      -34.059550   1.000000
  819      -33.714216   1.000000
  820      -34.003085   1.000000
  821      -33.867147   1.000000
  822      -33.985341   1.000000
  823      -34.029609   1.000000
  824      -33.684782   1.000000
  825      -34.028825   1.000000
  826      -33.820139   1.000000
  827      -34.145416   1.000000
  828      -33.811816   1.000000
  829      -33.884723   1.000000
  830      -33.692945   1.000000
  831      -33.572160   1.000000
  832      -33.808501   1.000000
  833      -33.883152   1.000000
  834      -33.539484   1.000000
  835      -33.599743   1.000000
  836      -33.604486   1.000000
  837      -33.785847   1.000000
  838      -33.560797   1.000000
  839      -33.463420   1.000000
  840      -33.621509   1.000000
  841      -33.467511   1.000000
  842      -33.532507   1.000000
  843      -33.542887   1.000000
  844      -33.421921   1.000000
  845      -33.636544   1.000000
  846      -33.681515   1.000000
  847      -33.486189   1.000000
  848      -33.519027   1.000000
  849      -33.563057   1.000000
  850      -33.284175   1.000000
  851      -33.655205   1.000000
  852      -33.523561   1.000000
  853      -33.338546   1.000000
  854      -33.500055   1.000000
  855      -33.332482   1.000000
  856      -33.403376   1.000000
  857      -33.266805   1.000000
  858      -33.539470   1.000000
  859      -33.194009   1.000000
  860      -33.140325   1.000000
  861      -33.274451   1.000000
  862      -33.268289   1.000000
  863      -33.168566   1.000000
  864      -33.183234   1.000000
  865      -33.205290   1.000000
  866      -33.223955   1.000000
  867      -33.170178   1.000000
  868      -32.986431   1.000000
  869      -32.978809   1.000000
  870      -32.881733   1.000000
  871      -32.840015   1.000000
  872      -33.001219   1.000000
  873      -33.213652   1.000000
  874      -32.931068   1.000000
  875      -32.970599   1.000000
  876      -32.928376   1.000000
  877      -32.901615   1.000000
  878      -32.660869   1.000000
  879      -32.924415   1.000000
  880      -32.981077   1.000000
  881      -32.858321   1.000000
  882      -33.011811   1.000000
  883      -32.650116   1.000000
  884      -32.654020   1.000000
  885      -32.887869   1.000000
  886      -33.058701   1.000000
  887      -32.846359   1.000000
  888      -32.577461   1.000000
  889      -32.984427   1.000000
  890      -32.860042   1.000000
  891      -32.798609   1.000000
  892      -32.549507   1.000000
  893      -32.811177   1.000000
  894      -32.699748   1.000000
  895      -32.866817   1.000000
  896      -32.881440   1.000000
  897      -32.807971   1.000000
  898      -32.656088   1.000000
  899      -32.844589   1.000000
  900      -32.953872   1.000000
  901      -32.677690   1.000000