<?xml version="1.0" encoding="ISO-8859-1"?>
<modeling>
 <generator>
  <i name="program" type="string">vasp </i>
  <i name="version" type="string">5.4.4.18Apr17-6-g9f103f2a35  </i>
  <i name="subversion" type="string">(build Sep 27 2018 12:46:37) complex + VL-xray_ parallel </i>
  <i name="platform" type="string">LLNL_Quartz_ifc </i>
  <i name="date" type="string">2021 09 26 </i>
  <i name="time" type="string">22:12:34 </i>
 </generator>
 <incar>
  <i type="int" name="ISTART">     2</i>
  <i type="string" name="PREC">accurate</i>
  <i type="string" name="ALGO"> Fast</i>
  <i type="int" name="ICHARG">     2</i>
  <i type="int" name="INIWAV">     1</i>
  <i type="int" name="NELM">   100</i>
  <i type="int" name="NELMIN">     4</i>
  <i type="int" name="IBRION">     2</i>
  <i name="EDIFF">      0.00000100</i>
  <i type="int" name="NSW">     5</i>
  <i type="int" name="ISIF">     2</i>
  <i type="int" name="ISYM">     2</i>
  <i name="ENCUT">    450.00000000</i>
  <i name="POTIM">      0.25000000</i>
  <i type="string" name="LREAL"> Auto</i>
  <i type="int" name="ISMEAR">     0</i>
  <i name="SIGMA">      0.15000000</i>
  <i type="logical" name="LWAVE"> F  </i>
  <i type="logical" name="LCHARG"> F  </i>
  <i type="int" name="ICORELEVEL">     0</i>
  <i type="int" name="CLNT">     1</i>
  <i type="int" name="CLN">     1</i>
  <i type="int" name="INCAR     ">     0</i>
  <i name="CLZ">      0.00000000</i>
  <v type="int" name="KPOINT_BSE">    -1     0     0     0</v>
  <i type="int" name="NELM">   100</i>
 </incar>
 <structure name="primitive_cell" >
  <crystal>
   <varray name="basis" >
    <v>       9.72667804       0.00000000       0.00000000 </v>
    <v>       0.00000000       8.42355028       0.00000000 </v>
    <v>       0.00000000       0.00000000      45.00000000 </v>
   </varray>
   <i name="volume">   3686.99226691 </i>
   <varray name="rec_basis" >
    <v>       0.10281002       0.00000000       0.00000000 </v>
    <v>       0.00000000       0.11871479       0.00000000 </v>
    <v>       0.00000000       0.00000000       0.02222222 </v>
   </varray>
  </crystal>
  <varray name="positions" >
   <v>       0.06216794       0.03595292       0.12563032 </v>
   <v>       0.18775431       0.11734586       0.16777236 </v>
   <v>       0.06337231      -0.12965763       0.16847387 </v>
   <v>      -0.06284714       0.12010239       0.16866470 </v>
   <v>       0.18801357      -0.20862585       0.12551899 </v>
   <v>      -0.06421056      -0.20904514       0.12583062 </v>
   <v>      -0.18752155       0.03492692       0.12561788 </v>
   <v>       0.31284836       0.03499660       0.12567891 </v>
   <v>       0.18604120       0.29135027       0.12566236 </v>
   <v>      -0.06300288       0.29071011       0.12570521 </v>
   <v>       0.31223011      -0.12997558       0.16711452 </v>
   <v>      -0.18735224      -0.13051963       0.16852799 </v>
   <v>       0.06197456       0.36977051       0.16829025 </v>
   <v>      -0.06089108      -0.04047525       0.21319327 </v>
   <v>       0.43744503       0.11750962       0.16772114 </v>
   <v>      -0.31049858      -0.20903749       0.12575748 </v>
   <v>       0.18862773      -0.38031357       0.16790895 </v>
   <v>       0.18662380      -0.04076313       0.21339150 </v>
   <v>      -0.06271180      -0.38058489       0.16847051 </v>
   <v>       0.06204049       0.20713079       0.21291235 </v>
   <v>      -0.31244425       0.11980843       0.16856441 </v>
   <v>       0.31240662       0.36946790       0.16846020 </v>
   <v>       0.43715162      -0.20881297       0.12552417 </v>
   <v>       0.06102350      -0.46634179       0.12565183 </v>
   <v>      -0.18746208       0.37010102       0.16889164 </v>
   <v>      -0.31188892       0.29091631       0.12566440 </v>
   <v>       0.43829871       0.29130812       0.12563287 </v>
   <v>       0.06266647      -0.29194651       0.21296429 </v>
   <v>      -0.18744923       0.20785074       0.21273131 </v>
   <v>      -0.43624827       0.03578692       0.12552088 </v>
   <v>       0.31254830       0.20811095       0.21309885 </v>
   <v>       0.31159560      -0.46456897       0.12552682 </v>
   <v>      -0.18797648      -0.46453230       0.12552258 </v>
   <v>      -0.18753559      -0.29203489       0.21295293 </v>
   <v>       0.43598716      -0.38108435       0.16773510 </v>
   <v>      -0.31286889      -0.04155164       0.21309462 </v>
   <v>      -0.43748077      -0.12982656       0.16822440 </v>
   <v>      -0.31220486      -0.38054846       0.16831061 </v>
   <v>       0.31196135      -0.29543057       0.21365076 </v>
   <v>       0.43838828      -0.04066857       0.21335065 </v>
   <v>       0.18777576       0.45827984       0.21303956 </v>
   <v>      -0.06313840       0.45861715       0.21312970 </v>
   <v>      -0.43679548       0.37013771       0.16811816 </v>
   <v>       0.06130011       0.04125418       0.25751796 </v>
   <v>       0.18872475      -0.20907611       0.25741302 </v>
   <v>      -0.06421979      -0.20888189       0.25749189 </v>
   <v>      -0.43691497       0.20716064       0.21299126 </v>
   <v>       0.31427121       0.04136773       0.25731451 </v>
   <v>      -0.43645096      -0.46577532       0.12566206 </v>
   <v>      -0.18817682       0.04002160       0.25781915 </v>
   <v>      -0.06139143       0.29078608       0.25771602 </v>
   <v>      -0.31249713       0.45820156       0.21298515 </v>
   <v>       0.43753827       0.45821403       0.21303009 </v>
   <v>       0.18710951       0.29122424       0.25783726 </v>
   <v>      -0.43779554      -0.29206949       0.21304123 </v>
   <v>       0.06333559      -0.45945544       0.25752840 </v>
   <v>      -0.31267470      -0.20815647       0.25745566 </v>
   <v>       0.43699333      -0.20817808       0.25753912 </v>
   <v>       0.43634404       0.29228749       0.25750615 </v>
   <v>      -0.31507400       0.29076151       0.25756230 </v>
   <v>       0.31214077      -0.45701689       0.25699084 </v>
   <v>      -0.18659050      -0.45958209       0.25752928 </v>
   <v>      -0.43701191       0.04161881       0.25722786 </v>
   <v>       0.06201878      -0.12473298       0.30189671 </v>
   <v>      -0.06184629       0.12524530       0.30177615 </v>
   <v>       0.18768120       0.12633103       0.30185254 </v>
   <v>      -0.18766694      -0.12234318       0.30169812 </v>
   <v>       0.31274188      -0.12416802       0.30170252 </v>
   <v>       0.06250649       0.37722823       0.30169177 </v>
   <v>      -0.06273867      -0.37495215       0.30149074 </v>
   <v>      -0.43855639      -0.45874686       0.25744156 </v>
   <v>       0.18738623      -0.37343051       0.30183899 </v>
   <v>      -0.31164145       0.12522965       0.30184680 </v>
   <v>       0.43684305       0.12543673       0.30192821 </v>
   <v>       0.31232005       0.37409816       0.30184193 </v>
   <v>      -0.18720089       0.37556019       0.30179608 </v>
   <v>      -0.31317930      -0.37511770       0.30183138 </v>
   <v>       0.43854038      -0.37470945       0.30187873 </v>
   <v>      -0.43693243      -0.12460171       0.30187954 </v>
   <v>      -0.43770038       0.37623449       0.30170150 </v>
   <v>      -0.06146038      -0.04384349       0.34622517 </v>
   <v>       0.06341156       0.20660428       0.34625006 </v>
   <v>       0.18727783      -0.04289514       0.34649115 </v>
   <v>       0.06247041      -0.29273735       0.34646291 </v>
   <v>       0.31248841       0.20694061       0.34627098 </v>
   <v>      -0.18745177       0.20752397       0.34647569 </v>
   <v>       0.31251340      -0.29347223       0.34633257 </v>
   <v>      -0.18806760      -0.29277203       0.34647691 </v>
   <v>      -0.31267941      -0.04347857       0.34633966 </v>
   <v>       0.43686527      -0.04248274       0.34644140 </v>
   <v>      -0.06310297       0.45621434       0.34632334 </v>
   <v>       0.18802023       0.45814877       0.34658578 </v>
   <v>      -0.43747243       0.20720877       0.34645930 </v>
   <v>      -0.31251036       0.45596274       0.34647310 </v>
   <v>       0.43759389       0.45721624       0.34648887 </v>
   <v>       0.06456758       0.03253988      -0.12586023 </v>
   <v>      -0.43635195      -0.29354176       0.34635108 </v>
   <v>      -0.06136558      -0.21053244      -0.12553594 </v>
   <v>       0.18837623      -0.20936087      -0.12567388 </v>
   <v>       0.18865022       0.29128018      -0.12549401 </v>
   <v>      -0.18759688       0.03519570      -0.12578543 </v>
   <v>       0.31411532       0.03572698      -0.12580043 </v>
   <v>      -0.06522810       0.29286039      -0.12593008 </v>
   <v>       0.06254362       0.04017620       0.38987273 </v>
   <v>       0.43758378       0.29201074      -0.12522288 </v>
   <v>      -0.31398135      -0.20857441      -0.12558036 </v>
   <v>       0.06370181      -0.46445289      -0.12553651 </v>
   <v>       0.43752717      -0.20895531      -0.12577128 </v>
   <v>      -0.31376549       0.29323367      -0.12553683 </v>
   <v>      -0.06258060      -0.20885253       0.38981138 </v>
   <v>       0.31218353       0.04010166       0.38986552 </v>
   <v>       0.18684321      -0.20804243       0.39010857 </v>
   <v>      -0.06318195       0.29050397       0.38990108 </v>
   <v>       0.18748710       0.29072551       0.38992490 </v>
   <v>      -0.18859932       0.04129018       0.39019416 </v>
   <v>      -0.18899098      -0.46602471      -0.12542177 </v>
   <v>       0.31384066      -0.46474272      -0.12549198 </v>
   <v>      -0.43772394       0.03428449      -0.12556423 </v>
   <v>       0.06275453      -0.45909124       0.38990976 </v>
   <v>      -0.31275027      -0.20964958       0.38981890 </v>
   <v>      -0.31276724       0.29094849       0.38978942 </v>
   <v>       0.43607188      -0.20838739       0.39024137 </v>
   <v>       0.43774107       0.29109363       0.38992059 </v>
   <v>       0.31101785      -0.45922277       0.38996131 </v>
   <v>      -0.18776888      -0.45938774       0.38995558 </v>
   <v>      -0.43766140       0.04097701       0.38992449 </v>
   <v>      -0.43859901      -0.46495475      -0.12557226 </v>
   <v>      -0.06104352      -0.04106587      -0.16739379 </v>
   <v>       0.06319258       0.20915927      -0.16743213 </v>
   <v>       0.18844181      -0.04192115      -0.16810491 </v>
   <v>       0.06266618      -0.29018201      -0.16762643 </v>
   <v>      -0.18619250       0.20970129      -0.16751158 </v>
   <v>      -0.43760760      -0.45940011       0.38984945 </v>
   <v>       0.31304636       0.20534201      -0.16822524 </v>
   <v>      -0.06214833       0.45801192      -0.16774896 </v>
   <v>      -0.18689575      -0.28974969      -0.16839463 </v>
   <v>      -0.31256518      -0.04409104      -0.16812194 </v>
   <v>       0.18786366       0.45674289      -0.16810101 </v>
   <v>       0.43942740      -0.04418309      -0.16854143 </v>
   <v>       0.31403286      -0.29346392      -0.16872625 </v>
   <v>      -0.06295874       0.12474650       0.43459464 </v>
   <v>       0.18707527       0.12472635       0.43473438 </v>
   <v>       0.06195159      -0.12555495       0.43513760 </v>
   <v>      -0.31091061       0.45522170      -0.16824561 </v>
   <v>      -0.43787730       0.20599497      -0.16845258 </v>
   <v>       0.43805421       0.45564099      -0.16851518 </v>
   <v>       0.31260974      -0.12650299       0.43464962 </v>
   <v>       0.06191473       0.37421534       0.43492307 </v>
   <v>      -0.18824777      -0.12549471       0.43522844 </v>
   <v>      -0.43727895      -0.29343132      -0.16836334 </v>
   <v>      -0.06248661      -0.37616762       0.43471836 </v>
   <v>       0.18771880      -0.37574269       0.43488400 </v>
   <v>      -0.31225191       0.12311340       0.43466119 </v>
   <v>       0.43716305       0.12426858       0.43489258 </v>
   <v>      -0.18712258       0.37402753       0.43479388 </v>
   <v>       0.31241847       0.37348393       0.43480677 </v>
   <v>      -0.31287757      -0.37648043       0.43456241 </v>
   <v>      -0.43764641      -0.12660201       0.43470279 </v>
   <v>       0.43703903      -0.37538631       0.43498356 </v>
   <v>      -0.43822755       0.37449174       0.43509437 </v>
   <v>       0.18747398       0.11678862      -0.21290522 </v>
   <v>      -0.06223990       0.11700941      -0.21295339 </v>
   <v>       0.06243748      -0.13160071      -0.21314497 </v>
   <v>       0.06233797       0.36843190      -0.21298648 </v>
   <v>       0.31259569      -0.13263473      -0.21319135 </v>
   <v>      -0.18854223      -0.13123865      -0.21350172 </v>
   <v>       0.43746626       0.11735505      -0.21287253 </v>
   <v>      -0.18714031       0.36825218      -0.21300047 </v>
   <v>       0.31261608       0.36820796      -0.21305782 </v>
   <v>       0.18703856      -0.38287926      -0.21310412 </v>
   <v>      -0.31410230       0.11672709      -0.21328449 </v>
   <v>      -0.06300236      -0.38271573      -0.21347400 </v>
   <v>       0.06238623       0.20584962       0.47866080 </v>
   <v>       0.18762824      -0.04404845       0.47882798 </v>
   <v>      -0.06251925      -0.04388795       0.47894134 </v>
   <v>       0.43759141      -0.38309103      -0.21286498 </v>
   <v>      -0.43699291      -0.13204626      -0.21303546 </v>
   <v>      -0.31188051      -0.38264502      -0.21306926 </v>
   <v>       0.06236114      -0.29462220       0.47874024 </v>
   <v>      -0.18763886       0.20608994       0.47870402 </v>
   <v>       0.31256870       0.20575696       0.47876259 </v>
   <v>      -0.43791184       0.36772489      -0.21305996 </v>
   <v>      -0.31278658      -0.04417520       0.47871010 </v>
   <v>       0.31240522      -0.29426215       0.47878040 </v>
   <v>      -0.18748209      -0.29436226       0.47879764 </v>
   <v>       0.43746150      -0.04425411       0.47877227 </v>
   <v>      -0.06252979       0.45572898       0.47872730 </v>
   <v>       0.18753616       0.45577384       0.47872414 </v>
   <v>      -0.43760367       0.20581716       0.47876899 </v>
   <v>      -0.31243709       0.45570059       0.47875003 </v>
   <v>       0.43730411       0.45618200       0.47887215 </v>
   <v>      -0.43735040      -0.29415107       0.47867865 </v>
   <v>       0.06125767       0.03600281      -0.25758851 </v>
   <v>      -0.06240207      -0.21278753      -0.25713315 </v>
   <v>       0.18746385      -0.21259322      -0.25714341 </v>
   <v>      -0.18669962       0.03665835      -0.25736851 </v>
   <v>      -0.06262817       0.28540656      -0.25755728 </v>
   <v>       0.31142435       0.03731826      -0.25768755 </v>
   <v>       0.18939764       0.28709708      -0.25764785 </v>
   <v>      -0.31235247      -0.21248998      -0.25724437 </v>
   <v>       0.43717930      -0.21231320      -0.25729925 </v>
   <v>       0.06406610      -0.46411982      -0.25749163 </v>
   <v>       0.43754677       0.28863316      -0.25768158 </v>
   <v>      -0.31310596       0.28742555      -0.25776240 </v>
   <v>       0.06303942      -0.12946710      -0.47884183 </v>
   <v>      -0.06266944       0.12221619      -0.47886403 </v>
   <v>       0.18709059       0.12142121      -0.47880019 </v>
   <v>      -0.18806722      -0.46339799      -0.25725957 </v>
   <v>       0.31201096      -0.46426962      -0.25728090 </v>
   <v>      -0.43609536       0.03648699      -0.25754548 </v>
   <v>      -0.18761108      -0.12951401      -0.47895148 </v>
   <v>       0.31216977      -0.12909621      -0.47887979 </v>
   <v>       0.06297453       0.37089592      -0.47884960 </v>
   <v>      -0.06238610      -0.37929150      -0.47886765 </v>
   <v>       0.18731857      -0.37930084      -0.47885399 </v>
   <v>      -0.18741346       0.37084199      -0.47888399 </v>
   <v>       0.31258933       0.37098541      -0.47891052 </v>
   <v>       0.43761033       0.12081352      -0.47887143 </v>
   <v>      -0.31188108       0.12151004      -0.47879081 </v>
   <v>      -0.43714497      -0.46302178      -0.25759575 </v>
   <v>      -0.43744924      -0.12901457      -0.47887130 </v>
   <v>      -0.31281296      -0.37860501      -0.47881942 </v>
   <v>       0.43808191      -0.37809590      -0.47875395 </v>
   <v>      -0.43765769       0.37088725      -0.47882224 </v>
   <v>       0.18791529      -0.04447923      -0.30161908 </v>
   <v>      -0.06236323      -0.04459755      -0.30165598 </v>
   <v>       0.06237190       0.20485466      -0.30168043 </v>
   <v>       0.31201557       0.20538548      -0.30150403 </v>
   <v>      -0.18716057       0.20512284      -0.30156972 </v>
   <v>       0.06307291      -0.29532412      -0.30173605 </v>
   <v>      -0.18792243      -0.29493005      -0.30156827 </v>
   <v>       0.18688155       0.45575688      -0.30156045 </v>
   <v>       0.31275986      -0.29608003      -0.30170373 </v>
   <v>      -0.31318784      -0.04493563      -0.30172396 </v>
   <v>      -0.06267648       0.45604147      -0.30168387 </v>
   <v>       0.43699889      -0.04604084      -0.30187795 </v>
   <v>       0.18774709      -0.04284100      -0.43509550 </v>
   <v>       0.06290514       0.20685576      -0.43512071 </v>
   <v>      -0.06266156      -0.04243733      -0.43500406 </v>
   <v>      -0.43698975       0.20515178      -0.30159611 </v>
   <v>      -0.31252565       0.45471661      -0.30164431 </v>
   <v>       0.43752084       0.45512753      -0.30167436 </v>
   <v>       0.06254971      -0.29268568      -0.43510270 </v>
   <v>       0.31291496       0.20700794      -0.43513149 </v>
   <v>      -0.18786179       0.20709111      -0.43510604 </v>
   <v>      -0.43838609      -0.29582177      -0.30184756 </v>
   <v>      -0.18704023      -0.29307705      -0.43510812 </v>
   <v>       0.31234823      -0.29284934      -0.43508952 </v>
   <v>       0.43728161      -0.04306093      -0.43515723 </v>
   <v>      -0.31212147      -0.04305119      -0.43512316 </v>
   <v>       0.18807843       0.45698993      -0.43512739 </v>
   <v>      -0.06275629       0.45704167      -0.43509711 </v>
   <v>      -0.43712185       0.20723009      -0.43516546 </v>
   <v>      -0.31218414       0.45710253      -0.43512282 </v>
   <v>       0.43700601       0.45728172      -0.43508884 </v>
   <v>      -0.43723886      -0.29258139      -0.43503006 </v>
   <v>      -0.06198245       0.12158157      -0.34616195 </v>
   <v>       0.06303949      -0.12932915      -0.34632249 </v>
   <v>       0.18712424       0.12093432      -0.34633582 </v>
   <v>       0.31334256      -0.12883268      -0.34611943 </v>
   <v>      -0.18814562      -0.12976618      -0.34628861 </v>
   <v>       0.06217254       0.36963101      -0.34636650 </v>
   <v>      -0.06305078      -0.37888466      -0.34625505 </v>
   <v>       0.18791899      -0.37848546      -0.34626697 </v>
   <v>      -0.18654729       0.37019583      -0.34625399 </v>
   <v>       0.31261306       0.37064635      -0.34636930 </v>
   <v>      -0.31268650       0.12061700      -0.34644109 </v>
   <v>       0.43796086       0.12025151      -0.34654901 </v>
   <v>       0.06203225       0.03603267      -0.39008391 </v>
   <v>      -0.31301107      -0.37878961      -0.34622883 </v>
   <v>       0.43808636      -0.37917325      -0.34621265 </v>
   <v>      -0.43780407      -0.12908824      -0.34630939 </v>
   <v>      -0.18795829       0.03613225      -0.39022488 </v>
   <v>       0.18641805      -0.21300305      -0.39006609 </v>
   <v>      -0.06194837      -0.21263495      -0.39001196 </v>
   <v>       0.18795899       0.28757106      -0.38989394 </v>
   <v>       0.31313573       0.03660247      -0.38983919 </v>
   <v>      -0.06378146       0.28734847      -0.38979252 </v>
   <v>      -0.43722468       0.37057228      -0.34636768 </v>
   <v>      -0.31149621      -0.21335184      -0.39004660 </v>
   <v>       0.43660353      -0.21283720      -0.39004778 </v>
   <v>       0.43637720       0.28727303      -0.38998665 </v>
   <v>      -0.31352591       0.28716636      -0.39000447 </v>
   <v>       0.06229068      -0.46469579      -0.38978610 </v>
   <v>       0.31130834      -0.46370016      -0.39012805 </v>
   <v>      -0.18668039      -0.46421562      -0.38999215 </v>
   <v>      -0.43790968       0.03571002      -0.38970305 </v>
   <v>      -0.43690704      -0.46383505      -0.39005907 </v>
  </varray>
 </structure>
 <varray name="primitive_index" >
  <v type="int" >        1 </v>
  <v type="int" >      125 </v>
  <v type="int" >       60 </v>
  <v type="int" >       26 </v>
  <v type="int" >       83 </v>
  <v type="int" >       44 </v>
  <v type="int" >      202 </v>
  <v type="int" >      256 </v>
  <v type="int" >      111 </v>
  <v type="int" >      155 </v>
  <v type="int" >      277 </v>
  <v type="int" >      102 </v>
  <v type="int" >       51 </v>
  <v type="int" >      212 </v>
  <v type="int" >      182 </v>
  <v type="int" >      163 </v>
  <v type="int" >       20 </v>
  <v type="int" >      146 </v>
  <v type="int" >      104 </v>
  <v type="int" >       50 </v>
  <v type="int" >      166 </v>
  <v type="int" >      108 </v>
  <v type="int" >       55 </v>
  <v type="int" >      176 </v>
  <v type="int" >       10 </v>
  <v type="int" >      145 </v>
  <v type="int" >      117 </v>
  <v type="int" >      250 </v>
  <v type="int" >      167 </v>
  <v type="int" >      114 </v>
  <v type="int" >      123 </v>
  <v type="int" >       91 </v>
  <v type="int" >      205 </v>
  <v type="int" >      213 </v>
  <v type="int" >      174 </v>
  <v type="int" >       92 </v>
  <v type="int" >      192 </v>
  <v type="int" >       97 </v>
  <v type="int" >      276 </v>
  <v type="int" >      229 </v>
  <v type="int" >      189 </v>
  <v type="int" >      175 </v>
  <v type="int" >       30 </v>
  <v type="int" >      185 </v>
  <v type="int" >      200 </v>
  <v type="int" >       52 </v>
  <v type="int" >      103 </v>
  <v type="int" >      179 </v>
  <v type="int" >      164 </v>
  <v type="int" >       24 </v>
  <v type="int" >      127 </v>
  <v type="int" >      261 </v>
  <v type="int" >      139 </v>
  <v type="int" >      112 </v>
  <v type="int" >      243 </v>
  <v type="int" >      168 </v>
  <v type="int" >      118 </v>
  <v type="int" >      137 </v>
  <v type="int" >      265 </v>
  <v type="int" >       58 </v>
  <v type="int" >      275 </v>
  <v type="int" >       81 </v>
  <v type="int" >      281 </v>
  <v type="int" >      214 </v>
  <v type="int" >      135 </v>
  <v type="int" >      215 </v>
  <v type="int" >       72 </v>
  <v type="int" >       98 </v>
  <v type="int" >      226 </v>
  <v type="int" >      178 </v>
  <v type="int" >       28 </v>
  <v type="int" >      263 </v>
  <v type="int" >      109 </v>
  <v type="int" >      159 </v>
  <v type="int" >      242 </v>
  <v type="int" >      220 </v>
  <v type="int" >      130 </v>
  <v type="int" >      101 </v>
  <v type="int" >      210 </v>
  <v type="int" >      171 </v>
  <v type="int" >      194 </v>
  <v type="int" >       47 </v>
  <v type="int" >      258 </v>
  <v type="int" >      216 </v>
  <v type="int" >       86 </v>
  <v type="int" >      207 </v>
  <v type="int" >      208 </v>
  <v type="int" >       73 </v>
  <v type="int" >       25 </v>
  <v type="int" >      172 </v>
  <v type="int" >       12 </v>
  <v type="int" >      116 </v>
  <v type="int" >      219 </v>
  <v type="int" >      279 </v>
  <v type="int" >      206 </v>
  <v type="int" >      282 </v>
  <v type="int" >       62 </v>
  <v type="int" >      105 </v>
  <v type="int" >      268 </v>
  <v type="int" >      120 </v>
  <v type="int" >       14 </v>
  <v type="int" >      245 </v>
  <v type="int" >      280 </v>
  <v type="int" >      124 </v>
  <v type="int" >      255 </v>
  <v type="int" >       29 </v>
  <v type="int" >      266 </v>
  <v type="int" >      150 </v>
  <v type="int" >      191 </v>
  <v type="int" >      190 </v>
  <v type="int" >      165 </v>
  <v type="int" >      283 </v>
  <v type="int" >       13 </v>
  <v type="int" >      248 </v>
  <v type="int" >       48 </v>
  <v type="int" >      247 </v>
  <v type="int" >       18 </v>
  <v type="int" >      161 </v>
  <v type="int" >      273 </v>
  <v type="int" >       45 </v>
  <v type="int" >       84 </v>
  <v type="int" >      264 </v>
  <v type="int" >        4 </v>
  <v type="int" >       67 </v>
  <v type="int" >      270 </v>
  <v type="int" >       16 </v>
  <v type="int" >       64 </v>
  <v type="int" >       17 </v>
  <v type="int" >      259 </v>
  <v type="int" >        7 </v>
  <v type="int" >      134 </v>
  <v type="int" >        6 </v>
  <v type="int" >      222 </v>
  <v type="int" >       39 </v>
  <v type="int" >       36 </v>
  <v type="int" >      253 </v>
  <v type="int" >       88 </v>
  <v type="int" >      181 </v>
  <v type="int" >      110 </v>
  <v type="int" >        5 </v>
  <v type="int" >      158 </v>
  <v type="int" >      160 </v>
  <v type="int" >      204 </v>
  <v type="int" >       82 </v>
  <v type="int" >      143 </v>
  <v type="int" >       74 </v>
  <v type="int" >       23 </v>
  <v type="int" >      218 </v>
  <v type="int" >      235 </v>
  <v type="int" >      241 </v>
  <v type="int" >      131 </v>
  <v type="int" >      238 </v>
  <v type="int" >      257 </v>
  <v type="int" >      201 </v>
  <v type="int" >       80 </v>
  <v type="int" >      113 </v>
  <v type="int" >      232 </v>
  <v type="int" >       69 </v>
  <v type="int" >      249 </v>
  <v type="int" >      251 </v>
  <v type="int" >        3 </v>
  <v type="int" >      149 </v>
  <v type="int" >      197 </v>
  <v type="int" >      254 </v>
  <v type="int" >      224 </v>
  <v type="int" >      287 </v>
  <v type="int" >       49 </v>
  <v type="int" >       57 </v>
  <v type="int" >      138 </v>
  <v type="int" >      272 </v>
  <v type="int" >      188 </v>
  <v type="int" >      132 </v>
  <v type="int" >      223 </v>
  <v type="int" >       94 </v>
  <v type="int" >      236 </v>
  <v type="int" >      184 </v>
  <v type="int" >       33 </v>
  <v type="int" >       66 </v>
  <v type="int" >      157 </v>
  <v type="int" >       21 </v>
  <v type="int" >      230 </v>
  <v type="int" >      106 </v>
  <v type="int" >       75 </v>
  <v type="int" >       99 </v>
  <v type="int" >      234 </v>
  <v type="int" >      221 </v>
  <v type="int" >      269 </v>
  <v type="int" >      244 </v>
  <v type="int" >      237 </v>
  <v type="int" >      199 </v>
  <v type="int" >      156 </v>
  <v type="int" >      169 </v>
  <v type="int" >        9 </v>
  <v type="int" >       46 </v>
  <v type="int" >      262 </v>
  <v type="int" >      151 </v>
  <v type="int" >      187 </v>
  <v type="int" >      239 </v>
  <v type="int" >       11 </v>
  <v type="int" >       43 </v>
  <v type="int" >       31 </v>
  <v type="int" >      211 </v>
  <v type="int" >       71 </v>
  <v type="int" >       19 </v>
  <v type="int" >      286 </v>
  <v type="int" >       27 </v>
  <v type="int" >      140 </v>
  <v type="int" >       87 </v>
  <v type="int" >      288 </v>
  <v type="int" >      267 </v>
  <v type="int" >      284 </v>
  <v type="int" >      144 </v>
  <v type="int" >      107 </v>
  <v type="int" >      203 </v>
  <v type="int" >       68 </v>
  <v type="int" >      177 </v>
  <v type="int" >      183 </v>
  <v type="int" >      119 </v>
  <v type="int" >       34 </v>
  <v type="int" >      278 </v>
  <v type="int" >       77 </v>
  <v type="int" >      195 </v>
  <v type="int" >      252 </v>
  <v type="int" >      285 </v>
  <v type="int" >      173 </v>
  <v type="int" >      225 </v>
  <v type="int" >       37 </v>
  <v type="int" >       63 </v>
  <v type="int" >      233 </v>
  <v type="int" >      274 </v>
  <v type="int" >      141 </v>
  <v type="int" >      246 </v>
  <v type="int" >      154 </v>
  <v type="int" >       54 </v>
  <v type="int" >      152 </v>
  <v type="int" >       38 </v>
  <v type="int" >      162 </v>
  <v type="int" >      170 </v>
  <v type="int" >      129 </v>
  <v type="int" >       53 </v>
  <v type="int" >       76 </v>
  <v type="int" >      193 </v>
  <v type="int" >       65 </v>
  <v type="int" >       93 </v>
  <v type="int" >      271 </v>
  <v type="int" >      133 </v>
  <v type="int" >       32 </v>
  <v type="int" >       90 </v>
  <v type="int" >       56 </v>
  <v type="int" >       95 </v>
  <v type="int" >       59 </v>
  <v type="int" >       42 </v>
  <v type="int" >        8 </v>
  <v type="int" >      228 </v>
  <v type="int" >       70 </v>
  <v type="int" >      186 </v>
  <v type="int" >      122 </v>
  <v type="int" >      196 </v>
  <v type="int" >      121 </v>
  <v type="int" >        2 </v>
  <v type="int" >       79 </v>
  <v type="int" >      198 </v>
  <v type="int" >      240 </v>
  <v type="int" >      153 </v>
  <v type="int" >       35 </v>
  <v type="int" >       85 </v>
  <v type="int" >      209 </v>
  <v type="int" >      231 </v>
  <v type="int" >      142 </v>
  <v type="int" >      227 </v>
  <v type="int" >       40 </v>
  <v type="int" >       89 </v>
  <v type="int" >      217 </v>
  <v type="int" >       15 </v>
  <v type="int" >      136 </v>
  <v type="int" >       61 </v>
  <v type="int" >      148 </v>
  <v type="int" >      100 </v>
  <v type="int" >       78 </v>
  <v type="int" >      180 </v>
  <v type="int" >       96 </v>
  <v type="int" >      115 </v>
  <v type="int" >      147 </v>
  <v type="int" >      126 </v>
  <v type="int" >       41 </v>
  <v type="int" >       22 </v>
  <v type="int" >      260 </v>
  <v type="int" >      128 </v>
 </varray>
 <kpoints>
  <generation param="Gamma">
   <v type="int" name="divisions">       4        4        1 </v>
   <v name="usershift">      0.00000000       0.00000000       0.00000000 </v>
   <v name="genvec1">      0.25000000       0.00000000       0.00000000 </v>
   <v name="genvec2">      0.00000000       0.25000000       0.00000000 </v>
   <v name="genvec3">      0.00000000       0.00000000       1.00000000 </v>
   <v name="shift">      0.00000000       0.00000000       0.00000000 </v>
  </generation>
  <varray name="kpointlist" >
   <v>       0.00000000       0.00000000       0.00000000 </v>
   <v>       0.25000000       0.00000000       0.00000000 </v>
   <v>       0.50000000       0.00000000       0.00000000 </v>
   <v>       0.00000000       0.25000000       0.00000000 </v>
   <v>       0.25000000       0.25000000       0.00000000 </v>
   <v>       0.50000000       0.25000000       0.00000000 </v>
   <v>      -0.25000000       0.25000000       0.00000000 </v>
   <v>       0.00000000       0.50000000       0.00000000 </v>
   <v>       0.25000000       0.50000000       0.00000000 </v>
   <v>       0.50000000       0.50000000       0.00000000 </v>
  </varray>
  <varray name="weights" >
   <v>       0.06250000 </v>
   <v>       0.12500000 </v>
   <v>       0.06250000 </v>
   <v>       0.12500000 </v>
   <v>       0.12500000 </v>
   <v>       0.12500000 </v>
   <v>       0.12500000 </v>
   <v>       0.06250000 </v>
   <v>       0.12500000 </v>
   <v>       0.06250000 </v>
  </varray>
 </kpoints>
 <parameters>
  <separator name="general" >
   <i type="string" name="SYSTEM">unknown system</i>
   <i type="logical" name="LCOMPAT"> F  </i>
  </separator>
  <separator name="electronic" >
   <i type="string" name="PREC">accura</i>
   <i name="ENMAX">    450.00000000</i>
   <i name="ENAUG">    838.43500000</i>
   <i name="EDIFF">      0.00000100</i>
   <i type="int" name="IALGO">    68</i>
   <i type="int" name="IWAVPR">    11</i>
   <i type="int" name="NBANDS">  1386</i>
   <i name="NELECT">   2290.00000000</i>
   <i type="int" name="TURBO">     0</i>
   <i type="int" name="IRESTART">     0</i>
   <i type="int" name="NREBOOT">     0</i>
   <i type="int" name="NMIN">     0</i>
   <i name="EREF">      0.00000000</i>
   <separator name="electronic smearing" >
    <i type="int" name="ISMEAR">     0</i>
    <i name="SIGMA">      0.15000000</i>
    <i name="KSPACING">      0.50000000</i>
    <i type="logical" name="KGAMMA"> T  </i>
   </separator>
   <separator name="electronic projectors" >
    <i type="logical" name="LREAL"> T  </i>
    <v name="ROPT">     -0.00025000     -0.00025000</v>
    <i type="int" name="LMAXPAW">  -100</i>
    <i type="int" name="LMAXMIX">     2</i>
    <i type="logical" name="NLSPLINE"> F  </i>
   </separator>
   <separator name="electronic startup" >
    <i type="int" name="ISTART">     0</i>
    <i type="int" name="ICHARG">     2</i>
    <i type="int" name="INIWAV">     1</i>
   </separator>
   <separator name="electronic spin" >
    <i type="int" name="ISPIN">     1</i>
    <i type="logical" name="LNONCOLLINEAR"> F  </i>
    <v name="MAGMOM">      1.00000000      1.00000000      1.00000000      1.00000000      1.00000000      1.00000000      1.00000000      1.00000000      1.00000000      1.00000000      1.00000000      1.00000000      1.00000000      1.00000000      1.00000000      1.00000000      1.00000000      1.00000000      1.00000000      1.00000000
      1.00000000      1.00000000      1.00000000      1.00000000      1.00000000      1.00000000      1.00000000      1.00000000      1.00000000      1.00000000      1.00000000      1.00000000      1.00000000      1.00000000      1.00000000      1.00000000      1.00000000      1.00000000      1.00000000      1.00000000
      1.00000000      1.00000000      1.00000000      1.00000000      1.00000000      1.00000000      1.00000000      1.00000000      1.00000000      1.00000000      1.00000000      1.00000000      1.00000000      1.00000000      1.00000000      1.00000000      1.00000000      1.00000000      1.00000000      1.00000000
      1.00000000      1.00000000      1.00000000      1.00000000      1.00000000      1.00000000      1.00000000      1.00000000      1.00000000      1.00000000      1.00000000      1.00000000      1.00000000      1.00000000      1.00000000      1.00000000      1.00000000      1.00000000      1.00000000      1.00000000
      1.00000000      1.00000000      1.00000000      1.00000000      1.00000000      1.00000000      1.00000000      1.00000000      1.00000000      1.00000000      1.00000000      1.00000000      1.00000000      1.00000000      1.00000000      1.00000000      1.00000000      1.00000000      1.00000000      1.00000000
      1.00000000      1.00000000      1.00000000      1.00000000      1.00000000      1.00000000      1.00000000      1.00000000      1.00000000      1.00000000      1.00000000      1.00000000      1.00000000      1.00000000      1.00000000      1.00000000      1.00000000      1.00000000      1.00000000      1.00000000
      1.00000000      1.00000000      1.00000000      1.00000000      1.00000000      1.00000000      1.00000000      1.00000000      1.00000000      1.00000000      1.00000000      1.00000000      1.00000000      1.00000000      1.00000000      1.00000000      1.00000000      1.00000000      1.00000000      1.00000000
      1.00000000      1.00000000      1.00000000      1.00000000      1.00000000      1.00000000      1.00000000      1.00000000      1.00000000      1.00000000      1.00000000      1.00000000      1.00000000      1.00000000      1.00000000      1.00000000      1.00000000      1.00000000      1.00000000      1.00000000
      1.00000000      1.00000000      1.00000000      1.00000000      1.00000000      1.00000000      1.00000000      1.00000000      1.00000000      1.00000000      1.00000000      1.00000000      1.00000000      1.00000000      1.00000000      1.00000000      1.00000000      1.00000000      1.00000000      1.00000000
      1.00000000      1.00000000      1.00000000      1.00000000      1.00000000      1.00000000      1.00000000      1.00000000      1.00000000      1.00000000      1.00000000      1.00000000      1.00000000      1.00000000      1.00000000      1.00000000      1.00000000      1.00000000      1.00000000      1.00000000
      1.00000000      1.00000000      1.00000000      1.00000000      1.00000000      1.00000000      1.00000000      1.00000000      1.00000000      1.00000000      1.00000000      1.00000000      1.00000000      1.00000000      1.00000000      1.00000000      1.00000000      1.00000000      1.00000000      1.00000000
      1.00000000      1.00000000      1.00000000      1.00000000      1.00000000      1.00000000      1.00000000      1.00000000      1.00000000      1.00000000      1.00000000      1.00000000      1.00000000      1.00000000      1.00000000      1.00000000      1.00000000      1.00000000      1.00000000      1.00000000
      1.00000000      1.00000000      1.00000000      1.00000000      1.00000000      1.00000000      1.00000000      1.00000000      1.00000000      1.00000000      1.00000000      1.00000000      1.00000000      1.00000000      1.00000000      1.00000000      1.00000000      1.00000000      1.00000000      1.00000000
      1.00000000      1.00000000      1.00000000      1.00000000      1.00000000      1.00000000      1.00000000      1.00000000      1.00000000      1.00000000      1.00000000      1.00000000      1.00000000      1.00000000      1.00000000      1.00000000      1.00000000      1.00000000      1.00000000      1.00000000
      1.00000000      1.00000000      1.00000000      1.00000000      1.00000000      1.00000000      1.00000000      1.00000000</v>
    <i name="NUPDOWN">     -1.00000000</i>
    <i type="logical" name="LSORBIT"> F  </i>
    <v name="SAXIS">      0.00000000      0.00000000      1.00000000</v>
    <i type="logical" name="LSPIRAL"> F  </i>
    <v name="QSPIRAL">      0.00000000      0.00000000      0.00000000</v>
    <i type="logical" name="LZEROZ"> F  </i>
   </separator>
   <separator name="electronic exchange-correlation" >
    <i type="logical" name="LASPH"> F  </i>
    <i type="logical" name="LMETAGGA"> F  </i>
   </separator>
   <separator name="electronic convergence" >
    <i type="int" name="NELM">   100</i>
    <i type="int" name="NELMDL">     0</i>
    <i type="int" name="NELMIN">     4</i>
    <i name="ENINI">    450.00000000</i>
    <separator name="electronic convergence detail" >
     <i type="logical" name="LDIAG"> T  </i>
     <i type="logical" name="LSUBROT"> F  </i>
     <i name="WEIMIN">      0.00100000</i>
     <i name="EBREAK">      0.00000000</i>
     <i name="DEPER">      0.30000000</i>
     <i type="int" name="NRMM">     4</i>
     <i name="TIME">      0.40000000</i>
    </separator>
   </separator>
   <separator name="electronic mixer" >
    <i name="AMIX">      0.40000000</i>
    <i name="BMIX">      1.00000000</i>
    <i name="AMIN">      0.10000000</i>
    <i name="AMIX_MAG">      1.60000000</i>
    <i name="BMIX_MAG">      1.00000000</i>
    <separator name="electronic mixer details" >
     <i type="int" name="IMIX">     4</i>
     <i type="logical" name="MIXFIRST"> F  </i>
     <i type="int" name="MAXMIX">   -45</i>
     <i name="WC">    100.00000000</i>
     <i type="int" name="INIMIX">     1</i>
     <i type="int" name="MIXPRE">     1</i>
     <i type="int" name="MREMOVE">     5</i>
    </separator>
   </separator>
   <separator name="electronic dipolcorrection" >
    <i type="logical" name="LDIPOL"> F  </i>
    <i type="logical" name="LMONO"> F  </i>
    <i type="int" name="IDIPOL">     0</i>
    <i name="EPSILON">      1.00000000</i>
    <v name="DIPOL">   -100.00000000   -100.00000000   -100.00000000</v>
    <i name="EFIELD">      0.00000000</i>
   </separator>
  </separator>
  <separator name="grids" >
   <i type="int" name="NGX">    70</i>
   <i type="int" name="NGY">    60</i>
   <i type="int" name="NGZ">   320</i>
   <i type="int" name="NGXF">   140</i>
   <i type="int" name="NGYF">   120</i>
   <i type="int" name="NGZF">   640</i>
   <i type="logical" name="ADDGRID"> F  </i>
  </separator>
  <separator name="ionic" >
   <i type="int" name="NSW">     5</i>
   <i type="int" name="IBRION">     2</i>
   <i type="int" name="MDALGO">     0</i>
   <i type="int" name="ISIF">     2</i>
   <i name="PSTRESS">      0.00000000</i>
   <i name="EDIFFG">      0.00001000</i>
   <i type="int" name="NFREE">     1</i>
   <i name="POTIM">      0.25000000</i>
   <i name="SMASS">     -3.00000000</i>
   <i name="SCALEE">      1.00000000</i>
  </separator>
  <separator name="ionic md" >
   <i name="TEBEG">      0.00010000</i>
   <i name="TEEND">      0.00010000</i>
   <i type="int" name="NBLOCK">     1</i>
   <i type="int" name="KBLOCK">     5</i>
   <i type="int" name="NPACO">   256</i>
   <i name="APACO">     16.00000000</i>
  </separator>
  <separator name="symmetry" >
   <i type="int" name="ISYM">     2</i>
   <i name="SYMPREC">      0.00001000</i>
  </separator>
  <separator name="dos" >
   <i type="int" name="LORBIT">     0</i>
   <v name="RWIGS">     -1.00000000     -1.00000000</v>
   <i type="int" name="NEDOS">   301</i>
   <i name="EMIN">     10.00000000</i>
   <i name="EMAX">    -10.00000000</i>
   <i name="EFERMI">      0.00000000</i>
  </separator>
  <separator name="writing" >
   <i type="int" name="NWRITE">     2</i>
   <i type="logical" name="LWAVE"> F  </i>
   <i type="logical" name="LDOWNSAMPLE"> F  </i>
   <i type="logical" name="LCHARG"> F  </i>
   <i type="logical" name="LPARD"> F  </i>
   <i type="logical" name="LVTOT"> F  </i>
   <i type="logical" name="LVHAR"> F  </i>
   <i type="logical" name="LELF"> F  </i>
   <i type="logical" name="LOPTICS"> F  </i>
   <v name="STM">      0.00000000      0.00000000      0.00000000      0.00000000      0.00000000      0.00000000      0.00000000</v>
  </separator>
  <separator name="performance" >
   <i type="int" name="NPAR">    14</i>
   <i type="int" name="NSIM">     4</i>
   <i type="int" name="NBLK">    -1</i>
   <i type="logical" name="LPLANE"> T  </i>
   <i type="logical" name="LSCALAPACK"> T  </i>
   <i type="logical" name="LSCAAWARE"> T  </i>
   <i type="logical" name="LSCALU"> F  </i>
   <i type="logical" name="LASYNC"> F  </i>
   <i type="logical" name="LORBITALREAL"> F  </i>
  </separator>
  <separator name="miscellaneous" >
   <i type="int" name="IDIOT">     3</i>
   <i type="int" name="ISPECIAL">     0</i>
   <i type="logical" name="LMUSIC"> F  </i>
   <v name="POMASS">     55.84700000     54.93800000</v>
   <v name="DARWINR">      0.00000000      0.00000000</v>
   <v name="DARWINV">      1.00000000      1.00000000</v>
   <i type="logical" name="LCORR"> T  </i>
  </separator>
  <i type="logical" name="GGA_COMPAT"> T  </i>
  <i type="logical" name="LBERRY"> F  </i>
  <i type="int" name="ICORELEVEL">     0</i>
  <i type="logical" name="LDAU"> F  </i>
  <i type="int" name="I_CONSTRAINED_M">     0</i>
  <separator name="electronic exchange-correlation" >
   <i type="string" name="GGA">--</i>
   <i type="int" name="VOSKOWN">     0</i>
   <i type="logical" name="LHFCALC"> F  </i>
   <i type="string" name="PRECFOCK"></i>
   <i type="logical" name="LSYMGRAD"> F  </i>
   <i type="logical" name="LHFONE"> F  </i>
   <i type="logical" name="LRHFCALC"> F  </i>
   <i type="logical" name="LTHOMAS"> F  </i>
   <i type="logical" name="LMODELHF"> F  </i>
   <i name="ENCUT4O">     -1.00000000</i>
   <i type="int" name="EXXOEP">     0</i>
   <i type="int" name="FOURORBIT">     0</i>
   <i name="AEXX">      0.00000000</i>
   <i name="HFALPHA">      0.00000000</i>
   <i name="MCALPHA">      0.00000000</i>
   <i name="ALDAX">      1.00000000</i>
   <i name="AGGAX">      1.00000000</i>
   <i name="ALDAC">      1.00000000</i>
   <i name="AGGAC">      1.00000000</i>
   <i type="int" name="NKREDX">     1</i>
   <i type="int" name="NKREDY">     1</i>
   <i type="int" name="NKREDZ">     1</i>
   <i type="logical" name="SHIFTRED"> F  </i>
   <i type="logical" name="ODDONLY"> F  </i>
   <i type="logical" name="EVENONLY"> F  </i>
   <i type="int" name="LMAXFOCK">     0</i>
   <i type="int" name="NMAXFOCKAE">     0</i>
   <i type="logical" name="LFOCKAEDFT"> F  </i>
   <i name="HFSCREEN">      0.00000000</i>
   <i name="HFSCREENC">      0.00000000</i>
   <i type="int" name="NBANDSGWLOW">     0</i>
  </separator>
  <separator name="vdW DFT" >
   <i type="logical" name="LUSE_VDW"> F  </i>
   <i name="Zab_VDW">     -0.84910000</i>
   <i name="PARAM1">      0.12340000</i>
   <i name="PARAM2">      1.00000000</i>
   <i name="PARAM3">      0.00000000</i>
  </separator>
  <separator name="model GW" >
   <i type="int" name="MODEL_GW">     0</i>
   <i name="MODEL_EPS0">      7.68123389</i>
   <i name="MODEL_ALPHA">      1.00000000</i>
  </separator>
  <separator name="linear response parameters" >
   <i type="logical" name="LEPSILON"> F  </i>
   <i type="logical" name="LRPA"> F  </i>
   <i type="logical" name="LNABLA"> F  </i>
   <i type="logical" name="LVEL"> F  </i>
   <i type="int" name="KINTER">     0</i>
   <i name="CSHIFT">      0.10000000</i>
   <i name="OMEGAMAX">     -1.00000000</i>
   <i name="DEG_THRESHOLD">      0.00200000</i>
   <i name="RTIME">     -0.10000000</i>
   <i name="WPLASMAI">      0.00000000</i>
   <v name="DFIELD">      0.00000000      0.00000000      0.00000000</v>
   <v name="WPLASMA">      0.00000000      0.00000000      0.00000000      0.00000000      0.00000000      0.00000000      0.00000000      0.00000000      0.00000000</v>
  </separator>
  <separator name="orbital magnetization" >
   <i type="logical" name="NUCIND"> F  </i>
   <v name="MAGPOS">      0.00000000      0.00000000      0.00000000</v>
   <i type="logical" name="LNICSALL"> T  </i>
   <i type="logical" name="ORBITALMAG"> F  </i>
   <i type="logical" name="LMAGBLOCH"> F  </i>
   <i type="logical" name="LCHIMAG"> F  </i>
   <i type="logical" name="LGAUGE"> T  </i>
   <i type="int" name="MAGATOM">     0</i>
   <v name="MAGDIPOL">      0.00000000      0.00000000      0.00000000</v>
   <v name="AVECCONST">      0.00000000      0.00000000      0.00000000</v>
  </separator>
  <separator name="response functions" >
   <i type="logical" name="LADDER"> F  </i>
   <i type="logical" name="LRPAFORCE"> F  </i>
   <i type="logical" name="LFXC"> F  </i>
   <i type="logical" name="LHARTREE"> T  </i>
   <i type="int" name="IBSE">     0</i>
   <v type="int" name="KPOINT">    -1     0     0     0</v>
   <i type="logical" name="LTCTE"> F  </i>
   <i type="logical" name="LTETE"> F  </i>
   <i type="logical" name="LTRIPLET"> F  </i>
   <i type="logical" name="LFXCEPS"> F  </i>
   <i type="logical" name="LFXHEG"> F  </i>
   <i type="int" name="NATURALO">     2</i>
   <i type="logical" name="L2ORDER"> F  </i>
   <i type="logical" name="LMP2LT"> F  </i>
   <i type="logical" name="LUSEW"> F  </i>
   <i name="ENCUTGW">     -2.00000000</i>
   <i name="ENCUTGWSOFT">     -2.00000000</i>
   <i name="ENCUTLF">     -1.00000000</i>
   <i type="int" name="LMAXMP2">    -1</i>
   <i name="SCISSOR">      0.00000000</i>
   <i type="int" name="NOMEGA">     0</i>
   <i type="int" name="NOMEGAR">     0</i>
   <i type="int" name="NBANDSGW">    -1</i>
   <i type="int" name="NBANDSO">    -1</i>
   <i type="int" name="NBANDSV">    -1</i>
   <i type="int" name="NELM">   100</i>
   <i type="int" name="NELMHF">     1</i>
   <i type="int" name="DIM">     3</i>
   <i type="int" name="ANTIRES">     0</i>
   <i name="OMEGAMAX">    -30.00000000</i>
   <i name="OMEGAMIN">    -30.00000000</i>
   <i name="OMEGATL">   -200.00000000</i>
   <i type="int" name="OMEGAGRID">   140</i>
   <i name="CSHIFT">     -0.10000000</i>
   <i type="logical" name="SELFENERGY"> F  </i>
   <i type="logical" name="LSPECTRAL"> F  </i>
   <i type="logical" name="LSPECTRALGW"> F  </i>
   <i type="logical" name="LSINGLES"> F  </i>
   <i type="logical" name="LFERMIGW"> F  </i>
   <i type="logical" name="ODDONLYGW"> F  </i>
   <i type="logical" name="EVENONLYGW"> F  </i>
   <i type="int" name="NKREDLFX">     1</i>
   <i type="int" name="NKREDLFY">     1</i>
   <i type="int" name="NKREDLFZ">     1</i>
   <i type="int" name="MAXMEM">  2800</i>
   <i type="int" name="TELESCOPE">     0</i>
   <i type="int" name="TAUPAR">     1</i>
   <i type="int" name="OMEGAPAR">    -1</i>
   <i name="LAMBDA">      1.00000000</i>
  </separator>
  <separator name="External order field" >
   <i name="OFIELD_KAPPA">      0.00000000</i>
   <v name="OFIELD_K">      0.00000000      0.00000000      0.00000000</v>
   <i name="OFIELD_Q6_NEAR">      0.00000000</i>
   <i name="OFIELD_Q6_FAR">      0.00000000</i>
   <i name="OFIELD_A">      0.00000000</i>
  </separator>
 </parameters>
 <atominfo>
  <atoms>     288 </atoms>
  <types>       2 </types>
  <array name="atoms" >
   <dimension dim="1">ion</dimension>
   <field type="string">element</field>
   <field type="int">atomtype</field>
   <set>
    <rc><c>Fe</c><c>   1</c></rc>
    <rc><c>Fe</c><c>   1</c></rc>
    <rc><c>Fe</c><c>   1</c></rc>
    <rc><c>Fe</c><c>   1</c></rc>
    <rc><c>Fe</c><c>   1</c></rc>
    <rc><c>Fe</c><c>   1</c></rc>
    <rc><c>Fe</c><c>   1</c></rc>
    <rc><c>Fe</c><c>   1</c></rc>
    <rc><c>Fe</c><c>   1</c></rc>
    <rc><c>Fe</c><c>   1</c></rc>
    <rc><c>Fe</c><c>   1</c></rc>
    <rc><c>Fe</c><c>   1</c></rc>
    <rc><c>Fe</c><c>   1</c></rc>
    <rc><c>Fe</c><c>   1</c></rc>
    <rc><c>Fe</c><c>   1</c></rc>
    <rc><c>Fe</c><c>   1</c></rc>
    <rc><c>Fe</c><c>   1</c></rc>
    <rc><c>Fe</c><c>   1</c></rc>
    <rc><c>Fe</c><c>   1</c></rc>
    <rc><c>Fe</c><c>   1</c></rc>
    <rc><c>Fe</c><c>   1</c></rc>
    <rc><c>Fe</c><c>   1</c></rc>
    <rc><c>Fe</c><c>   1</c></rc>
    <rc><c>Fe</c><c>   1</c></rc>
    <rc><c>Fe</c><c>   1</c></rc>
    <rc><c>Fe</c><c>   1</c></rc>
    <rc><c>Fe</c><c>   1</c></rc>
    <rc><c>Fe</c><c>   1</c></rc>
    <rc><c>Fe</c><c>   1</c></rc>
    <rc><c>Fe</c><c>   1</c></rc>
    <rc><c>Fe</c><c>   1</c></rc>
    <rc><c>Fe</c><c>   1</c></rc>
    <rc><c>Fe</c><c>   1</c></rc>
    <rc><c>Fe</c><c>   1</c></rc>
    <rc><c>Fe</c><c>   1</c></rc>
    <rc><c>Fe</c><c>   1</c></rc>
    <rc><c>Fe</c><c>   1</c></rc>
    <rc><c>Fe</c><c>   1</c></rc>
    <rc><c>Fe</c><c>   1</c></rc>
    <rc><c>Fe</c><c>   1</c></rc>
    <rc><c>Fe</c><c>   1</c></rc>
    <rc><c>Fe</c><c>   1</c></rc>
    <rc><c>Fe</c><c>   1</c></rc>
    <rc><c>Fe</c><c>   1</c></rc>
    <rc><c>Fe</c><c>   1</c></rc>
    <rc><c>Fe</c><c>   1</c></rc>
    <rc><c>Fe</c><c>   1</c></rc>
    <rc><c>Fe</c><c>   1</c></rc>
    <rc><c>Fe</c><c>   1</c></rc>
    <rc><c>Fe</c><c>   1</c></rc>
    <rc><c>Fe</c><c>   1</c></rc>
    <rc><c>Fe</c><c>   1</c></rc>
    <rc><c>Fe</c><c>   1</c></rc>
    <rc><c>Fe</c><c>   1</c></rc>
    <rc><c>Fe</c><c>   1</c></rc>
    <rc><c>Fe</c><c>   1</c></rc>
    <rc><c>Fe</c><c>   1</c></rc>
    <rc><c>Fe</c><c>   1</c></rc>
    <rc><c>Fe</c><c>   1</c></rc>
    <rc><c>Fe</c><c>   1</c></rc>
    <rc><c>Fe</c><c>   1</c></rc>
    <rc><c>Fe</c><c>   1</c></rc>
    <rc><c>Fe</c><c>   1</c></rc>
    <rc><c>Fe</c><c>   1</c></rc>
    <rc><c>Fe</c><c>   1</c></rc>
    <rc><c>Fe</c><c>   1</c></rc>
    <rc><c>Fe</c><c>   1</c></rc>
    <rc><c>Fe</c><c>   1</c></rc>
    <rc><c>Fe</c><c>   1</c></rc>
    <rc><c>Fe</c><c>   1</c></rc>
    <rc><c>Fe</c><c>   1</c></rc>
    <rc><c>Fe</c><c>   1</c></rc>
    <rc><c>Fe</c><c>   1</c></rc>
    <rc><c>Fe</c><c>   1</c></rc>
    <rc><c>Fe</c><c>   1</c></rc>
    <rc><c>Fe</c><c>   1</c></rc>
    <rc><c>Fe</c><c>   1</c></rc>
    <rc><c>Fe</c><c>   1</c></rc>
    <rc><c>Fe</c><c>   1</c></rc>
    <rc><c>Fe</c><c>   1</c></rc>
    <rc><c>Fe</c><c>   1</c></rc>
    <rc><c>Fe</c><c>   1</c></rc>
    <rc><c>Fe</c><c>   1</c></rc>
    <rc><c>Fe</c><c>   1</c></rc>
    <rc><c>Fe</c><c>   1</c></rc>
    <rc><c>Fe</c><c>   1</c></rc>
    <rc><c>Fe</c><c>   1</c></rc>
    <rc><c>Fe</c><c>   1</c></rc>
    <rc><c>Fe</c><c>   1</c></rc>
    <rc><c>Fe</c><c>   1</c></rc>
    <rc><c>Fe</c><c>   1</c></rc>
    <rc><c>Fe</c><c>   1</c></rc>
    <rc><c>Fe</c><c>   1</c></rc>
    <rc><c>Fe</c><c>   1</c></rc>
    <rc><c>Fe</c><c>   1</c></rc>
    <rc><c>Fe</c><c>   1</c></rc>
    <rc><c>Fe</c><c>   1</c></rc>
    <rc><c>Fe</c><c>   1</c></rc>
    <rc><c>Fe</c><c>   1</c></rc>
    <rc><c>Fe</c><c>   1</c></rc>
    <rc><c>Fe</c><c>   1</c></rc>
    <rc><c>Fe</c><c>   1</c></rc>
    <rc><c>Fe</c><c>   1</c></rc>
    <rc><c>Fe</c><c>   1</c></rc>
    <rc><c>Fe</c><c>   1</c></rc>
    <rc><c>Fe</c><c>   1</c></rc>
    <rc><c>Fe</c><c>   1</c></rc>
    <rc><c>Fe</c><c>   1</c></rc>
    <rc><c>Fe</c><c>   1</c></rc>
    <rc><c>Fe</c><c>   1</c></rc>
    <rc><c>Fe</c><c>   1</c></rc>
    <rc><c>Fe</c><c>   1</c></rc>
    <rc><c>Fe</c><c>   1</c></rc>
    <rc><c>Fe</c><c>   1</c></rc>
    <rc><c>Fe</c><c>   1</c></rc>
    <rc><c>Fe</c><c>   1</c></rc>
    <rc><c>Fe</c><c>   1</c></rc>
    <rc><c>Fe</c><c>   1</c></rc>
    <rc><c>Fe</c><c>   1</c></rc>
    <rc><c>Fe</c><c>   1</c></rc>
    <rc><c>Fe</c><c>   1</c></rc>
    <rc><c>Fe</c><c>   1</c></rc>
    <rc><c>Fe</c><c>   1</c></rc>
    <rc><c>Fe</c><c>   1</c></rc>
    <rc><c>Fe</c><c>   1</c></rc>
    <rc><c>Fe</c><c>   1</c></rc>
    <rc><c>Fe</c><c>   1</c></rc>
    <rc><c>Fe</c><c>   1</c></rc>
    <rc><c>Fe</c><c>   1</c></rc>
    <rc><c>Fe</c><c>   1</c></rc>
    <rc><c>Fe</c><c>   1</c></rc>
    <rc><c>Fe</c><c>   1</c></rc>
    <rc><c>Fe</c><c>   1</c></rc>
    <rc><c>Fe</c><c>   1</c></rc>
    <rc><c>Fe</c><c>   1</c></rc>
    <rc><c>Fe</c><c>   1</c></rc>
    <rc><c>Fe</c><c>   1</c></rc>
    <rc><c>Fe</c><c>   1</c></rc>
    <rc><c>Fe</c><c>   1</c></rc>
    <rc><c>Fe</c><c>   1</c></rc>
    <rc><c>Fe</c><c>   1</c></rc>
    <rc><c>Fe</c><c>   1</c></rc>
    <rc><c>Fe</c><c>   1</c></rc>
    <rc><c>Fe</c><c>   1</c></rc>
    <rc><c>Fe</c><c>   1</c></rc>
    <rc><c>Fe</c><c>   1</c></rc>
    <rc><c>Fe</c><c>   1</c></rc>
    <rc><c>Fe</c><c>   1</c></rc>
    <rc><c>Fe</c><c>   1</c></rc>
    <rc><c>Fe</c><c>   1</c></rc>
    <rc><c>Fe</c><c>   1</c></rc>
    <rc><c>Fe</c><c>   1</c></rc>
    <rc><c>Fe</c><c>   1</c></rc>
    <rc><c>Fe</c><c>   1</c></rc>
    <rc><c>Fe</c><c>   1</c></rc>
    <rc><c>Fe</c><c>   1</c></rc>
    <rc><c>Fe</c><c>   1</c></rc>
    <rc><c>Fe</c><c>   1</c></rc>
    <rc><c>Fe</c><c>   1</c></rc>
    <rc><c>Fe</c><c>   1</c></rc>
    <rc><c>Fe</c><c>   1</c></rc>
    <rc><c>Fe</c><c>   1</c></rc>
    <rc><c>Fe</c><c>   1</c></rc>
    <rc><c>Fe</c><c>   1</c></rc>
    <rc><c>Fe</c><c>   1</c></rc>
    <rc><c>Fe</c><c>   1</c></rc>
    <rc><c>Fe</c><c>   1</c></rc>
    <rc><c>Fe</c><c>   1</c></rc>
    <rc><c>Fe</c><c>   1</c></rc>
    <rc><c>Fe</c><c>   1</c></rc>
    <rc><c>Fe</c><c>   1</c></rc>
    <rc><c>Fe</c><c>   1</c></rc>
    <rc><c>Fe</c><c>   1</c></rc>
    <rc><c>Fe</c><c>   1</c></rc>
    <rc><c>Fe</c><c>   1</c></rc>
    <rc><c>Fe</c><c>   1</c></rc>
    <rc><c>Fe</c><c>   1</c></rc>
    <rc><c>Fe</c><c>   1</c></rc>
    <rc><c>Fe</c><c>   1</c></rc>
    <rc><c>Fe</c><c>   1</c></rc>
    <rc><c>Fe</c><c>   1</c></rc>
    <rc><c>Fe</c><c>   1</c></rc>
    <rc><c>Fe</c><c>   1</c></rc>
    <rc><c>Fe</c><c>   1</c></rc>
    <rc><c>Fe</c><c>   1</c></rc>
    <rc><c>Fe</c><c>   1</c></rc>
    <rc><c>Fe</c><c>   1</c></rc>
    <rc><c>Fe</c><c>   1</c></rc>
    <rc><c>Fe</c><c>   1</c></rc>
    <rc><c>Fe</c><c>   1</c></rc>
    <rc><c>Fe</c><c>   1</c></rc>
    <rc><c>Fe</c><c>   1</c></rc>
    <rc><c>Fe</c><c>   1</c></rc>
    <rc><c>Fe</c><c>   1</c></rc>
    <rc><c>Fe</c><c>   1</c></rc>
    <rc><c>Fe</c><c>   1</c></rc>
    <rc><c>Fe</c><c>   1</c></rc>
    <rc><c>Fe</c><c>   1</c></rc>
    <rc><c>Fe</c><c>   1</c></rc>
    <rc><c>Fe</c><c>   1</c></rc>
    <rc><c>Fe</c><c>   1</c></rc>
    <rc><c>Fe</c><c>   1</c></rc>
    <rc><c>Fe</c><c>   1</c></rc>
    <rc><c>Fe</c><c>   1</c></rc>
    <rc><c>Fe</c><c>   1</c></rc>
    <rc><c>Fe</c><c>   1</c></rc>
    <rc><c>Fe</c><c>   1</c></rc>
    <rc><c>Fe</c><c>   1</c></rc>
    <rc><c>Fe</c><c>   1</c></rc>
    <rc><c>Fe</c><c>   1</c></rc>
    <rc><c>Fe</c><c>   1</c></rc>
    <rc><c>Fe</c><c>   1</c></rc>
    <rc><c>Fe</c><c>   1</c></rc>
    <rc><c>Fe</c><c>   1</c></rc>
    <rc><c>Fe</c><c>   1</c></rc>
    <rc><c>Fe</c><c>   1</c></rc>
    <rc><c>Fe</c><c>   1</c></rc>
    <rc><c>Fe</c><c>   1</c></rc>
    <rc><c>Fe</c><c>   1</c></rc>
    <rc><c>Fe</c><c>   1</c></rc>
    <rc><c>Fe</c><c>   1</c></rc>
    <rc><c>Fe</c><c>   1</c></rc>
    <rc><c>Fe</c><c>   1</c></rc>
    <rc><c>Fe</c><c>   1</c></rc>
    <rc><c>Fe</c><c>   1</c></rc>
    <rc><c>Fe</c><c>   1</c></rc>
    <rc><c>Fe</c><c>   1</c></rc>
    <rc><c>Fe</c><c>   1</c></rc>
    <rc><c>Fe</c><c>   1</c></rc>
    <rc><c>Fe</c><c>   1</c></rc>
    <rc><c>Fe</c><c>   1</c></rc>
    <rc><c>Fe</c><c>   1</c></rc>
    <rc><c>Fe</c><c>   1</c></rc>
    <rc><c>Fe</c><c>   1</c></rc>
    <rc><c>Fe</c><c>   1</c></rc>
    <rc><c>Fe</c><c>   1</c></rc>
    <rc><c>Fe</c><c>   1</c></rc>
    <rc><c>Fe</c><c>   1</c></rc>
    <rc><c>Fe</c><c>   1</c></rc>
    <rc><c>Fe</c><c>   1</c></rc>
    <rc><c>Fe</c><c>   1</c></rc>
    <rc><c>Fe</c><c>   1</c></rc>
    <rc><c>Fe</c><c>   1</c></rc>
    <rc><c>Fe</c><c>   1</c></rc>
    <rc><c>Fe</c><c>   1</c></rc>
    <rc><c>Fe</c><c>   1</c></rc>
    <rc><c>Fe</c><c>   1</c></rc>
    <rc><c>Fe</c><c>   1</c></rc>
    <rc><c>Fe</c><c>   1</c></rc>
    <rc><c>Fe</c><c>   1</c></rc>
    <rc><c>Fe</c><c>   1</c></rc>
    <rc><c>Fe</c><c>   1</c></rc>
    <rc><c>Fe</c><c>   1</c></rc>
    <rc><c>Fe</c><c>   1</c></rc>
    <rc><c>Fe</c><c>   1</c></rc>
    <rc><c>Fe</c><c>   1</c></rc>
    <rc><c>Fe</c><c>   1</c></rc>
    <rc><c>Fe</c><c>   1</c></rc>
    <rc><c>Fe</c><c>   1</c></rc>
    <rc><c>Fe</c><c>   1</c></rc>
    <rc><c>Fe</c><c>   1</c></rc>
    <rc><c>Fe</c><c>   1</c></rc>
    <rc><c>Fe</c><c>   1</c></rc>
    <rc><c>Fe</c><c>   1</c></rc>
    <rc><c>Fe</c><c>   1</c></rc>
    <rc><c>Fe</c><c>   1</c></rc>
    <rc><c>Fe</c><c>   1</c></rc>
    <rc><c>Fe</c><c>   1</c></rc>
    <rc><c>Fe</c><c>   1</c></rc>
    <rc><c>Fe</c><c>   1</c></rc>
    <rc><c>Fe</c><c>   1</c></rc>
    <rc><c>Fe</c><c>   1</c></rc>
    <rc><c>Fe</c><c>   1</c></rc>
    <rc><c>Fe</c><c>   1</c></rc>
    <rc><c>Mn</c><c>   2</c></rc>
    <rc><c>Mn</c><c>   2</c></rc>
    <rc><c>Mn</c><c>   2</c></rc>
    <rc><c>Mn</c><c>   2</c></rc>
    <rc><c>Mn</c><c>   2</c></rc>
    <rc><c>Mn</c><c>   2</c></rc>
    <rc><c>Mn</c><c>   2</c></rc>
    <rc><c>Mn</c><c>   2</c></rc>
    <rc><c>Mn</c><c>   2</c></rc>
    <rc><c>Mn</c><c>   2</c></rc>
    <rc><c>Mn</c><c>   2</c></rc>
    <rc><c>Mn</c><c>   2</c></rc>
    <rc><c>Mn</c><c>   2</c></rc>
    <rc><c>Mn</c><c>   2</c></rc>
   </set>
  </array>
  <array name="atomtypes" >
   <dimension dim="1">type</dimension>
   <field type="int">atomspertype</field>
   <field type="string">element</field>
   <field>mass</field>
   <field>valence</field>
   <field type="string">pseudopotential</field>
   <set>
    <rc><c> 274</c><c>Fe</c><c>     55.84700000</c><c>      8.00000000</c><c>  PAW_PBE Fe_GW 31Mar2010               </c></rc>
    <rc><c>  14</c><c>Mn</c><c>     54.93800000</c><c>      7.00000000</c><c>  PAW_PBE Mn_GW 31Mar2010               </c></rc>
   </set>
  </array>
 </atominfo>
 <structure name="initialpos" >
  <crystal>
   <varray name="basis" >
    <v>       9.72667804       0.00000000       0.00000000 </v>
    <v>       0.00000000       8.42355028       0.00000000 </v>
    <v>       0.00000000       0.00000000      45.00000000 </v>
   </varray>
   <i name="volume">   3686.99226691 </i>
   <varray name="rec_basis" >
    <v>       0.10281002       0.00000000       0.00000000 </v>
    <v>       0.00000000       0.11871479       0.00000000 </v>
    <v>       0.00000000       0.00000000       0.02222222 </v>
   </varray>
  </crystal>
  <varray name="positions" >
   <v>       0.06216794       0.03595292       0.12563032 </v>
   <v>       0.31334256       0.87116732       0.65388057 </v>
   <v>       0.18747398       0.11678862       0.78709478 </v>
   <v>       0.43774107       0.29109363       0.38992059 </v>
   <v>       0.31403286       0.70653608       0.83127375 </v>
   <v>       0.81380750       0.20970129       0.83248842 </v>
   <v>       0.18844181       0.95807885       0.83189509 </v>
   <v>       0.56287815       0.20723009       0.56483454 </v>
   <v>       0.06125767       0.03600281       0.74241149 </v>
   <v>       0.81253792       0.37010102       0.16889164 </v>
   <v>       0.18939764       0.28709708       0.74235215 </v>
   <v>       0.93689703       0.45621434       0.34632334 </v>
   <v>       0.93681805       0.29050397       0.38990108 </v>
   <v>       0.81240312       0.03519570       0.87421457 </v>
   <v>       0.18641805       0.78699695       0.60993391 </v>
   <v>       0.56233860       0.04097701       0.38992449 </v>
   <v>       0.93895648       0.95893413       0.83260621 </v>
   <v>       0.31384066       0.53525728       0.87450802 </v>
   <v>       0.68689404       0.28742555       0.74223760 </v>
   <v>       0.18862773       0.61968643       0.16790895 </v>
   <v>       0.81236114       0.20608994       0.47870402 </v>
   <v>       0.81331961       0.53578438       0.61000785 </v>
   <v>       0.31260974       0.87349701       0.43464962 </v>
   <v>       0.81182318       0.04002160       0.25781915 </v>
   <v>       0.68732059       0.95652143       0.34633966 </v>
   <v>       0.93715286       0.12010239       0.16866470 </v>
   <v>       0.93733056       0.12221619       0.52113597 </v>
   <v>       0.56144361       0.54125314       0.25744156 </v>
   <v>       0.68601865       0.79142559       0.87441964 </v>
   <v>       0.56320452       0.37013771       0.16811816 </v>
   <v>       0.43717930       0.78768680       0.74270075 </v>
   <v>       0.81295977       0.70692295       0.56489188 </v>
   <v>       0.56300709       0.86795374       0.78696454 </v>
   <v>       0.68811892       0.12151004       0.52120919 </v>
   <v>       0.81345271       0.37019583       0.65374601 </v>
   <v>       0.93785167       0.45801192       0.83225104 </v>
   <v>       0.06237190       0.20485466       0.69831957 </v>
   <v>       0.43699889       0.95395916       0.69812205 </v>
   <v>       0.31304636       0.20534201       0.83177476 </v>
   <v>       0.43808636       0.62082675       0.65378735 </v>
   <v>       0.31130834       0.53629984       0.60987195 </v>
   <v>       0.93724371       0.45704167       0.56490289 </v>
   <v>       0.68764753       0.78751002       0.74275563 </v>
   <v>       0.93578944       0.79095486       0.12583062 </v>
   <v>       0.68724973       0.79035042       0.38981890 </v>
   <v>       0.93759793       0.78721247       0.74286685 </v>
   <v>       0.06341156       0.20660428       0.34625006 </v>
   <v>       0.81140068       0.04129018       0.39019416 </v>
   <v>       0.43746626       0.11735505       0.78712747 </v>
   <v>       0.06204049       0.20713079       0.21291235 </v>
   <v>       0.06197456       0.36977051       0.16829025 </v>
   <v>       0.93578021       0.79111811       0.25749189 </v>
   <v>       0.56301025       0.20515178       0.69840389 </v>
   <v>       0.68681216       0.95506437       0.69827604 </v>
   <v>       0.43715162       0.79118703       0.12552417 </v>
   <v>       0.43728161       0.95693907       0.56484277 </v>
   <v>       0.81285969       0.36825218       0.78699953 </v>
   <v>       0.68492600       0.29076151       0.25756230 </v>
   <v>       0.18807843       0.45698993       0.56487261 </v>
   <v>       0.06337231       0.87034237       0.16847387 </v>
   <v>       0.18795899       0.28757106       0.61010606 </v>
   <v>       0.56364805       0.70645824       0.34635108 </v>
   <v>       0.31201557       0.20538548       0.69849597 </v>
   <v>       0.56140099       0.53504525       0.87442774 </v>
   <v>       0.06254971       0.70731432       0.56489730 </v>
   <v>       0.68811949       0.61735498       0.78693074 </v>
   <v>       0.31101785       0.54077723       0.38996131 </v>
   <v>       0.18731857       0.62069916       0.52114601 </v>
   <v>       0.56235359       0.87339799       0.43470279 </v>
   <v>       0.43700601       0.45728172       0.56491116 </v>
   <v>       0.43754677       0.28863316       0.74231842 </v>
   <v>       0.81233306       0.87765682       0.30169812 </v>
   <v>       0.81193240       0.70722797       0.34647691 </v>
   <v>       0.43805421       0.45564099       0.83148482 </v>
   <v>       0.68721342       0.95582480       0.47871010 </v>
   <v>       0.68747435       0.45471661       0.69835569 </v>
   <v>       0.56255076       0.87098543       0.52112870 </v>
   <v>       0.56277532       0.37057228       0.65363232 </v>
   <v>       0.81185438       0.87023382       0.65371139 </v>
   <v>       0.81287742       0.37402753       0.43479388 </v>
   <v>       0.81340950       0.54041791       0.25752928 </v>
   <v>       0.68908939       0.45522170       0.83175439 </v>
   <v>       0.18801357       0.79137415       0.12551899 </v>
   <v>       0.68723276       0.29094849       0.38978942 </v>
   <v>       0.31261306       0.37064635       0.65363070 </v>
   <v>       0.31248841       0.20694061       0.34627098 </v>
   <v>       0.81193278       0.53660201       0.74274043 </v>
   <v>       0.68743482       0.95590896       0.83187806 </v>
   <v>       0.56219593       0.87091176       0.65369061 </v>
   <v>       0.31234823       0.70715066       0.56491048 </v>
   <v>       0.31159560       0.53543103       0.12552682 </v>
   <v>       0.68713111       0.95844836       0.21309462 </v>
   <v>       0.31291496       0.20700794       0.56486851 </v>
   <v>       0.18762824       0.95595155       0.47882798 </v>
   <v>       0.68787853       0.95694881       0.56487684 </v>
   <v>       0.43660353       0.78716280       0.60995222 </v>
   <v>       0.68779514       0.61945154       0.16831061 </v>
   <v>       0.31274188       0.87583198       0.30170252 </v>
   <v>       0.31240522       0.70573785       0.47878040 </v>
   <v>       0.93621854       0.28734847       0.61020748 </v>
   <v>       0.43854038       0.62529055       0.30187873 </v>
   <v>       0.81264776       0.86948037       0.16852799 </v>
   <v>       0.56308503       0.20716064       0.21299126 </v>
   <v>       0.93728820       0.61941511       0.16847051 </v>
   <v>       0.93863442       0.78946756       0.87446406 </v>
   <v>       0.56208816       0.36772489       0.78694004 </v>
   <v>       0.06297453       0.37089592       0.52115040 </v>
   <v>       0.31240662       0.36946790       0.16846020 </v>
   <v>       0.68835855       0.12522965       0.30184680 </v>
   <v>       0.43942740       0.95581691       0.83145857 </v>
   <v>       0.18604120       0.29135027       0.12566236 </v>
   <v>       0.18710951       0.29122424       0.25783726 </v>
   <v>       0.31241847       0.37348393       0.43480677 </v>
   <v>       0.56375173       0.03578692       0.12552088 </v>
   <v>       0.43637720       0.28727303       0.61001335 </v>
   <v>       0.18802023       0.45814877       0.34658578 </v>
   <v>       0.43829871       0.29130812       0.12563287 </v>
   <v>       0.68732530       0.79184353       0.25745566 </v>
   <v>       0.43761033       0.12081352       0.52112857 </v>
   <v>       0.18865022       0.29128018       0.87450599 </v>
   <v>       0.18712424       0.12093432       0.65366418 </v>
   <v>       0.93801755       0.12158157       0.65383805 </v>
   <v>       0.31254830       0.20811095       0.21309885 </v>
   <v>       0.06254362       0.04017620       0.38987273 </v>
   <v>       0.18775431       0.11734586       0.16777236 </v>
   <v>       0.06229068       0.53530421       0.61021390 </v>
   <v>       0.93860857       0.29078608       0.25771602 </v>
   <v>       0.56309296       0.53616495       0.60994093 </v>
   <v>       0.93733844       0.95756267       0.56499594 </v>
   <v>       0.68682070       0.62488230       0.30183138 </v>
   <v>       0.93751339       0.62383238       0.43471836 </v>
   <v>       0.93699764       0.61728427       0.78652600 </v>
   <v>       0.56161391       0.70417823       0.69815244 </v>
   <v>       0.06266618       0.70981799       0.83237357 </v>
   <v>       0.93815371       0.12524530       0.30177615 </v>
   <v>       0.93805163       0.78736505       0.60998804 </v>
   <v>       0.43699333       0.79182192       0.25753912 </v>
   <v>       0.31261608       0.36820796       0.78694218 </v>
   <v>       0.43753827       0.45821403       0.21303009 </v>
   <v>       0.18709059       0.12142121       0.52119981 </v>
   <v>       0.81207757       0.70506995       0.69843173 </v>
   <v>       0.06203225       0.03603267       0.60991609 </v>
   <v>       0.56212270       0.20599497       0.83154742 </v>
   <v>       0.31216977       0.87090379       0.52112021 </v>
   <v>       0.68811108       0.29091631       0.12566440 </v>
   <v>       0.18662380       0.95923687       0.21339150 </v>
   <v>       0.68647409       0.28716636       0.60999553 </v>
   <v>       0.31313573       0.03660247       0.61016081 </v>
   <v>       0.93776010       0.11700941       0.78704661 </v>
   <v>       0.43752717       0.79104469       0.87422872 </v>
   <v>       0.81330038       0.03665835       0.74263149 </v>
   <v>       0.93732352       0.45604147       0.69831613 </v>
   <v>       0.18791899       0.62151454       0.65373303 </v>
   <v>       0.31275986       0.70391997       0.69829627 </v>
   <v>       0.93699712       0.29071011       0.12570521 </v>
   <v>       0.43730411       0.45618200       0.47887215 </v>
   <v>       0.06236114       0.70537780       0.47874024 </v>
   <v>       0.93704126       0.12474650       0.43459464 </v>
   <v>       0.43684305       0.12543673       0.30192821 </v>
   <v>       0.18707527       0.12472635       0.43473438 </v>
   <v>       0.56227606       0.03428449       0.87443577 </v>
   <v>       0.18774709       0.95715900       0.56490450 </v>
   <v>       0.68950142       0.79096251       0.12575748 </v>
   <v>       0.56354904       0.53422468       0.12566206 </v>
   <v>       0.31218353       0.04010166       0.38986552 </v>
   <v>       0.68755575       0.11980843       0.16856441 </v>
   <v>       0.81255077       0.20785074       0.21273131 </v>
   <v>       0.06333559       0.54054456       0.25752840 </v>
   <v>       0.56264960       0.70584893       0.47867865 </v>
   <v>       0.06290514       0.20685576       0.56487929 </v>
   <v>       0.56229962       0.37623449       0.30170150 </v>
   <v>       0.43686527       0.95751726       0.34644140 </v>
   <v>       0.18791529       0.95552077       0.69838092 </v>
   <v>       0.43598716       0.61891565       0.16773510 </v>
   <v>       0.93686160       0.45861715       0.21312970 </v>
   <v>       0.06102350       0.53365821       0.12565183 </v>
   <v>       0.81258654       0.37084199       0.52111601 </v>
   <v>       0.93726133       0.62504785       0.30149074 </v>
   <v>       0.31427121       0.04136773       0.25731451 </v>
   <v>       0.68850379       0.78664816       0.60995340 </v>
   <v>       0.18786366       0.45674289       0.83189899 </v>
   <v>       0.43744503       0.11750962       0.16772114 </v>
   <v>       0.31258933       0.37098541       0.52108948 </v>
   <v>       0.43759141       0.61690897       0.78713502 </v>
   <v>       0.06130011       0.04125418       0.25751796 </v>
   <v>       0.56276114       0.70741861       0.56496994 </v>
   <v>       0.93737183       0.28540656       0.74244272 </v>
   <v>       0.68589770       0.11672709       0.78671551 </v>
   <v>       0.18777576       0.45827984       0.21303956 </v>
   <v>       0.93741940       0.79114747       0.38981138 </v>
   <v>       0.68623451       0.29323367       0.87446317 </v>
   <v>       0.56251923       0.87017344       0.16822440 </v>
   <v>       0.43752084       0.45512753       0.69832564 </v>
   <v>       0.93853962       0.95615651       0.34622517 </v>
   <v>       0.68718704       0.62139499       0.52118058 </v>
   <v>       0.06303949       0.87067085       0.65367751 </v>
   <v>       0.06243748       0.86839929       0.78685503 </v>
   <v>       0.06217254       0.36963101       0.65363350 </v>
   <v>       0.68756291       0.45570059       0.47875003 </v>
   <v>       0.18872475       0.79092389       0.25741302 </v>
   <v>       0.43716305       0.12426858       0.43489258 </v>
   <v>       0.81247845       0.03492692       0.12561788 </v>
   <v>       0.93761390       0.62070850       0.52113235 </v>
   <v>       0.06195159       0.87444505       0.43513760 </v>
   <v>       0.81202352       0.53546770       0.12552258 </v>
   <v>       0.43759389       0.45721624       0.34648887 </v>
   <v>       0.81254823       0.20752397       0.34647569 </v>
   <v>       0.31251340       0.70652777       0.34633257 </v>
   <v>       0.68731350       0.12061700       0.65355891 </v>
   <v>       0.56306757       0.87539829       0.30187954 </v>
   <v>       0.06406610       0.53588018       0.74250837 </v>
   <v>       0.93910892       0.95952475       0.21319327 </v>
   <v>       0.81246441       0.70796511       0.21295293 </v>
   <v>       0.06201878       0.87526702       0.30189671 </v>
   <v>       0.18768120       0.12633103       0.30185254 </v>
   <v>       0.06247041       0.70726265       0.34646291 </v>
   <v>       0.81204171       0.03613225       0.60977512 </v>
   <v>       0.06191473       0.37421534       0.43492307 </v>
   <v>       0.56252757       0.20720877       0.34645930 </v>
   <v>       0.81279911       0.37556019       0.30179608 </v>
   <v>       0.43746150       0.95574589       0.47877227 </v>
   <v>       0.56239240       0.54059989       0.38984945 </v>
   <v>       0.06238623       0.20584962       0.47866080 </v>
   <v>       0.31259569       0.86736527       0.78680865 </v>
   <v>       0.93763677       0.95540245       0.69834402 </v>
   <v>       0.06250649       0.37722823       0.30169177 </v>
   <v>       0.68698893       0.62121039       0.65377117 </v>
   <v>       0.68781586       0.45710253       0.56487718 </v>
   <v>       0.43838828       0.95933143       0.21335065 </v>
   <v>       0.31256870       0.20575696       0.47876259 </v>
   <v>       0.43796086       0.12025151       0.65345099 </v>
   <v>       0.68712243       0.62351957       0.43456241 </v>
   <v>       0.81283943       0.20512284       0.69843028 </v>
   <v>       0.81251791       0.70563774       0.47879764 </v>
   <v>       0.81175223       0.87450529       0.43522844 </v>
   <v>       0.93748075       0.95611205       0.47894134 </v>
   <v>       0.56239633       0.20581716       0.47876899 </v>
   <v>       0.18771880       0.62425731       0.43488400 </v>
   <v>       0.31142435       0.03731826       0.74231245 </v>
   <v>       0.93694922       0.62111534       0.65374495 </v>
   <v>       0.56272105       0.70656868       0.83163666 </v>
   <v>       0.31232005       0.37409816       0.30184193 </v>
   <v>       0.56220446       0.70793051       0.21304123 </v>
   <v>       0.18753616       0.45577384       0.47872414 </v>
   <v>       0.31411532       0.03572698       0.87419957 </v>
   <v>       0.18688155       0.45575688       0.69843955 </v>
   <v>       0.81100902       0.53397529       0.87457823 </v>
   <v>       0.18748710       0.29072551       0.38992490 </v>
   <v>       0.43703903       0.62461369       0.43498356 </v>
   <v>       0.06266647       0.70805349       0.21296429 </v>
   <v>       0.56177245       0.37449174       0.43509437 </v>
   <v>       0.43808191       0.62190410       0.52124605 </v>
   <v>       0.81310425       0.71025031       0.83160537 </v>
   <v>       0.06233797       0.36843190       0.78701352 </v>
   <v>       0.43758378       0.29201074       0.87477712 </v>
   <v>       0.31284836       0.03499660       0.12567891 </v>
   <v>       0.68774809       0.12311340       0.43466119 </v>
   <v>       0.18727783       0.95710486       0.34649115 </v>
   <v>       0.06319258       0.20915927       0.83256787 </v>
   <v>       0.56209032       0.03571002       0.61029695 </v>
   <v>       0.68750287       0.45820156       0.21298515 </v>
   <v>       0.18746385       0.78740678       0.74285659 </v>
   <v>       0.18738623       0.62656949       0.30183899 </v>
   <v>       0.43607188       0.79161261       0.39024137 </v>
   <v>       0.43634404       0.29228749       0.25750615 </v>
   <v>       0.06370181       0.53554711       0.87446349 </v>
   <v>       0.56390464       0.03648699       0.74245452 </v>
   <v>       0.18837623       0.79063913       0.87432612 </v>
   <v>       0.93747021       0.45572898       0.47872730 </v>
   <v>       0.81223112       0.54061226       0.38995558 </v>
   <v>       0.81213821       0.20709111       0.56489396 </v>
   <v>       0.18703856       0.61712074       0.78689588 </v>
   <v>       0.06275453       0.54090876       0.38990976 </v>
   <v>       0.06307291       0.70467588       0.69826395 </v>
   <v>       0.31214077       0.54298311       0.25699084 </v>
   <v>       0.31196135       0.70456943       0.21365076 </v>
   <v>       0.31223011       0.87002442       0.16711452 </v>
   <v>       0.56285503       0.53697822       0.74240425 </v>
   <v>       0.68748964       0.45596274       0.34647310 </v>
   <v>       0.93477190       0.29286039       0.87406992 </v>
   <v>       0.56298809       0.04161881       0.25722786 </v>
   <v>       0.06456758       0.03253988       0.87413977 </v>
   <v>       0.18684321       0.79195757       0.39010857 </v>
   <v>       0.81238892       0.87048599       0.52104852 </v>
   <v>       0.56234231       0.37088725       0.52117776 </v>
   <v>       0.06303942       0.87053290       0.52115817 </v>
   <v>       0.81145777       0.86876135       0.78649828 </v>
   <v>       0.31201096       0.53573038       0.74271910 </v>
  </varray>
 </structure>
 <calculation>
  <scstep>
   <time name="dav">   54.48   54.49</time>
   <time name="total">   54.64   54.67</time>
   <energy>
    <i name="alphaZ">  16293.21160653 </i>
    <i name="ewald"> 762505.96344479 </i>
    <i name="hartreedc">-952953.69119938 </i>
    <i name="XCdc">  -6509.30599911 </i>
    <i name="pawpsdc"> 162273.92519768 </i>
    <i name="pawaedc">-159623.75899949 </i>
    <i name="eentropy">     -1.06679364 </i>
    <i name="bandstr">  38469.00607319 </i>
    <i name="atom"> 168671.76673737 </i>
    <i name="e_fr_energy">  29126.05006793 </i>
    <i name="e_wo_entrp">  29127.11686157 </i>
    <i name="e_0_energy">  29126.58346475 </i>
   </energy>
  </scstep>
  <scstep>
   <time name="dav">   54.05   54.08</time>
   <time name="total">   54.06   54.09</time>
   <energy>
    <i name="e_fr_energy">   1198.04740277 </i>
    <i name="e_wo_entrp">   1199.53509395 </i>
    <i name="e_0_energy">   1198.79124836 </i>
   </energy>
  </scstep>
  <scstep>
   <time name="dav">   70.86   70.90</time>
   <time name="total">   70.86   70.90</time>
   <energy>
    <i name="e_fr_energy">  -1950.61863800 </i>
    <i name="e_wo_entrp">  -1947.04729990 </i>
    <i name="e_0_energy">  -1948.83296895 </i>
   </energy>
  </scstep>
  <scstep>
   <time name="dav">   88.87   88.91</time>
   <time name="total">   88.88   88.92</time>
   <energy>
    <i name="e_fr_energy">  -2621.12066264 </i>
    <i name="e_wo_entrp">  -2617.64934795 </i>
    <i name="e_0_energy">  -2619.38500529 </i>
   </energy>
  </scstep>
  <scstep>
   <time name="dav">   84.79   84.83</time>
   <time name="total">   86.82   86.86</time>
   <energy>
    <i name="e_fr_energy">  -2740.91229641 </i>
    <i name="e_wo_entrp">  -2737.34354954 </i>
    <i name="e_0_energy">  -2739.12792298 </i>
   </energy>
  </scstep>
  <scstep>
   <time name="diag">    8.40    8.40</time>
   <time name="diis">   37.56   37.56</time>
   <time name="orth">    2.31    2.31</time>
   <time name="total">   50.45   50.49</time>
   <energy>
    <i name="e_fr_energy">  -6762.38196290 </i>
    <i name="e_wo_entrp">  -6758.81702034 </i>
    <i name="e_0_energy">  -6760.59949162 </i>
   </energy>
  </scstep>
  <scstep>
   <time name="diag">    8.35    8.35</time>
   <time name="diis">   38.70   38.71</time>
   <time name="orth">    2.31    2.31</time>
   <time name="total">   51.44   51.48</time>
[...]
       <r>   136.5051     0.7493  2767.4731 </r>
       <r>   137.2818     1.8306  2768.8950 </r>
       <r>   138.0586     1.5615  2770.1079 </r>
       <r>   138.8353     0.6656  2770.6250 </r>
       <r>   139.6120     0.3569  2770.9022 </r>
       <r>   140.3888     0.2872  2771.1252 </r>
       <r>   141.1655     0.4825  2771.5000 </r>
       <r>   141.9422     0.3145  2771.7443 </r>
       <r>   142.7190     0.0086  2771.7510 </r>
       <r>   143.4957     0.3206  2772.0000 </r>
       <r>   144.2724     0.0000  2772.0000 </r>
       <r>   145.0492     0.0000  2772.0000 </r>
       <r>   145.8259     0.0000  2772.0000 </r>
       <r>   146.6026     0.0000  2772.0000 </r>
       <r>   147.3794     0.0000  2772.0000 </r>
       <r>   148.1561     0.0000  2772.0000 </r>
       <r>   148.9329     0.0000  2772.0000 </r>
       <r>   149.7096     0.0000  2772.0000 </r>
       <r>   150.4863     0.0000  2772.0000 </r>
       <r>   151.2631     0.0000  2772.0000 </r>
       <r>   152.0398     0.0000  2772.0000 </r>
       <r>   152.8165     0.0000  2772.0000 </r>
       <r>   153.5933     0.0000  2772.0000 </r>
      </set>
     </set>
    </array>
   </total>
  </dos>
 </calculation>
 <structure name="finalpos" >
  <crystal>
   <varray name="basis" >
    <v>       9.72667804       0.00000000       0.00000000 </v>
    <v>       0.00000000       8.42355028       0.00000000 </v>
    <v>       0.00000000       0.00000000      45.00000000 </v>
   </varray>
   <i name="volume">   3686.99226691 </i>
   <varray name="rec_basis" >
    <v>       0.10281002       0.00000000       0.00000000 </v>
    <v>       0.00000000       0.11871479       0.00000000 </v>
    <v>       0.00000000       0.00000000       0.02222222 </v>
   </varray>
  </crystal>
  <varray name="positions" >
   <v>       0.06218584       0.03597808       0.12563067 </v>
   <v>       0.31332102       0.87117016       0.65391252 </v>
   <v>       0.18745693       0.11680669       0.78706971 </v>
   <v>       0.43775917       0.29112317       0.38990823 </v>
   <v>       0.31400152       0.70654415       0.83123766 </v>
   <v>       0.81386431       0.20968176       0.83244618 </v>
   <v>       0.18840299       0.95813058       0.83185040 </v>
   <v>       0.56286774       0.20718837       0.56486454 </v>
   <v>       0.06125440       0.03600338       0.74236286 </v>
   <v>       0.81252065       0.37012344       0.16888455 </v>
   <v>       0.18936897       0.28708591       0.74231732 </v>
   <v>       0.93689191       0.45623565       0.34632977 </v>
   <v>       0.93680103       0.29052675       0.38989568 </v>
   <v>       0.81241897       0.03527598       0.87423590 </v>
   <v>       0.18642261       0.78701803       0.60998462 </v>
   <v>       0.56233550       0.04096757       0.38991302 </v>
   <v>       0.93900086       0.95901864       0.83256030 </v>
   <v>       0.31386932       0.53530168       0.87453106 </v>
   <v>       0.68691716       0.28743369       0.74220233 </v>
   <v>       0.18861797       0.61965833       0.16791547 </v>
   <v>       0.81233237       0.20609465       0.47870104 </v>
   <v>       0.81331593       0.53581727       0.61005185 </v>
   <v>       0.31262824       0.87348266       0.43464020 </v>
   <v>       0.81183839       0.04001380       0.25782845 </v>
   <v>       0.68728273       0.95650311       0.34634272 </v>
   <v>       0.93714744       0.12010069       0.16865497 </v>
   <v>       0.93730388       0.12217012       0.52113462 </v>
   <v>       0.56141550       0.54124916       0.25744883 </v>
   <v>       0.68599974       0.79136559       0.87444871 </v>
   <v>       0.56319156       0.37015053       0.16812029 </v>
   <v>       0.43717339       0.78769061       0.74266210 </v>
   <v>       0.81299421       0.70698543       0.56491059 </v>
   <v>       0.56299440       0.86796935       0.78692768 </v>
   <v>       0.68812021       0.12149403       0.52120644 </v>
   <v>       0.81344845       0.37019270       0.65380292 </v>
   <v>       0.93787263       0.45795583       0.83219840 </v>
   <v>       0.06233725       0.20482370       0.69828959 </v>
   <v>       0.43697670       0.95397101       0.69810013 </v>
   <v>       0.31301372       0.20532839       0.83173689 </v>
   <v>       0.43807730       0.62082509       0.65381574 </v>
   <v>       0.31133170       0.53632649       0.60992789 </v>
   <v>       0.93724404       0.45708588       0.56492551 </v>
   <v>       0.68765346       0.78750062       0.74271250 </v>
   <v>       0.93578755       0.79091837       0.12583003 </v>
   <v>       0.68722241       0.79032699       0.38980917 </v>
   <v>       0.93760437       0.78720598       0.74282313 </v>
   <v>       0.06342400       0.20660646       0.34625089 </v>
   <v>       0.81137603       0.04128049       0.39018406 </v>
   <v>       0.43744572       0.11736863       0.78709450 </v>
   <v>       0.06208744       0.20712777       0.21293244 </v>
   <v>       0.06198678       0.36978963       0.16828745 </v>
   <v>       0.93579361       0.79113228       0.25749847 </v>
   <v>       0.56301726       0.20515413       0.69837826 </v>
   <v>       0.68687768       0.95505726       0.69825223 </v>
   <v>       0.43717363       0.79115611       0.12551734 </v>
   <v>       0.43727416       0.95694433       0.56487727 </v>
   <v>       0.81289764       0.36826989       0.78697072 </v>
   <v>       0.68491015       0.29076091       0.25757013 </v>
   <v>       0.18806816       0.45700115       0.56490964 </v>
   <v>       0.06335138       0.87033705       0.16847582 </v>
   <v>       0.18798732       0.28754957       0.61015638 </v>
   <v>       0.56360985       0.70644496       0.34635741 </v>
   <v>       0.31198023       0.20536572       0.69846829 </v>
   <v>       0.56137248       0.53509349       0.87445538 </v>
   <v>       0.06251606       0.70737922       0.56492849 </v>
   <v>       0.68815683       0.61734024       0.78689248 </v>
   <v>       0.31106219       0.54078980       0.38994950 </v>
   <v>       0.18728680       0.62073024       0.52113828 </v>
   <v>       0.56233987       0.87337064       0.43468625 </v>
   <v>       0.43701495       0.45726714       0.56495142 </v>
   <v>       0.43754600       0.28862869       0.74228426 </v>
   <v>       0.81231525       0.87764860       0.30170053 </v>
   <v>       0.81189217       0.70722571       0.34648196 </v>
   <v>       0.43803663       0.45560561       0.83145374 </v>
   <v>       0.68721984       0.95583213       0.47870687 </v>
   <v>       0.68751862       0.45471858       0.69832795 </v>
   <v>       0.56258402       0.87100882       0.52112588 </v>
   <v>       0.56276989       0.37057314       0.65367009 </v>
   <v>       0.81189038       0.87023172       0.65376266 </v>
   <v>       0.81286106       0.37406017       0.43477826 </v>
   <v>       0.81340022       0.54043789       0.25753433 </v>
   <v>       0.68910986       0.45519622       0.83170942 </v>
   <v>       0.18802695       0.79134986       0.12550987 </v>
   <v>       0.68721315       0.29097031       0.38977963 </v>
   <v>       0.31261393       0.37064425       0.65366554 </v>
   <v>       0.31252269       0.20695065       0.34627194 </v>
   <v>       0.81195074       0.53659928       0.74270185 </v>
   <v>       0.68745771       0.95597524       0.83183718 </v>
   <v>       0.56218196       0.87091426       0.65372735 </v>
   <v>       0.31232614       0.70719664       0.56495122 </v>
   <v>       0.31162064       0.53547496       0.12552947 </v>
   <v>       0.68710116       0.95842400       0.21310832 </v>
   <v>       0.31293257       0.20696353       0.56490523 </v>
   <v>       0.18762504       0.95593017       0.47881902 </v>
   <v>       0.68790947       0.95693338       0.56489804 </v>
   <v>       0.43657170       0.78716591       0.61000460 </v>
   <v>       0.68777855       0.61945899       0.16830959 </v>
   <v>       0.31275973       0.87583225       0.30170790 </v>
   <v>       0.31240475       0.70574730       0.47876421 </v>
   <v>       0.93624960       0.28731555       0.61025517 </v>
   <v>       0.43853184       0.62528502       0.30188751 </v>
   <v>       0.81262203       0.86947719       0.16852664 </v>
   <v>       0.56303953       0.20716271       0.21300377 </v>
   <v>       0.93728143       0.61941308       0.16846923 </v>
   <v>       0.93862102       0.78944395       0.87449006 </v>
   <v>       0.56209884       0.36771953       0.78690506 </v>
   <v>       0.06294502       0.37091456       0.52114043 </v>
   <v>       0.31242549       0.36946055       0.16846738 </v>
   <v>       0.68832946       0.12521358       0.30185264 </v>
   <v>       0.43938823       0.95584565       0.83141918 </v>
   <v>       0.18605979       0.29129994       0.12566419 </v>
   <v>       0.18714891       0.29121245       0.25784521 </v>
   <v>       0.31242814       0.37351212       0.43479420 </v>
   <v>       0.56372693       0.03578322       0.12552576 </v>
   <v>       0.43636501       0.28727293       0.61006662 </v>
   <v>       0.18806192       0.45817520       0.34658787 </v>
   <v>       0.43829727       0.29126909       0.12563738 </v>
   <v>       0.68732187       0.79184446       0.25746301 </v>
   <v>       0.43762356       0.12082100       0.52112082 </v>
   <v>       0.18862903       0.29121054       0.87452334 </v>
   <v>       0.18711604       0.12091757       0.65370753 </v>
   <v>       0.93803547       0.12155707       0.65389292 </v>
   <v>       0.31257888       0.20809832       0.21311565 </v>
   <v>       0.06254257       0.04017781       0.38986422 </v>
   <v>       0.18778289       0.11738789       0.16777260 </v>
   <v>       0.06232777       0.53536825       0.61026112 </v>
   <v>       0.93862434       0.29077342       0.25772682 </v>
   <v>       0.56303688       0.53616905       0.60999307 </v>
   <v>       0.93734212       0.95748813       0.56502140 </v>
   <v>       0.68678309       0.62489575       0.30183936 </v>
   <v>       0.93750638       0.62382653       0.43470416 </v>
   <v>       0.93701612       0.61725763       0.78649716 </v>
   <v>       0.56163942       0.70416930       0.69813388 </v>
   <v>       0.06265872       0.70981858       0.83231929 </v>
   <v>       0.93815673       0.12523298       0.30177426 </v>
   <v>       0.93809774       0.78739763       0.61003120 </v>
   <v>       0.43698360       0.79181765       0.25754646 </v>
   <v>       0.31258743       0.36820113       0.78690956 </v>
   <v>       0.43752469       0.45822504       0.21304535 </v>
   <v>       0.18710202       0.12139943       0.52119407 </v>
   <v>       0.81213573       0.70508327       0.69840294 </v>
   <v>       0.06205512       0.03598620       0.60996510 </v>
   <v>       0.56212308       0.20598090       0.83151672 </v>
   <v>       0.31215961       0.87092681       0.52111526 </v>
   <v>       0.68811024       0.29090621       0.12566695 </v>
   <v>       0.18666624       0.95922457       0.21341322 </v>
   <v>       0.68643820       0.28715476       0.61004376 </v>
   <v>       0.31312026       0.03658802       0.61020901 </v>
   <v>       0.93777711       0.11704200       0.78702351 </v>
   <v>       0.43753541       0.79098014       0.87425684 </v>
   <v>       0.81332231       0.03665944       0.74258527 </v>
   <v>       0.93732973       0.45603780       0.69828617 </v>
   <v>       0.18790799       0.62152882       0.65377258 </v>
   <v>       0.31271488       0.70393168       0.69827364 </v>
   <v>       0.93698242       0.29068670       0.12570613 </v>
   <v>       0.43731074       0.45617369       0.47885755 </v>
   <v>       0.06235237       0.70540191       0.47873283 </v>
   <v>       0.93703376       0.12474328       0.43458193 </v>
   <v>       0.43684148       0.12542973       0.30192982 </v>
   <v>       0.18709693       0.12471517       0.43472536 </v>
   <v>       0.56226703       0.03436202       0.87445981 </v>
   <v>       0.18772036       0.95711993       0.56493951 </v>
   <v>       0.68946703       0.79092044       0.12575955 </v>
   <v>       0.56354854       0.53427365       0.12566413 </v>
   <v>       0.31221415       0.04010030       0.38985503 </v>
   <v>       0.68753325       0.11980790       0.16856187 </v>
   <v>       0.81251398       0.20785356       0.21274919 </v>
   <v>       0.06336312       0.54054574       0.25753500 </v>
   <v>       0.56265321       0.70582570       0.47866601 </v>
   <v>       0.06290355       0.20679279       0.56491319 </v>
   <v>       0.56226809       0.37623884       0.30170988 </v>
   <v>       0.43687788       0.95748488       0.34644240 </v>
   <v>       0.18784799       0.95552331       0.69835321 </v>
   <v>       0.43601813       0.61890772       0.16774027 </v>
   <v>       0.93686305       0.45865092       0.21314450 </v>
   <v>       0.06102134       0.53370044       0.12565259 </v>
   <v>       0.81258451       0.37085238       0.52110839 </v>
   <v>       0.93726998       0.62506661       0.30149297 </v>
   <v>       0.31425114       0.04139166       0.25732217 </v>
   <v>       0.68848812       0.78665993       0.60999556 </v>
   <v>       0.18783854       0.45670873       0.83185031 </v>
   <v>       0.43744459       0.11755013       0.16772733 </v>
   <v>       0.31259258       0.37096061       0.52107812 </v>
   <v>       0.43757290       0.61690875       0.78709570 </v>
   <v>       0.06133503       0.04124661       0.25753018 </v>
   <v>       0.56277994       0.70744123       0.56500215 </v>
   <v>       0.93737657       0.28540818       0.74240106 </v>
   <v>       0.68592064       0.11676514       0.78668628 </v>
   <v>       0.18782191       0.45830556       0.21305680 </v>
   <v>       0.93739359       0.79111527       0.38980616 </v>
   <v>       0.68621449       0.29314733       0.87448588 </v>
   <v>       0.56253019       0.87016765       0.16822580 </v>
   <v>       0.43751850       0.45511459       0.69830318 </v>
   <v>       0.93852836       0.95614645       0.34622762 </v>
   <v>       0.68722797       0.62141932       0.52117509 </v>
   <v>       0.06303689       0.87067392       0.65372255 </v>
   <v>       0.06244544       0.86839061       0.78682825 </v>
   <v>       0.06217713       0.36962981       0.65368881 </v>
   <v>       0.68754666       0.45571143       0.47874077 </v>
   <v>       0.18872856       0.79093851       0.25741846 </v>
   <v>       0.43717246       0.12426307       0.43488079 </v>
   <v>       0.81247165       0.03495787       0.12561874 </v>
   <v>       0.93759274       0.62075691       0.52113106 </v>
   <v>       0.06195519       0.87441655       0.43513007 </v>
   <v>       0.81200513       0.53549124       0.12552555 </v>
   <v>       0.43760794       0.45725520       0.34649223 </v>
   <v>       0.81250870       0.20752265       0.34648030 </v>
   <v>       0.31256496       0.70652074       0.34633448 </v>
   <v>       0.68731445       0.12062565       0.65360443 </v>
   <v>       0.56304923       0.87538614       0.30188885 </v>
   <v>       0.06404497       0.53588024       0.74247340 </v>
   <v>       0.93910456       0.95947803       0.21321309 </v>
   <v>       0.81244988       0.70795873       0.21296759 </v>
   <v>       0.06203416       0.87527379       0.30189632 </v>
   <v>       0.18770601       0.12632071       0.30184755 </v>
   <v>       0.06249341       0.70726488       0.34646552 </v>
   <v>       0.81207521       0.03610517       0.60981846 </v>
   <v>       0.06192045       0.37424645       0.43490841 </v>
   <v>       0.56251597       0.20722476       0.34646104 </v>
   <v>       0.81277834       0.37555099       0.30180059 </v>
   <v>       0.43744432       0.95575430       0.47876110 </v>
   <v>       0.56237744       0.54061956       0.38983622 </v>
   <v>       0.06240478       0.20584808       0.47865345 </v>
   <v>       0.31256348       0.86738907       0.78677687 </v>
   <v>       0.93765930       0.95540201       0.69831321 </v>
   <v>       0.06253998       0.37722014       0.30169070 </v>
   <v>       0.68699059       0.62119598       0.65381976 </v>
   <v>       0.68781779       0.45712400       0.56490353 </v>
   <v>       0.43837518       0.95933447       0.21336532 </v>
   <v>       0.31258741       0.20576034       0.47875252 </v>
   <v>       0.43794970       0.12026181       0.65348776 </v>
   <v>       0.68711518       0.62351675       0.43454592 </v>
   <v>       0.81290140       0.20511068       0.69840064 </v>
   <v>       0.81252286       0.70563941       0.47879324 </v>
   <v>       0.81174446       0.87446530       0.43521263 </v>
   <v>       0.93749413       0.95607290       0.47894077 </v>
   <v>       0.56238884       0.20583081       0.47876263 </v>
   <v>       0.18772518       0.62423889       0.43487281 </v>
   <v>       0.31140932       0.03731183       0.74227570 </v>
   <v>       0.93696703       0.62113618       0.65379928 </v>
   <v>       0.56272275       0.70654722       0.83160454 </v>
   <v>       0.31234003       0.37411563       0.30184390 </v>
   <v>       0.56218332       0.70791841       0.21305256 </v>
   <v>       0.18754476       0.45577166       0.47871151 </v>
   <v>       0.31412035       0.03578402       0.87422010 </v>
   <v>       0.18683824       0.45574836       0.69841040 </v>
   <v>       0.81101005       0.53402178       0.87460214 </v>
   <v>       0.18750424       0.29075534       0.38991749 </v>
   <v>       0.43704599       0.62461159       0.43496704 </v>
   <v>       0.06269050       0.70804181       0.21298084 </v>
   <v>       0.56177517       0.37451427       0.43508200 </v>
   <v>       0.43809487       0.62191322       0.52123418 </v>
   <v>       0.81314011       0.71021400       0.83156176 </v>
   <v>       0.06232084       0.36844415       0.78698865 </v>
   <v>       0.43759928       0.29195989       0.87479624 </v>
   <v>       0.31285808       0.03502496       0.12567164 </v>
   <v>       0.68772490       0.12312356       0.43464570 </v>
   <v>       0.18731742       0.95708562       0.34648892 </v>
   <v>       0.06316337       0.20913086       0.83252690 </v>
   <v>       0.56205209       0.03571752       0.61034151 </v>
   <v>       0.68747020       0.45822410       0.21299795 </v>
   <v>       0.18745683       0.78741443       0.74281677 </v>
   <v>       0.18742525       0.62656010       0.30184382 </v>
   <v>       0.43610200       0.79157021       0.39022621 </v>
   <v>       0.43631537       0.29227776       0.25751203 </v>
   <v>       0.06369695       0.53554764       0.87448719 </v>
   <v>       0.56390068       0.03648914       0.74241772 </v>
   <v>       0.18840735       0.79059821       0.87435035 </v>
   <v>       0.93746823       0.45575232       0.47872134 </v>
   <v>       0.81220484       0.54062138       0.38994993 </v>
   <v>       0.81212517       0.20703847       0.56491736 </v>
   <v>       0.18700424       0.61712065       0.78686140 </v>
   <v>       0.06275325       0.54090894       0.38990603 </v>
   <v>       0.06303299       0.70470826       0.69823387 </v>
   <v>       0.31215171       0.54295527       0.25699823 </v>
   <v>       0.31197641       0.70454669       0.21366811 </v>
   <v>       0.31226797       0.87003248       0.16712031 </v>
   <v>       0.56287003       0.53698303       0.74235812 </v>
   <v>       0.68742792       0.45598795       0.34648267 </v>
   <v>       0.93480963       0.29275958       0.87409214 </v>
   <v>       0.56295205       0.04161869       0.25723803 </v>
   <v>       0.06454737       0.03265062       0.87416050 </v>
   <v>       0.18687603       0.79191954       0.39009438 </v>
   <v>       0.81241087       0.87047975       0.52105247 </v>
   <v>       0.56237234       0.37086241       0.52115933 </v>
   <v>       0.06299221       0.87052882       0.52115715 </v>
   <v>       0.81150289       0.86874794       0.78646165 </v>
   <v>       0.31199527       0.53573894       0.74267527 </v>
  </varray>
 </structure>
</modeling>
