unknown system                          
           1
     9.726678    0.000000    0.000000
     0.000000    8.423550    0.000000
     0.000000    0.000000   45.000000
   Fe   Mn
 274  14
Direct configuration=     1
   0.06216794  0.03595292  0.12563032
   0.31334256  0.87116732  0.65388057
   0.18747398  0.11678862  0.78709478
   0.43774107  0.29109363  0.38992059
   0.31403286  0.70653608  0.83127375
   0.81380750  0.20970129  0.83248842
   0.18844181  0.95807885  0.83189509
   0.56287815  0.20723009  0.56483454
   0.06125767  0.03600281  0.74241149
   0.81253792  0.37010102  0.16889164
   0.18939764  0.28709708  0.74235215
   0.93689703  0.45621434  0.34632334
   0.93681805  0.29050397  0.38990108
   0.81240312  0.03519570  0.87421457
   0.18641805  0.78699695  0.60993391
   0.56233860  0.04097701  0.38992449
   0.93895648  0.95893413  0.83260621
   0.31384066  0.53525728  0.87450802
   0.68689404  0.28742555  0.74223760
   0.18862773  0.61968643  0.16790895
   0.81236114  0.20608994  0.47870402
   0.81331961  0.53578438  0.61000785
   0.31260974  0.87349701  0.43464962
   0.81182318  0.04002160  0.25781915
   0.68732059  0.95652143  0.34633966
   0.93715286  0.12010239  0.16866470
   0.93733056  0.12221619  0.52113597
   0.56144361  0.54125314  0.25744156
   0.68601865  0.79142559  0.87441964
   0.56320452  0.37013771  0.16811816
   0.43717930  0.78768680  0.74270075
   0.81295977  0.70692295  0.56489188
   0.56300709  0.86795374  0.78696454
   0.68811892  0.12151004  0.52120919
   0.81345271  0.37019583  0.65374601
   0.93785167  0.45801192  0.83225104
   0.06237190  0.20485466  0.69831957
   0.43699889  0.95395916  0.69812205
   0.31304636  0.20534201  0.83177476
   0.43808636  0.62082675  0.65378735
   0.31130834  0.53629984  0.60987195
   0.93724371  0.45704167  0.56490289
   0.68764753  0.78751002  0.74275563
   0.93578944  0.79095486  0.12583062
   0.68724973  0.79035042  0.38981890
   0.93759793  0.78721247  0.74286685
   0.06341156  0.20660428  0.34625006
   0.81140068  0.04129018  0.39019416
   0.43746626  0.11735505  0.78712747
   0.06204049  0.20713079  0.21291235
   0.06197456  0.36977051  0.16829025
   0.93578021  0.79111811  0.25749189
   0.56301025  0.20515178  0.69840389
   0.68681216  0.95506437  0.69827604
   0.43715162  0.79118703  0.12552417
   0.43728161  0.95693907  0.56484277
   0.81285969  0.36825218  0.78699953
   0.68492600  0.29076151  0.25756230
   0.18807843  0.45698993  0.56487261
   0.06337231  0.87034237  0.16847387
   0.18795899  0.28757106  0.61010606
   0.56364805  0.70645824  0.34635108
   0.31201557  0.20538548  0.69849597
   0.56140099  0.53504525  0.87442774
   0.06254971  0.70731432  0.56489730
   0.68811949  0.61735498  0.78693074
   0.31101785  0.54077723  0.38996131
   0.18731857  0.62069916  0.52114601
   0.56235359  0.87339799  0.43470279
   0.43700601  0.45728172  0.56491116
   0.43754677  0.28863316  0.74231842
   0.81233306  0.87765682  0.30169812
   0.81193240  0.70722797  0.34647691
   0.43805421  0.45564099  0.83148482
   0.68721342  0.95582480  0.47871010
   0.68747435  0.45471661  0.69835569
   0.56255076  0.87098543  0.52112870
   0.56277532  0.37057228  0.65363232
   0.81185438  0.87023382  0.65371139
   0.81287742  0.37402753  0.43479388
   0.81340950  0.54041791  0.25752928
   0.68908939  0.45522170  0.83175439
   0.18801357  0.79137415  0.12551899
   0.68723276  0.29094849  0.38978942
   0.31261306  0.37064635  0.65363070
   0.31248841  0.20694061  0.34627098
   0.81193278  0.53660201  0.74274043
   0.68743482  0.95590896  0.83187806
   0.56219593  0.87091176  0.65369061
   0.31234823  0.70715066  0.56491048
   0.31159560  0.53543103  0.12552682
   0.68713111  0.95844836  0.21309462
   0.31291496  0.20700794  0.56486851
   0.18762824  0.95595155  0.47882798
   0.68787853  0.95694881  0.56487684
   0.43660353  0.78716280  0.60995222
   0.68779514  0.61945154  0.16831061
   0.31274188  0.87583198  0.30170252
   0.31240522  0.70573785  0.47878040
   0.93621854  0.28734847  0.61020748
   0.43854038  0.62529055  0.30187873
   0.81264776  0.86948037  0.16852799
   0.56308503  0.20716064  0.21299126
   0.93728820  0.61941511  0.16847051
   0.93863442  0.78946756  0.87446406
   0.56208816  0.36772489  0.78694004
   0.06297453  0.37089592  0.52115040
   0.31240662  0.36946790  0.16846020
   0.68835855  0.12522965  0.30184680
   0.43942740  0.95581691  0.83145857
   0.18604120  0.29135027  0.12566236
   0.18710951  0.29122424  0.25783726
   0.31241847  0.37348393  0.43480677
   0.56375173  0.03578692  0.12552088
   0.43637720  0.28727303  0.61001335
   0.18802023  0.45814877  0.34658578
   0.43829871  0.29130812  0.12563287
   0.68732530  0.79184353  0.25745566
   0.43761033  0.12081352  0.52112857
   0.18865022  0.29128018  0.87450599
   0.18712424  0.12093432  0.65366418
   0.93801755  0.12158157  0.65383805
   0.31254830  0.20811095  0.21309885
   0.06254362  0.04017620  0.38987273
   0.18775431  0.11734586  0.16777236
   0.06229068  0.53530421  0.61021390
   0.93860857  0.29078608  0.25771602
   0.56309296  0.53616495  0.60994093
   0.93733844  0.95756267  0.56499594
   0.68682070  0.62488230  0.30183138
   0.93751339  0.62383238  0.43471836
   0.93699764  0.61728427  0.78652600
   0.56161391  0.70417823  0.69815244
   0.06266618  0.70981799  0.83237357
   0.93815371  0.12524530  0.30177615
   0.93805163  0.78736505  0.60998804
   0.43699333  0.79182192  0.25753912
   0.31261608  0.36820796  0.78694218
   0.43753827  0.45821403  0.21303009
   0.18709059  0.12142121  0.52119981
   0.81207757  0.70506995  0.69843173
   0.06203225  0.03603267  0.60991609
   0.56212270  0.20599497  0.83154742
   0.31216977  0.87090379  0.52112021
   0.68811108  0.29091631  0.12566440
   0.18662380  0.95923687  0.21339150
   0.68647409  0.28716636  0.60999553
   0.31313573  0.03660247  0.61016081
   0.93776010  0.11700941  0.78704661
   0.43752717  0.79104469  0.87422872
   0.81330038  0.03665835  0.74263149
   0.93732352  0.45604147  0.69831613
   0.18791899  0.62151454  0.65373303
   0.31275986  0.70391997  0.69829627
   0.93699712  0.29071011  0.12570521
   0.43730411  0.45618200  0.47887215
   0.06236114  0.70537780  0.47874024
   0.93704126  0.12474650  0.43459464
   0.43684305  0.12543673  0.30192821
   0.18707527  0.12472635  0.43473438
   0.56227606  0.03428449  0.87443577
   0.18774709  0.95715900  0.56490450
   0.68950142  0.79096251  0.12575748
   0.56354904  0.53422468  0.12566206
   0.31218353  0.04010166  0.38986552
   0.68755575  0.11980843  0.16856441
   0.81255077  0.20785074  0.21273131
   0.06333559  0.54054456  0.25752840
   0.56264960  0.70584893  0.47867865
   0.06290514  0.20685576  0.56487929
   0.56229962  0.37623449  0.30170150
   0.43686527  0.95751726  0.34644140
   0.18791529  0.95552077  0.69838092
   0.43598716  0.61891565  0.16773510
   0.93686160  0.45861715  0.21312970
   0.06102350  0.53365821  0.12565183
   0.81258654  0.37084199  0.52111601
   0.93726133  0.62504785  0.30149074
   0.31427121  0.04136773  0.25731451
   0.68850379  0.78664816  0.60995340
   0.18786366  0.45674289  0.83189899
   0.43744503  0.11750962  0.16772114
   0.31258933  0.37098541  0.52108948
   0.43759141  0.61690897  0.78713502
   0.06130011  0.04125418  0.25751796
   0.56276114  0.70741861  0.56496994
   0.93737183  0.28540656  0.74244272
   0.68589770  0.11672709  0.78671551
   0.18777576  0.45827984  0.21303956
   0.93741940  0.79114747  0.38981138
   0.68623451  0.29323367  0.87446317
   0.56251923  0.87017344  0.16822440
   0.43752084  0.45512753  0.69832564
   0.93853962  0.95615651  0.34622517
   0.68718704  0.62139499  0.52118058
   0.06303949  0.87067085  0.65367751
   0.06243748  0.86839929  0.78685503
   0.06217254  0.36963101  0.65363350
   0.68756291  0.45570059  0.47875003
   0.18872475  0.79092389  0.25741302
   0.43716305  0.12426858  0.43489258
   0.81247845  0.03492692  0.12561788
   0.93761390  0.62070850  0.52113235
   0.06195159  0.87444505  0.43513760
   0.81202352  0.53546770  0.12552258
   0.43759389  0.45721624  0.34648887
   0.81254823  0.20752397  0.34647569
   0.31251340  0.70652777  0.34633257
   0.68731350  0.12061700  0.65355891
   0.56306757  0.87539829  0.30187954
   0.06406610  0.53588018  0.74250837
   0.93910892  0.95952475  0.21319327
   0.81246441  0.70796511  0.21295293
   0.06201878  0.87526702  0.30189671
   0.18768120  0.12633103  0.30185254
   0.06247041  0.70726265  0.34646291
   0.81204171  0.03613225  0.60977512
   0.06191473  0.37421534  0.43492307
   0.56252757  0.20720877  0.34645930
   0.81279911  0.37556019  0.30179608
   0.43746150  0.95574589  0.47877227
   0.56239240  0.54059989  0.38984945
   0.06238623  0.20584962  0.47866080
   0.31259569  0.86736527  0.78680865
   0.93763677  0.95540245  0.69834402
   0.06250649  0.37722823  0.30169177
   0.68698893  0.62121039  0.65377117
   0.68781586  0.45710253  0.56487718
   0.43838828  0.95933143  0.21335065
   0.31256870  0.20575696  0.47876259
   0.43796086  0.12025151  0.65345099
   0.68712243  0.62351957  0.43456241
   0.81283943  0.20512284  0.69843028
   0.81251791  0.70563774  0.47879764
   0.81175223  0.87450529  0.43522844
   0.93748075  0.95611205  0.47894134
   0.56239633  0.20581716  0.47876899
   0.18771880  0.62425731  0.43488400
   0.31142435  0.03731826  0.74231245
   0.93694922  0.62111534  0.65374495
   0.56272105  0.70656868  0.83163666
   0.31232005  0.37409816  0.30184193
   0.56220446  0.70793051  0.21304123
   0.18753616  0.45577384  0.47872414
   0.31411532  0.03572698  0.87419957
   0.18688155  0.45575688  0.69843955
   0.81100902  0.53397529  0.87457823
   0.18748710  0.29072551  0.38992490
   0.43703903  0.62461369  0.43498356
   0.06266647  0.70805349  0.21296429
   0.56177245  0.37449174  0.43509437
   0.43808191  0.62190410  0.52124605
   0.81310425  0.71025031  0.83160537
   0.06233797  0.36843190  0.78701352
   0.43758378  0.29201074  0.87477712
   0.31284836  0.03499660  0.12567891
   0.68774809  0.12311340  0.43466119
   0.18727783  0.95710486  0.34649115
   0.06319258  0.20915927  0.83256787
   0.56209032  0.03571002  0.61029695
   0.68750287  0.45820156  0.21298515
   0.18746385  0.78740678  0.74285659
   0.18738623  0.62656949  0.30183899
   0.43607188  0.79161261  0.39024137
   0.43634404  0.29228749  0.25750615
   0.06370181  0.53554711  0.87446349
   0.56390464  0.03648699  0.74245452
   0.18837623  0.79063913  0.87432612
   0.93747021  0.45572898  0.47872730
   0.81223112  0.54061226  0.38995558
   0.81213821  0.20709111  0.56489396
   0.18703856  0.61712074  0.78689588
   0.06275453  0.54090876  0.38990976
   0.06307291  0.70467588  0.69826395
   0.31214077  0.54298311  0.25699084
   0.31196135  0.70456943  0.21365076
   0.31223011  0.87002442  0.16711452
   0.56285503  0.53697822  0.74240425
   0.68748964  0.45596274  0.34647310
   0.93477190  0.29286039  0.87406992
   0.56298809  0.04161881  0.25722786
   0.06456758  0.03253988  0.87413977
   0.18684321  0.79195757  0.39010857
   0.81238892  0.87048599  0.52104852
   0.56234231  0.37088725  0.52117776
   0.06303942  0.87053290  0.52115817
   0.81145777  0.86876135  0.78649828
   0.31201096  0.53573038  0.74271910
Direct configuration=     2
   0.06287809  0.03695103  0.12564432
   0.31248809  0.87128001  0.65514829
   0.18679781  0.11750567  0.78610046
   0.43845902  0.29226529  0.38943047
   0.31278964  0.70685602  0.82984200
   0.81606124  0.20892658  0.83081292
   0.18690199  0.96013085  0.83012215
   0.56246521  0.20557502  0.56602452
   0.06112809  0.03602534  0.74048241
   0.81185287  0.37099038  0.16861038
   0.18826037  0.28665387  0.74097052
   0.93669390  0.45705949  0.34657843
   0.93614307  0.29140772  0.38968702
   0.81303180  0.03838024  0.87506078
   0.18659903  0.78783302  0.61194525
   0.56221588  0.04060255  0.38946957
   0.94071716  0.96228677  0.83078533
   0.31497763  0.53701860  0.87542177
   0.68781136  0.28774836  0.74083838
   0.18824059  0.61857173  0.16816781
   0.81122016  0.20627690  0.47858565
   0.81317337  0.53708894  0.61175318
   0.31334379  0.87292784  0.43427582
   0.81242647  0.03971229  0.25818811
   0.68581877  0.95579473  0.34646106
   0.93693790  0.12003516  0.16827871
   0.93627211  0.12038892  0.52108255
   0.56032869  0.54109535  0.25772993
   0.68526848  0.78904536  0.87557269
   0.56269053  0.37064621  0.16820252
   0.43694496  0.78783771  0.74116761
   0.81432606  0.70940177  0.56563420
   0.56250356  0.86857320  0.78550251
   0.68817000  0.12087503  0.52110018
   0.81328373  0.37007163  0.65600348
   0.93868303  0.45578694  0.83016304
   0.06099733  0.20362656  0.69713038
   0.43611866  0.95442930  0.69725281
   0.31175153  0.20480155  0.83027269
   0.43772695  0.62076075  0.65491331
   0.31223515  0.53735690  0.61209070
   0.93725675  0.45879511  0.56579995
   0.68788278  0.78713719  0.74104446
   0.93571465  0.78950737  0.12580748
   0.68616586  0.78942102  0.38943256
   0.93785334  0.78695489  0.74113282
   0.06390488  0.20669039  0.34628265
   0.81042287  0.04090552  0.38979321
   0.43665147  0.11789372  0.78581968
   0.06390275  0.20701108  0.21370936
   0.06245928  0.37052903  0.16817927
   0.93631186  0.79168003  0.25775289
   0.56328836  0.20524513  0.69738735
   0.68941132  0.95478243  0.69733133
   0.43802466  0.78996051  0.12525327
   0.43698590  0.95714788  0.56621106
   0.81436526  0.36895498  0.78585699
   0.68429699  0.29073778  0.25787264
   0.18767117  0.45743520  0.56634159
   0.06254188  0.87013138  0.16855128
   0.18908274  0.28671863  0.61210237
   0.56213263  0.70593154  0.34660209
   0.31061367  0.20460149  0.69739787
   0.56026995  0.53695870  0.87552414
   0.06121480  0.70988889  0.56613442
   0.68960080  0.61677034  0.78541316
   0.31277686  0.54127589  0.38949305
   0.18605809  0.62193222  0.52083913
   0.56180954  0.87231305  0.43404658
   0.43736050  0.45670304  0.56650820
   0.43751634  0.28845576  0.74096340
   0.81162650  0.87733059  0.30179352
   0.81033660  0.70713835  0.34667748
   0.43735690  0.45423761  0.83025194
   0.68746810  0.95611553  0.47858204
   0.68923037  0.45479475  0.69725552
   0.56387002  0.87191361  0.52101680
   0.56255992  0.37060633  0.65513041
   0.81328236  0.87015047  0.65574538
   0.81222825  0.37532223  0.43417405
   0.81304111  0.54121076  0.25772975
   0.68990162  0.45421074  0.82997026
   0.18854446  0.79041049  0.12515720
   0.68645494  0.29181417  0.38940109
   0.31264745  0.37056285  0.65501285
   0.31384800  0.20733901  0.34630935
   0.81264528  0.53649335  0.74120979
   0.68834260  0.95853796  0.83025648
   0.56164183  0.87101092  0.65514821
   0.31147196  0.70897482  0.56652687
   0.31258891  0.53717390  0.12563202
   0.68594334  0.95748171  0.21363792
   0.31361344  0.20524624  0.56632515
   0.18750136  0.95510349  0.47847270
   0.68910608  0.95633659  0.56571781
   0.43534078  0.78728617  0.61202999
   0.68713724  0.61974708  0.16827022
   0.31344999  0.87584270  0.30191571
   0.31238663  0.70611280  0.47813836
   0.93745048  0.28604253  0.61209928
   0.43820166  0.62507123  0.30222699
   0.81162692  0.86935386  0.16847433
   0.56127999  0.20724272  0.21348734
   0.93701955  0.61933450  0.16841975
   0.93810289  0.78853095  0.87549541
   0.56251172  0.36751215  0.78555267
   0.06180412  0.37163523  0.52075506
   0.31315503  0.36917636  0.16874494
   0.68720443  0.12459204  0.30207816
   0.43787354  0.95695723  0.82989609
   0.18677887  0.28935381  0.12573497
   0.18867233  0.29075651  0.25815247
   0.31280186  0.37460236  0.43430824
   0.56276807  0.03564009  0.12571449
   0.43589351  0.28726923  0.61212662
   0.18967403  0.45919738  0.34666862
   0.43824171  0.28975985  0.12581171
   0.68718929  0.79188069  0.25774723
   0.43813519  0.12111027  0.52082142
   0.18780991  0.28851786  0.87519417
   0.18679902  0.12026994  0.65538380
   0.93872849  0.12060985  0.65601473
   0.31376148  0.20760991  0.21376531
   0.06250209  0.04024021  0.38953525
   0.18888783  0.11901304  0.16778211
   0.06376217  0.53784470  0.61208707
   0.93923417  0.29028382  0.25814443
   0.56086828  0.53632743  0.61200916
   0.93748441  0.95460590  0.56600581
   0.68532863  0.62541602  0.30214760
   0.93723557  0.62360032  0.43415513
   0.93773082  0.61622752  0.78538166
   0.56262586  0.70382376  0.69741612
   0.06237015  0.70984141  0.83022023
   0.93827387  0.12475662  0.30170106
   0.93988075  0.78865750  0.61170019
   0.43660747  0.79165259  0.25783018
   0.31147983  0.36793695  0.78564807
   0.43699935  0.45865071  0.21363544
   0.18754433  0.12055736  0.52097188
   0.81438463  0.70559828  0.69728971
   0.06293939  0.03418946  0.61186040
   0.56213799  0.20543718  0.83032955
   0.31176665  0.87181718  0.52092380
   0.68807785  0.29051558  0.12576569
   0.18830741  0.95874923  0.21425296
   0.68505064  0.28670607  0.61190877
   0.31252218  0.03602928  0.61207271
   0.93843493  0.11830256  0.78613024
   0.43785416  0.78848398  0.87534409
   0.81417038  0.03670150  0.74079779
   0.93756978  0.45589581  0.69712770
   0.18748261  0.62208123  0.65530170
   0.31097522  0.70438439  0.69739845
   0.93641422  0.28978139  0.12574198
   0.43756707  0.45585233  0.47829328
   0.06201317  0.70633416  0.47844645
   0.93674365  0.12461887  0.43409037
   0.43678066  0.12515917  0.30199207
   0.18793454  0.12428263  0.43437622
   0.56191812  0.03736014  0.87538943
   0.18668669  0.95560900  0.56629310
   0.68813726  0.78929334  0.12583947
   0.56352927  0.53616724  0.12574412
   0.31339796  0.04004770  0.38944923
   0.68666304  0.11978741  0.16846358
   0.81109160  0.20796253  0.21344086
   0.06442765  0.54059116  0.25778998
   0.56279279  0.70492739  0.47817700
   0.06284197  0.20435800  0.56622436
   0.56104881  0.37640715  0.30203395
   0.43736545  0.95623304  0.34648117
   0.18524581  0.95562135  0.69728174
   0.43721585  0.61860092  0.16794027
   0.93691894  0.45995673  0.21371689
   0.06093781  0.53533342  0.12568176
   0.81250612  0.37125439  0.52081398
   0.93760445  0.62579183  0.30157919
   0.31347543  0.04231700  0.25761818
   0.68788227  0.78711477  0.61162582
   0.18686746  0.45538767  0.82996795
   0.43742742  0.11911670  0.16796687
   0.31271796  0.37000162  0.52063884
   0.43685700  0.61690036  0.78557558
   0.06268539  0.04095392  0.25800259
   0.56350679  0.70831611  0.56624788
   0.93755992  0.28547076  0.74079031
   0.68680768  0.11823632  0.78555611
   0.18960642  0.45930010  0.21372326
   0.93639543  0.78987040  0.38960420
   0.68544025  0.28980896  0.87536405
   0.56295384  0.86994369  0.16827979
   0.43742797  0.45461420  0.69743477
   0.93809298  0.95575733  0.34632228
   0.68881093  0.62235988  0.52096270
   0.06293608  0.87079235  0.65546410
   0.06275298  0.86805491  0.78579302
   0.06235459  0.36958321  0.65582725
   0.68691834  0.45613074  0.47838268
   0.18887590  0.79150378  0.25762856
   0.43753632  0.12404984  0.43442499
   0.81220873  0.03615480  0.12565204
   0.93677432  0.62262914  0.52108117
   0.06209432  0.87331448  0.43483877
   0.81129396  0.53640177  0.12564068
   0.43815133  0.45876160  0.34662224
   0.81098021  0.20747177  0.34665867
   0.31455896  0.70624889  0.34640839
   0.68735099  0.12095980  0.65536468
   0.56234001  0.87491639  0.30224895
   0.06322816  0.53588241  0.74112145
   0.93893631  0.95767120  0.21397928
   0.81188815  0.70771212  0.21353463
   0.06262907  0.87553553  0.30188123
   0.18866534  0.12592163  0.30165455
   0.06338278  0.70735131  0.34656676
   0.81337084  0.03505800  0.61149423
   0.06214146  0.37544947  0.43434152
   0.56206726  0.20784315  0.34652828
   0.81197543  0.37519494  0.30197510
   0.43678017  0.95607942  0.47832932
   0.56179909  0.54138012  0.38932449
   0.06312211  0.20578829  0.47836961
   0.31131793  0.86830948  0.78554812
   0.93853054  0.95538477  0.69712162
   0.06383520  0.37690728  0.30164919
   0.68705478  0.62063874  0.65569874
   0.68789207  0.45795445  0.56592249
   0.43786895  0.95945201  0.21393243
   0.31331067  0.20589125  0.47836307
   0.43751843  0.12066011  0.65490944
   0.68683475  0.62340800  0.43390820
   0.81529750  0.20464029  0.69725446
   0.81271439  0.70570387  0.47862306
   0.81144393  0.87291875  0.43460139
   0.93801150  0.95455918  0.47891880
   0.56209925  0.20635866  0.47851658
   0.18797188  0.62352662  0.43443995
   0.31082808  0.03706334  0.74085441
   0.93765563  0.62194234  0.65590031
   0.56278847  0.70571725  0.83036216
   0.31311239  0.37479118  0.30191984
   0.56136556  0.70745044  0.21349065
   0.18787721  0.45568747  0.47822310
   0.31431484  0.03798961  0.87501405
   0.18516331  0.45541883  0.69728324
   0.81104991  0.53581941  0.87552658
   0.18816734  0.29190880  0.38963094
   0.43731503  0.62453020  0.43432855
   0.06361967  0.70759009  0.21362077
   0.56188037  0.37538525  0.43460347
   0.43859600  0.62226594  0.52077513
   0.81452697  0.70880985  0.82987534
   0.06165819  0.36891780  0.78602696
   0.43819861  0.28999365  0.87553590
   0.31323413  0.03612158  0.12539085
   0.68682833  0.12351644  0.43404647
   0.18884858  0.95634166  0.34640270
   0.06203420  0.20803244  0.83094290
   0.56057358  0.03600772  0.61206435
   0.68620667  0.45909554  0.21349289
   0.18718524  0.78771037  0.74127690
   0.18893418  0.62619704  0.30203057
   0.43726669  0.78993091  0.38964014
   0.43520687  0.29190176  0.25773928
   0.06350914  0.53556793  0.87540391
   0.56374744  0.03657239  0.74099449
   0.18961043  0.78901565  0.87528733
   0.93739151  0.45665482  0.47849092
   0.81118867  0.54097396  0.38973126
   0.81162113  0.20500284  0.56582223
   0.18567732  0.61711728  0.78552807
   0.06270383  0.54091588  0.38976207
   0.06148934  0.70596031  0.69707061
   0.31257472  0.54187902  0.25728397
   0.31255864  0.70366755  0.21433862
   0.31373204  0.87034427  0.16734427
   0.56344999  0.53716915  0.74057449
   0.68504113  0.45696307  0.34685271
   0.93626844  0.28886134  0.87495119
   0.56155830  0.04161411  0.25763130
   0.06376589  0.03693292  0.87496182
   0.18814489  0.79044891  0.38954547
   0.81325990  0.87023834  0.52120524
   0.56353339  0.36990202  0.52044671
   0.06116671  0.87037104  0.52111773
   0.81324771  0.86822938  0.78504503
   0.31138879  0.53607003  0.74098054
Direct configuration=     3
   0.06219723  0.03599409  0.12563089
   0.31330731  0.87117197  0.65393286
   0.18744609  0.11681819  0.78705376
   0.43777069  0.29114196  0.38990037
   0.31398158  0.70654928  0.83121469
   0.81390046  0.20966933  0.83241931
   0.18837829  0.95816349  0.83182196
   0.56286112  0.20716182  0.56488363
   0.06125232  0.03600374  0.74233191
   0.81250966  0.37013770  0.16888004
   0.18935073  0.28707880  0.74229516
   0.93688865  0.45624921  0.34633386
   0.93679021  0.29054125  0.38989225
   0.81242905  0.03532706  0.87424947
   0.18642551  0.78703144  0.61001688
   0.56233353  0.04096157  0.38990572
   0.93902911  0.95907242  0.83253110
   0.31388756  0.53532993  0.87454572
   0.68693188  0.28743887  0.74217988
   0.18861176  0.61964045  0.16791962
   0.81231407  0.20609765  0.47869914
   0.81331358  0.53583819  0.61007984
   0.31264002  0.87347353  0.43463420
   0.81184807  0.04000884  0.25783437
   0.68725864  0.95649146  0.34634467
   0.93714399  0.12009962  0.16864878
   0.93728690  0.12214081  0.52113376
   0.56139762  0.54124663  0.25745345
   0.68598770  0.79132741  0.87446721
   0.56318331  0.37015869  0.16812164
   0.43716963  0.78769303  0.74263751
   0.81301613  0.70702520  0.56492250
   0.56298632  0.86797929  0.78690423
   0.68812103  0.12148384  0.52120470
   0.81344574  0.37019071  0.65383913
   0.93788596  0.45792014  0.83216491
   0.06231520  0.20480400  0.69827051
   0.43696258  0.95397855  0.69808619
   0.31299295  0.20531972  0.83171280
   0.43807154  0.62082403  0.65383380
   0.31134657  0.53634345  0.60996348
   0.93724425  0.45711400  0.56493990
   0.68765723  0.78749464  0.74268505
   0.93578635  0.79089515  0.12582966
   0.68720503  0.79031208  0.38980297
   0.93760846  0.78720184  0.74279532
   0.06343191  0.20660784  0.34625141
   0.81136034  0.04127432  0.39017763
   0.43743265  0.11737727  0.78707353
   0.06211731  0.20712585  0.21294522
   0.06199455  0.36980180  0.16828567
   0.93580214  0.79114129  0.25750265
   0.56302172  0.20515563  0.69836195
   0.68691937  0.95505274  0.69823707
   0.43718763  0.79113644  0.12551299
   0.43726941  0.95694768  0.56489921
   0.81292179  0.36828117  0.78695240
   0.68490006  0.29076053  0.25757511
   0.18806163  0.45700830  0.56493320
   0.06333806  0.87033367  0.16847706
   0.18800534  0.28753589  0.61018840
   0.56358554  0.70643651  0.34636144
   0.31195775  0.20535314  0.69845067
   0.56135434  0.53512418  0.87447296
   0.06249464  0.70742052  0.56494833
   0.68818059  0.61733087  0.78686814
   0.31109041  0.54079780  0.38994199
   0.18726658  0.62075002  0.52113335
   0.56233114  0.87335324  0.43467572
   0.43702063  0.45725785  0.56497704
   0.43754551  0.28862585  0.74226253
   0.81230392  0.87764337  0.30170206
   0.81186657  0.70722427  0.34648518
   0.43802545  0.45558310  0.83143397
   0.68722393  0.95583679  0.47870481
   0.68754679  0.45471983  0.69831031
   0.56260518  0.87102371  0.52112408
   0.56276643  0.37057369  0.65369412
   0.81191329  0.87023038  0.65379529
   0.81285064  0.37408094  0.43476832
   0.81339431  0.54045061  0.25753755
   0.68912289  0.45518000  0.83168080
   0.18803547  0.79133440  0.12550406
   0.68720067  0.29098420  0.38977340
   0.31261448  0.37064291  0.65368771
   0.31254449  0.20695704  0.34627256
   0.81196217  0.53659753  0.74267729
   0.68747227  0.95601741  0.83181117
   0.56217307  0.87091585  0.65375073
   0.31231208  0.70722590  0.56497715
   0.31163657  0.53550292  0.12553116
   0.68708211  0.95840849  0.21311703
   0.31294377  0.20693527  0.56492860
   0.18762301  0.95591657  0.47881332
   0.68792916  0.95692356  0.56491153
   0.43655144  0.78716789  0.61003793
   0.68776800  0.61946374  0.16830894
   0.31277109  0.87583242  0.30171132
   0.31240446  0.70575332  0.47875391
   0.93626936  0.28729460  0.61028552
   0.43852641  0.62528150  0.30189310
   0.81260565  0.86947516  0.16852578
   0.56301058  0.20716403  0.21301173
   0.93727712  0.61941179  0.16846841
   0.93861250  0.78942892  0.87450660
   0.56210563  0.36771612  0.78688281
   0.06292625  0.37092641  0.52113409
   0.31243750  0.36945587  0.16847195
   0.68831094  0.12520335  0.30185635
   0.43936330  0.95586395  0.83139412
   0.18607162  0.29126792  0.12566535
   0.18717397  0.29120495  0.25785027
   0.31243429  0.37353006  0.43478621
   0.56371115  0.03578086  0.12552887
   0.43635725  0.28727287  0.61010052
   0.18808845  0.45819202  0.34658920
   0.43829636  0.29124426  0.12564025
   0.68731969  0.79184506  0.25746769
   0.43763198  0.12082576  0.52111590
   0.18861556  0.29116623  0.87453438
   0.18711082  0.12090691  0.65373512
   0.93804687  0.12154149  0.65392784
   0.31259834  0.20809028  0.21312634
   0.06254191  0.04017884  0.38985881
   0.18780107  0.11741463  0.16777276
   0.06235138  0.53540900  0.61029117
   0.93863437  0.29076536  0.25773369
   0.56300120  0.53617165  0.61002625
   0.93734446  0.95744070  0.56503760
   0.68675915  0.62490431  0.30184443
   0.93750193  0.62382280  0.43469513
   0.93702788  0.61724068  0.78647880
   0.56165566  0.70416361  0.69812207
   0.06265397  0.70981896  0.83228475
   0.93815866  0.12522514  0.30177305
   0.93812708  0.78741836  0.61005867
   0.43697741  0.79181493  0.25755113
   0.31256921  0.36819678  0.78688880
   0.43751604  0.45823204  0.21305506
   0.18710930  0.12138557  0.52119041
   0.81217273  0.70509174  0.69838462
   0.06206967  0.03595664  0.60999629
   0.56212333  0.20597196  0.83149718
   0.31215314  0.87094147  0.52111211
   0.68810971  0.29089978  0.12566858
   0.18669325  0.95921675  0.21342704
   0.68641537  0.28714738  0.61007445
   0.31311042  0.03657883  0.61023968
   0.93778794  0.11706275  0.78700881
   0.43754066  0.79093906  0.87427473
   0.81333627  0.03666013  0.74255585
   0.93733368  0.45603546  0.69826711
   0.18790099  0.62153791  0.65379774
   0.31268625  0.70393913  0.69825924
   0.93697307  0.29067180  0.12570672
   0.43731495  0.45616840  0.47884827
   0.06234679  0.70541725  0.47872812
   0.93702899  0.12474124  0.43457384
   0.43684048  0.12542528  0.30193085
   0.18711071  0.12470805  0.43471961
   0.56226129  0.03441136  0.87447511
   0.18770335  0.95709507  0.56496178
   0.68944515  0.79089366  0.12576087
   0.56354822  0.53430481  0.12566545
   0.31223363  0.04009944  0.38984835
   0.68751893  0.11980756  0.16856026
   0.81249058  0.20785535  0.21276057
   0.06338064  0.54054649  0.25753919
   0.56265550  0.70581092  0.47865796
   0.06290253  0.20675273  0.56493477
   0.56224803  0.37624161  0.30171522
   0.43688590  0.95746429  0.34644304
   0.18780517  0.95552492  0.69833558
   0.43603784  0.61890267  0.16774356
   0.93686397  0.45867241  0.21315392
   0.06101996  0.53372731  0.12565307
   0.81258322  0.37085900  0.52110355
   0.93727548  0.62507854  0.30149439
   0.31423838  0.04140688  0.25732704
   0.68847815  0.78666741  0.61002238
   0.18782257  0.45668699  0.83181934
   0.43744430  0.11757591  0.16773127
   0.31259464  0.37094482  0.52107089
   0.43756111  0.61690861  0.78707069
   0.06135725  0.04124180  0.25753795
   0.56279190  0.70745563  0.56502265
   0.93737959  0.28540921  0.74237456
   0.68593523  0.11678935  0.78666769
   0.18785127  0.45832192  0.21306776
   0.93737717  0.79109479  0.38980284
   0.68620175  0.29309240  0.87450033
   0.56253716  0.87016396  0.16822668
   0.43751701  0.45510635  0.69828889
   0.93852119  0.95614004  0.34622918
   0.68725402  0.62143479  0.52117159
   0.06303523  0.87067586  0.65375121
   0.06245050  0.86838508  0.78681122
   0.06218005  0.36962904  0.65372399
   0.68753632  0.45571833  0.47873487
   0.18873099  0.79094781  0.25742191
   0.43717845  0.12425956  0.43487329
   0.81246733  0.03497757  0.12561929
   0.93757927  0.62078772  0.52113024
   0.06195748  0.87439842  0.43512528
   0.81199343  0.53550623  0.12552745
   0.43761689  0.45727999  0.34649437