 288 288   0   0
  0.1280206E+02  0.9726678E-09  0.8423550E-09  0.4500000E-08  0.2500000E-15
   1.0000000000000000E-004
  CAR 
 unknown system                          
      6.77536644     -6.06036614  301      4.30802939      1.00000000
     -6.060  0.0000E+00  0.0000E+00
     -6.018  0.0000E+00  0.0000E+00
     -5.975  0.0000E+00  0.0000E+00
     -5.932  0.0000E+00  0.0000E+00
     -5.889  0.0000E+00  0.0000E+00
     -5.846  0.0000E+00  0.0000E+00
     -5.804  0.0000E+00  0.0000E+00
     -5.761  0.0000E+00  0.0000E+00
     -5.718  0.0000E+00  0.0000E+00
     -5.675  0.0000E+00  0.0000E+00
     -5.633  0.0000E+00  0.0000E+00
     -5.590  0.0000E+00  0.0000E+00
     -5.547  0.0000E+00  0.0000E+00
     -5.504  0.0000E+00  0.0000E+00
     -5.461  0.0000E+00  0.0000E+00
     -5.419  0.1622E-17  0.6939E-19
     -5.376  0.4217E-16  0.1874E-17
     -5.333  0.8998E-15  0.4037E-16
     -5.290  0.1642E-13  0.7428E-15
     -5.247  0.2550E-12  0.1165E-13
     -5.205  0.3372E-11  0.1559E-12
     -5.162  0.3797E-10  0.1781E-11
     -5.119  0.3643E-09  0.1737E-10
     -5.076  0.2978E-08  0.1448E-09
     -5.034  0.2076E-07  0.1033E-08
     -4.991  0.1235E-06  0.6318E-08
     -4.948  0.6282E-06  0.3319E-07
     -4.905  0.2737E-05  0.1503E-06
     -4.862  0.1025E-04  0.5886E-06
     -4.820  0.3312E-04  0.2006E-05
     -4.777  0.9307E-04  0.5988E-05
     -4.734  0.2295E-03  0.1581E-04
     -4.691  0.5022E-03  0.3729E-04
     -4.648  0.9882E-03  0.7957E-04
     -4.606  0.1772E-02  0.1554E-03
     -4.563  0.2925E-02  0.2805E-03
     -4.520  0.4483E-02  0.4723E-03
     -4.477  0.6416E-02  0.7468E-03
     -4.435  0.8617E-02  0.1116E-02
     -4.392  0.1091E-01  0.1582E-02
     -4.349  0.1308E-01  0.2142E-02
     -4.306  0.1492E-01  0.2780E-02
     -4.263  0.1632E-01  0.3479E-02
     -4.221  0.1728E-01  0.4218E-02
     -4.178  0.1799E-01  0.4988E-02
     -4.135  0.1869E-01  0.5787E-02
     -4.092  0.1970E-01  0.6630E-02
     -4.049  0.2120E-01  0.7537E-02
     -4.007  0.2325E-01  0.8532E-02
     -3.964  0.2564E-01  0.9629E-02
     -3.921  0.2802E-01  0.1083E-01
     -3.878  0.2999E-01  0.1211E-01
     -3.836  0.3122E-01  0.1345E-01
     -3.793  0.3160E-01  0.1480E-01
     -3.750  0.3130E-01  0.1614E-01
     -3.707  0.3073E-01  0.1745E-01
     -3.664  0.3039E-01  0.1875E-01
     -3.622  0.3069E-01  0.2007E-01
     -3.579  0.3180E-01  0.2143E-01
     -3.536  0.3364E-01  0.2287E-01
     -3.493  0.3589E-01  0.2440E-01
     -3.450  0.3813E-01  0.2603E-01
     -3.408  0.3998E-01  0.2774E-01
     -3.365  0.4122E-01  0.2951E-01
     -3.322  0.4180E-01  0.3130E-01
     -3.279  0.4188E-01  0.3309E-01
     -3.237  0.4175E-01  0.3487E-01
     -3.194  0.4182E-01  0.3666E-01
     -3.151  0.4244E-01  0.3848E-01
     -3.108  0.4380E-01  0.4035E-01
     -3.065  0.4587E-01  0.4232E-01
     -3.023  0.4835E-01  0.4438E-01
     -2.980  0.5081E-01  0.4656E-01
     -2.937  0.5276E-01  0.4882E-01
     -2.894  0.5384E-01  0.5112E-01
     -2.851  0.5402E-01  0.5343E-01
     -2.809  0.5370E-01  0.5573E-01
     -2.766  0.5349E-01  0.5802E-01
     -2.723  0.5384E-01  0.6032E-01
     -2.680  0.5476E-01  0.6266E-01
     -2.638  0.5576E-01  0.6505E-01
     -2.595  0.5625E-01  0.6745E-01
     -2.552  0.5604E-01  0.6985E-01
     -2.509  0.5560E-01  0.7223E-01
     -2.466  0.5589E-01  0.7462E-01
     -2.424  0.5785E-01  0.7710E-01
     -2.381  0.6181E-01  0.7974E-01
     -2.338  0.6710E-01  0.8261E-01
     -2.295  0.7212E-01  0.8570E-01
     -2.252  0.7511E-01  0.8891E-01
     -2.210  0.7511E-01  0.9213E-01
     -2.167  0.7267E-01  0.9524E-01
     -2.124  0.6961E-01  0.9821E-01
     -2.081  0.6805E-01  0.1011E+00
     -2.039  0.6936E-01  0.1041E+00
     -1.996  0.7353E-01  0.1072E+00
     -1.953  0.7929E-01  0.1106E+00
     -1.910  0.8470E-01  0.1143E+00
     -1.867  0.8810E-01  0.1180E+00
     -1.825  0.8894E-01  0.1218E+00
     -1.782  0.8802E-01  0.1256E+00
     -1.739  0.8681E-01  0.1293E+00
     -1.696  0.8657E-01  0.1330E+00
     -1.653  0.8771E-01  0.1368E+00
     -1.611  0.8989E-01  0.1406E+00
     -1.568  0.9256E-01  0.1446E+00
     -1.525  0.9537E-01  0.1487E+00
     -1.482  0.9828E-01  0.1529E+00
     -1.440  0.1012E+00  0.1572E+00
     -1.397  0.1039E+00  0.1616E+00
     -1.354  0.1060E+00  0.1662E+00
     -1.311  0.1077E+00  0.1708E+00
     -1.268  0.1103E+00  0.1755E+00
     -1.226  0.1154E+00  0.1804E+00
     -1.183  0.1240E+00  0.1857E+00
     -1.140  0.1350E+00  0.1915E+00
     -1.097  0.1457E+00  0.1977E+00
     -1.054  0.1531E+00  0.2043E+00
     -1.012  0.1560E+00  0.2110E+00
     -0.969  0.1563E+00  0.2177E+00
     -0.926  0.1579E+00  0.2244E+00
     -0.883  0.1648E+00  0.2315E+00
     -0.841  0.1789E+00  0.2391E+00
     -0.798  0.1997E+00  0.2477E+00
     -0.755  0.2258E+00  0.2573E+00
     -0.712  0.2566E+00  0.2683E+00
     -0.669  0.2926E+00  0.2808E+00
     -0.627  0.3339E+00  0.2951E+00
     -0.584  0.3783E+00  0.3113E+00
     -0.541  0.4217E+00  0.3293E+00
     -0.498  0.4595E+00  0.3490E+00
     -0.455  0.4890E+00  0.3699E+00
     -0.413  0.5108E+00  0.3918E+00
     -0.370  0.5275E+00  0.4143E+00
     -0.327  0.5415E+00  0.4375E+00
     -0.284  0.5540E+00  0.4612E+00
     -0.242  0.5641E+00  0.4853E+00
     -0.199  0.5708E+00  0.5098E+00
     -0.156  0.5737E+00  0.5343E+00
     -0.113  0.5744E+00  0.5589E+00
     -0.070  0.5754E+00  0.5835E+00
     -0.028  0.5794E+00  0.6083E+00
      0.015  0.5883E+00  0.6335E+00
      0.058  0.6035E+00  0.6593E+00
      0.101  0.6261E+00  0.6861E+00
      0.144  0.6557E+00  0.7141E+00
      0.186  0.6901E+00  0.7437E+00
      0.229  0.7258E+00  0.7747E+00
      0.272  0.7589E+00  0.8072E+00
      0.315  0.7872E+00  0.8409E+00
      0.358  0.8102E+00  0.8755E+00
      0.400  0.8286E+00  0.9110E+00
      0.443  0.8431E+00  0.9471E+00
      0.486  0.8537E+00  0.9836E+00
      0.529  0.8598E+00  0.1020E+01
      0.571  0.8611E+00  0.1057E+01
      0.614  0.8580E+00  0.1094E+01
      0.657  0.8510E+00  0.1130E+01
      0.700  0.8403E+00  0.1166E+01
      0.743  0.8254E+00  0.1202E+01
      0.785  0.8073E+00  0.1236E+01
      0.828  0.7887E+00  0.1270E+01
      0.871  0.7734E+00  0.1303E+01
      0.914  0.7640E+00  0.1336E+01
      0.957  0.7601E+00  0.1368E+01
      0.999  0.7585E+00  0.1401E+01
      1.042  0.7554E+00  0.1433E+01
      1.085  0.7481E+00  0.1465E+01
      1.128  0.7371E+00  0.1497E+01
      1.170  0.7263E+00  0.1528E+01
      1.213  0.7206E+00  0.1558E+01
      1.256  0.7225E+00  0.1589E+01
      1.299  0.7295E+00  0.1621E+01
      1.342  0.7345E+00  0.1652E+01
      1.384  0.7311E+00  0.1683E+01
      1.427  0.7177E+00  0.1714E+01
      1.470  0.6986E+00  0.1744E+01
      1.513  0.6815E+00  0.1773E+01
      1.556  0.6729E+00  0.1802E+01
      1.598  0.6756E+00  0.1831E+01
      1.641  0.6889E+00  0.1860E+01
      1.684  0.7097E+00  0.1891E+01
      1.727  0.7342E+00  0.1922E+01
      1.769  0.7594E+00  0.1954E+01
      1.812  0.7830E+00  0.1988E+01
      1.855  0.8036E+00  0.2022E+01
      1.898  0.8210E+00  0.2057E+01
      1.941  0.8359E+00  0.2093E+01
      1.983  0.8502E+00  0.2130E+01
      2.026  0.8651E+00  0.2167E+01
      2.069  0.8812E+00  0.2204E+01
      2.112  0.8980E+00  0.2243E+01
      2.155  0.9148E+00  0.2282E+01
      2.197  0.9312E+00  0.2322E+01
      2.240  0.9480E+00  0.2362E+01
      2.283  0.9675E+00  0.2404E+01
      2.326  0.9928E+00  0.2446E+01
      2.368  0.1026E+01  0.2490E+01
      2.411  0.1066E+01  0.2536E+01
      2.454  0.1110E+01  0.2583E+01
      2.497  0.1156E+01  0.2633E+01
      2.540  0.1199E+01  0.2684E+01
      2.582  0.1236E+01  0.2737E+01
      2.625  0.1264E+01  0.2791E+01
      2.668  0.1282E+01  0.2846E+01
      2.711  0.1291E+01  0.2901E+01
      2.754  0.1296E+01  0.2956E+01
      2.796  0.1305E+01  0.3012E+01
      2.839  0.1322E+01  0.3069E+01
      2.882  0.1349E+01  0.3126E+01
      2.925  0.1382E+01  0.3186E+01
      2.967  0.1408E+01  0.3246E+01
      3.010  0.1409E+01  0.3306E+01
      3.053  0.1374E+01  0.3365E+01
      3.096  0.1304E+01  0.3421E+01
      3.139  0.1212E+01  0.3473E+01
      3.181  0.1117E+01  0.3520E+01
      3.224  0.1034E+01  0.3565E+01
      3.267  0.9712E+00  0.3606E+01
      3.310  0.9300E+00  0.3646E+01
      3.353  0.9068E+00  0.3685E+01
      3.395  0.8965E+00  0.3723E+01
      3.438  0.8928E+00  0.3761E+01
      3.481  0.8888E+00  0.3799E+01
      3.524  0.8788E+00  0.3837E+01
      3.566  0.8614E+00  0.3874E+01
      3.609  0.8412E+00  0.3910E+01
      3.652  0.8275E+00  0.3945E+01
      3.695  0.8283E+00  0.3981E+01
      3.738  0.8456E+00  0.4017E+01
      3.780  0.8747E+00  0.4054E+01
      3.823  0.9075E+00  0.4093E+01
      3.866  0.9375E+00  0.4133E+01
      3.909  0.9622E+00  0.4174E+01
      3.952  0.9826E+00  0.4216E+01
      3.994  0.1000E+01  0.4259E+01
      4.037  0.1015E+01  0.4303E+01
      4.080  0.1027E+01  0.4347E+01
      4.123  0.1032E+01  0.4391E+01
      4.165  0.1030E+01  0.4435E+01
      4.208  0.1021E+01  0.4478E+01
      4.251  0.1007E+01  0.4521E+01
      4.294  0.9930E+00  0.4564E+01
      4.337  0.9827E+00  0.4606E+01
      4.379  0.9784E+00  0.4648E+01
      4.422  0.9799E+00  0.4690E+01
      4.465  0.9847E+00  0.4732E+01
      4.508  0.9888E+00  0.4774E+01
      4.551  0.9887E+00  0.4817E+01
      4.593  0.9835E+00  0.4859E+01
      4.636  0.9759E+00  0.4900E+01
      4.679  0.9709E+00  0.4942E+01
      4.722  0.9733E+00  0.4984E+01
      4.764  0.9854E+00  0.5026E+01
      4.807  0.1006E+01  0.5069E+01
      4.850  0.1032E+01  0.5113E+01
      4.893  0.1060E+01  0.5158E+01
      4.936  0.1085E+01  0.5205E+01
      4.978  0.1102E+01  0.5252E+01
      5.021  0.1103E+01  0.5299E+01
      5.064  0.1077E+01  0.5345E+01
      5.107  0.1010E+01  0.5388E+01
      5.150  0.8961E+00  0.5427E+01
      5.192  0.7412E+00  0.5458E+01
      5.235  0.5637E+00  0.5482E+01
      5.278  0.3896E+00  0.5499E+01
      5.321  0.2422E+00  0.5510E+01
      5.363  0.1344E+00  0.5515E+01
      5.406  0.6615E-01  0.5518E+01
      5.449  0.2872E-01  0.5519E+01
      5.492  0.1095E-01  0.5520E+01
      5.535  0.3659E-02  0.5520E+01
      5.577  0.1067E-02  0.5520E+01
      5.620  0.2710E-03  0.5520E+01
      5.663  0.5982E-04  0.5520E+01
      5.706  0.1146E-04  0.5520E+01
      5.749  0.1900E-05  0.5520E+01
      5.791  0.2726E-06  0.5520E+01
      5.834  0.3378E-07  0.5520E+01
      5.877  0.3609E-08  0.5520E+01
      5.920  0.3321E-09  0.5520E+01
      5.962  0.2629E-10  0.5520E+01
      6.005  0.1789E-11  0.5520E+01
      6.048  0.1045E-12  0.5520E+01
      6.091  0.5223E-14  0.5520E+01
      6.134  0.2154E-15  0.5520E+01
      6.176  0.5190E-17  0.5520E+01
      6.219  0.0000E+00  0.5520E+01
      6.262  0.0000E+00  0.5520E+01
      6.305  0.0000E+00  0.5520E+01
      6.348  0.0000E+00  0.5520E+01
      6.390  0.0000E+00  0.5520E+01
      6.433  0.0000E+00  0.5520E+01
      6.476  0.0000E+00  0.5520E+01
      6.519  0.0000E+00  0.5520E+01
      6.561  0.0000E+00  0.5520E+01
      6.604  0.0000E+00  0.5520E+01
      6.647  0.0000E+00  0.5520E+01
      6.690  0.0000E+00  0.5520E+01
      6.733  0.0000E+00  0.5520E+01
      6.775  0.0000E+00  0.5520E+01
