<?xml version="1.0" encoding="ISO-8859-1"?>
<modeling>
 <generator>
  <i name="program" type="string">vasp </i>
  <i name="version" type="string">5.4.4.18Apr17-6-g9f103f2a35  </i>
  <i name="subversion" type="string">(build May 29 2019 08:40:53) complex            parallel </i>
  <i name="platform" type="string">LinuxPGI </i>
  <i name="date" type="string">2021 11 22 </i>
  <i name="time" type="string">03:10:04 </i>
 </generator>
 <incar>
  <i type="int" name="ISTART">     2</i>
  <i type="string" name="PREC">accurate</i>
  <i type="string" name="ALGO"> Fast</i>
  <i type="int" name="ICHARG">     2</i>
  <i type="int" name="INIWAV">     1</i>
  <i type="int" name="NELM">   100</i>
  <i type="int" name="NELMIN">     4</i>
  <i type="int" name="IBRION">     2</i>
  <i name="EDIFF">      0.00001000</i>
  <i type="int" name="NSW">   500</i>
  <i type="int" name="ISIF">     2</i>
  <i type="int" name="ISYM">     2</i>
  <i name="ENCUT">    500.00000000</i>
  <i name="POTIM">      0.25000000</i>
  <i type="string" name="LREAL"> Auto</i>
  <i type="int" name="ISMEAR">     0</i>
  <i name="SIGMA">      0.15000000</i>
  <i type="logical" name="LWAVE"> F  </i>
  <i type="logical" name="LCHARG"> F  </i>
  <v type="int" name="KPOINT_BSE">    -1     0     0     0</v>
  <i type="int" name="NELM">   100</i>
 </incar>
 <structure name="primitive_cell" >
  <crystal>
   <varray name="basis" >
    <v>       9.72667800       0.00000000       0.00000000 </v>
    <v>       0.00000000       8.42355000       0.00000000 </v>
    <v>       0.00000000       0.00000000      45.00000000 </v>
   </varray>
   <i name="volume">   3686.99213101 </i>
   <varray name="rec_basis" >
    <v>       0.10281002       0.00000000       0.00000000 </v>
    <v>       0.00000000       0.11871479       0.00000000 </v>
    <v>       0.00000000       0.00000000       0.02222222 </v>
   </varray>
  </crystal>
  <varray name="positions" >
   <v>      -0.18762454       0.03651065       0.39006544 </v>
   <v>      -0.31253694      -0.04742200       0.34631402 </v>
   <v>      -0.18833035       0.20254424       0.34617771 </v>
   <v>      -0.06263762      -0.04751154       0.34610385 </v>
   <v>      -0.06262562      -0.21320213       0.39005375 </v>
   <v>      -0.31277686      -0.21323500       0.39019066 </v>
   <v>      -0.43759520       0.03690436       0.39007448 </v>
   <v>       0.06235127       0.03657043       0.39005207 </v>
   <v>      -0.31265635       0.28662530       0.39009191 </v>
   <v>      -0.06211533       0.28646564       0.39015036 </v>
   <v>      -0.18756770      -0.12880407       0.43489740 </v>
   <v>      -0.31224856       0.12108175       0.43485882 </v>
   <v>      -0.06308917       0.12115105       0.43488766 </v>
   <v>      -0.43761852       0.20233658       0.34627189 </v>
   <v>       0.06234908       0.20298749       0.34628793 </v>
   <v>      -0.18817117      -0.29769864       0.34619863 </v>
   <v>       0.06214732      -0.12905104       0.43487065 </v>
   <v>      -0.43782507      -0.12865457       0.43487065 </v>
   <v>      -0.18695970       0.37103713       0.43487244 </v>
   <v>      -0.31258409       0.45245109       0.34617997 </v>
   <v>      -0.06278656       0.45277683       0.34615778 </v>
   <v>       0.43782859      -0.21305347       0.39015173 </v>
   <v>       0.06239138      -0.29758660       0.34628481 </v>
   <v>       0.43735503      -0.04752579       0.34612330 </v>
   <v>      -0.43764714      -0.29748735       0.34623464 </v>
   <v>       0.18757794      -0.04694766       0.34612191 </v>
   <v>       0.18752121      -0.21286106       0.39011778 </v>
   <v>      -0.18724124      -0.46363256       0.39002278 </v>
   <v>      -0.31258479       0.11860595       0.30176440 </v>
   <v>      -0.06272156       0.11881181       0.30175235 </v>
   <v>       0.18733742       0.28705964       0.39017641 </v>
   <v>       0.43738560       0.28709857       0.39009605 </v>
   <v>      -0.06301069      -0.37905000       0.43483030 </v>
   <v>      -0.18738198      -0.13128997       0.30177190 </v>
   <v>      -0.31231154      -0.37921945       0.43488741 </v>
   <v>      -0.31204867      -0.04488777       0.47864151 </v>
   <v>      -0.06227316      -0.04469715       0.47861988 </v>
   <v>       0.43789334       0.12138967       0.43495214 </v>
   <v>       0.06209488       0.37073557       0.43481887 </v>
   <v>       0.18822324       0.12068085       0.43462469 </v>
   <v>      -0.18740973       0.20543596       0.47860546 </v>
   <v>      -0.43779870       0.37124845       0.43481182 </v>
   <v>      -0.18737475       0.36874953       0.30180443 </v>
   <v>       0.06242817      -0.46329378       0.39002528 </v>
   <v>      -0.18740252      -0.29463902       0.47856711 </v>
   <v>      -0.43758223      -0.46341432       0.39012856 </v>
   <v>       0.31236217       0.03702857       0.39012133 </v>
   <v>       0.06244271      -0.13118503       0.30173620 </v>
   <v>      -0.43765933      -0.13143884       0.30172192 </v>
   <v>      -0.43742273       0.20506336       0.47860391 </v>
   <v>       0.06244206       0.20513508       0.47873901 </v>
   <v>       0.31292649       0.20277128       0.34619392 </v>
   <v>       0.43719765       0.45241279       0.34611888 </v>
   <v>      -0.43766148       0.36882367       0.30180012 </v>
   <v>       0.06232870      -0.29449434       0.47856337 </v>
   <v>       0.43812522      -0.37904258       0.43475396 </v>
   <v>       0.18761973       0.45325227       0.34613477 </v>
   <v>       0.43764828       0.11848580       0.30175663 </v>
   <v>       0.31343682      -0.12903647       0.43486264 </v>
   <v>       0.06242171       0.36872520       0.30168902 </v>
   <v>      -0.43731210      -0.29489050       0.47860836 </v>
   <v>       0.18751034       0.11867186       0.30176618 </v>
   <v>       0.18741145      -0.04521893       0.47851718 </v>
   <v>       0.18753544      -0.37894712       0.43485243 </v>
   <v>      -0.31260920      -0.38111477       0.30179199 </v>
   <v>       0.43703592      -0.04468138       0.47853307 </v>
   <v>      -0.06253824      -0.38110949       0.30172918 </v>
   <v>      -0.31238110       0.45485437       0.47851156 </v>
   <v>      -0.06268222       0.45527935       0.47857564 </v>
   <v>       0.31285946      -0.29753583       0.34615962 </v>
   <v>      -0.18792897       0.03476992       0.25758663 </v>
   <v>       0.31270614       0.37117915       0.43486036 </v>
   <v>      -0.18747888      -0.12756340      -0.47861706 </v>
   <v>      -0.06295813       0.12225175      -0.47860161 </v>
   <v>      -0.31246060       0.12270763      -0.47859351 </v>
   <v>       0.31224604      -0.46313135       0.39006521 </v>
   <v>      -0.06274359       0.28496721       0.25764042 </v>
   <v>      -0.31269259       0.28498586       0.25757021 </v>
   <v>      -0.43763021       0.03473407       0.25764354 </v>
   <v>       0.06227398       0.03525394       0.25757143 </v>
   <v>       0.31239920      -0.13151308       0.30172375 </v>
   <v>       0.43749896      -0.38133768       0.30172765 </v>
   <v>       0.18751973      -0.38135281       0.30175373 </v>
   <v>      -0.31270203      -0.21515673       0.25760666 </v>
   <v>       0.31266525       0.20551036       0.47861917 </v>
   <v>      -0.06255851      -0.21512900       0.25754794 </v>
   <v>       0.43720925       0.45491713       0.47852201 </v>
   <v>       0.18806764       0.45475243       0.47854498 </v>
   <v>      -0.43764410      -0.12724975      -0.47866106 </v>
   <v>       0.06265378      -0.12719856      -0.47856363 </v>
   <v>      -0.18720682       0.37263185      -0.47864596 </v>
   <v>       0.31243766       0.36846798       0.30172512 </v>
   <v>       0.31261843      -0.29446283       0.47866764 </v>
   <v>      -0.06269661      -0.37751496      -0.47866110 </v>
   <v>      -0.31223144      -0.37755496      -0.47864962 </v>
   <v>       0.18782967       0.12240770      -0.47872284 </v>
   <v>       0.43773033       0.12240546      -0.47859005 </v>
   <v>      -0.43760576       0.37271888      -0.47871392 </v>
   <v>       0.06248119       0.37318881      -0.47861124 </v>
   <v>      -0.18781999      -0.46506310       0.25760015 </v>
   <v>       0.43733323       0.28471011       0.25765641 </v>
   <v>       0.18726983       0.28501566       0.25760534 </v>
   <v>       0.18727755      -0.21499591       0.25757592 </v>
   <v>       0.43718887      -0.21532349       0.25758518 </v>
   <v>      -0.43767231      -0.46518084       0.25767695 </v>
   <v>       0.06229590      -0.46475605       0.25754916 </v>
   <v>       0.31240280       0.03483177       0.25758765 </v>
   <v>       0.18745539      -0.37742996      -0.47871845 </v>
   <v>       0.43756498      -0.37776919      -0.47870246 </v>
   <v>       0.31271895      -0.12712090      -0.47857208 </v>
   <v>      -0.06202775      -0.04345000      -0.43472237 </v>
   <v>      -0.31239989      -0.04291464      -0.43467416 </v>
   <v>      -0.18756003       0.20688246      -0.43469696 </v>
   <v>      -0.18759097       0.20152037       0.21348774 </v>
   <v>      -0.31243167      -0.04846165       0.21354595 </v>
   <v>      -0.06258409      -0.04846178       0.21344846 </v>
   <v>       0.31249831       0.37276357      -0.47848808 </v>
   <v>       0.06208332       0.20696281      -0.43504968 </v>
   <v>      -0.18724834      -0.29309543      -0.43467952 </v>
   <v>      -0.43715312       0.20680737      -0.43480908 </v>
   <v>       0.06242364       0.20145350       0.21352639 </v>
   <v>      -0.43750472       0.20161228       0.21351402 </v>
   <v>      -0.18754984      -0.29854024       0.21347551 </v>
   <v>      -0.43726570      -0.29363584      -0.43503738 </v>
   <v>       0.06217771      -0.29352657      -0.43484805 </v>
   <v>       0.18750313      -0.04364394      -0.43472930 </v>
   <v>       0.43699581      -0.04302272      -0.43472372 </v>
   <v>      -0.31265561       0.45615451      -0.43484794 </v>
   <v>      -0.06220986       0.45657654      -0.43475271 </v>
   <v>      -0.31244880       0.45152068       0.21358098 </v>
   <v>       0.31236142      -0.46521160       0.25757418 </v>
   <v>      -0.06255423       0.45145740       0.21347191 </v>
   <v>       0.43739542      -0.04835638       0.21351983 </v>
   <v>       0.18746680      -0.04840811       0.21348541 </v>
   <v>       0.06239601      -0.29846461       0.21355804 </v>
   <v>      -0.43752023      -0.29842389       0.21350509 </v>
   <v>       0.31277748       0.20708667      -0.43468391 </v>
   <v>       0.18753413       0.45676098      -0.43480924 </v>
   <v>       0.43744241       0.45652395      -0.43469228 </v>
   <v>       0.43740292       0.45159577       0.21355008 </v>
   <v>       0.18745344       0.45148382       0.21347656 </v>
   <v>       0.31251599       0.20150371       0.21349416 </v>
   <v>       0.31246120      -0.29342303      -0.43473259 </v>
   <v>       0.31251243      -0.29843486       0.21352147 </v>
   <v>      -0.18749969       0.04117830      -0.39013097 </v>
   <v>      -0.31256908       0.11809349       0.16876162 </v>
   <v>      -0.06260534       0.11810044       0.16875297 </v>
   <v>      -0.18751252      -0.13196381       0.16874344 </v>
   <v>      -0.06261066      -0.20868572      -0.39025665 </v>
   <v>      -0.31257225      -0.20910602      -0.39021628 </v>
   <v>      -0.43755628       0.04066342      -0.39017273 </v>
   <v>       0.06239125       0.04113227      -0.39007774 </v>
   <v>      -0.31262156       0.29084350      -0.39023996 </v>
   <v>      -0.06232207       0.29092207      -0.39015310 </v>
   <v>      -0.18747110       0.36806453       0.16874934 </v>
   <v>       0.06247777      -0.13183422       0.16872996 </v>
   <v>      -0.43751514      -0.13199588       0.16870922 </v>
   <v>      -0.43754693       0.36804076       0.16872200 </v>
   <v>       0.43756813       0.11810354       0.16876812 </v>
   <v>       0.06244026       0.36815180       0.16871979 </v>
   <v>       0.18747199       0.11810263       0.16876884 </v>
   <v>      -0.06256989      -0.38193472       0.16876202 </v>
   <v>      -0.31258886      -0.38181233       0.16873840 </v>
   <v>      -0.18759167      -0.45912982      -0.39021848 </v>
   <v>       0.18722364      -0.20910891      -0.39027306 </v>
   <v>       0.43782168      -0.20897831      -0.39015629 </v>
   <v>       0.18756109       0.29080403      -0.39022553 </v>
   <v>       0.43724642       0.29118257      -0.39019647 </v>
   <v>       0.06260322      -0.45915631      -0.39023707 </v>
   <v>      -0.43754766      -0.45871685      -0.39016320 </v>
   <v>       0.31253037       0.04076773      -0.39022995 </v>
   <v>       0.31239114      -0.13194689       0.16877419 </v>
   <v>       0.43752131      -0.38194717       0.16878582 </v>
   <v>       0.18746617      -0.38197510       0.16868834 </v>
   <v>       0.31242532       0.36805547       0.16875426 </v>
   <v>       0.31246435      -0.45886542      -0.39017354 </v>
   <v>      -0.18743766       0.03521963       0.12656823 </v>
   <v>      -0.18735766      -0.12464622      -0.34621796 </v>
   <v>      -0.31253570       0.12521000      -0.34623738 </v>
   <v>      -0.06225129       0.12540057      -0.34611535 </v>
   <v>      -0.31245088       0.28519029       0.12658190 </v>
   <v>      -0.06253950       0.28518956       0.12656910 </v>
   <v>      -0.43746241       0.03510550       0.12657085 </v>
   <v>       0.06252793       0.03517056       0.12657880 </v>
   <v>      -0.31248097      -0.21480390       0.12658601 </v>
   <v>      -0.06245371      -0.21474564       0.12657147 </v>
   <v>       0.06240247      -0.12418570      -0.34619933 </v>
   <v>      -0.43715008      -0.12478485      -0.34616431 </v>
   <v>      -0.18732033       0.37512624      -0.34625972 </v>
   <v>      -0.06236620      -0.37456793      -0.34626644 </v>
   <v>      -0.31228525      -0.37510346      -0.34621310 </v>
   <v>       0.18778851       0.12517715      -0.34628655 </v>
   <v>       0.43753590       0.12512177      -0.34616917 </v>
   <v>       0.06283088       0.37546352      -0.34628652 </v>
   <v>      -0.43740411       0.37518537      -0.34619166 </v>
   <v>      -0.18746400      -0.46481024       0.12658083 </v>
   <v>       0.43757969       0.28515770       0.12658162 </v>
   <v>       0.18750030       0.28514365       0.12656647 </v>
   <v>       0.43751413      -0.21475713       0.12658877 </v>
   <v>       0.18750729      -0.21474212       0.12656642 </v>
   <v>      -0.43743667      -0.46490811       0.12658163 </v>
   <v>       0.06252647      -0.46487374       0.12658134 </v>
   <v>       0.31252313       0.03519141       0.12657798 </v>
   <v>       0.43768084      -0.37485874      -0.34621630 </v>
   <v>       0.18750066      -0.37473704      -0.34621060 </v>
   <v>       0.31267556      -0.12477611      -0.34625799 </v>
   <v>       0.31266187       0.37480981      -0.34621056 </v>
   <v>       0.31246589      -0.46484073       0.12658105 </v>
   <v>      -0.06238183      -0.04078135      -0.30184818 </v>
   <v>      -0.31264048      -0.04088376      -0.30181658 </v>
   <v>      -0.18769553       0.20948773      -0.30179212 </v>
   <v>      -0.18708779      -0.29110468      -0.30187908 </v>
   <v>      -0.43761143       0.20923759      -0.30188467 </v>
   <v>       0.06249099       0.20977550      -0.30174517 </v>
   <v>       0.06252032      -0.29111595      -0.30179995 </v>
   <v>      -0.43736723      -0.29038447      -0.30174784 </v>
   <v>       0.43744049      -0.04084115      -0.30186763 </v>
   <v>       0.18747318      -0.04084745      -0.30177221 </v>
   <v>      -0.06279063       0.45895772      -0.30194044 </v>
   <v>      -0.31244522       0.45929519      -0.30185666 </v>
   <v>       0.31271293       0.20903906      -0.30187748 </v>
   <v>       0.43740595       0.45936289      -0.30181824 </v>
   <v>       0.18740549       0.45914020      -0.30181048 </v>
   <v>       0.31197860      -0.29058397      -0.30186857 </v>
   <v>      -0.18763850       0.04292335      -0.25761667 </v>
   <v>      -0.06236818      -0.20744228      -0.25767828 </v>
   <v>      -0.31247559      -0.20675377      -0.25759808 </v>
   <v>       0.06251747       0.04300506      -0.25769623 </v>
   <v>      -0.43697593       0.04320495      -0.25754583 </v>
   <v>      -0.31194880       0.29312838      -0.25769298 </v>
   <v>      -0.06227526       0.29304621      -0.25763392 </v>
   <v>      -0.18756933      -0.45726087      -0.25769682 </v>
   <v>       0.18788773      -0.20700517      -0.25766860 </v>
   <v>       0.43766818      -0.20678675      -0.25760930 </v>
   <v>       0.43765769       0.29294666      -0.25772537 </v>
   <v>       0.18737792       0.29320156      -0.25768020 </v>
   <v>      -0.43720860      -0.45697621      -0.25763129 </v>
   <v>       0.06313916      -0.45701287      -0.25738485 </v>
   <v>       0.31297365       0.04286173      -0.25758971 </v>
   <v>       0.31294569      -0.45697991      -0.25770098 </v>
   <v>      -0.18735705      -0.12344393      -0.21345014 </v>
   <v>      -0.31257806       0.12639215      -0.21355196 </v>
   <v>      -0.06255582       0.12635729      -0.21340966 </v>
   <v>      -0.43752272      -0.12370769      -0.21364506 </v>
   <v>       0.06260513      -0.12352139      -0.21356042 </v>
   <v>      -0.18678815       0.37652333      -0.21350569 </v>
   <v>      -0.06289521      -0.37320450      -0.21363230 </v>
   <v>      -0.31256540      -0.37317869      -0.21353773 </v>
   <v>       0.18776187       0.12628160      -0.21353265 </v>
   <v>       0.43747598       0.12648652      -0.21350087 </v>
   <v>      -0.43769780       0.37602834      -0.21360871 </v>
   <v>       0.06240894       0.37638181      -0.21343043 </v>
   <v>       0.18767373      -0.37373230      -0.21351506 </v>
   <v>       0.43777905      -0.37411390      -0.21341428 </v>
   <v>       0.31223566      -0.12362084      -0.21346948 </v>
   <v>       0.31224172       0.37621721      -0.21355440 </v>
   <v>      -0.31293547      -0.03976254      -0.16867397 </v>
   <v>      -0.06220249      -0.03967397      -0.16858246 </v>
   <v>      -0.18681249       0.21077983      -0.16857502 </v>
   <v>      -0.18817508      -0.29002412      -0.16858035 </v>
   <v>      -0.43772144       0.21022992      -0.16870131 </v>
   <v>       0.06196110       0.20947482      -0.16851825 </v>
   <v>       0.06240420      -0.28949043      -0.16875839 </v>
   <v>      -0.43699796      -0.29015072      -0.16868702 </v>
   <v>       0.18785019      -0.04050265      -0.16882315 </v>
   <v>       0.43721057      -0.04036367      -0.16860930 </v>
   <v>      -0.06236231       0.45896400      -0.16855620 </v>
   <v>      -0.31196973       0.45977090      -0.16796244 </v>
   <v>       0.31244425       0.20925069      -0.16875224 </v>
   <v>       0.43738929       0.45946636      -0.16873127 </v>
   <v>       0.18716389       0.45986822      -0.16860695 </v>
   <v>       0.31240723      -0.28992705      -0.16857971 </v>
   <v>      -0.18679821       0.04197270      -0.12652205 </v>
   <v>      -0.06249161      -0.20691503      -0.12652302 </v>
   <v>      -0.31267815      -0.20756406      -0.12647988 </v>
   <v>      -0.06243985       0.29279999      -0.12669528 </v>
   <v>      -0.43781600       0.04205328      -0.12654968 </v>
   <v>       0.06246582       0.04213570      -0.12648552 </v>
   <v>      -0.31353044       0.29347969      -0.12633717 </v>
   <v>       0.43730846      -0.20642882      -0.12653266 </v>
   <v>       0.18750532      -0.20724430      -0.12647091 </v>
   <v>      -0.18865727      -0.45740295      -0.12630147 </v>
   <v>       0.43759518       0.29275084      -0.12648856 </v>
   <v>       0.18824400       0.29331814      -0.12651062 </v>
   <v>       0.06394912      -0.45716240      -0.12657560 </v>
   <v>       0.31178925       0.04262968      -0.12651141 </v>
   <v>      -0.43682872      -0.45785380      -0.12630668 </v>
   <v>       0.31176381      -0.45748078      -0.12649991 </v>
  </varray>
 </structure>
 <varray name="primitive_index" >
  <v type="int" >        1 </v>
  <v type="int" >      275 </v>
  <v type="int" >      241 </v>
  <v type="int" >       42 </v>
  <v type="int" >      265 </v>
  <v type="int" >       67 </v>
  <v type="int" >      190 </v>
  <v type="int" >      146 </v>
  <v type="int" >      135 </v>
  <v type="int" >      179 </v>
  <v type="int" >      116 </v>
  <v type="int" >      211 </v>
  <v type="int" >      123 </v>
  <v type="int" >      228 </v>
  <v type="int" >      281 </v>
  <v type="int" >       24 </v>
  <v type="int" >       61 </v>
  <v type="int" >       36 </v>
  <v type="int" >      152 </v>
  <v type="int" >      105 </v>
  <v type="int" >        9 </v>
  <v type="int" >      118 </v>
  <v type="int" >      285 </v>
  <v type="int" >       55 </v>
  <v type="int" >       83 </v>
  <v type="int" >      249 </v>
  <v type="int" >       70 </v>
  <v type="int" >       50 </v>
  <v type="int" >      140 </v>
  <v type="int" >      271 </v>
  <v type="int" >      202 </v>
  <v type="int" >      232 </v>
  <v type="int" >       60 </v>
  <v type="int" >      208 </v>
  <v type="int" >      204 </v>
  <v type="int" >       91 </v>
  <v type="int" >       12 </v>
  <v type="int" >      220 </v>
  <v type="int" >      210 </v>
  <v type="int" >      277 </v>
  <v type="int" >       30 </v>
  <v type="int" >      106 </v>
  <v type="int" >      226 </v>
  <v type="int" >       77 </v>
  <v type="int" >      234 </v>
  <v type="int" >      158 </v>
  <v type="int" >      273 </v>
  <v type="int" >      239 </v>
  <v type="int" >       78 </v>
  <v type="int" >       38 </v>
  <v type="int" >      282 </v>
  <v type="int" >      268 </v>
  <v type="int" >       18 </v>
  <v type="int" >       45 </v>
  <v type="int" >      108 </v>
  <v type="int" >      115 </v>
  <v type="int" >      214 </v>
  <v type="int" >       65 </v>
  <v type="int" >      119 </v>
  <v type="int" >      205 </v>
  <v type="int" >      288 </v>
  <v type="int" >      170 </v>
  <v type="int" >      233 </v>
  <v type="int" >      274 </v>
  <v type="int" >       11 </v>
  <v type="int" >      126 </v>
  <v type="int" >      206 </v>
  <v type="int" >       19 </v>
  <v type="int" >      240 </v>
  <v type="int" >      138 </v>
  <v type="int" >       80 </v>
  <v type="int" >      177 </v>
  <v type="int" >      169 </v>
  <v type="int" >       75 </v>
  <v type="int" >      172 </v>
  <v type="int" >      117 </v>
  <v type="int" >      128 </v>
  <v type="int" >      171 </v>
  <v type="int" >      254 </v>
  <v type="int" >       27 </v>
  <v type="int" >       93 </v>
  <v type="int" >       53 </v>
  <v type="int" >      218 </v>
  <v type="int" >       16 </v>
  <v type="int" >      256 </v>
  <v type="int" >      269 </v>
  <v type="int" >      192 </v>
  <v type="int" >       31 </v>
  <v type="int" >      178 </v>
  <v type="int" >       14 </v>
  <v type="int" >       86 </v>
  <v type="int" >      219 </v>
  <v type="int" >       62 </v>
  <v type="int" >       49 </v>
  <v type="int" >       84 </v>
  <v type="int" >      110 </v>
  <v type="int" >      244 </v>
  <v type="int" >       29 </v>
  <v type="int" >       72 </v>
  <v type="int" >      255 </v>
  <v type="int" >      245 </v>
  <v type="int" >       74 </v>
  <v type="int" >      147 </v>
  <v type="int" >      166 </v>
  <v type="int" >       81 </v>
  <v type="int" >      198 </v>
  <v type="int" >      237 </v>
  <v type="int" >      134 </v>
  <v type="int" >      101 </v>
  <v type="int" >      257 </v>
  <v type="int" >       51 </v>
  <v type="int" >      278 </v>
  <v type="int" >      114 </v>
  <v type="int" >      253 </v>
  <v type="int" >       20 </v>
  <v type="int" >      236 </v>
  <v type="int" >      197 </v>
  <v type="int" >      111 </v>
  <v type="int" >      266 </v>
  <v type="int" >      160 </v>
  <v type="int" >      112 </v>
  <v type="int" >       64 </v>
  <v type="int" >       66 </v>
  <v type="int" >       47 </v>
  <v type="int" >       34 </v>
  <v type="int" >        6 </v>
  <v type="int" >       15 </v>
  <v type="int" >      163 </v>
  <v type="int" >      229 </v>
  <v type="int" >       39 </v>
  <v type="int" >      149 </v>
  <v type="int" >      124 </v>
  <v type="int" >      150 </v>
  <v type="int" >      137 </v>
  <v type="int" >        5 </v>
  <v type="int" >       96 </v>
  <v type="int" >       28 </v>
  <v type="int" >      247 </v>
  <v type="int" >      262 </v>
  <v type="int" >       33 </v>
  <v type="int" >      264 </v>
  <v type="int" >      216 </v>
  <v type="int" >      287 </v>
  <v type="int" >      159 </v>
  <v type="int" >      184 </v>
  <v type="int" >      156 </v>
  <v type="int" >      174 </v>
  <v type="int" >       10 </v>
  <v type="int" >      231 </v>
  <v type="int" >      217 </v>
  <v type="int" >      235 </v>
  <v type="int" >      230 </v>
  <v type="int" >       40 </v>
  <v type="int" >       43 </v>
  <v type="int" >      120 </v>
  <v type="int" >      258 </v>
  <v type="int" >       22 </v>
  <v type="int" >       32 </v>
  <v type="int" >      209 </v>
  <v type="int" >       92 </v>
  <v type="int" >       35 </v>
  <v type="int" >      144 </v>
  <v type="int" >      130 </v>
  <v type="int" >      181 </v>
  <v type="int" >      176 </v>
  <v type="int" >      222 </v>
  <v type="int" >       95 </v>
  <v type="int" >      188 </v>
  <v type="int" >      142 </v>
  <v type="int" >      267 </v>
  <v type="int" >      261 </v>
  <v type="int" >      225 </v>
  <v type="int" >      213 </v>
  <v type="int" >      203 </v>
  <v type="int" >      129 </v>
  <v type="int" >       76 </v>
  <v type="int" >        4 </v>
  <v type="int" >      227 </v>
  <v type="int" >       97 </v>
  <v type="int" >      199 </v>
  <v type="int" >      157 </v>
  <v type="int" >       63 </v>
  <v type="int" >       59 </v>
  <v type="int" >       88 </v>
  <v type="int" >       54 </v>
  <v type="int" >      109 </v>
  <v type="int" >      132 </v>
  <v type="int" >       52 </v>
  <v type="int" >      122 </v>
  <v type="int" >      175 </v>
  <v type="int" >       73 </v>
  <v type="int" >      113 </v>
  <v type="int" >       56 </v>
  <v type="int" >       48 </v>
  <v type="int" >       17 </v>
  <v type="int" >      153 </v>
  <v type="int" >      195 </v>
  <v type="int" >      173 </v>
  <v type="int" >      260 </v>
  <v type="int" >      272 </v>
  <v type="int" >      125 </v>
  <v type="int" >       57 </v>
  <v type="int" >      259 </v>
  <v type="int" >      185 </v>
  <v type="int" >      252 </v>
  <v type="int" >       37 </v>
  <v type="int" >       79 </v>
  <v type="int" >       71 </v>
  <v type="int" >      270 </v>
  <v type="int" >      148 </v>
  <v type="int" >      183 </v>
  <v type="int" >      168 </v>
  <v type="int" >        8 </v>
  <v type="int" >       26 </v>
  <v type="int" >      154 </v>
  <v type="int" >      162 </v>
  <v type="int" >      286 </v>
  <v type="int" >      145 </v>
  <v type="int" >      283 </v>
  <v type="int" >       90 </v>
  <v type="int" >      212 </v>
  <v type="int" >       85 </v>
  <v type="int" >      104 </v>
  <v type="int" >      164 </v>
  <v type="int" >      196 </v>
  <v type="int" >      139 </v>
  <v type="int" >      133 </v>
  <v type="int" >      187 </v>
  <v type="int" >      136 </v>
  <v type="int" >      246 </v>
  <v type="int" >      242 </v>
  <v type="int" >       99 </v>
  <v type="int" >      191 </v>
  <v type="int" >      200 </v>
  <v type="int" >      215 </v>
  <v type="int" >      100 </v>
  <v type="int" >       94 </v>
  <v type="int" >      280 </v>
  <v type="int" >      151 </v>
  <v type="int" >      131 </v>
  <v type="int" >       89 </v>
  <v type="int" >      189 </v>
  <v type="int" >       23 </v>
  <v type="int" >      276 </v>
  <v type="int" >       87 </v>
  <v type="int" >       46 </v>
  <v type="int" >      167 </v>
  <v type="int" >      127 </v>
  <v type="int" >       25 </v>
  <v type="int" >       68 </v>
  <v type="int" >      180 </v>
  <v type="int" >       69 </v>
  <v type="int" >       13 </v>
  <v type="int" >      165 </v>
  <v type="int" >      221 </v>
  <v type="int" >      193 </v>
  <v type="int" >      201 </v>
  <v type="int" >       82 </v>
  <v type="int" >      121 </v>
  <v type="int" >      207 </v>
  <v type="int" >      102 </v>
  <v type="int" >      248 </v>
  <v type="int" >        3 </v>
  <v type="int" >      224 </v>
  <v type="int" >      238 </v>
  <v type="int" >      107 </v>
  <v type="int" >        7 </v>
  <v type="int" >      284 </v>
  <v type="int" >      223 </v>
  <v type="int" >      250 </v>
  <v type="int" >      251 </v>
  <v type="int" >       41 </v>
  <v type="int" >       21 </v>
  <v type="int" >      103 </v>
  <v type="int" >      161 </v>
  <v type="int" >      279 </v>
  <v type="int" >      263 </v>
  <v type="int" >        2 </v>
  <v type="int" >      186 </v>
  <v type="int" >      143 </v>
  <v type="int" >       44 </v>
  <v type="int" >       58 </v>
  <v type="int" >      182 </v>
  <v type="int" >      155 </v>
  <v type="int" >       98 </v>
  <v type="int" >      243 </v>
  <v type="int" >      141 </v>
  <v type="int" >      194 </v>
 </varray>
 <kpoints>
  <generation param="Gamma">
   <v type="int" name="divisions">       4        4        1 </v>
   <v name="usershift">      0.00000000       0.00000000       0.00000000 </v>
   <v name="genvec1">      0.25000000       0.00000000       0.00000000 </v>
   <v name="genvec2">      0.00000000       0.25000000       0.00000000 </v>
   <v name="genvec3">      0.00000000       0.00000000       1.00000000 </v>
   <v name="shift">      0.00000000       0.00000000       0.00000000 </v>
  </generation>
  <varray name="kpointlist" >
   <v>       0.00000000       0.00000000       0.00000000 </v>
   <v>       0.25000000       0.00000000       0.00000000 </v>
   <v>       0.50000000       0.00000000       0.00000000 </v>
   <v>       0.00000000       0.25000000       0.00000000 </v>
   <v>       0.25000000       0.25000000       0.00000000 </v>
   <v>       0.50000000       0.25000000       0.00000000 </v>
   <v>      -0.25000000       0.25000000       0.00000000 </v>
   <v>       0.00000000       0.50000000       0.00000000 </v>
   <v>       0.25000000       0.50000000       0.00000000 </v>
   <v>       0.50000000       0.50000000       0.00000000 </v>
  </varray>
  <varray name="weights" >
   <v>       0.06250000 </v>
   <v>       0.12500000 </v>
   <v>       0.06250000 </v>
   <v>       0.12500000 </v>
   <v>       0.12500000 </v>
   <v>       0.12500000 </v>
   <v>       0.12500000 </v>
   <v>       0.06250000 </v>
   <v>       0.12500000 </v>
   <v>       0.06250000 </v>
  </varray>
 </kpoints>
 <parameters>
  <separator name="general" >
   <i type="string" name="SYSTEM">unknown system</i>
   <i type="logical" name="LCOMPAT"> F  </i>
  </separator>
  <separator name="electronic" >
   <i type="string" name="PREC">accura</i>
   <i name="ENMAX">    500.00000000</i>
   <i name="ENAUG">    838.43500000</i>
   <i name="EDIFF">      0.00001000</i>
   <i type="int" name="IALGO">    68</i>
   <i type="int" name="IWAVPR">    11</i>
   <i type="int" name="NBANDS">  1380</i>
   <i name="NELECT">   2289.00000000</i>
   <i type="int" name="TURBO">     0</i>
   <i type="int" name="IRESTART">     0</i>
   <i type="int" name="NREBOOT">     0</i>
   <i type="int" name="NMIN">     0</i>
   <i name="EREF">      0.00000000</i>
   <separator name="electronic smearing" >
    <i type="int" name="ISMEAR">     0</i>
    <i name="SIGMA">      0.15000000</i>
    <i name="KSPACING">      0.50000000</i>
    <i type="logical" name="KGAMMA"> T  </i>
   </separator>
   <separator name="electronic projectors" >
    <i type="logical" name="LREAL"> T  </i>
    <v name="ROPT">     -0.00025000     -0.00025000</v>
    <i type="int" name="LMAXPAW">  -100</i>
    <i type="int" name="LMAXMIX">     2</i>
    <i type="logical" name="NLSPLINE"> F  </i>
   </separator>
   <separator name="electronic startup" >
    <i type="int" name="ISTART">     0</i>
    <i type="int" name="ICHARG">     2</i>
    <i type="int" name="INIWAV">     1</i>
   </separator>
   <separator name="electronic spin" >
    <i type="int" name="ISPIN">     1</i>
    <i type="logical" name="LNONCOLLINEAR"> F  </i>
    <v name="MAGMOM">      1.00000000      1.00000000      1.00000000      1.00000000      1.00000000      1.00000000      1.00000000      1.00000000      1.00000000      1.00000000      1.00000000      1.00000000      1.00000000      1.00000000      1.00000000      1.00000000      1.00000000      1.00000000      1.00000000      1.00000000
      1.00000000      1.00000000      1.00000000      1.00000000      1.00000000      1.00000000      1.00000000      1.00000000      1.00000000      1.00000000      1.00000000      1.00000000      1.00000000      1.00000000      1.00000000      1.00000000      1.00000000      1.00000000      1.00000000      1.00000000
      1.00000000      1.00000000      1.00000000      1.00000000      1.00000000      1.00000000      1.00000000      1.00000000      1.00000000      1.00000000      1.00000000      1.00000000      1.00000000      1.00000000      1.00000000      1.00000000      1.00000000      1.00000000      1.00000000      1.00000000
      1.00000000      1.00000000      1.00000000      1.00000000      1.00000000      1.00000000      1.00000000      1.00000000      1.00000000      1.00000000      1.00000000      1.00000000      1.00000000      1.00000000      1.00000000      1.00000000      1.00000000      1.00000000      1.00000000      1.00000000
      1.00000000      1.00000000      1.00000000      1.00000000      1.00000000      1.00000000      1.00000000      1.00000000      1.00000000      1.00000000      1.00000000      1.00000000      1.00000000      1.00000000      1.00000000      1.00000000      1.00000000      1.00000000      1.00000000      1.00000000
      1.00000000      1.00000000      1.00000000      1.00000000      1.00000000      1.00000000      1.00000000      1.00000000      1.00000000      1.00000000      1.00000000      1.00000000      1.00000000      1.00000000      1.00000000      1.00000000      1.00000000      1.00000000      1.00000000      1.00000000
      1.00000000      1.00000000      1.00000000      1.00000000      1.00000000      1.00000000      1.00000000      1.00000000      1.00000000      1.00000000      1.00000000      1.00000000      1.00000000      1.00000000      1.00000000      1.00000000      1.00000000      1.00000000      1.00000000      1.00000000
      1.00000000      1.00000000      1.00000000      1.00000000      1.00000000      1.00000000      1.00000000      1.00000000      1.00000000      1.00000000      1.00000000      1.00000000      1.00000000      1.00000000      1.00000000      1.00000000      1.00000000      1.00000000      1.00000000      1.00000000
      1.00000000      1.00000000      1.00000000      1.00000000      1.00000000      1.00000000      1.00000000      1.00000000      1.00000000      1.00000000      1.00000000      1.00000000      1.00000000      1.00000000      1.00000000      1.00000000      1.00000000      1.00000000      1.00000000      1.00000000
      1.00000000      1.00000000      1.00000000      1.00000000      1.00000000      1.00000000      1.00000000      1.00000000      1.00000000      1.00000000      1.00000000      1.00000000      1.00000000      1.00000000      1.00000000      1.00000000      1.00000000      1.00000000      1.00000000      1.00000000
      1.00000000      1.00000000      1.00000000      1.00000000      1.00000000      1.00000000      1.00000000      1.00000000      1.00000000      1.00000000      1.00000000      1.00000000      1.00000000      1.00000000      1.00000000      1.00000000      1.00000000      1.00000000      1.00000000      1.00000000
      1.00000000      1.00000000      1.00000000      1.00000000      1.00000000      1.00000000      1.00000000      1.00000000      1.00000000      1.00000000      1.00000000      1.00000000      1.00000000      1.00000000      1.00000000      1.00000000      1.00000000      1.00000000      1.00000000      1.00000000
      1.00000000      1.00000000      1.00000000      1.00000000      1.00000000      1.00000000      1.00000000      1.00000000      1.00000000      1.00000000      1.00000000      1.00000000      1.00000000      1.00000000      1.00000000      1.00000000      1.00000000      1.00000000      1.00000000      1.00000000
      1.00000000      1.00000000      1.00000000      1.00000000      1.00000000      1.00000000      1.00000000      1.00000000      1.00000000      1.00000000      1.00000000      1.00000000      1.00000000      1.00000000      1.00000000      1.00000000      1.00000000      1.00000000      1.00000000      1.00000000
      1.00000000      1.00000000      1.00000000      1.00000000      1.00000000      1.00000000      1.00000000      1.00000000</v>
    <i name="NUPDOWN">     -1.00000000</i>
    <i type="logical" name="LSORBIT"> F  </i>
    <v name="SAXIS">      0.00000000      0.00000000      1.00000000</v>
    <i type="logical" name="LSPIRAL"> F  </i>
    <v name="QSPIRAL">      0.00000000      0.00000000      0.00000000</v>
    <i type="logical" name="LZEROZ"> F  </i>
   </separator>
   <separator name="electronic exchange-correlation" >
    <i type="logical" name="LASPH"> F  </i>
    <i type="logical" name="LMETAGGA"> F  </i>
   </separator>
   <separator name="electronic convergence" >
    <i type="int" name="NELM">   100</i>
    <i type="int" name="NELMDL">     0</i>
    <i type="int" name="NELMIN">     4</i>
    <i name="ENINI">    500.00000000</i>
    <separator name="electronic convergence detail" >
     <i type="logical" name="LDIAG"> T  </i>
     <i type="logical" name="LSUBROT"> F  </i>
     <i name="WEIMIN">      0.00100000</i>
     <i name="EBREAK">      0.00000000</i>
     <i name="DEPER">      0.30000000</i>
     <i type="int" name="NRMM">     4</i>
     <i name="TIME">      0.40000000</i>
    </separator>
   </separator>
   <separator name="electronic mixer" >
    <i name="AMIX">      0.40000000</i>
    <i name="BMIX">      1.00000000</i>
    <i name="AMIN">      0.10000000</i>
    <i name="AMIX_MAG">      1.60000000</i>
    <i name="BMIX_MAG">      1.00000000</i>
    <separator name="electronic mixer details" >
     <i type="int" name="IMIX">     4</i>
     <i type="logical" name="MIXFIRST"> F  </i>
     <i type="int" name="MAXMIX">   -45</i>
     <i name="WC">    100.00000000</i>
     <i type="int" name="INIMIX">     1</i>
     <i type="int" name="MIXPRE">     1</i>
     <i type="int" name="MREMOVE">     5</i>
    </separator>
   </separator>
   <separator name="electronic dipolcorrection" >
    <i type="logical" name="LDIPOL"> F  </i>
    <i type="logical" name="LMONO"> F  </i>
    <i type="int" name="IDIPOL">     0</i>
    <i name="EPSILON">      1.00000000</i>
    <v name="DIPOL">   -100.00000000   -100.00000000   -100.00000000</v>
    <i name="EFIELD">      0.00000000</i>
   </separator>
  </separator>
  <separator name="grids" >
   <i type="int" name="NGX">    72</i>
   <i type="int" name="NGY">    64</i>
   <i type="int" name="NGZ">   336</i>
   <i type="int" name="NGXF">   144</i>
   <i type="int" name="NGYF">   128</i>
   <i type="int" name="NGZF">   672</i>
   <i type="logical" name="ADDGRID"> F  </i>
  </separator>
  <separator name="ionic" >
   <i type="int" name="NSW">   500</i>
   <i type="int" name="IBRION">     2</i>
   <i type="int" name="MDALGO">     0</i>
   <i type="int" name="ISIF">     2</i>
   <i name="PSTRESS">      0.00000000</i>
   <i name="EDIFFG">      0.00010000</i>
   <i type="int" name="NFREE">     1</i>
   <i name="POTIM">      0.25000000</i>
   <i name="SMASS">     -3.00000000</i>
   <i name="SCALEE">      1.00000000</i>
  </separator>
  <separator name="ionic md" >
   <i name="TEBEG">      0.00010000</i>
   <i name="TEEND">      0.00010000</i>
   <i type="int" name="NBLOCK">     1</i>
   <i type="int" name="KBLOCK">   500</i>
   <i type="int" name="NPACO">   256</i>
   <i name="APACO">     16.00000000</i>
  </separator>
  <separator name="symmetry" >
   <i type="int" name="ISYM">     2</i>
   <i name="SYMPREC">      0.00001000</i>
  </separator>
  <separator name="dos" >
   <i type="int" name="LORBIT">     0</i>
   <v name="RWIGS">     -1.00000000     -1.00000000</v>
   <i type="int" name="NEDOS">   301</i>
   <i name="EMIN">     10.00000000</i>
   <i name="EMAX">    -10.00000000</i>
   <i name="EFERMI">      0.00000000</i>
  </separator>
  <separator name="writing" >
   <i type="int" name="NWRITE">     2</i>
   <i type="logical" name="LWAVE"> F  </i>
   <i type="logical" name="LDOWNSAMPLE"> F  </i>
   <i type="logical" name="LCHARG"> F  </i>
   <i type="logical" name="LPARD"> F  </i>
   <i type="logical" name="LVTOT"> F  </i>
   <i type="logical" name="LVHAR"> F  </i>
   <i type="logical" name="LELF"> F  </i>
   <i type="logical" name="LOPTICS"> F  </i>
   <v name="STM">      0.00000000      0.00000000      0.00000000      0.00000000      0.00000000      0.00000000      0.00000000</v>
  </separator>
  <separator name="performance" >
   <i type="int" name="NPAR">    10</i>
   <i type="int" name="NSIM">     4</i>
   <i type="int" name="NBLK">    -1</i>
   <i type="logical" name="LPLANE"> T  </i>
   <i type="logical" name="LSCALAPACK"> F  </i>
   <i type="logical" name="LSCAAWARE"> F  </i>
   <i type="logical" name="LSCALU"> F  </i>
   <i type="logical" name="LASYNC"> F  </i>
   <i type="logical" name="LORBITALREAL"> F  </i>
  </separator>
  <separator name="miscellaneous" >
   <i type="int" name="IDIOT">     3</i>
   <i type="int" name="ISPECIAL">     0</i>
   <i type="logical" name="LMUSIC"> F  </i>
   <v name="POMASS">     55.84700000     54.93800000</v>
   <v name="DARWINR">      0.00000000      0.00000000</v>
   <v name="DARWINV">      1.00000000      1.00000000</v>
   <i type="logical" name="LCORR"> T  </i>
  </separator>
  <i type="logical" name="GGA_COMPAT"> T  </i>
  <i type="logical" name="LBERRY"> F  </i>
  <i type="int" name="ICORELEVEL">     0</i>
  <i type="logical" name="LDAU"> F  </i>
  <i type="int" name="I_CONSTRAINED_M">     0</i>
  <separator name="electronic exchange-correlation" >
   <i type="string" name="GGA">--</i>
   <i type="int" name="VOSKOWN">     0</i>
   <i type="logical" name="LHFCALC"> F  </i>
   <i type="string" name="PRECFOCK"></i>
   <i type="logical" name="LSYMGRAD"> F  </i>
   <i type="logical" name="LHFONE"> F  </i>
   <i type="logical" name="LRHFCALC"> F  </i>
   <i type="logical" name="LTHOMAS"> F  </i>
   <i type="logical" name="LMODELHF"> F  </i>
   <i name="ENCUT4O">     -1.00000000</i>
   <i type="int" name="EXXOEP">     0</i>
   <i type="int" name="FOURORBIT">     0</i>
   <i name="AEXX">      0.00000000</i>
   <i name="HFALPHA">      0.00000000</i>
   <i name="MCALPHA">      0.00000000</i>
   <i name="ALDAX">      1.00000000</i>
   <i name="AGGAX">      1.00000000</i>
   <i name="ALDAC">      1.00000000</i>
   <i name="AGGAC">      1.00000000</i>
   <i type="int" name="NKREDX">     1</i>
   <i type="int" name="NKREDY">     1</i>
   <i type="int" name="NKREDZ">     1</i>
   <i type="logical" name="SHIFTRED"> F  </i>
   <i type="logical" name="ODDONLY"> F  </i>
   <i type="logical" name="EVENONLY"> F  </i>
   <i type="int" name="LMAXFOCK">     0</i>
   <i type="int" name="NMAXFOCKAE">     0</i>
   <i type="logical" name="LFOCKAEDFT"> F  </i>
   <i name="HFSCREEN">      0.00000000</i>
   <i name="HFSCREENC">      0.00000000</i>
   <i type="int" name="NBANDSGWLOW">     0</i>
  </separator>
  <separator name="vdW DFT" >
   <i type="logical" name="LUSE_VDW"> F  </i>
   <i name="Zab_VDW">     -0.84910000</i>
   <i name="PARAM1">      0.12340000</i>
   <i name="PARAM2">      1.00000000</i>
   <i name="PARAM3">      0.00000000</i>
  </separator>
  <separator name="model GW" >
   <i type="int" name="MODEL_GW">     0</i>
   <i name="MODEL_EPS0">      7.68123361</i>
   <i name="MODEL_ALPHA">      1.00000000</i>
  </separator>
  <separator name="linear response parameters" >
   <i type="logical" name="LEPSILON"> F  </i>
   <i type="logical" name="LRPA"> F  </i>
   <i type="logical" name="LNABLA"> F  </i>
   <i type="logical" name="LVEL"> F  </i>
   <i type="int" name="KINTER">     0</i>
   <i name="CSHIFT">      0.10000000</i>
   <i name="OMEGAMAX">     -1.00000000</i>
   <i name="DEG_THRESHOLD">      0.00200000</i>
   <i name="RTIME">     -0.10000000</i>
   <i name="WPLASMAI">      0.00000000</i>
   <v name="DFIELD">      0.00000000      0.00000000      0.00000000</v>
   <v name="WPLASMA">      0.00000000      0.00000000      0.00000000      0.00000000      0.00000000      0.00000000      0.00000000      0.00000000      0.00000000</v>
  </separator>
  <separator name="orbital magnetization" >
   <i type="logical" name="NUCIND"> F  </i>
   <v name="MAGPOS">      0.00000000      0.00000000      0.00000000</v>
   <i type="logical" name="LNICSALL"> T  </i>
   <i type="logical" name="ORBITALMAG"> F  </i>
   <i type="logical" name="LMAGBLOCH"> F  </i>
   <i type="logical" name="LCHIMAG"> F  </i>
   <i type="logical" name="LGAUGE"> T  </i>
   <i type="int" name="MAGATOM">     0</i>
   <v name="MAGDIPOL">      0.00000000      0.00000000      0.00000000</v>
   <v name="AVECCONST">      0.00000000      0.00000000      0.00000000</v>
  </separator>
  <separator name="response functions" >
   <i type="logical" name="LADDER"> F  </i>
   <i type="logical" name="LRPAFORCE"> F  </i>
   <i type="logical" name="LFXC"> F  </i>
   <i type="logical" name="LHARTREE"> T  </i>
   <i type="int" name="IBSE">     0</i>
   <v type="int" name="KPOINT">    -1     0     0     0</v>
   <i type="logical" name="LTCTE"> F  </i>
   <i type="logical" name="LTETE"> F  </i>
   <i type="logical" name="LTRIPLET"> F  </i>
   <i type="logical" name="LFXCEPS"> F  </i>
   <i type="logical" name="LFXHEG"> F  </i>
   <i type="int" name="NATURALO">     2</i>
   <i type="logical" name="L2ORDER"> F  </i>
   <i type="logical" name="LMP2LT"> F  </i>
   <i type="logical" name="LUSEW"> F  </i>
   <i name="ENCUTGW">     -2.00000000</i>
   <i name="ENCUTGWSOFT">     -2.00000000</i>
   <i name="ENCUTLF">     -1.00000000</i>
   <i type="int" name="LMAXMP2">    -1</i>
   <i name="SCISSOR">      0.00000000</i>
   <i type="int" name="NOMEGA">     0</i>
   <i type="int" name="NOMEGAR">     0</i>
   <i type="int" name="NBANDSGW">    -1</i>
   <i type="int" name="NBANDSO">    -1</i>
   <i type="int" name="NBANDSV">    -1</i>
   <i type="int" name="NELM">   100</i>
   <i type="int" name="NELMHF">     1</i>
   <i type="int" name="DIM">     3</i>
   <i type="int" name="ANTIRES">     0</i>
   <i name="OMEGAMAX">    -30.00000000</i>
   <i name="OMEGAMIN">    -30.00000000</i>
   <i name="OMEGATL">   -200.00000000</i>
   <i type="int" name="OMEGAGRID">   140</i>
   <i name="CSHIFT">     -0.10000000</i>
   <i type="logical" name="SELFENERGY"> F  </i>
   <i type="logical" name="LSPECTRAL"> F  </i>
   <i type="logical" name="LSPECTRALGW"> F  </i>
   <i type="logical" name="LSINGLES"> F  </i>
   <i type="logical" name="LFERMIGW"> F  </i>
   <i type="logical" name="ODDONLYGW"> F  </i>
   <i type="logical" name="EVENONLYGW"> F  </i>
   <i type="int" name="NKREDLFX">     1</i>
   <i type="int" name="NKREDLFY">     1</i>
   <i type="int" name="NKREDLFZ">     1</i>
   <i type="int" name="MAXMEM">  2800</i>
   <i type="int" name="TELESCOPE">     0</i>
   <i type="int" name="TAUPAR">     1</i>
   <i type="int" name="OMEGAPAR">    -1</i>
   <i name="LAMBDA">      1.00000000</i>
  </separator>
  <separator name="External order field" >
   <i name="OFIELD_KAPPA">      0.00000000</i>
   <v name="OFIELD_K">      0.00000000      0.00000000      0.00000000</v>
   <i name="OFIELD_Q6_NEAR">      0.00000000</i>
   <i name="OFIELD_Q6_FAR">      0.00000000</i>
   <i name="OFIELD_A">      0.00000000</i>
  </separator>
 </parameters>
 <atominfo>
  <atoms>     288 </atoms>
  <types>       2 </types>
  <array name="atoms" >
   <dimension dim="1">ion</dimension>
   <field type="string">element</field>
   <field type="int">atomtype</field>
   <set>
    <rc><c>Fe</c><c>   1</c></rc>
    <rc><c>Fe</c><c>   1</c></rc>
    <rc><c>Fe</c><c>   1</c></rc>
    <rc><c>Fe</c><c>   1</c></rc>
    <rc><c>Fe</c><c>   1</c></rc>
    <rc><c>Fe</c><c>   1</c></rc>
    <rc><c>Fe</c><c>   1</c></rc>
    <rc><c>Fe</c><c>   1</c></rc>
    <rc><c>Fe</c><c>   1</c></rc>
    <rc><c>Fe</c><c>   1</c></rc>
    <rc><c>Fe</c><c>   1</c></rc>
    <rc><c>Fe</c><c>   1</c></rc>
    <rc><c>Fe</c><c>   1</c></rc>
    <rc><c>Fe</c><c>   1</c></rc>
    <rc><c>Fe</c><c>   1</c></rc>
    <rc><c>Fe</c><c>   1</c></rc>
    <rc><c>Fe</c><c>   1</c></rc>
    <rc><c>Fe</c><c>   1</c></rc>
    <rc><c>Fe</c><c>   1</c></rc>
    <rc><c>Fe</c><c>   1</c></rc>
    <rc><c>Fe</c><c>   1</c></rc>
    <rc><c>Fe</c><c>   1</c></rc>
    <rc><c>Fe</c><c>   1</c></rc>
    <rc><c>Fe</c><c>   1</c></rc>
    <rc><c>Fe</c><c>   1</c></rc>
    <rc><c>Fe</c><c>   1</c></rc>
    <rc><c>Fe</c><c>   1</c></rc>
    <rc><c>Fe</c><c>   1</c></rc>
    <rc><c>Fe</c><c>   1</c></rc>
    <rc><c>Fe</c><c>   1</c></rc>
    <rc><c>Fe</c><c>   1</c></rc>
    <rc><c>Fe</c><c>   1</c></rc>
    <rc><c>Fe</c><c>   1</c></rc>
    <rc><c>Fe</c><c>   1</c></rc>
    <rc><c>Fe</c><c>   1</c></rc>
    <rc><c>Fe</c><c>   1</c></rc>
    <rc><c>Fe</c><c>   1</c></rc>
    <rc><c>Fe</c><c>   1</c></rc>
    <rc><c>Fe</c><c>   1</c></rc>
    <rc><c>Fe</c><c>   1</c></rc>
    <rc><c>Fe</c><c>   1</c></rc>
    <rc><c>Fe</c><c>   1</c></rc>
    <rc><c>Fe</c><c>   1</c></rc>
    <rc><c>Fe</c><c>   1</c></rc>
    <rc><c>Fe</c><c>   1</c></rc>
    <rc><c>Fe</c><c>   1</c></rc>
    <rc><c>Fe</c><c>   1</c></rc>
    <rc><c>Fe</c><c>   1</c></rc>
    <rc><c>Fe</c><c>   1</c></rc>
    <rc><c>Fe</c><c>   1</c></rc>
    <rc><c>Fe</c><c>   1</c></rc>
    <rc><c>Fe</c><c>   1</c></rc>
    <rc><c>Fe</c><c>   1</c></rc>
    <rc><c>Fe</c><c>   1</c></rc>
    <rc><c>Fe</c><c>   1</c></rc>
    <rc><c>Fe</c><c>   1</c></rc>
    <rc><c>Fe</c><c>   1</c></rc>
    <rc><c>Fe</c><c>   1</c></rc>
    <rc><c>Fe</c><c>   1</c></rc>
    <rc><c>Fe</c><c>   1</c></rc>
    <rc><c>Fe</c><c>   1</c></rc>
    <rc><c>Fe</c><c>   1</c></rc>
    <rc><c>Fe</c><c>   1</c></rc>
    <rc><c>Fe</c><c>   1</c></rc>
    <rc><c>Fe</c><c>   1</c></rc>
    <rc><c>Fe</c><c>   1</c></rc>
    <rc><c>Fe</c><c>   1</c></rc>
    <rc><c>Fe</c><c>   1</c></rc>
    <rc><c>Fe</c><c>   1</c></rc>
    <rc><c>Fe</c><c>   1</c></rc>
    <rc><c>Fe</c><c>   1</c></rc>
    <rc><c>Fe</c><c>   1</c></rc>
    <rc><c>Fe</c><c>   1</c></rc>
    <rc><c>Fe</c><c>   1</c></rc>
    <rc><c>Fe</c><c>   1</c></rc>
    <rc><c>Fe</c><c>   1</c></rc>
    <rc><c>Fe</c><c>   1</c></rc>
    <rc><c>Fe</c><c>   1</c></rc>
    <rc><c>Fe</c><c>   1</c></rc>
    <rc><c>Fe</c><c>   1</c></rc>
    <rc><c>Fe</c><c>   1</c></rc>
    <rc><c>Fe</c><c>   1</c></rc>
    <rc><c>Fe</c><c>   1</c></rc>
    <rc><c>Fe</c><c>   1</c></rc>
    <rc><c>Fe</c><c>   1</c></rc>
    <rc><c>Fe</c><c>   1</c></rc>
    <rc><c>Fe</c><c>   1</c></rc>
    <rc><c>Fe</c><c>   1</c></rc>
    <rc><c>Fe</c><c>   1</c></rc>
    <rc><c>Fe</c><c>   1</c></rc>
    <rc><c>Fe</c><c>   1</c></rc>
    <rc><c>Fe</c><c>   1</c></rc>
    <rc><c>Fe</c><c>   1</c></rc>
    <rc><c>Fe</c><c>   1</c></rc>
    <rc><c>Fe</c><c>   1</c></rc>
    <rc><c>Fe</c><c>   1</c></rc>
    <rc><c>Fe</c><c>   1</c></rc>
    <rc><c>Fe</c><c>   1</c></rc>
    <rc><c>Fe</c><c>   1</c></rc>
    <rc><c>Fe</c><c>   1</c></rc>
    <rc><c>Fe</c><c>   1</c></rc>
    <rc><c>Fe</c><c>   1</c></rc>
    <rc><c>Fe</c><c>   1</c></rc>
    <rc><c>Fe</c><c>   1</c></rc>
    <rc><c>Fe</c><c>   1</c></rc>
    <rc><c>Fe</c><c>   1</c></rc>
    <rc><c>Fe</c><c>   1</c></rc>
    <rc><c>Fe</c><c>   1</c></rc>
    <rc><c>Fe</c><c>   1</c></rc>
    <rc><c>Fe</c><c>   1</c></rc>
    <rc><c>Fe</c><c>   1</c></rc>
    <rc><c>Fe</c><c>   1</c></rc>
    <rc><c>Fe</c><c>   1</c></rc>
    <rc><c>Fe</c><c>   1</c></rc>
    <rc><c>Fe</c><c>   1</c></rc>
    <rc><c>Fe</c><c>   1</c></rc>
    <rc><c>Fe</c><c>   1</c></rc>
    <rc><c>Fe</c><c>   1</c></rc>
    <rc><c>Fe</c><c>   1</c></rc>
    <rc><c>Fe</c><c>   1</c></rc>
    <rc><c>Fe</c><c>   1</c></rc>
    <rc><c>Fe</c><c>   1</c></rc>
    <rc><c>Fe</c><c>   1</c></rc>
    <rc><c>Fe</c><c>   1</c></rc>
    <rc><c>Fe</c><c>   1</c></rc>
    <rc><c>Fe</c><c>   1</c></rc>
    <rc><c>Fe</c><c>   1</c></rc>
    <rc><c>Fe</c><c>   1</c></rc>
    <rc><c>Fe</c><c>   1</c></rc>
    <rc><c>Fe</c><c>   1</c></rc>
    <rc><c>Fe</c><c>   1</c></rc>
    <rc><c>Fe</c><c>   1</c></rc>
    <rc><c>Fe</c><c>   1</c></rc>
    <rc><c>Fe</c><c>   1</c></rc>
    <rc><c>Fe</c><c>   1</c></rc>
    <rc><c>Fe</c><c>   1</c></rc>
    <rc><c>Fe</c><c>   1</c></rc>
    <rc><c>Fe</c><c>   1</c></rc>
    <rc><c>Fe</c><c>   1</c></rc>
    <rc><c>Fe</c><c>   1</c></rc>
    <rc><c>Fe</c><c>   1</c></rc>
    <rc><c>Fe</c><c>   1</c></rc>
    <rc><c>Fe</c><c>   1</c></rc>
    <rc><c>Fe</c><c>   1</c></rc>
    <rc><c>Fe</c><c>   1</c></rc>
    <rc><c>Fe</c><c>   1</c></rc>
    <rc><c>Fe</c><c>   1</c></rc>
    <rc><c>Fe</c><c>   1</c></rc>
    <rc><c>Fe</c><c>   1</c></rc>
    <rc><c>Fe</c><c>   1</c></rc>
    <rc><c>Fe</c><c>   1</c></rc>
    <rc><c>Fe</c><c>   1</c></rc>
    <rc><c>Fe</c><c>   1</c></rc>
    <rc><c>Fe</c><c>   1</c></rc>
    <rc><c>Fe</c><c>   1</c></rc>
    <rc><c>Fe</c><c>   1</c></rc>
    <rc><c>Fe</c><c>   1</c></rc>
    <rc><c>Fe</c><c>   1</c></rc>
    <rc><c>Fe</c><c>   1</c></rc>
    <rc><c>Fe</c><c>   1</c></rc>
    <rc><c>Fe</c><c>   1</c></rc>
    <rc><c>Fe</c><c>   1</c></rc>
    <rc><c>Fe</c><c>   1</c></rc>
    <rc><c>Fe</c><c>   1</c></rc>
    <rc><c>Fe</c><c>   1</c></rc>
    <rc><c>Fe</c><c>   1</c></rc>
    <rc><c>Fe</c><c>   1</c></rc>
    <rc><c>Fe</c><c>   1</c></rc>
    <rc><c>Fe</c><c>   1</c></rc>
    <rc><c>Fe</c><c>   1</c></rc>
    <rc><c>Fe</c><c>   1</c></rc>
    <rc><c>Fe</c><c>   1</c></rc>
    <rc><c>Fe</c><c>   1</c></rc>
    <rc><c>Fe</c><c>   1</c></rc>
    <rc><c>Fe</c><c>   1</c></rc>
    <rc><c>Fe</c><c>   1</c></rc>
    <rc><c>Fe</c><c>   1</c></rc>
    <rc><c>Fe</c><c>   1</c></rc>
    <rc><c>Fe</c><c>   1</c></rc>
    <rc><c>Fe</c><c>   1</c></rc>
    <rc><c>Fe</c><c>   1</c></rc>
    <rc><c>Fe</c><c>   1</c></rc>
    <rc><c>Fe</c><c>   1</c></rc>
    <rc><c>Fe</c><c>   1</c></rc>
    <rc><c>Fe</c><c>   1</c></rc>
    <rc><c>Fe</c><c>   1</c></rc>
    <rc><c>Fe</c><c>   1</c></rc>
    <rc><c>Fe</c><c>   1</c></rc>
    <rc><c>Fe</c><c>   1</c></rc>
    <rc><c>Fe</c><c>   1</c></rc>
    <rc><c>Fe</c><c>   1</c></rc>
    <rc><c>Fe</c><c>   1</c></rc>
    <rc><c>Fe</c><c>   1</c></rc>
    <rc><c>Fe</c><c>   1</c></rc>
    <rc><c>Fe</c><c>   1</c></rc>
    <rc><c>Fe</c><c>   1</c></rc>
    <rc><c>Fe</c><c>   1</c></rc>
    <rc><c>Fe</c><c>   1</c></rc>
    <rc><c>Fe</c><c>   1</c></rc>
    <rc><c>Fe</c><c>   1</c></rc>
    <rc><c>Fe</c><c>   1</c></rc>
    <rc><c>Fe</c><c>   1</c></rc>
    <rc><c>Fe</c><c>   1</c></rc>
    <rc><c>Fe</c><c>   1</c></rc>
    <rc><c>Fe</c><c>   1</c></rc>
    <rc><c>Fe</c><c>   1</c></rc>
    <rc><c>Fe</c><c>   1</c></rc>
    <rc><c>Fe</c><c>   1</c></rc>
    <rc><c>Fe</c><c>   1</c></rc>
    <rc><c>Fe</c><c>   1</c></rc>
    <rc><c>Fe</c><c>   1</c></rc>
    <rc><c>Fe</c><c>   1</c></rc>
    <rc><c>Fe</c><c>   1</c></rc>
    <rc><c>Fe</c><c>   1</c></rc>
    <rc><c>Fe</c><c>   1</c></rc>
    <rc><c>Fe</c><c>   1</c></rc>
    <rc><c>Fe</c><c>   1</c></rc>
    <rc><c>Fe</c><c>   1</c></rc>
    <rc><c>Fe</c><c>   1</c></rc>
    <rc><c>Fe</c><c>   1</c></rc>
    <rc><c>Fe</c><c>   1</c></rc>
    <rc><c>Fe</c><c>   1</c></rc>
    <rc><c>Fe</c><c>   1</c></rc>
    <rc><c>Fe</c><c>   1</c></rc>
    <rc><c>Fe</c><c>   1</c></rc>
    <rc><c>Fe</c><c>   1</c></rc>
    <rc><c>Fe</c><c>   1</c></rc>
    <rc><c>Fe</c><c>   1</c></rc>
    <rc><c>Fe</c><c>   1</c></rc>
    <rc><c>Fe</c><c>   1</c></rc>
    <rc><c>Fe</c><c>   1</c></rc>
    <rc><c>Fe</c><c>   1</c></rc>
    <rc><c>Fe</c><c>   1</c></rc>
    <rc><c>Fe</c><c>   1</c></rc>
    <rc><c>Fe</c><c>   1</c></rc>
    <rc><c>Fe</c><c>   1</c></rc>
    <rc><c>Fe</c><c>   1</c></rc>
    <rc><c>Fe</c><c>   1</c></rc>
    <rc><c>Fe</c><c>   1</c></rc>
    <rc><c>Fe</c><c>   1</c></rc>
    <rc><c>Fe</c><c>   1</c></rc>
    <rc><c>Fe</c><c>   1</c></rc>
    <rc><c>Fe</c><c>   1</c></rc>
    <rc><c>Fe</c><c>   1</c></rc>
    <rc><c>Fe</c><c>   1</c></rc>
    <rc><c>Fe</c><c>   1</c></rc>
    <rc><c>Fe</c><c>   1</c></rc>
    <rc><c>Fe</c><c>   1</c></rc>
    <rc><c>Fe</c><c>   1</c></rc>
    <rc><c>Fe</c><c>   1</c></rc>
    <rc><c>Fe</c><c>   1</c></rc>
    <rc><c>Fe</c><c>   1</c></rc>
    <rc><c>Fe</c><c>   1</c></rc>
    <rc><c>Fe</c><c>   1</c></rc>
    <rc><c>Fe</c><c>   1</c></rc>
    <rc><c>Fe</c><c>   1</c></rc>
    <rc><c>Fe</c><c>   1</c></rc>
    <rc><c>Fe</c><c>   1</c></rc>
    <rc><c>Fe</c><c>   1</c></rc>
    <rc><c>Fe</c><c>   1</c></rc>
    <rc><c>Fe</c><c>   1</c></rc>
    <rc><c>Fe</c><c>   1</c></rc>
    <rc><c>Fe</c><c>   1</c></rc>
    <rc><c>Fe</c><c>   1</c></rc>
    <rc><c>Fe</c><c>   1</c></rc>
    <rc><c>Fe</c><c>   1</c></rc>
    <rc><c>Fe</c><c>   1</c></rc>
    <rc><c>Fe</c><c>   1</c></rc>
    <rc><c>Fe</c><c>   1</c></rc>
    <rc><c>Fe</c><c>   1</c></rc>
    <rc><c>Fe</c><c>   1</c></rc>
    <rc><c>Fe</c><c>   1</c></rc>
    <rc><c>Fe</c><c>   1</c></rc>
    <rc><c>Mn</c><c>   2</c></rc>
    <rc><c>Mn</c><c>   2</c></rc>
    <rc><c>Mn</c><c>   2</c></rc>
    <rc><c>Mn</c><c>   2</c></rc>
    <rc><c>Mn</c><c>   2</c></rc>
    <rc><c>Mn</c><c>   2</c></rc>
    <rc><c>Mn</c><c>   2</c></rc>
    <rc><c>Mn</c><c>   2</c></rc>
    <rc><c>Mn</c><c>   2</c></rc>
    <rc><c>Mn</c><c>   2</c></rc>
    <rc><c>Mn</c><c>   2</c></rc>
    <rc><c>Mn</c><c>   2</c></rc>
    <rc><c>Mn</c><c>   2</c></rc>
    <rc><c>Mn</c><c>   2</c></rc>
    <rc><c>Mn</c><c>   2</c></rc>
   </set>
  </array>
  <array name="atomtypes" >
   <dimension dim="1">type</dimension>
   <field type="int">atomspertype</field>
   <field type="string">element</field>
   <field>mass</field>
   <field>valence</field>
   <field type="string">pseudopotential</field>
   <set>
    <rc><c> 273</c><c>Fe</c><c>     55.84700000</c><c>      8.00000000</c><c>  PAW_PBE Fe_GW 31Mar2010               </c></rc>
    <rc><c>  15</c><c>Mn</c><c>     54.93800000</c><c>      7.00000000</c><c>  PAW_PBE Mn_GW 31Mar2010               </c></rc>
   </set>
  </array>
 </atominfo>
 <structure name="initialpos" >
  <crystal>
   <varray name="basis" >
    <v>       9.72667800       0.00000000       0.00000000 </v>
    <v>       0.00000000       8.42355000       0.00000000 </v>
    <v>       0.00000000       0.00000000      45.00000000 </v>
   </varray>
   <i name="volume">   3686.99213101 </i>
   <varray name="rec_basis" >
    <v>       0.10281002       0.00000000       0.00000000 </v>
    <v>       0.00000000       0.11871479       0.00000000 </v>
    <v>       0.00000000       0.00000000       0.02222222 </v>
   </varray>
  </crystal>
  <varray name="positions" >
   <v>       0.81237546       0.03651065       0.39006544 </v>
   <v>       0.06246582       0.04213570       0.87351448 </v>
   <v>       0.06240420       0.71050957       0.83124161 </v>
   <v>       0.81256234       0.03521963       0.12656823 </v>
   <v>       0.06239601       0.70153539       0.21355804 </v>
   <v>       0.18750313       0.95635606       0.56527070 </v>
   <v>       0.93763769       0.45896400       0.83144380 </v>
   <v>       0.56238857       0.20923759       0.69811533 </v>
   <v>       0.93721344       0.45277683       0.34615778 </v>
   <v>       0.81248748       0.86803619       0.16874344 </v>
   <v>       0.68739080       0.61888523       0.30179199 </v>
   <v>       0.93772684       0.95530285       0.47861988 </v>
   <v>       0.18767373       0.62626770       0.78648494 </v>
   <v>       0.06265378       0.87280144       0.52143637 </v>
   <v>       0.43699581       0.95697728       0.56527628 </v>
   <v>       0.68729797       0.78484327       0.25760666 </v>
   <v>       0.56259589       0.37518537       0.65380834 </v>
   <v>       0.43719765       0.45241279       0.34611888 </v>
   <v>       0.68761890       0.45485437       0.47851156 </v>
   <v>       0.68756833       0.95153835       0.21354595 </v>
   <v>       0.81320179       0.04197270       0.87347795 </v>
   <v>       0.56248486       0.86800412       0.16870922 </v>
   <v>       0.93744418       0.12635729       0.78659034 </v>
   <v>       0.81182883       0.70230136       0.34619863 </v>
   <v>       0.18776187       0.12628160       0.78646735 </v>
   <v>       0.06249099       0.20977550       0.69825483 </v>
   <v>       0.06227398       0.03525394       0.25757143 </v>
   <v>       0.31277748       0.20708667       0.56531609 </v>
   <v>       0.56239424       0.37271888       0.52128608 </v>
   <v>       0.81259027       0.20543596       0.47860546 </v>
   <v>       0.18806764       0.45475243       0.47854498 </v>
   <v>       0.56245307       0.36804076       0.16872200 </v>
   <v>       0.43740292       0.45159577       0.21355008 </v>
   <v>       0.06217771       0.70647343       0.56515195 </v>
   <v>       0.18747199       0.11810263       0.16876884 </v>
   <v>       0.56217493       0.87134543       0.43487065 </v>
   <v>       0.31267556       0.87522389       0.65374201 </v>
   <v>       0.56257727       0.20506336       0.47860391 </v>
   <v>       0.68755120       0.45152068       0.21358098 </v>
   <v>       0.68737844       0.29084350       0.60976004 </v>
   <v>       0.31240723       0.71007295       0.83142029 </v>
   <v>       0.93736238       0.95248846       0.34610385 </v>
   <v>       0.93767793       0.29092207       0.60984690 </v>
   <v>       0.18750532       0.79275570       0.87352909 </v>
   <v>       0.56233852       0.36882367       0.30180012 </v>
   <v>       0.81321185       0.37652333       0.78649431 </v>
   <v>       0.56273430       0.70636416       0.56496262 </v>
   <v>       0.06283088       0.37546352       0.65371348 </v>
   <v>       0.93730339       0.62248504       0.52133890 </v>
   <v>       0.81275876       0.53636744       0.39002278 </v>
   <v>       0.93797225       0.95655000       0.56527763 </v>
   <v>       0.56284992       0.87521515       0.65383569 </v>
   <v>       0.43749896       0.61866232       0.30172765 </v>
   <v>       0.68751903       0.78519610       0.12658601 </v>
   <v>       0.43735503       0.95247421       0.34612330 </v>
   <v>       0.43753590       0.12512177       0.65383083 </v>
   <v>       0.06252647       0.53512626       0.12658134 </v>
   <v>       0.81134273       0.54259705       0.87369853 </v>
   <v>       0.56253759       0.03510550       0.12657085 </v>
   <v>       0.93698931       0.62095000       0.43483030 </v>
   <v>       0.06214732       0.87094896       0.43487065 </v>
   <v>       0.31261843       0.70553717       0.47866764 </v>
   <v>       0.93746050       0.28518956       0.12656910 </v>
   <v>       0.56249528       0.20161228       0.21351402 </v>
   <v>       0.43764828       0.11848580       0.30175663 </v>
   <v>       0.81245016       0.70145976       0.21347551 </v>
   <v>       0.68722314       0.78676500       0.39019066 </v>
   <v>       0.43747598       0.12648652       0.78649913 </v>
   <v>       0.06240894       0.37638181       0.78656957 </v>
   <v>       0.18752121       0.78713894       0.39011778 </v>
   <v>       0.31246589       0.53515927       0.12658105 </v>
   <v>       0.06248119       0.37318881       0.52138876 </v>
   <v>       0.68771475       0.62489654       0.65378690 </v>
   <v>       0.18726983       0.28501566       0.25760534 </v>
   <v>       0.93704187       0.12225175       0.52139839 </v>
   <v>       0.31246435       0.54113458       0.60982646 </v>
   <v>       0.06242817       0.53670622       0.39002528 </v>
   <v>       0.56234067       0.86856116       0.30172192 </v>
   <v>       0.31266187       0.37480981       0.65378944 </v>
   <v>       0.81207103       0.03476992       0.25758663 </v>
   <v>       0.56232769       0.53481916       0.25767695 </v>
   <v>       0.93779751       0.96032603       0.83141754 </v>
   <v>       0.56235286       0.70251265       0.34623464 </v>
   <v>       0.68776856       0.62244504       0.52135038 </v>
   <v>       0.43740595       0.45936289       0.69818176 </v>
   <v>       0.81279318       0.37263185       0.52135404 </v>
   <v>       0.06260513       0.87647861       0.78643958 </v>
   <v>       0.06252793       0.03517056       0.12657880 </v>
   <v>       0.81264295       0.87655607       0.78654986 </v>
   <v>       0.68755478       0.45929519       0.69814334 </v>
   <v>       0.68795133       0.95511223       0.47864151 </v>
   <v>       0.06244026       0.36815180       0.16871979 </v>
   <v>       0.31239920       0.86848692       0.30172375 </v>
   <v>       0.56279140       0.54302379       0.74236871 </v>
   <v>       0.18756109       0.29080403       0.60977447 </v>
   <v>       0.56247977       0.70157611       0.21350509 </v>
   <v>       0.68746430       0.12521000       0.65376262 </v>
   <v>       0.06394912       0.54283760       0.87342440 </v>
   <v>       0.81243067       0.54273913       0.74230318 </v>
   <v>       0.18737792       0.29320156       0.74231980 </v>
   <v>       0.43756498       0.62223081       0.52129754 </v>
   <v>       0.56227856       0.21022992       0.83129869 </v>
   <v>       0.93750839       0.79308497       0.87347698 </v>
   <v>       0.18740549       0.45914020       0.69818952 </v>
   <v>       0.68741591       0.45245109       0.34617997 </v>
   <v>       0.56220130       0.37124845       0.43481182 </v>
   <v>       0.43721057       0.95963633       0.83139070 </v>
   <v>       0.06232870       0.70550566       0.47856337 </v>
   <v>       0.93754629       0.78525436       0.12657147 </v>
   <v>       0.18782967       0.12240770       0.52127716 </v>
   <v>       0.06208332       0.20696281       0.56495032 </v>
   <v>       0.06242364       0.20145350       0.21352639 </v>
   <v>       0.18778851       0.12517715       0.65371345 </v>
   <v>       0.81243997       0.20688246       0.56530304 </v>
   <v>       0.43812522       0.62095742       0.43475396 </v>
   <v>       0.81243230       0.87119593       0.43489740 </v>
   <v>       0.31224604       0.53686865       0.39006521 </v>
   <v>       0.43782859       0.78694653       0.39015173 </v>
   <v>       0.31343682       0.87096353       0.43486264 </v>
   <v>       0.81252890       0.36806453       0.16874934 </v>
   <v>       0.81318751       0.21077983       0.83142498 </v>
   <v>       0.81267967       0.37512624       0.65374028 </v>
   <v>       0.93691083       0.12115105       0.43488766 </v>
   <v>       0.93744577       0.45145740       0.21347191 </v>
   <v>       0.56256333       0.53509189       0.12658163 </v>
   <v>       0.43703592       0.95531862       0.47853307 </v>
   <v>       0.68743460       0.62682131       0.78646227 </v>
   <v>       0.93725641       0.28496721       0.25764042 </v>
   <v>       0.31242532       0.36805547       0.16875426 </v>
   <v>       0.68741114       0.61818767       0.16873840 </v>
   <v>       0.31294569       0.54302009       0.74229902 </v>
   <v>       0.06240247       0.87581430       0.65380067 </v>
   <v>       0.68752441       0.79324623       0.74240192 </v>
   <v>       0.18745539       0.62257004       0.52128155 </v>
   <v>       0.68734365       0.28662530       0.39009191 </v>
   <v>       0.56302407       0.04320495       0.74245417 </v>
   <v>       0.18746680       0.95159189       0.21348541 </v>
   <v>       0.31285946       0.70246417       0.34615962 </v>
   <v>       0.93763182       0.79255772       0.74232172 </v>
   <v>       0.68741521       0.11860595       0.30176440 </v>
   <v>       0.56317128       0.54214620       0.87369332 </v>
   <v>       0.06260322       0.54084369       0.60976293 </v>
   <v>       0.43730846       0.79357118       0.87346734 </v>
   <v>       0.93743011       0.61806528       0.16876202 </v>
   <v>       0.18747318       0.95915255       0.69822779 </v>
   <v>       0.06235127       0.03657043       0.39005207 </v>
   <v>       0.18727755       0.78500409       0.25757592 </v>
   <v>       0.68735952       0.95911624       0.69818342 </v>
   <v>       0.31236142       0.53478840       0.25757418 </v>
   <v>       0.43739542       0.95164362       0.21351983 </v>
   <v>       0.31297365       0.04286173       0.74241029 </v>
   <v>       0.81304030       0.37103713       0.43487244 </v>
   <v>       0.81253600       0.53518976       0.12658083 </v>
   <v>       0.06252032       0.70888405       0.69820005 </v>
   <v>       0.18824400       0.29331814       0.87348938 </v>
   <v>       0.68743092       0.11809349       0.16876162 </v>
   <v>       0.68754912       0.28519029       0.12658190 </v>
   <v>       0.56241777       0.53658568       0.39012856 </v>
   <v>       0.31251243       0.70156514       0.21352147 </v>
   <v>       0.56284688       0.20680737       0.56519092 </v>
   <v>       0.68732185       0.79243594       0.87352012 </v>
   <v>       0.56263277       0.70961553       0.69825216 </v>
   <v>       0.68734439       0.45615451       0.56515206 </v>
   <v>       0.31197860       0.70941603       0.69813143 </v>
   <v>       0.43777905       0.62588610       0.78658572 </v>
   <v>       0.43718887       0.78467651       0.25758518 </v>
   <v>       0.93710479       0.62679550       0.78636770 </v>
   <v>       0.81291221       0.70889532       0.69812092 </v>
   <v>       0.81252112       0.87243660       0.52138294 </v>
   <v>       0.18751034       0.11867186       0.30176618 </v>
   <v>       0.68730741       0.28498586       0.25757021 </v>
   <v>       0.68753940       0.12270763       0.52140649 </v>
   <v>       0.18750030       0.28514365       0.12656647 </v>
   <v>       0.93739466       0.11810044       0.16875297 </v>
   <v>       0.93763380       0.62543207       0.65373356 </v>
   <v>       0.18722364       0.79089109       0.60972694 </v>
   <v>       0.31270614       0.37117915       0.43486036 </v>
   <v>       0.56235590       0.87275025       0.52133894 </v>
   <v>       0.93788467       0.28646564       0.39015036 </v>
   <v>       0.56230220       0.37602834       0.78639129 </v>
   <v>       0.81240833       0.54087018       0.60978152 </v>
   <v>       0.43759518       0.29275084       0.87351144 </v>
   <v>       0.81230447       0.20948773       0.69820788 </v>
   <v>       0.81250031       0.04117830       0.60986903 </v>
   <v>       0.43768084       0.62514126       0.65378370 </v>
   <v>       0.68646956       0.29347969       0.87366283 </v>
   <v>       0.06251747       0.04300506       0.74230377 </v>
   <v>       0.43724642       0.29118257       0.60980353 </v>
   <v>       0.68742194       0.12639215       0.78644804 </v>
   <v>       0.56240480       0.03690436       0.39007448 </v>
   <v>       0.18788773       0.79299483       0.74233140 </v>
   <v>       0.43720925       0.45491713       0.47852201 </v>
   <v>       0.31224172       0.37621721       0.78644560 </v>
   <v>       0.31176381       0.54251922       0.87350009 </v>
   <v>       0.43757969       0.28515770       0.12658162 </v>
   <v>       0.81236150       0.04292335       0.74238333 </v>
   <v>       0.31249831       0.37276357       0.52151192 </v>
   <v>       0.06229590       0.53524395       0.25754916 </v>
   <v>       0.93774871       0.12540057       0.65388465 </v>
   <v>       0.43766818       0.79321325       0.74239070 </v>
   <v>       0.68706453       0.96023746       0.83132603 </v>
   <v>       0.18733742       0.28705964       0.39017641 </v>
   <v>       0.18746617       0.61802490       0.16868834 </v>
   <v>       0.68768846       0.62078055       0.43488741 </v>
   <v>       0.06242171       0.36872520       0.30168902 </v>
   <v>       0.93746176       0.61889051       0.30172918 </v>
   <v>       0.81182492       0.70997588       0.83141965 </v>
   <v>       0.81261802       0.86871003       0.30177190 </v>
   <v>       0.43756813       0.11810354       0.16876812 </v>
   <v>       0.06209488       0.37073557       0.43481887 </v>
   <v>       0.68775144       0.12108175       0.43485882 </v>
   <v>       0.31271293       0.20903906       0.69812252 </v>
   <v>       0.43752131       0.61805283       0.16878582 </v>
   <v>       0.18761973       0.45325227       0.34613477 </v>
   <v>       0.43765769       0.29294666       0.74227463 </v>
   <v>       0.31251599       0.20150371       0.21349416 </v>
   <v>       0.68742775       0.79089398       0.60978372 </v>
   <v>       0.18751973       0.61864719       0.30175373 </v>
   <v>       0.31243766       0.36846798       0.30172512 </v>
   <v>       0.43789334       0.12138967       0.43495214 </v>
   <v>       0.31223566       0.87637916       0.78653052 </v>
   <v>       0.43782168       0.79102169       0.60984371 </v>
   <v>       0.31244425       0.20925069       0.83124776 </v>
   <v>       0.56300204       0.70984928       0.83131298 </v>
   <v>       0.31239114       0.86805311       0.16877419 </v>
   <v>       0.81262525       0.36874953       0.30180443 </v>
   <v>       0.81264234       0.87535378       0.65378204 </v>
   <v>       0.56238148       0.20233658       0.34627189 </v>
   <v>       0.93779014       0.45657654       0.56524729 </v>
   <v>       0.06239125       0.04113227       0.60992226 </v>
   <v>       0.93738934       0.79131428       0.60974335 </v>
   <v>       0.43738560       0.28709857       0.39009605 </v>
   <v>       0.18741145       0.95478107       0.47851718 </v>
   <v>       0.81259748       0.70536098       0.47856711 </v>
   <v>       0.56244372       0.04066342       0.60982727 </v>
   <v>       0.93741591       0.95153822       0.21344846 </v>
   <v>       0.31240280       0.03483177       0.25758765 </v>
   <v>       0.18785019       0.95949735       0.83117685 </v>
   <v>       0.06244271       0.86881497       0.30173620 </v>
   <v>       0.93731778       0.45527935       0.47857564 </v>
   <v>       0.81166965       0.20254424       0.34617771 </v>
   <v>       0.93772474       0.29304621       0.74236608 </v>
   <v>       0.31178925       0.04262968       0.87348859 </v>
   <v>       0.43773033       0.12240546       0.52140995 </v>
   <v>       0.43733323       0.28471011       0.25765641 </v>
   <v>       0.68805120       0.29312838       0.74230702 </v>
   <v>       0.18753413       0.45676098       0.56519076 </v>
   <v>       0.06196110       0.20947482       0.83148175 </v>
   <v>       0.18757794       0.95305234       0.34612191 </v>
   <v>       0.43738929       0.45946636       0.83126873 </v>
   <v>       0.18716389       0.45986822       0.83139305 </v>
   <v>       0.18750066       0.62526296       0.65378940 </v>
   <v>       0.81240903       0.20152037       0.21348774 </v>
   <v>       0.56236979       0.03473407       0.25764354 </v>
   <v>       0.81218001       0.53493690       0.25760015 </v>
   <v>       0.31266525       0.20551036       0.47861917 </v>
   <v>       0.31271895       0.87287910       0.52142792 </v>
   <v>       0.06247777       0.86816578       0.16872996 </v>
   <v>       0.31252313       0.03519141       0.12657798 </v>
   <v>       0.43751413       0.78524287       0.12658877 </v>
   <v>       0.31253037       0.04076773       0.60977005 </v>
   <v>       0.43744241       0.45652395       0.56530772 </v>
   <v>       0.56218400       0.04205328       0.87345032 </v>
   <v>       0.18745344       0.45148382       0.21347656 </v>
   <v>       0.93737438       0.78679787       0.39005375 </v>
   <v>       0.81275166       0.70690457       0.56532048 </v>
   <v>       0.56245234       0.54128315       0.60983680 </v>
   <v>       0.31292649       0.20277128       0.34619392 </v>
   <v>       0.93744149       0.78487100       0.25754794 </v>
   <v>       0.93761817       0.95921865       0.69815182 </v>
   <v>       0.93727844       0.11881181       0.30175235 </v>
   <v>       0.18750729       0.78525788       0.12656642 </v>
   <v>       0.31236217       0.03702857       0.39012133 </v>
   <v>       0.18753544       0.62105288       0.43485243 </v>
   <v>       0.68746306       0.95257800       0.34631402 </v>
   <v>       0.56247728       0.87629231       0.78635494 </v>
   <v>       0.18822324       0.12068085       0.43462469 </v>
   <v>       0.68760011       0.95708536       0.56532584 </v>
   <v>       0.93756015       0.29279999       0.87330472 </v>
   <v>       0.06313916       0.54298713       0.74261515 </v>
   <v>       0.06234908       0.20298749       0.34628793 </v>
   <v>       0.06244206       0.20513508       0.47873901 </v>
   <v>       0.93720937       0.45895772       0.69805956 </v>
   <v>       0.68803027       0.45977090       0.83203756 </v>
   <v>       0.06239138       0.70241340       0.34628481 </v>
   <v>       0.43744049       0.95915885       0.69813237 </v>
   <v>       0.31246120       0.70657697       0.56526741 </v>
   <v>       0.56268790       0.70510950       0.47860836 </v>
  </varray>
 </structure>
 <calculation>
  <scstep>
   <time name="dav">  145.65  145.65</time>
   <time name="total">  146.11  146.11</time>
   <energy>
    <i name="alphaZ">  16277.55763135 </i>
    <i name="ewald"> 762375.14481103 </i>
    <i name="hartreedc">-952622.09925154 </i>
    <i name="XCdc">  -6524.98695407 </i>
    <i name="pawpsdc"> 162148.49262465 </i>
    <i name="pawaedc">-159453.03229289 </i>
    <i name="eentropy">     -0.96185395 </i>
    <i name="bandstr">  39735.84073645 </i>
    <i name="atom"> 168497.18126305 </i>
    <i name="e_fr_energy">  30433.13671408 </i>
    <i name="e_wo_entrp">  30434.09856804 </i>
    <i name="e_0_energy">  30433.61764106 </i>
   </energy>
  </scstep>
  <scstep>
   <time name="dav">  140.16  140.16</time>
   <time name="total">  140.17  140.16</time>
   <energy>
    <i name="e_fr_energy">   1532.27907138 </i>
    <i name="e_wo_entrp">   1533.65068234 </i>
    <i name="e_0_energy">   1532.96487686 </i>
   </energy>
  </scstep>
  <scstep>
   <time name="dav">  174.37  174.37</time>
   <time name="total">  174.38  174.37</time>
   <energy>
    <i name="e_fr_energy">  -1896.56867837 </i>
    <i name="e_wo_entrp">  -1893.05271023 </i>
    <i name="e_0_energy">  -1894.81069430 </i>
   </energy>
  </scstep>
  <scstep>
   <time name="dav">  215.45  215.45</time>
   <time name="total">  215.46  215.45</time>
   <energy>
    <i name="e_fr_energy">  -2609.66754825 </i>
    <i name="e_wo_entrp">  -2606.20890288 </i>
    <i name="e_0_energy">  -2607.93822557 </i>
   </energy>
  </scstep>
  <scstep>
   <time name="dav">  207.44  207.44</time>
   <time name="total">  212.11  212.11</time>
   <energy>
    <i name="e_fr_energy">  -2739.73528605 </i>
    <i name="e_wo_entrp">  -2736.20345174 </i>
    <i name="e_0_energy">  -2737.96936889 </i>
   </energy>
  </scstep>
  <scstep>
   <time name="diag">   29.05   29.04</time>
   <time name="diis">   75.84   75.84</time>
   <time name="orth">    8.73    8.73</time>
   <time name="total">  118.66  118.65</time>
   <energy>
    <i name="e_fr_energy">  -7464.69598962 </i>
    <i name="e_wo_entrp">  -7461.29303787 </i>
    <i name="e_0_energy">  -7462.99451374 </i>
   </energy>
  </scstep>
  <scstep>
   <time name="diag">   29.52   29.52</time>
   <time name="diis">   77.53   77.52</time>
   <time name="orth">    8.71    8.71</time>
   <time name="total">  120.62  120.62</time>
   <energy>
    <i name="e_fr_energy">  -9050.66718779 </i>
    <i name="e_wo_entrp">  -9047.46415793 </i>
    <i name="e_0_energy">  -9049.06567286 </i>
   </energy>
  </scstep>
  <scstep>
[...]
       <r>     5.8341     0.0000  2760.0000 </r>
       <r>     5.8769     0.0000  2760.0000 </r>
       <r>     5.9197     0.0000  2760.0000 </r>
       <r>     5.9624     0.0000  2760.0000 </r>
       <r>     6.0052     0.0000  2760.0000 </r>
       <r>     6.0480     0.0000  2760.0000 </r>
       <r>     6.0908     0.0000  2760.0000 </r>
       <r>     6.1336     0.0000  2760.0000 </r>
       <r>     6.1764     0.0000  2760.0000 </r>
       <r>     6.2192     0.0000  2760.0000 </r>
       <r>     6.2619     0.0000  2760.0000 </r>
       <r>     6.3047     0.0000  2760.0000 </r>
       <r>     6.3475     0.0000  2760.0000 </r>
       <r>     6.3903     0.0000  2760.0000 </r>
       <r>     6.4331     0.0000  2760.0000 </r>
       <r>     6.4759     0.0000  2760.0000 </r>
       <r>     6.5187     0.0000  2760.0000 </r>
       <r>     6.5614     0.0000  2760.0000 </r>
       <r>     6.6042     0.0000  2760.0000 </r>
       <r>     6.6470     0.0000  2760.0000 </r>
       <r>     6.6898     0.0000  2760.0000 </r>
       <r>     6.7326     0.0000  2760.0000 </r>
       <r>     6.7754     0.0000  2760.0000 </r>
      </set>
     </set>
    </array>
   </total>
  </dos>
 </calculation>
 <structure name="finalpos" >
  <crystal>
   <varray name="basis" >
    <v>       9.72667800       0.00000000       0.00000000 </v>
    <v>       0.00000000       8.42355000       0.00000000 </v>
    <v>       0.00000000       0.00000000      45.00000000 </v>
   </varray>
   <i name="volume">   3686.99213101 </i>
   <varray name="rec_basis" >
    <v>       0.10281002       0.00000000       0.00000000 </v>
    <v>       0.00000000       0.11871479       0.00000000 </v>
    <v>       0.00000000       0.00000000       0.02222222 </v>
   </varray>
  </crystal>
  <varray name="positions" >
   <v>       0.81237551       0.03649126       0.39006207 </v>
   <v>       0.06246260       0.04218109       0.87350809 </v>
   <v>       0.06240952       0.71049842       0.83124182 </v>
   <v>       0.81255938       0.03520259       0.12656913 </v>
   <v>       0.06238250       0.70156285       0.21355339 </v>
   <v>       0.18752008       0.95637173       0.56526889 </v>
   <v>       0.93764137       0.45892957       0.83144555 </v>
   <v>       0.56241251       0.20920116       0.69812163 </v>
   <v>       0.93720203       0.45280158       0.34614886 </v>
   <v>       0.81249103       0.86805288       0.16873931 </v>
   <v>       0.68737920       0.61889905       0.30178762 </v>
   <v>       0.93775580       0.95528989       0.47861705 </v>
   <v>       0.18769846       0.62622719       0.78648296 </v>
   <v>       0.06268076       0.87282862       0.52143341 </v>
   <v>       0.43700142       0.95695171       0.56527994 </v>
   <v>       0.68731969       0.78485777       0.25761790 </v>
   <v>       0.56259748       0.37516817       0.65380419 </v>
   <v>       0.43721741       0.45245367       0.34611088 </v>
   <v>       0.68758692       0.45486635       0.47852067 </v>
   <v>       0.68756196       0.95153615       0.21354156 </v>
   <v>       0.81321410       0.04200008       0.87347514 </v>
   <v>       0.56247727       0.86802496       0.16870303 </v>
   <v>       0.93746538       0.12633789       0.78659264 </v>
   <v>       0.81183741       0.70234627       0.34619134 </v>
   <v>       0.18779175       0.12626982       0.78647173 </v>
   <v>       0.06249243       0.20975235       0.69825875 </v>
   <v>       0.06228515       0.03526424       0.25758219 </v>
   <v>       0.31276678       0.20708665       0.56531384 </v>
   <v>       0.56239777       0.37271595       0.52128358 </v>
   <v>       0.81257020       0.20543820       0.47860884 </v>
   <v>       0.18805281       0.45475950       0.47854270 </v>
   <v>       0.56246666       0.36805023       0.16871440 </v>
   <v>       0.43740784       0.45160064       0.21355029 </v>
   <v>       0.06220189       0.70647696       0.56515373 </v>
   <v>       0.18747013       0.11809436       0.16875818 </v>
   <v>       0.56218106       0.87132826       0.43487146 </v>
   <v>       0.31265614       0.87520151       0.65374321 </v>
   <v>       0.56254903       0.20507445       0.47860434 </v>
   <v>       0.68754959       0.45153313       0.21357799 </v>
   <v>       0.68739175       0.29084079       0.60976660 </v>
   <v>       0.31243076       0.71004091       0.83141636 </v>
   <v>       0.93735246       0.95250623       0.34609714 </v>
   <v>       0.93767783       0.29090701       0.60985751 </v>
   <v>       0.18752768       0.79271298       0.87352631 </v>
   <v>       0.56235271       0.36883907       0.30179182 </v>
   <v>       0.81319722       0.37652650       0.78649293 </v>
   <v>       0.56272005       0.70637301       0.56496967 </v>
   <v>       0.06281322       0.37545404       0.65371256 </v>
   <v>       0.93732505       0.62246901       0.52133910 </v>
   <v>       0.81275908       0.53639373       0.39001960 </v>
   <v>       0.93794916       0.95656128       0.56528563 </v>
   <v>       0.56284777       0.87519045       0.65383887 </v>
   <v>       0.43750694       0.61868698       0.30172146 </v>
   <v>       0.68751368       0.78517205       0.12658401 </v>
   <v>       0.43737297       0.95248437       0.34611499 </v>
   <v>       0.43753185       0.12509888       0.65383228 </v>
   <v>       0.06253409       0.53512865       0.12657528 </v>
   <v>       0.81138114       0.54260631       0.87369538 </v>
   <v>       0.56253480       0.03508719       0.12657634 </v>
   <v>       0.93700598       0.62095773       0.43482406 </v>
   <v>       0.06215235       0.87094597       0.43486896 </v>
   <v>       0.31259888       0.70552835       0.47866662 </v>
   <v>       0.93746967       0.28519523       0.12656849 </v>
   <v>       0.56249515       0.20160112       0.21351128 </v>
   <v>       0.43764236       0.11848632       0.30175388 </v>
   <v>       0.81244899       0.70148261       0.21347348 </v>
   <v>       0.68723719       0.78677294       0.39018500 </v>
   <v>       0.43746191       0.12648377       0.78650263 </v>
   <v>       0.06243368       0.37637300       0.78656654 </v>
   <v>       0.18750330       0.78713080       0.39012227 </v>
   <v>       0.31246505       0.53516876       0.12657302 </v>
   <v>       0.06250385       0.37319257       0.52138439 </v>
   <v>       0.68771004       0.62487072       0.65378727 </v>
   <v>       0.18728611       0.28502870       0.25761677 </v>
   <v>       0.93705030       0.12224488       0.52139617 </v>
   <v>       0.31247573       0.54114903       0.60983463 </v>
   <v>       0.06242998       0.53672808       0.39002942 </v>
   <v>       0.56233973       0.86856775       0.30172052 </v>
   <v>       0.31265790       0.37480041       0.65378533 </v>
   <v>       0.81208916       0.03479323       0.25759594 </v>
   <v>       0.56234697       0.53485042       0.25768692 </v>
   <v>       0.93782170       0.96030762       0.83141399 </v>
   <v>       0.56237596       0.70255553       0.34622764 </v>
   <v>       0.68776241       0.62244586       0.52134828 </v>
   <v>       0.43742379       0.45932245       0.69818544 </v>
   <v>       0.81278021       0.37261873       0.52135224 </v>
   <v>       0.06262062       0.87645033       0.78643782 </v>
   <v>       0.06252744       0.03516076       0.12658112 </v>
   <v>       0.81263000       0.87654612       0.78654416 </v>
   <v>       0.68757572       0.45927364       0.69814702 </v>
   <v>       0.68795100       0.95511843       0.47864345 </v>
   <v>       0.06242808       0.36818031       0.16871022 </v>
   <v>       0.31239036       0.86849870       0.30171991 </v>
   <v>       0.56277033       0.54303870       0.74237448 </v>
   <v>       0.18756079       0.29079707       0.60978208 </v>
   <v>       0.56248641       0.70158810       0.21350309 </v>
   <v>       0.68747394       0.12519513       0.65376164 </v>
   <v>       0.06397349       0.54282577       0.87342751 </v>
   <v>       0.81242030       0.54272489       0.74230340 </v>
   <v>       0.18739272       0.29316802       0.74232492 </v>
   <v>       0.43753318       0.62225043       0.52129777 </v>
   <v>       0.56226245       0.21025198       0.83128911 </v>
   <v>       0.93754512       0.79307917       0.87347646 </v>
   <v>       0.18739947       0.45911380       0.69819213 </v>
   <v>       0.68742953       0.45247343       0.34616783 </v>
   <v>       0.56219806       0.37124307       0.43481324 </v>
   <v>       0.43721731       0.95959541       0.83138403 </v>
   <v>       0.06234726       0.70546778       0.47855968 </v>
   <v>       0.93753827       0.78522998       0.12657223 </v>
   <v>       0.18781308       0.12237955       0.52127138 </v>
   <v>       0.06209526       0.20695423       0.56495097 </v>
   <v>       0.06241337       0.20144741       0.21352251 </v>
   <v>       0.18778429       0.12516497       0.65371597 </v>
   <v>       0.81243360       0.20688462       0.56530691 </v>
   <v>       0.43809930       0.62097532       0.43475715 </v>
   <v>       0.81243725       0.87118854       0.43489238 </v>
   <v>       0.31222736       0.53690600       0.39006772 </v>
   <v>       0.43783458       0.78695864       0.39014699 </v>
   <v>       0.31340765       0.87097375       0.43486654 </v>
   <v>       0.81253123       0.36808224       0.16874509 </v>
   <v>       0.81318552       0.21075343       0.83141941 </v>
   <v>       0.81268160       0.37511267       0.65373829 </v>
   <v>       0.93692947       0.12113397       0.43488187 </v>
   <v>       0.93742900       0.45148030       0.21346862 </v>
   <v>       0.56254554       0.53510422       0.12657569 </v>
   <v>       0.43701753       0.95531478       0.47852965 </v>
   <v>       0.68740393       0.62681218       0.78646327 </v>
   <v>       0.93726685       0.28499369       0.25765137 </v>
   <v>       0.31242413       0.36806955       0.16874516 </v>
   <v>       0.68742825       0.61821787       0.16873352 </v>
   <v>       0.31291951       0.54299820       0.74230856 </v>
   <v>       0.06239151       0.87579049       0.65379829 </v>
   <v>       0.68749644       0.79324474       0.74240366 </v>
   <v>       0.18746878       0.62256715       0.52128048 </v>
   <v>       0.68735470       0.28661734       0.39008782 </v>
   <v>       0.56300125       0.04317067       0.74245509 </v>
   <v>       0.18745604       0.95159376       0.21348283 </v>
   <v>       0.31284608       0.70250853       0.34614975 </v>
   <v>       0.93762314       0.79254989       0.74232490 </v>
   <v>       0.68741004       0.11861984       0.30176522 </v>
   <v>       0.56314253       0.54213123       0.87368726 </v>
   <v>       0.06260175       0.54084489       0.60977599 </v>
   <v>       0.43727872       0.79355450       0.87347222 </v>
   <v>       0.93742755       0.61809581       0.16875538 </v>
   <v>       0.18749662       0.95913493       0.69823047 </v>
   <v>       0.06234796       0.03656001       0.39005575 </v>
   <v>       0.18729005       0.78504201       0.25758658 </v>
   <v>       0.68736485       0.95908906       0.69818644 </v>
   <v>       0.31239120       0.53480867       0.25758731 </v>
   <v>       0.43739746       0.95164294       0.21351589 </v>
   <v>       0.31297371       0.04284381       0.74241812 </v>
   <v>       0.81304904       0.37101501       0.43486928 </v>
   <v>       0.81253510       0.53519121       0.12658030 </v>
   <v>       0.06252282       0.70887277       0.69820079 </v>
   <v>       0.18824463       0.29340285       0.87348640 </v>
   <v>       0.68743944       0.11810174       0.16875672 </v>
   <v>       0.68754518       0.28519140       0.12658280 </v>
   <v>       0.56242721       0.53662489       0.39012765 </v>
   <v>       0.31250284       0.70158937       0.21351818 </v>
   <v>       0.56285180       0.20679828       0.56519438 </v>
   <v>       0.68731479       0.79244630       0.87351808 </v>
   <v>       0.56263366       0.70959938       0.69825711 </v>
   <v>       0.68735877       0.45616047       0.56515860 </v>
   <v>       0.31199679       0.70939288       0.69813790 </v>
   <v>       0.43778273       0.62587451       0.78658943 </v>
   <v>       0.43720600       0.78469742       0.25759976 </v>
   <v>       0.93710818       0.62676160       0.78636279 </v>
   <v>       0.81289550       0.70885988       0.69812348 </v>
   <v>       0.81250194       0.87244842       0.52138283 </v>
   <v>       0.18749416       0.11868229       0.30176317 </v>
   <v>       0.68732584       0.28501858       0.25758076 </v>
   <v>       0.68756794       0.12271247       0.52140760 </v>
   <v>       0.18750226       0.28515767       0.12656227 </v>
   <v>       0.93739225       0.11810764       0.16874706 </v>
   <v>       0.93762664       0.62539972       0.65373537 </v>
   <v>       0.18723734       0.79088945       0.60973397 </v>
   <v>       0.31268226       0.37117015       0.43486338 </v>
   <v>       0.56236207       0.87274240       0.52133690 </v>
   <v>       0.93788440       0.28645836       0.39014895 </v>
   <v>       0.56227418       0.37602592       0.78639546 </v>
   <v>       0.81241074       0.54086319       0.60979183 </v>
   <v>       0.43759536       0.29278802       0.87351098 </v>
   <v>       0.81230041       0.20947889       0.69821126 </v>
   <v>       0.81251615       0.04116771       0.60987602 </v>
   <v>       0.43768194       0.62512490       0.65378377 </v>
   <v>       0.68645248       0.29348395       0.87365815 </v>
   <v>       0.06252378       0.04298073       0.74230736 </v>
   <v>       0.43725345       0.29118580       0.60981058 </v>
   <v>       0.68740506       0.12638925       0.78644895 </v>
   <v>       0.56241653       0.03689372       0.39007218 </v>
   <v>       0.18787487       0.79296709       0.74233714 </v>
   <v>       0.43720634       0.45489716       0.47852240 </v>
   <v>       0.31226525       0.37621697       0.78645166 </v>
   <v>       0.31174985       0.54256202       0.87350232 </v>
   <v>       0.43755928       0.28516869       0.12658005 </v>
   <v>       0.81234662       0.04290515       0.74238269 </v>
   <v>       0.31249058       0.37276708       0.52150919 </v>
   <v>       0.06229887       0.53526888       0.25756084 </v>
   <v>       0.93773925       0.12539631       0.65388398 </v>
   <v>       0.43765216       0.79320564       0.74239656 </v>
   <v>       0.68705221       0.96016944       0.83131957 </v>
   <v>       0.18732405       0.28704717       0.39018375 </v>
   <v>       0.18745716       0.61807586       0.16867708 </v>
   <v>       0.68768954       0.62080718       0.43488667 </v>
   <v>       0.06240644       0.36873580       0.30168615 </v>
   <v>       0.93744712       0.61890275       0.30172960 </v>
   <v>       0.81183307       0.70995255       0.83141702 </v>
   <v>       0.81260446       0.86872168       0.30177151 </v>
   <v>       0.43756141       0.11809221       0.16876089 </v>
   <v>       0.06210969       0.37074464       0.43482104 </v>
   <v>       0.68775705       0.12108087       0.43485608 </v>
   <v>       0.31271302       0.20901489       0.69813009 </v>
   <v>       0.43752027       0.61810457       0.16877592 </v>
   <v>       0.18762051       0.45327156       0.34612949 </v>
   <v>       0.43765557       0.29291917       0.74228515 </v>
   <v>       0.31251018       0.20149782       0.21349261 </v>
   <v>       0.68745409       0.79090014       0.60978910 </v>
   <v>       0.18750845       0.61867752       0.30175299 </v>
   <v>       0.31243176       0.36848334       0.30171771 </v>
   <v>       0.43787229       0.12139922       0.43495414 </v>
   <v>       0.31225216       0.87637286       0.78653001 </v>
   <v>       0.43781930       0.79100501       0.60984929 </v>
   <v>       0.31244433       0.20925501       0.83123663 </v>
   <v>       0.56298805       0.70981128       0.83130420 </v>
   <v>       0.31239517       0.86807893       0.16876526 </v>
   <v>       0.81260136       0.36876518       0.30179929 </v>
   <v>       0.81264031       0.87532161       0.65377995 </v>
   <v>       0.56240371       0.20232763       0.34626102 </v>
   <v>       0.93777502       0.45657766       0.56525106 </v>
   <v>       0.06238953       0.04113412       0.60993273 </v>
   <v>       0.93738797       0.79131849       0.60975453 </v>
   <v>       0.43738698       0.28710319       0.39009709 </v>
   <v>       0.18740244       0.95479333       0.47851048 </v>
   <v>       0.81259552       0.70536629       0.47856801 </v>
   <v>       0.56246606       0.04065975       0.60983489 </v>
   <v>       0.93741405       0.95154252       0.21344525 </v>
   <v>       0.31241642       0.03484715       0.25759999 </v>
   <v>       0.18783142       0.95948589       0.83116927 </v>
   <v>       0.06243531       0.86883434       0.30173852 </v>
   <v>       0.93735691       0.45529028       0.47857744 </v>
   <v>       0.81168705       0.20254349       0.34616860 </v>
   <v>       0.93770540       0.29304470       0.74236664 </v>
   <v>       0.31180864       0.04264730       0.87348470 </v>
   <v>       0.43771260       0.12240952       0.52141014 </v>
   <v>       0.43735242       0.28473987       0.25766642 </v>
   <v>       0.68800656       0.29310324       0.74231054 </v>
   <v>       0.18754425       0.45677296       0.56519179 </v>
   <v>       0.06198621       0.20947942       0.83147795 </v>
   <v>       0.18757087       0.95305934       0.34611522 </v>
   <v>       0.43740422       0.45942933       0.83126073 </v>
   <v>       0.18717408       0.45982390       0.83139833 </v>
   <v>       0.18748223       0.62525960       0.65378892 </v>
   <v>       0.81240643       0.20151850       0.21348467 </v>
   <v>       0.56238605       0.03476287       0.25765272 </v>
   <v>       0.81218393       0.53496957       0.25761230 </v>
   <v>       0.31265994       0.20550975       0.47861920 </v>
   <v>       0.31270440       0.87287030       0.52142870 </v>
   <v>       0.06247904       0.86818264       0.16872499 </v>
   <v>       0.31251184       0.03517028       0.12658232 </v>
   <v>       0.43750750       0.78520735       0.12658743 </v>
   <v>       0.31252065       0.04077928       0.60977878 </v>
   <v>       0.43744622       0.45653423       0.56531123 </v>
   <v>       0.56217828       0.04208043       0.87345044 </v>
   <v>       0.18744757       0.45149886       0.21347514 </v>
   <v>       0.93736324       0.78680354       0.39005044 </v>
   <v>       0.81273068       0.70690880       0.56532567 </v>
   <v>       0.56246913       0.54127495       0.60984608 </v>
   <v>       0.31291694       0.20277526       0.34618357 </v>
   <v>       0.93744761       0.78489644       0.25756029 </v>
   <v>       0.93761041       0.95917619       0.69815593 </v>
   <v>       0.93727827       0.11883064       0.30175269 </v>
   <v>       0.18751625       0.78522754       0.12656728 </v>
   <v>       0.31233576       0.03702975       0.39012488 </v>
   <v>       0.18752271       0.62105135       0.43485711 </v>
   <v>       0.68748324       0.95257568       0.34630706 </v>
   <v>       0.56246685       0.87627653       0.78635179 </v>
   <v>       0.18820350       0.12066143       0.43463315 </v>
   <v>       0.68761581       0.95710620       0.56533325 </v>
   <v>       0.93755936       0.29285154       0.87330244 </v>
   <v>       0.06314330       0.54298239       0.74261609 </v>
   <v>       0.06233393       0.20298775       0.34627745 </v>
   <v>       0.06249507       0.20512370       0.47874107 </v>
   <v>       0.93719191       0.45893238       0.69805309 </v>
   <v>       0.68799998       0.45972893       0.83202850 </v>
   <v>       0.06238188       0.70245449       0.34627582 </v>
   <v>       0.43746418       0.95911409       0.69813640 </v>
   <v>       0.31246917       0.70658779       0.56526982 </v>
   <v>       0.56267624       0.70511822       0.47860937 </v>
  </varray>
 </structure>
</modeling>
