unknown system                          
            1
     9.726678    0.000000    0.000000
     0.000000    8.423550    0.000000
     0.000000    0.000000   45.000000
   Fe   Mn
 273  15
Direct configuration=     1
   0.81237546  0.03651065  0.39006544
   0.06246582  0.04213570  0.87351448
   0.06240420  0.71050957  0.83124161
   0.81256234  0.03521963  0.12656823
   0.06239601  0.70153539  0.21355804
   0.18750313  0.95635606  0.56527070
   0.93763769  0.45896400  0.83144380
   0.56238857  0.20923759  0.69811533
   0.93721344  0.45277683  0.34615778
   0.81248748  0.86803619  0.16874344
   0.68739080  0.61888523  0.30179199
   0.93772684  0.95530285  0.47861988
   0.18767373  0.62626770  0.78648494
   0.06265378  0.87280144  0.52143637
   0.43699581  0.95697728  0.56527628
   0.68729797  0.78484327  0.25760666
   0.56259589  0.37518537  0.65380834
   0.43719765  0.45241279  0.34611888
   0.68761890  0.45485437  0.47851156
   0.68756833  0.95153835  0.21354595
   0.81320179  0.04197270  0.87347795
   0.56248486  0.86800412  0.16870922
   0.93744418  0.12635729  0.78659034
   0.81182883  0.70230136  0.34619863
   0.18776187  0.12628160  0.78646735
   0.06249099  0.20977550  0.69825483
   0.06227398  0.03525394  0.25757143
   0.31277748  0.20708667  0.56531609
   0.56239424  0.37271888  0.52128608
   0.81259027  0.20543596  0.47860546
   0.18806764  0.45475243  0.47854498
   0.56245307  0.36804076  0.16872200
   0.43740292  0.45159577  0.21355008
   0.06217771  0.70647343  0.56515195
   0.18747199  0.11810263  0.16876884
   0.56217493  0.87134543  0.43487065
   0.31267556  0.87522389  0.65374201
   0.56257727  0.20506336  0.47860391
   0.68755120  0.45152068  0.21358098
   0.68737844  0.29084350  0.60976004
   0.31240723  0.71007295  0.83142029
   0.93736238  0.95248846  0.34610385
   0.93767793  0.29092207  0.60984690
   0.18750532  0.79275570  0.87352909
   0.56233852  0.36882367  0.30180012
   0.81321185  0.37652333  0.78649431
   0.56273430  0.70636416  0.56496262
   0.06283088  0.37546352  0.65371348
   0.93730339  0.62248504  0.52133890
   0.81275876  0.53636744  0.39002278
   0.93797225  0.95655000  0.56527763
   0.56284992  0.87521515  0.65383569
   0.43749896  0.61866232  0.30172765
   0.68751903  0.78519610  0.12658601
   0.43735503  0.95247421  0.34612330
   0.43753590  0.12512177  0.65383083
   0.06252647  0.53512626  0.12658134
   0.81134273  0.54259705  0.87369853
   0.56253759  0.03510550  0.12657085
   0.93698931  0.62095000  0.43483030
   0.06214732  0.87094896  0.43487065
   0.31261843  0.70553717  0.47866764
   0.93746050  0.28518956  0.12656910
   0.56249528  0.20161228  0.21351402
   0.43764828  0.11848580  0.30175663
   0.81245016  0.70145976  0.21347551
   0.68722314  0.78676500  0.39019066
   0.43747598  0.12648652  0.78649913
   0.06240894  0.37638181  0.78656957
   0.18752121  0.78713894  0.39011778
   0.31246589  0.53515927  0.12658105
   0.06248119  0.37318881  0.52138876
   0.68771475  0.62489654  0.65378690
   0.18726983  0.28501566  0.25760534
   0.93704187  0.12225175  0.52139839
   0.31246435  0.54113458  0.60982646
   0.06242817  0.53670622  0.39002528
   0.56234067  0.86856116  0.30172192
   0.31266187  0.37480981  0.65378944
   0.81207103  0.03476992  0.25758663
   0.56232769  0.53481916  0.25767695
   0.93779751  0.96032603  0.83141754
   0.56235286  0.70251265  0.34623464
   0.68776856  0.62244504  0.52135038
   0.43740595  0.45936289  0.69818176
   0.81279318  0.37263185  0.52135404
   0.06260513  0.87647861  0.78643958
   0.06252793  0.03517056  0.12657880
   0.81264295  0.87655607  0.78654986
   0.68755478  0.45929519  0.69814334
   0.68795133  0.95511223  0.47864151
   0.06244026  0.36815180  0.16871979
   0.31239920  0.86848692  0.30172375
   0.56279140  0.54302379  0.74236871
   0.18756109  0.29080403  0.60977447
   0.56247977  0.70157611  0.21350509
   0.68746430  0.12521000  0.65376262
   0.06394912  0.54283760  0.87342440
   0.81243067  0.54273913  0.74230318
   0.18737792  0.29320156  0.74231980
   0.43756498  0.62223081  0.52129754
   0.56227856  0.21022992  0.83129869
   0.93750839  0.79308497  0.87347698
   0.18740549  0.45914020  0.69818952
   0.68741591  0.45245109  0.34617997
   0.56220130  0.37124845  0.43481182
   0.43721057  0.95963633  0.83139070
   0.06232870  0.70550566  0.47856337
   0.93754629  0.78525436  0.12657147
   0.18782967  0.12240770  0.52127716
   0.06208332  0.20696281  0.56495032
   0.06242364  0.20145350  0.21352639
   0.18778851  0.12517715  0.65371345
   0.81243997  0.20688246  0.56530304
   0.43812522  0.62095742  0.43475396
   0.81243230  0.87119593  0.43489740
   0.31224604  0.53686865  0.39006521
   0.43782859  0.78694653  0.39015173
   0.31343682  0.87096353  0.43486264
   0.81252890  0.36806453  0.16874934
   0.81318751  0.21077983  0.83142498
   0.81267967  0.37512624  0.65374028
   0.93691083  0.12115105  0.43488766
   0.93744577  0.45145740  0.21347191
   0.56256333  0.53509189  0.12658163
   0.43703592  0.95531862  0.47853307
   0.68743460  0.62682131  0.78646227
   0.93725641  0.28496721  0.25764042
   0.31242532  0.36805547  0.16875426
   0.68741114  0.61818767  0.16873840
   0.31294569  0.54302009  0.74229902
   0.06240247  0.87581430  0.65380067
   0.68752441  0.79324623  0.74240192
   0.18745539  0.62257004  0.52128155
   0.68734365  0.28662530  0.39009191
   0.56302407  0.04320495  0.74245417
   0.18746680  0.95159189  0.21348541
   0.31285946  0.70246417  0.34615962
   0.93763182  0.79255772  0.74232172
   0.68741521  0.11860595  0.30176440
   0.56317128  0.54214620  0.87369332
   0.06260322  0.54084369  0.60976293
   0.43730846  0.79357118  0.87346734
   0.93743011  0.61806528  0.16876202
   0.18747318  0.95915255  0.69822779
   0.06235127  0.03657043  0.39005207
   0.18727755  0.78500409  0.25757592
   0.68735952  0.95911624  0.69818342
   0.31236142  0.53478840  0.25757418
   0.43739542  0.95164362  0.21351983
   0.31297365  0.04286173  0.74241029
   0.81304030  0.37103713  0.43487244
   0.81253600  0.53518976  0.12658083
   0.06252032  0.70888405  0.69820005
   0.18824400  0.29331814  0.87348938
   0.68743092  0.11809349  0.16876162
   0.68754912  0.28519029  0.12658190
   0.56241777  0.53658568  0.39012856
   0.31251243  0.70156514  0.21352147
   0.56284688  0.20680737  0.56519092
   0.68732185  0.79243594  0.87352012
   0.56263277  0.70961553  0.69825216
   0.68734439  0.45615451  0.56515206
   0.31197860  0.70941603  0.69813143
   0.43777905  0.62588610  0.78658572
   0.43718887  0.78467651  0.25758518
   0.93710479  0.62679550  0.78636770
   0.81291221  0.70889532  0.69812092
   0.81252112  0.87243660  0.52138294
   0.18751034  0.11867186  0.30176618
   0.68730741  0.28498586  0.25757021
   0.68753940  0.12270763  0.52140649
   0.18750030  0.28514365  0.12656647
   0.93739466  0.11810044  0.16875297
   0.93763380  0.62543207  0.65373356
   0.18722364  0.79089109  0.60972694
   0.31270614  0.37117915  0.43486036
   0.56235590  0.87275025  0.52133894
   0.93788467  0.28646564  0.39015036
   0.56230220  0.37602834  0.78639129
   0.81240833  0.54087018  0.60978152
   0.43759518  0.29275084  0.87351144
   0.81230447  0.20948773  0.69820788
   0.81250031  0.04117830  0.60986903
   0.43768084  0.62514126  0.65378370
   0.68646956  0.29347969  0.87366283
   0.06251747  0.04300506  0.74230377
   0.43724642  0.29118257  0.60980353
   0.68742194  0.12639215  0.78644804
   0.56240480  0.03690436  0.39007448
   0.18788773  0.79299483  0.74233140
   0.43720925  0.45491713  0.47852201
   0.31224172  0.37621721  0.78644560
   0.31176381  0.54251922  0.87350009
   0.43757969  0.28515770  0.12658162
   0.81236150  0.04292335  0.74238333
   0.31249831  0.37276357  0.52151192
   0.06229590  0.53524395  0.25754916
   0.93774871  0.12540057  0.65388465
   0.43766818  0.79321325  0.74239070
   0.68706453  0.96023746  0.83132603
   0.18733742  0.28705964  0.39017641
   0.18746617  0.61802490  0.16868834
   0.68768846  0.62078055  0.43488741
   0.06242171  0.36872520  0.30168902
   0.93746176  0.61889051  0.30172918
   0.81182492  0.70997588  0.83141965
   0.81261802  0.86871003  0.30177190
   0.43756813  0.11810354  0.16876812
   0.06209488  0.37073557  0.43481887
   0.68775144  0.12108175  0.43485882
   0.31271293  0.20903906  0.69812252
   0.43752131  0.61805283  0.16878582
   0.18761973  0.45325227  0.34613477
   0.43765769  0.29294666  0.74227463
   0.31251599  0.20150371  0.21349416
   0.68742775  0.79089398  0.60978372
   0.18751973  0.61864719  0.30175373
   0.31243766  0.36846798  0.30172512
   0.43789334  0.12138967  0.43495214
   0.31223566  0.87637916  0.78653052
   0.43782168  0.79102169  0.60984371
   0.31244425  0.20925069  0.83124776
   0.56300204  0.70984928  0.83131298
   0.31239114  0.86805311  0.16877419
   0.81262525  0.36874953  0.30180443
   0.81264234  0.87535378  0.65378204
   0.56238148  0.20233658  0.34627189
   0.93779014  0.45657654  0.56524729
   0.06239125  0.04113227  0.60992226
   0.93738934  0.79131428  0.60974335
   0.43738560  0.28709857  0.39009605
   0.18741145  0.95478107  0.47851718
   0.81259748  0.70536098  0.47856711
   0.56244372  0.04066342  0.60982727
   0.93741591  0.95153822  0.21344846
   0.31240280  0.03483177  0.25758765
   0.18785019  0.95949735  0.83117685
   0.06244271  0.86881497  0.30173620
   0.93731778  0.45527935  0.47857564
   0.81166965  0.20254424  0.34617771
   0.93772474  0.29304621  0.74236608
   0.31178925  0.04262968  0.87348859
   0.43773033  0.12240546  0.52140995
   0.43733323  0.28471011  0.25765641
   0.68805120  0.29312838  0.74230702
   0.18753413  0.45676098  0.56519076
   0.06196110  0.20947482  0.83148175
   0.18757794  0.95305234  0.34612191
   0.43738929  0.45946636  0.83126873
   0.18716389  0.45986822  0.83139305
   0.18750066  0.62526296  0.65378940
   0.81240903  0.20152037  0.21348774
   0.56236979  0.03473407  0.25764354
   0.81218001  0.53493690  0.25760015
   0.31266525  0.20551036  0.47861917
   0.31271895  0.87287910  0.52142792
   0.06247777  0.86816578  0.16872996
   0.31252313  0.03519141  0.12657798
   0.43751413  0.78524287  0.12658877
   0.31253037  0.04076773  0.60977005
   0.43744241  0.45652395  0.56530772
   0.56218400  0.04205328  0.87345032
   0.18745344  0.45148382  0.21347656
   0.93737438  0.78679787  0.39005375
   0.81275166  0.70690457  0.56532048
   0.56245234  0.54128315  0.60983680
   0.31292649  0.20277128  0.34619392
   0.93744149  0.78487100  0.25754794
   0.93761817  0.95921865  0.69815182
   0.93727844  0.11881181  0.30175235
   0.18750729  0.78525788  0.12656642
   0.31236217  0.03702857  0.39012133
   0.18753544  0.62105288  0.43485243
   0.68746306  0.95257800  0.34631402
   0.56247728  0.87629231  0.78635494
   0.18822324  0.12068085  0.43462469
   0.68760011  0.95708536  0.56532584
   0.93756015  0.29279999  0.87330472
   0.06313916  0.54298713  0.74261515
   0.06234908  0.20298749  0.34628793
   0.06244206  0.20513508  0.47873901
   0.93720937  0.45895772  0.69805956
   0.68803027  0.45977090  0.83203756
   0.06239138  0.70241340  0.34628481
   0.43744049  0.95915885  0.69813237
   0.31246120  0.70657697  0.56526741
   0.56268790  0.70510950  0.47860836
Direct configuration=     2
   0.81237550  0.03649539  0.39006279
   0.06246329  0.04217141  0.87350945
   0.06240838  0.71050080  0.83124177
   0.81256001  0.03520622  0.12656894
   0.06238538  0.70155700  0.21355438
   0.18751647  0.95636839  0.56526928
   0.93764059  0.45893691  0.83144518
   0.56240741  0.20920893  0.69812029
   0.93720446  0.45279630  0.34615076
   0.81249028  0.86804932  0.16874019
   0.68738167  0.61889610  0.30178856
   0.93774962  0.95529266  0.47861766
   0.18769319  0.62623583  0.78648339
   0.06267501  0.87282282  0.52143404
   0.43700023  0.95695716  0.56527916
   0.68731505  0.78485468  0.25761550
   0.56259714  0.37517184  0.65380508
   0.43721320  0.45244495  0.34611258
   0.68759374  0.45486380  0.47851873
   0.68756332  0.95153662  0.21354249
   0.81321147  0.04199424  0.87347574
   0.56247889  0.86802052  0.16870435
   0.93746086  0.12634203  0.78659215
   0.81183558  0.70233669  0.34619290
   0.18778538  0.12627233  0.78647080
   0.06249213  0.20975729  0.69825792
   0.06228277  0.03526204  0.25757990
   0.31276906  0.20708665  0.56531432
   0.56239702  0.37271658  0.52128411
   0.81257448  0.20543772  0.47860812
   0.18805597  0.45475800  0.47854319
   0.56246376  0.36804821  0.16871602
   0.43740679  0.45159960  0.21355024
   0.06219674  0.70647621  0.56515335
   0.18747052  0.11809612  0.16876045
   0.56217976  0.87133192  0.43487129
   0.31266028  0.87520628  0.65374296
   0.56255505  0.20507209  0.47860425
   0.68754993  0.45153047  0.21357863
   0.68738891  0.29084137  0.60976520
   0.31242574  0.71004774  0.83141720
   0.93735458  0.95250244  0.34609857
   0.93767785  0.29091022  0.60985524
   0.18752291  0.79272209  0.87352690
   0.56234969  0.36883579  0.30179359
   0.81320034  0.37652583  0.78649323
   0.56272309  0.70637112  0.56496817
   0.06281699  0.37545606  0.65371275
   0.93732043  0.62247243  0.52133906
   0.81275901  0.53638812  0.39002028
   0.93795408  0.95655887  0.56528392
   0.56284823  0.87519572  0.65383819
   0.43750524  0.61868172  0.30172278
   0.68751482  0.78517718  0.12658444
   0.43736915  0.95248220  0.34611676
   0.43753272  0.12510376  0.65383197
   0.06253246  0.53512814  0.12657657
   0.81137295  0.54260434  0.87369605
   0.56253539  0.03509109  0.12657517
   0.93700243  0.62095608  0.43482539
   0.06215128  0.87094661  0.43486932
   0.31260305  0.70553023  0.47866683
   0.93746771  0.28519402  0.12656862
   0.56249518  0.20160350  0.21351187
   0.43764363  0.11848621  0.30175447
   0.81244924  0.70147774  0.21347391
   0.68723420  0.78677125  0.39018621
   0.43746491  0.12648436  0.78650188
   0.06242841  0.37637488  0.78656719
   0.18750712  0.78713254  0.39012132
   0.31246523  0.53516674  0.12657473
   0.06249902  0.37319177  0.52138533
   0.68771105  0.62487622  0.65378719
   0.18728264  0.28502592  0.25761433
   0.93704850  0.12224634  0.52139664
   0.31247330  0.54114595  0.60983289
   0.06242960  0.53672342  0.39002853
   0.56233993  0.86856634  0.30172082
   0.31265875  0.37480242  0.65378621
   0.81208530  0.03478826  0.25759396
   0.56234286  0.53484376  0.25768479
   0.93781654  0.96031155  0.83141475
   0.56237103  0.70254639  0.34622913
   0.68776372  0.62244568  0.52134873
   0.43741999  0.45933107  0.69818466
   0.81278298  0.37262152  0.52135263
   0.06261731  0.87645636  0.78643820
   0.06252754  0.03516285  0.12658063
   0.81263276  0.87654824  0.78654537
   0.68757125  0.45927824  0.69814624
   0.68795107  0.95511711  0.47864303
   0.06243068  0.36817423  0.16871226
   0.31239224  0.86849618  0.30172073
   0.56277482  0.54303552  0.74237325
   0.18756085  0.29079856  0.60978045
   0.56248499  0.70158554  0.21350351
   0.68747188  0.12519830  0.65376185
   0.06396830  0.54282829  0.87342684
   0.81242251  0.54272793  0.74230335
   0.18738957  0.29317517  0.74232383
   0.43753996  0.62224624  0.52129772
   0.56226588  0.21024728  0.83129115
   0.93753729  0.79308041  0.87347657
   0.18740075  0.45911943  0.69819158
   0.68742663  0.45246866  0.34617042
   0.56219875  0.37124421  0.43481294
   0.43721587  0.95960413  0.83138545
   0.06234330  0.70547585  0.47856047
   0.93753998  0.78523518  0.12657206
   0.18781662  0.12238555  0.52127261
   0.06209271  0.20695606  0.56495083
   0.06241556  0.20144871  0.21352334
   0.18778519  0.12516757  0.65371543
   0.81243496  0.20688416  0.56530609
   0.43810482  0.62097150  0.43475647
   0.81243619  0.87119011  0.43489345
   0.31223134  0.53689804  0.39006719
   0.43783330  0.78695605  0.39014800
   0.31341387  0.87097157  0.43486571
   0.81253074  0.36807846  0.16874600
   0.81318594  0.21075906  0.83142060
   0.81268119  0.37511556  0.65373871
   0.93692550  0.12113761  0.43488310
   0.93743257  0.45147542  0.21346932
   0.56254933  0.53510159  0.12657695
   0.43702145  0.95531560  0.47853037
   0.68741047  0.62681413  0.78646305
   0.93726463  0.28498805  0.25764904
   0.31242438  0.36806655  0.16874710
   0.68742460  0.61821143  0.16873456
   0.31292509  0.54300287  0.74230652
   0.06239385  0.87579557  0.65379880
   0.68750240  0.79324506  0.74240329
   0.18746592  0.62256777  0.52128071
   0.68735235  0.28661903  0.39008869
   0.56300612  0.04317798  0.74245489
   0.18745834  0.95159336  0.21348338
   0.31284893  0.70249907  0.34615186
   0.93762499  0.79255156  0.74232422
   0.68741114  0.11861688  0.30176504
   0.56314866  0.54213442  0.87368855
   0.06260207  0.54084463  0.60977320
   0.43728507  0.79355806  0.87347118
   0.93742810  0.61808930  0.16875679
   0.18749162  0.95913869  0.69822990
   0.06234867  0.03656223  0.39005496
   0.18728738  0.78503392  0.25758431
   0.68736371  0.95909485  0.69818580
   0.31238485  0.53480435  0.25758451
   0.43739702  0.95164309  0.21351673
   0.31297369  0.04284763  0.74241645
   0.81304718  0.37101973  0.43486996
   0.81253529  0.53519090  0.12658041
   0.06252229  0.70887517  0.69820063
   0.18824450  0.29338479  0.87348703
   0.68743762  0.11809998  0.16875777
   0.68754602  0.28519116  0.12658261
   0.56242520  0.53661653  0.39012784
   0.31250488  0.70158420  0.21351888
   0.56285075  0.20680022  0.56519364
   0.68731630  0.79244409  0.87351852
   0.56263347  0.70960282  0.69825606
   0.68735570  0.45615920  0.56515721
   0.31199291  0.70939781  0.69813652
   0.43778195  0.62587698  0.78658864
   0.43720235  0.78469296  0.25759665
   0.93710746  0.62676883  0.78636383
   0.81289906  0.70886744  0.69812293
   0.81250603  0.87244590  0.52138286
   0.18749761  0.11868007  0.30176381
   0.68732191  0.28501161  0.25757851
   0.68756185  0.12271144  0.52140736
   0.18750184  0.28515468  0.12656317
   0.93739276  0.11810610  0.16874832
   0.93762817  0.62540661  0.65373499
   0.18723442  0.79088980  0.60973247
   0.31268735  0.37117207  0.43486274
   0.56236075  0.87274407  0.52133734
   0.93788446  0.28645991  0.39014925
   0.56228016  0.37602644  0.78639457
   0.81241023  0.54086468  0.60978963
   0.43759532  0.29278009  0.87351108
   0.81230128  0.20948078  0.69821054
   0.81251277  0.04116996  0.60987453
   0.43768170  0.62512839  0.65378376
   0.68645612  0.29348304  0.87365915
   0.06252243  0.04298592  0.74230659
   0.43725195  0.29118511  0.60980908
   0.68740866  0.12638987  0.78644876
   0.56241403  0.03689599  0.39007267
   0.18787761  0.79297300  0.74233592
   0.43720696  0.45490142  0.47852231
   0.31226023  0.37621702  0.78645037
   0.31175283  0.54255290  0.87350184
   0.43756363  0.28516634  0.12658039
   0.81234979  0.04290903  0.74238282
   0.31249223  0.37276633  0.52150977
   0.06229823  0.53526356  0.25755835
   0.93774127  0.12539722  0.65388413
   0.43765558  0.79320726  0.74239531
   0.68705483  0.96018395  0.83132095
   0.18732690  0.28704983  0.39018219
   0.18745908  0.61806500  0.16867948
   0.68768931  0.62080150  0.43488682
   0.06240970  0.36873354  0.30168676
   0.93745024  0.61890014  0.30172951
   0.81183133  0.70995752  0.83141758
   0.81260735  0.86871920  0.30177160
   0.43756284  0.11809462  0.16876244
   0.06210653  0.37074270  0.43482057
   0.68775585  0.12108106  0.43485666
   0.31271300  0.20902004  0.69812848
   0.43752049  0.61809354  0.16877803
   0.18762034  0.45326744  0.34613061
   0.43765602  0.29292503  0.74228290
   0.31251142  0.20149908  0.21349294
   0.68744847  0.79089882  0.60978796
   0.18751086  0.61867105  0.30175315
   0.31243302  0.36848006  0.30171929
   0.43787678  0.12139719  0.43495371
   0.31224865  0.87637420  0.78653011
   0.43781981  0.79100857  0.60984810
   0.31244431  0.20925409  0.83123900
   0.56299103  0.70981939  0.83130607
   0.31239431  0.86807343  0.16876716
   0.81260645  0.36876185  0.30180039
   0.81264075  0.87532847  0.65378039
   0.56239897  0.20232954  0.34626333
   0.93777824  0.45657742  0.56525026
   0.06238990  0.04113372  0.60993050
   0.93738826  0.79131759  0.60975215
   0.43738669  0.28710221  0.39009687
   0.18740436  0.95479072  0.47851191
   0.81259594  0.70536516  0.47856782
   0.56246129  0.04066053  0.60983326
   0.93741445  0.95154160  0.21344593
   0.31241352  0.03484387  0.25759736
   0.18783542  0.95948833  0.83117089
   0.06243689  0.86883021  0.30173802
   0.93734856  0.45528795  0.47857706
   0.81168334  0.20254365  0.34617054
   0.93770953  0.29304502  0.74236652
   0.31180450  0.04264354  0.87348553
   0.43771638  0.12240865  0.52141010
   0.43734833  0.28473353  0.25766429
   0.68801608  0.29310860  0.74230979
   0.18754209  0.45677040  0.56519157
   0.06198086  0.20947844  0.83147876
   0.18757238  0.95305785  0.34611664
   0.43740103  0.45943723  0.83126244
   0.18717190  0.45983335  0.83139720
   0.18748616  0.62526031  0.65378902
   0.81240699  0.20151890  0.21348533
   0.56238259  0.03475672  0.25765076
   0.81218310  0.53496261  0.25760971
   0.31266107  0.20550988  0.47861919
   0.31270750  0.87287218  0.52142853
   0.06247877  0.86817905  0.16872605
   0.31251425  0.03517478  0.12658140
   0.43750891  0.78521492  0.12658771
   0.31252272  0.04077682  0.60977692
   0.43744541  0.45653204  0.56531048
   0.56217950  0.04207464  0.87345041
   0.18744882  0.45149565  0.21347545
   0.93736562  0.78680233  0.39005115
   0.81273515  0.70690790  0.56532456
   0.56246555  0.54127670  0.60984410
   0.31291898  0.20277441  0.34618578
   0.93744630  0.78489102  0.25755766
   0.93761206  0.95918524  0.69815505
   0.93727830  0.11882663  0.30175262
   0.18751434  0.78523401  0.12656710
   0.31234139  0.03702950  0.39012413
   0.18752542  0.62105168  0.43485611
   0.68747894  0.95257618  0.34630855
   0.56246907  0.87627990  0.78635246
   0.18820771  0.12066557  0.43463135
   0.68761246  0.95710176  0.56533167
   0.93755953  0.29284055  0.87330293
   0.06314242  0.54298340  0.74261589
   0.06233717  0.20298769  0.34627968
   0.06248377  0.20512613  0.47874063
   0.93719564  0.45893779  0.69805447
   0.68800643  0.45973788  0.83203044
   0.06238390  0.70244573  0.34627774
   0.43745913  0.95912363  0.69813554
   0.31246747  0.70658548  0.56526930
   0.56267872  0.70511636  0.47860915
Direct configuration=     3
   0.81237551  0.03649126  0.39006207
   0.06246260  0.04218109  0.87350809
   0.06240952  0.71049842  0.83124182
   0.81255938  0.03520259  0.12656913
   0.06238250  0.70156285  0.21355339
   0.18752008  0.95637173  0.56526889
   0.93764137  0.45892957  0.83144555
   0.56241251  0.20920116  0.69812163
   0.93720203  0.45280158  0.34614886
   0.81249103  0.86805288  0.16873931
   0.68737920  0.61889905  0.30178762
   0.93775580  0.95528989  0.47861705
   0.18769846  0.62622719  0.78648296
   0.06268076  0.87282862  0.52143341
   0.43700142  0.95695171  0.56527994
   0.68731969  0.78485777  0.25761790
   0.56259748  0.37516817  0.65380419
   0.43721741  0.45245367  0.34611088
   0.68758692  0.45486635  0.47852067
   0.68756196  0.95153615  0.21354156
   0.81321410  0.04200008  0.87347514
   0.56247727  0.86802496  0.16870303
   0.93746538  0.12633789  0.78659264
   0.81183741  0.70234627  0.34619134
   0.18779175  0.12626982  0.78647173
   0.06249243  0.20975235  0.69825875
   0.06228515  0.03526424  0.25758219
   0.31276678  0.20708665  0.56531384
   0.56239777  0.37271595  0.52128358
   0.81257020  0.20543820  0.47860884
   0.18805281  0.45475950  0.47854270
   0.56246666  0.36805023  0.16871440
   0.43740784  0.45160064  0.21355029
   0.06220189  0.70647696  0.56515373
   0.18747013  0.11809436  0.16875818
   0.56218106  0.87132826  0.43487146
   0.31265614  0.87520151  0.65374321
   0.56254903  0.20507445  0.47860434
   0.68754959  0.45153313  0.21357799
   0.68739175  0.29084079  0.60976660
   0.31243076  0.71004091  0.83141636
   0.93735246  0.95250623  0.34609714
   0.93767783  0.29090701  0.60985751
   0.18752768  0.79271298  0.87352631
   0.56235271  0.36883907  0.30179182
   0.81319722  0.37652650  0.78649293
   0.56272005  0.70637301  0.56496967
   0.06281322  0.37545404  0.65371256
   0.93732505  0.62246901  0.52133910
   0.81275908  0.53639373  0.39001960
   0.93794916  0.95656128  0.56528563
   0.56284777  0.87519045  0.65383887
   0.43750694  0.61868698  0.30172146
   0.68751368  0.78517205  0.12658401
   0.43737297  0.95248437  0.34611499
   0.43753185  0.12509888  0.65383228
   0.06253409  0.53512865  0.12657528
   0.81138114  0.54260631  0.87369538
   0.56253480  0.03508719  0.12657634
   0.93700598  0.62095773  0.43482406
   0.06215235  0.87094597  0.43486896
   0.31259888  0.70552835  0.47866662
   0.93746967  0.28519523  0.12656849
   0.56249515  0.20160112  0.21351128
   0.43764236  0.11848632  0.30175388
   0.81244899  0.70148261  0.21347348
   0.68723719  0.78677294  0.39018500
   0.43746191  0.12648377  0.78650263
   0.06243368  0.37637300  0.78656654
   0.18750330  0.78713080  0.39012227
   0.31246505  0.53516876  0.12657302
   0.06250385  0.37319257  0.52138439
   0.68771004  0.62487072  0.65378727
   0.18728611  0.28502870  0.25761677
   0.93705030  0.12224488  0.52139617
   0.31247573  0.54114903  0.60983463
   0.06242998  0.53672808  0.39002942
   0.56233973  0.86856775  0.30172052
   0.31265790  0.37480041  0.65378533
   0.81208916  0.03479323  0.25759594
   0.56234697  0.53485042  0.25768692
   0.93782170  0.96030762  0.83141399
   0.56237596  0.70255553  0.34622764
   0.68776241  0.62244586  0.52134828
   0.43742379  0.45932245  0.69818544
   0.81278021  0.37261873  0.52135224
   0.06262062  0.87645033  0.78643782
   0.06252744  0.03516076  0.12658112
   0.81263000  0.87654612  0.78654416
   0.68757572  0.45927364  0.69814702
   0.68795100  0.95511843  0.47864345
   0.06242808  0.36818031  0.16871022
   0.31239036  0.86849870  0.30171991
   0.56277033  0.54303870  0.74237448
   0.18756079  0.29079707  0.60978208
   0.56248641  0.70158810  0.21350309
   0.68747394  0.12519513  0.65376164
   0.06397349  0.54282577  0.87342751
   0.81242030  0.54272489  0.74230340
   0.18739272  0.29316802  0.74232492
   0.43753318  0.62225043  0.52129777
   0.56226245  0.21025198  0.83128911
   0.93754512  0.79307917  0.87347646
   0.18739947  0.45911380  0.69819213
   0.68742953  0.45247343  0.34616783
   0.56219806  0.37124307  0.43481324
   0.43721731  0.95959541  0.83138403
   0.06234726  0.70546778  0.47855968
   0.93753827  0.78522998  0.12657223
   0.18781308  0.12237955  0.52127138
   0.06209526  0.20695423  0.56495097
   0.06241337  0.20144741  0.21352251
   0.18778429  0.12516497  0.65371597
   0.81243360  0.20688462  0.56530691
   0.43809930  0.62097532  0.43475715
   0.81243725  0.87118854  0.43489238
   0.31222736  0.53690600  0.39006772
   0.43783458  0.78695864  0.39014699
   0.31340765  0.87097375  0.43486654
   0.81253123  0.36808224  0.16874509
   0.81318552  0.21075343  0.83141941
   0.81268160  0.37511267  0.65373829
   0.93692947  0.12113397  0.43488187
   0.93742900  0.45148030  0.21346862
   0.56254554  0.53510422  0.12657569
   0.43701753  0.95531478  0.47852965
   0.68740393  0.62681218  0.78646327
   0.93726685  0.28499369  0.25765137
   0.31242413  0.36806955  0.16874516
   0.68742825  0.61821787  0.16873352
   0.31291951  0.54299820  0.74230856
   0.06239151  0.87579049  0.65379829
   0.68749644  0.79324474  0.74240366
   0.18746878  0.62256715  0.52128048
   0.68735470  0.28661734  0.39008782
   0.56300125  0.04317067  0.74245509
   0.18745604  0.95159376  0.21348283
   0.31284608  0.70250853  0.34614975
   0.93762314  0.79254989  0.74232490
   0.68741004  0.11861984  0.30176522
   0.56314253  0.54213123  0.87368726
   0.06260175  0.54084489  0.60977599
   0.43727872  0.79355450  0.87347222
   0.93742755  0.61809581  0.16875538
   0.18749662  0.95913493  0.69823047
   0.06234796  0.03656001  0.39005575
   0.18729005  0.78504201  0.25758658
   0.68736485  0.95908906  0.69818644
   0.31239120  0.53480867  0.25758731
   0.43739746  0.95164294  0.21351589
   0.31297371  0.04284381  0.74241812
   0.81304904  0.37101501  0.43486928
   0.81253510  0.53519121  0.12658030
   0.06252282  0.70887277  0.69820079
   0.18824463  0.29340285  0.87348640
   0.68743944  0.11810174  0.16875672
   0.68754518  0.28519140  0.12658280
   0.56242721  0.53662489  0.39012765
   0.31250284  0.70158937  0.21351818
   0.56285180  0.20679828  0.56519438
   0.68731479  0.79244630  0.87351808
   0.56263366  0.70959938  0.69825711
   0.68735877  0.45616047  0.56515860
   0.31199679  0.70939288  0.69813790
   0.43778273  0.62587451  0.78658943
   0.43720600  0.78469742  0.25759976
   0.93710818  0.62676160  0.78636279
   0.81289550  0.70885988  0.69812348
   0.81250194  0.87244842  0.52138283
   0.18749416  0.11868229  0.30176317
   0.68732584  0.28501858  0.25758076
   0.68756794  0.12271247  0.52140760
   0.18750226  0.28515767  0.12656227
   0.93739225  0.11810764  0.16874706
   0.93762664  0.62539972  0.65373537
   0.18723734  0.79088945  0.60973397
   0.31268226  0.37117015  0.43486338
   0.56236207  0.87274240  0.52133690
   0.93788440  0.28645836  0.39014895
   0.56227418  0.37602592  0.78639546
   0.81241074  0.54086319  0.60979183
   0.43759536  0.29278802  0.87351098
   0.81230041  0.20947889  0.69821126
   0.81251615  0.04116771  0.60987602
   0.43768194  0.62512490  0.65378377
   0.68645248  0.29348395  0.87365815
   0.06252378  0.04298073  0.74230736
   0.43725345  0.29118580  0.60981058
   0.68740506  0.12638925  0.78644895
   0.56241653  0.03689372  0.39007218
   0.18787487  0.79296709  0.74233714
   0.43720634  0.45489716  0.47852240
   0.31226525  0.37621697  0.78645166
   0.31174985  0.54256202  0.87350232
   0.43755928  0.28516869  0.12658005
   0.81234662  0.04290515  0.74238269
   0.31249058  0.37276708  0.52150919
   0.06229887  0.53526888  0.25756084
   0.93773925  0.12539631  0.65388398
   0.43765216  0.79320564  0.74239656
   0.68705221  0.96016944  0.83131957
   0.18732405  0.28704717  0.39018375
   0.18745716  0.61807586  0.16867708
   0.68768954  0.62080718  0.43488667
   0.06240644  0.36873580  0.30168615
   0.93744712  0.61890275  0.30172960