 288 288   0   0
  0.1280206E+02  0.9726678E-09  0.8423550E-09  0.4500000E-08  0.2500000E-15
  1.000000000000000E-004
  CAR 
 unknown system                          
      6.79502479     -6.03374034  301      4.31683984      1.00000000
     -6.034  0.0000E+00  0.0000E+00
     -5.991  0.0000E+00  0.0000E+00
     -5.948  0.0000E+00  0.0000E+00
     -5.905  0.0000E+00  0.0000E+00
     -5.863  0.0000E+00  0.0000E+00
     -5.820  0.0000E+00  0.0000E+00
     -5.777  0.0000E+00  0.0000E+00
     -5.734  0.0000E+00  0.0000E+00
     -5.692  0.0000E+00  0.0000E+00
     -5.649  0.0000E+00  0.0000E+00
     -5.606  0.0000E+00  0.0000E+00
     -5.563  0.0000E+00  0.0000E+00
     -5.521  0.0000E+00  0.0000E+00
     -5.478  0.0000E+00  0.0000E+00
     -5.435  0.0000E+00  0.0000E+00
     -5.392  0.1623E-15  0.6939E-17
     -5.350  0.4089E-14  0.1818E-15
     -5.307  0.8759E-13  0.3927E-14
     -5.264  0.1598E-11  0.7225E-13
     -5.221  0.2482E-10  0.1134E-11
     -5.178  0.3283E-09  0.1517E-10
     -5.136  0.3699E-08  0.1733E-09
     -5.093  0.3550E-07  0.1692E-08
     -5.050  0.2905E-06  0.1411E-07
     -5.007  0.2027E-05  0.1008E-06
     -4.965  0.1207E-04  0.6170E-06
     -4.922  0.6147E-04  0.3246E-05
     -4.879  0.2682E-03  0.1471E-04
     -4.836  0.1005E-02  0.5770E-04
     -4.794  0.3255E-02  0.1969E-03
     -4.751  0.9160E-02  0.5886E-03
     -4.708  0.2262E-01  0.1556E-02
     -4.665  0.4955E-01  0.3675E-02
     -4.623  0.9762E-01  0.7849E-02
     -4.580  0.1752E+00  0.1534E-01
     -4.537  0.2894E+00  0.2771E-01
     -4.494  0.4438E+00  0.4669E-01
     -4.452  0.6355E+00  0.7387E-01
     -4.409  0.8540E+00  0.1104E+00
     -4.366  0.1082E+01  0.1566E+00
     -4.323  0.1298E+01  0.2121E+00
     -4.280  0.1482E+01  0.2755E+00
     -4.238  0.1623E+01  0.3449E+00
     -4.195  0.1722E+01  0.4186E+00
     -4.152  0.1795E+01  0.4953E+00
     -4.109  0.1868E+01  0.5752E+00
     -4.067  0.1971E+01  0.6595E+00
     -4.024  0.2122E+01  0.7502E+00
     -3.981  0.2325E+01  0.8497E+00
     -3.938  0.2563E+01  0.9593E+00
     -3.896  0.2800E+01  0.1079E+01
     -3.853  0.2996E+01  0.1207E+01
     -3.810  0.3122E+01  0.1341E+01
     -3.767  0.3165E+01  0.1476E+01
     -3.725  0.3141E+01  0.1610E+01
     -3.682  0.3089E+01  0.1742E+01
     -3.639  0.3059E+01  0.1873E+01
     -3.596  0.3091E+01  0.2005E+01
     -3.554  0.3204E+01  0.2142E+01
     -3.511  0.3389E+01  0.2287E+01
     -3.468  0.3616E+01  0.2442E+01
     -3.425  0.3843E+01  0.2606E+01
     -3.382  0.4029E+01  0.2779E+01
     -3.340  0.4150E+01  0.2956E+01
     -3.297  0.4200E+01  0.3136E+01
     -3.254  0.4196E+01  0.3315E+01
     -3.211  0.4174E+01  0.3493E+01
     -3.169  0.4179E+01  0.3672E+01
     -3.126  0.4250E+01  0.3854E+01
     -3.083  0.4402E+01  0.4042E+01
     -3.040  0.4623E+01  0.4240E+01
     -2.998  0.4877E+01  0.4448E+01
     -2.955  0.5113E+01  0.4667E+01
     -2.912  0.5287E+01  0.4893E+01
     -2.869  0.5374E+01  0.5123E+01
     -2.827  0.5385E+01  0.5353E+01
     -2.784  0.5368E+01  0.5583E+01
     -2.741  0.5380E+01  0.5813E+01
     -2.698  0.5453E+01  0.6046E+01
     -2.655  0.5566E+01  0.6284E+01
     -2.613  0.5658E+01  0.6526E+01
     -2.570  0.5670E+01  0.6768E+01
     -2.527  0.5600E+01  0.7008E+01
     -2.484  0.5523E+01  0.7244E+01
     -2.442  0.5552E+01  0.7481E+01
     -2.399  0.5784E+01  0.7729E+01
     -2.356  0.6233E+01  0.7995E+01
     -2.313  0.6803E+01  0.8286E+01
     -2.271  0.7313E+01  0.8599E+01
     -2.228  0.7578E+01  0.8923E+01
     -2.185  0.7520E+01  0.9245E+01
     -2.142  0.7220E+01  0.9553E+01
     -2.100  0.6888E+01  0.9848E+01
     -2.057  0.6750E+01  0.1014E+02
     -2.014  0.6932E+01  0.1043E+02
     -1.971  0.7407E+01  0.1075E+02
     -1.929  0.8017E+01  0.1109E+02
     -1.886  0.8552E+01  0.1146E+02
     -1.843  0.8854E+01  0.1184E+02
     -1.800  0.8890E+01  0.1222E+02
     -1.757  0.8763E+01  0.1259E+02
     -1.715  0.8639E+01  0.1296E+02
     -1.672  0.8643E+01  0.1333E+02
     -1.629  0.8800E+01  0.1371E+02
     -1.586  0.9059E+01  0.1409E+02
     -1.544  0.9348E+01  0.1449E+02
     -1.501  0.9630E+01  0.1491E+02
     -1.458  0.9898E+01  0.1533E+02
     -1.415  0.1015E+02  0.1576E+02
     -1.373  0.1037E+02  0.1621E+02
     -1.330  0.1053E+02  0.1666E+02
     -1.287  0.1068E+02  0.1711E+02
     -1.244  0.1095E+02  0.1758E+02
     -1.202  0.1150E+02  0.1807E+02
     -1.159  0.1241E+02  0.1860E+02
     -1.116  0.1354E+02  0.1918E+02
     -1.073  0.1459E+02  0.1981E+02
     -1.031  0.1528E+02  0.2046E+02
     -0.988  0.1551E+02  0.2112E+02
     -0.945  0.1550E+02  0.2179E+02
     -0.902  0.1566E+02  0.2246E+02
     -0.859  0.1634E+02  0.2316E+02
     -0.817  0.1768E+02  0.2391E+02
     -0.774  0.1958E+02  0.2475E+02
     -0.731  0.2192E+02  0.2569E+02
     -0.688  0.2472E+02  0.2674E+02
     -0.646  0.2815E+02  0.2795E+02
     -0.603  0.3228E+02  0.2933E+02
     -0.560  0.3688E+02  0.3090E+02
     -0.517  0.4145E+02  0.3268E+02
     -0.475  0.4541E+02  0.3462E+02
     -0.432  0.4850E+02  0.3669E+02
     -0.389  0.5079E+02  0.3886E+02
     -0.346  0.5258E+02  0.4111E+02
     -0.304  0.5413E+02  0.4343E+02
     -0.261  0.5550E+02  0.4580E+02
     -0.218  0.5658E+02  0.4822E+02
     -0.175  0.5726E+02  0.5067E+02
     -0.133  0.5752E+02  0.5313E+02
     -0.090  0.5755E+02  0.5559E+02
     -0.047  0.5763E+02  0.5805E+02
     -0.004  0.5799E+02  0.6053E+02
      0.039  0.5879E+02  0.6305E+02
      0.081  0.6017E+02  0.6562E+02
      0.124  0.6226E+02  0.6828E+02
      0.167  0.6509E+02  0.7107E+02
      0.210  0.6849E+02  0.7400E+02
      0.252  0.7211E+02  0.7708E+02
      0.295  0.7557E+02  0.8031E+02
      0.338  0.7863E+02  0.8367E+02
      0.381  0.8117E+02  0.8714E+02
      0.423  0.8320E+02  0.9070E+02
      0.466  0.8477E+02  0.9433E+02
      0.509  0.8585E+02  0.9800E+02
      0.552  0.8643E+02  0.1017E+03
      0.594  0.8651E+02  0.1054E+03
      0.637  0.8619E+02  0.1091E+03
      0.680  0.8555E+02  0.1127E+03
      0.723  0.8459E+02  0.1164E+03
      0.766  0.8323E+02  0.1199E+03
      0.808  0.8150E+02  0.1234E+03
      0.851  0.7963E+02  0.1268E+03
      0.894  0.7801E+02  0.1301E+03
      0.937  0.7694E+02  0.1334E+03
      0.979  0.7643E+02  0.1367E+03
      1.022  0.7621E+02  0.1400E+03
      1.065  0.7592E+02  0.1432E+03
      1.108  0.7532E+02  0.1464E+03
      1.150  0.7441E+02  0.1496E+03
      1.193  0.7353E+02  0.1528E+03
      1.236  0.7306E+02  0.1559E+03
      1.279  0.7318E+02  0.1590E+03
      1.321  0.7363E+02  0.1622E+03
      1.364  0.7383E+02  0.1653E+03
      1.407  0.7325E+02  0.1684E+03
      1.450  0.7180E+02  0.1715E+03
      1.492  0.6994E+02  0.1745E+03
      1.535  0.6837E+02  0.1774E+03
      1.578  0.6765E+02  0.1803E+03
      1.621  0.6801E+02  0.1832E+03
      1.664  0.6934E+02  0.1862E+03
      1.706  0.7138E+02  0.1892E+03
      1.749  0.7378E+02  0.1924E+03
      1.792  0.7627E+02  0.1957E+03
      1.835  0.7867E+02  0.1990E+03
      1.877  0.8085E+02  0.2025E+03
      1.920  0.8278E+02  0.2060E+03
      1.963  0.8450E+02  0.2096E+03
      2.006  0.8609E+02  0.2133E+03
      2.048  0.8763E+02  0.2171E+03
      2.091  0.8918E+02  0.2209E+03
      2.134  0.9075E+02  0.2248E+03
      2.177  0.9232E+02  0.2287E+03
      2.219  0.9392E+02  0.2327E+03
      2.262  0.9565E+02  0.2368E+03
      2.305  0.9774E+02  0.2410E+03
      2.348  0.1005E+03  0.2453E+03
      2.390  0.1040E+03  0.2497E+03
      2.433  0.1082E+03  0.2544E+03
      2.476  0.1128E+03  0.2592E+03
      2.519  0.1173E+03  0.2642E+03
      2.562  0.1212E+03  0.2694E+03
      2.604  0.1243E+03  0.2747E+03
      2.647  0.1265E+03  0.2801E+03
      2.690  0.1279E+03  0.2856E+03
      2.733  0.1287E+03  0.2911E+03
      2.775  0.1295E+03  0.2966E+03
      2.818  0.1309E+03  0.3022E+03
      2.861  0.1332E+03  0.3079E+03
      2.904  0.1365E+03  0.3138E+03
      2.946  0.1399E+03  0.3197E+03
      2.989  0.1420E+03  0.3258E+03
      3.032  0.1413E+03  0.3318E+03
      3.075  0.1370E+03  0.3377E+03
      3.117  0.1294E+03  0.3432E+03
      3.160  0.1200E+03  0.3484E+03
      3.203  0.1106E+03  0.3531E+03
      3.246  0.1026E+03  0.3575E+03
      3.288  0.9673E+02  0.3616E+03
      3.331  0.9312E+02  0.3656E+03
      3.374  0.9135E+02  0.3695E+03
      3.417  0.9074E+02  0.3734E+03
      3.460  0.9049E+02  0.3773E+03
      3.502  0.8987E+02  0.3811E+03
      3.545  0.8847E+02  0.3849E+03
      3.588  0.8647E+02  0.3886E+03
      3.631  0.8453E+02  0.3922E+03
      3.673  0.8353E+02  0.3958E+03
      3.716  0.8402E+02  0.3994E+03
      3.759  0.8596E+02  0.4030E+03
      3.802  0.8880E+02  0.4068E+03
      3.844  0.9179E+02  0.4108E+03
      3.887  0.9444E+02  0.4148E+03
      3.930  0.9662E+02  0.4189E+03
      3.973  0.9845E+02  0.4231E+03
      4.015  0.1001E+03  0.4274E+03
      4.058  0.1015E+03  0.4318E+03
      4.101  0.1025E+03  0.4361E+03
      4.144  0.1028E+03  0.4405E+03
      4.187  0.1024E+03  0.4449E+03
      4.229  0.1014E+03  0.4493E+03
      4.272  0.1003E+03  0.4536E+03
      4.315  0.9931E+02  0.4578E+03
      4.358  0.9888E+02  0.4620E+03
      4.400  0.9902E+02  0.4663E+03
      4.443  0.9954E+02  0.4705E+03
      4.486  0.1001E+03  0.4748E+03
      4.529  0.1003E+03  0.4791E+03
      4.571  0.1000E+03  0.4834E+03
      4.614  0.9926E+02  0.4876E+03
      4.657  0.9845E+02  0.4918E+03
      4.700  0.9809E+02  0.4960E+03
      4.742  0.9862E+02  0.5002E+03
      4.785  0.1003E+03  0.5045E+03
      4.828  0.1029E+03  0.5089E+03
      4.871  0.1061E+03  0.5135E+03
      4.913  0.1092E+03  0.5181E+03
      4.956  0.1118E+03  0.5229E+03
      4.999  0.1132E+03  0.5277E+03
      5.042  0.1126E+03  0.5326E+03
      5.085  0.1089E+03  0.5372E+03
      5.127  0.1012E+03  0.5415E+03
      5.170  0.8900E+02  0.5454E+03
      5.213  0.7295E+02  0.5485E+03
      5.256  0.5496E+02  0.5508E+03
      5.298  0.3761E+02  0.5524E+03
      5.341  0.2313E+02  0.5534E+03
      5.384  0.1268E+02  0.5540E+03
      5.427  0.6163E+01  0.5542E+03
      5.469  0.2639E+01  0.5543E+03
      5.512  0.9920E+00  0.5544E+03
      5.555  0.3262E+00  0.5544E+03
      5.598  0.9360E-01  0.5544E+03
      5.640  0.2338E-01  0.5544E+03
      5.683  0.5073E-02  0.5544E+03
      5.726  0.9545E-03  0.5544E+03
      5.769  0.1555E-03  0.5544E+03
      5.811  0.2191E-04  0.5544E+03
      5.854  0.2666E-05  0.5544E+03
      5.897  0.2798E-06  0.5544E+03
      5.940  0.2531E-07  0.5544E+03
      5.983  0.1970E-08  0.5544E+03
      6.025  0.1319E-09  0.5544E+03
      6.068  0.7586E-11  0.5544E+03
      6.111  0.3737E-12  0.5544E+03
      6.154  0.1499E-13  0.5544E+03
      6.196  0.2596E-15  0.5544E+03
      6.239  0.0000E+00  0.5544E+03
      6.282  0.0000E+00  0.5544E+03
      6.325  0.0000E+00  0.5544E+03
      6.367  0.0000E+00  0.5544E+03
      6.410  0.0000E+00  0.5544E+03
      6.453  0.0000E+00  0.5544E+03
      6.496  0.0000E+00  0.5544E+03
      6.538  0.0000E+00  0.5544E+03
      6.581  0.0000E+00  0.5544E+03
      6.624  0.0000E+00  0.5544E+03
      6.667  0.0000E+00  0.5544E+03
      6.709  0.0000E+00  0.5544E+03
      6.752  0.0000E+00  0.5544E+03
      6.795  0.0000E+00  0.5544E+03
