<?xml version="1.0" encoding="ISO-8859-1"?>
<modeling>
 <generator>
  <i name="program" type="string">vasp </i>
  <i name="version" type="string">5.4.4.18Apr17-6-g9f103f2a35  </i>
  <i name="subversion" type="string">(build Sep 27 2018 12:46:37) complex + VL-xray_ parallel </i>
  <i name="platform" type="string">LLNL_Quartz_ifc </i>
  <i name="date" type="string">2021 09 26 </i>
  <i name="time" type="string">22:05:42 </i>
 </generator>
 <incar>
  <i type="int" name="ISTART">     2</i>
  <i type="string" name="PREC">accurate</i>
  <i type="string" name="ALGO"> Fast</i>
  <i type="int" name="ICHARG">     2</i>
  <i type="int" name="INIWAV">     1</i>
  <i type="int" name="NELM">   100</i>
  <i type="int" name="NELMIN">     4</i>
  <i type="int" name="IBRION">     2</i>
  <i name="EDIFF">      0.00000100</i>
  <i type="int" name="NSW">     5</i>
  <i type="int" name="ISIF">     2</i>
  <i type="int" name="ISYM">     2</i>
  <i name="ENCUT">    450.00000000</i>
  <i name="POTIM">      0.25000000</i>
  <i type="string" name="LREAL"> Auto</i>
  <i type="int" name="ISMEAR">     0</i>
  <i name="SIGMA">      0.15000000</i>
  <i type="logical" name="LWAVE"> F  </i>
  <i type="logical" name="LCHARG"> F  </i>
  <i type="int" name="ICORELEVEL">     0</i>
  <i type="int" name="CLNT">     1</i>
  <i type="int" name="CLN">     1</i>
  <i type="int" name="INCAR     ">     0</i>
  <i name="CLZ">      0.00000000</i>
  <v type="int" name="KPOINT_BSE">    -1     0     0     0</v>
  <i type="int" name="NELM">   100</i>
 </incar>
 <structure name="primitive_cell" >
  <crystal>
   <varray name="basis" >
    <v>       9.72667804       0.00000000       0.00000000 </v>
    <v>       0.00000000       8.42355028       0.00000000 </v>
    <v>       0.00000000       0.00000000      45.00000000 </v>
   </varray>
   <i name="volume">   3686.99226691 </i>
   <varray name="rec_basis" >
    <v>       0.10281002       0.00000000       0.00000000 </v>
    <v>       0.00000000       0.11871479       0.00000000 </v>
    <v>       0.00000000       0.00000000       0.02222222 </v>
   </varray>
  </crystal>
  <varray name="positions" >
   <v>       0.06188525       0.03106498       0.12432081 </v>
   <v>       0.18322738       0.11244896       0.16653345 </v>
   <v>       0.05578485      -0.13424922       0.16679040 </v>
   <v>       0.18607489      -0.21147480       0.12425002 </v>
   <v>      -0.06629997      -0.21149477       0.12464294 </v>
   <v>      -0.18648095       0.03139605       0.12432890 </v>
   <v>      -0.06883238       0.11487071       0.16729627 </v>
   <v>       0.31113602       0.03149475       0.12438946 </v>
   <v>       0.18463914       0.28765823       0.12448238 </v>
   <v>      -0.06551830       0.28791555       0.12439029 </v>
   <v>       0.30523914      -0.13440490       0.16613051 </v>
   <v>       0.05489112       0.36599615       0.16676619 </v>
   <v>      -0.19343755      -0.13553823       0.16727305 </v>
   <v>       0.43208983       0.11307556       0.16664491 </v>
   <v>       0.30707819       0.36391785       0.16684169 </v>
   <v>      -0.05961506      -0.04470596       0.21161964 </v>
   <v>       0.43443239      -0.21210135       0.12443709 </v>
   <v>       0.18255981      -0.38606349       0.16673058 </v>
   <v>       0.18914292      -0.04359915       0.21204330 </v>
   <v>       0.06505428       0.20531529       0.21165733 </v>
   <v>      -0.06717808      -0.38693253       0.16682632 </v>
   <v>      -0.31585348      -0.21125954       0.12470717 </v>
   <v>       0.06166403      -0.46888004       0.12434547 </v>
   <v>       0.43440725       0.28766063       0.12455441 </v>
   <v>      -0.19510495       0.36658674       0.16649895 </v>
   <v>      -0.31750061       0.11454802       0.16724967 </v>
   <v>      -0.31373695       0.28846878       0.12427207 </v>
   <v>       0.06675830      -0.29439134       0.21170286 </v>
   <v>      -0.18500888       0.20496902       0.21161575 </v>
   <v>      -0.18717048      -0.46970076       0.12430218 </v>
   <v>      -0.43739147       0.03259107       0.12455393 </v>
   <v>       0.31253068      -0.46795001       0.12430395 </v>
   <v>       0.31588244       0.20548638       0.21209564 </v>
   <v>      -0.44432158      -0.13495408       0.16666358 </v>
   <v>      -0.18354798      -0.29475243       0.21172149 </v>
   <v>       0.43180868      -0.38612204       0.16665132 </v>
   <v>      -0.31073436      -0.04399711       0.21193284 </v>
   <v>       0.31498758      -0.29584598       0.21240786 </v>
   <v>       0.43942740      -0.04278436       0.21235318 </v>
   <v>      -0.31748918      -0.38770805       0.16675549 </v>
   <v>       0.18926201       0.45521059       0.21172998 </v>
   <v>      -0.06010504       0.45612055       0.21204725 </v>
   <v>      -0.44377610       0.36579511       0.16672050 </v>
   <v>       0.05908183       0.03847778       0.25615911 </v>
   <v>       0.18433915      -0.21051141       0.25599325 </v>
   <v>       0.30942290       0.03893853       0.25567988 </v>
   <v>      -0.06623016      -0.21072235       0.25600526 </v>
   <v>      -0.43407228       0.20338096       0.21195226 </v>
   <v>      -0.43692242      -0.47036723       0.12485244 </v>
   <v>      -0.19079899       0.03829807       0.25616018 </v>
   <v>       0.18413179       0.28939526       0.25611534 </v>
   <v>      -0.06581999       0.28962567       0.25607538 </v>
   <v>      -0.31098044       0.45618519       0.21209894 </v>
   <v>       0.43977860       0.45624276       0.21189238 </v>
   <v>      -0.43474665      -0.29546186       0.21172201 </v>
   <v>       0.06005273      -0.46162985       0.25606877 </v>
   <v>       0.43381422      -0.21037965       0.25617438 </v>
   <v>      -0.31603548      -0.21058107       0.25615831 </v>
   <v>       0.43379399       0.28978937       0.25613289 </v>
   <v>      -0.31564824       0.28977635       0.25606927 </v>
   <v>       0.30878967      -0.46201469       0.25560801 </v>
   <v>      -0.44069150       0.03879431       0.25589993 </v>
   <v>      -0.19101071      -0.46167185       0.25626901 </v>
   <v>       0.06891680      -0.12510356       0.30046127 </v>
   <v>      -0.05508382       0.12381061       0.30037611 </v>
   <v>       0.19432838       0.12467706       0.30048639 </v>
   <v>      -0.18077323      -0.12505799       0.30039727 </v>
   <v>       0.31918031      -0.12563717       0.30041240 </v>
   <v>       0.06890574       0.37491479       0.30043653 </v>
   <v>      -0.05591164      -0.37557457       0.30019074 </v>
   <v>      -0.44099202      -0.46133681       0.25611842 </v>
   <v>      -0.30531272       0.12440514       0.30044490 </v>
   <v>       0.19405386      -0.37551100       0.30055262 </v>
   <v>      -0.18063011       0.37489682       0.30038152 </v>
   <v>       0.44414039       0.12486328       0.30051621 </v>
   <v>       0.31926696       0.37436716       0.30042181 </v>
   <v>      -0.30599946      -0.37506285       0.30039988 </v>
   <v>      -0.43079017      -0.12519480       0.30052606 </v>
   <v>       0.44465835      -0.37507725       0.30055544 </v>
   <v>      -0.43079829       0.37470663       0.30051125 </v>
   <v>      -0.06601634      -0.04840261       0.34491851 </v>
   <v>       0.18372379      -0.04735044       0.34510553 </v>
   <v>       0.05875853       0.20284427       0.34505297 </v>
   <v>       0.05865629      -0.29763107       0.34498003 </v>
   <v>       0.30923844       0.20277946       0.34504361 </v>
   <v>      -0.19101202       0.20260537       0.34506238 </v>
   <v>       0.30887719      -0.29740654       0.34496803 </v>
   <v>       0.43348215      -0.04744565       0.34512304 </v>
   <v>      -0.19128428      -0.29720466       0.34509889 </v>
   <v>      -0.31656778      -0.04832522       0.34491879 </v>
   <v>      -0.06631477       0.45223497       0.34490408 </v>
   <v>       0.18381517       0.45285258       0.34512318 </v>
   <v>      -0.44106432       0.20274744       0.34502311 </v>
   <v>       0.43356611       0.45249487       0.34509844 </v>
   <v>      -0.31659298       0.45234729       0.34507879 </v>
   <v>       0.06568114       0.03731802      -0.12468308 </v>
   <v>      -0.44083234      -0.29726367       0.34505392 </v>
   <v>       0.18762633      -0.20530658      -0.12438453 </v>
   <v>      -0.06236654      -0.20656952      -0.12482192 </v>
   <v>      -0.18694558       0.03949968      -0.12456783 </v>
   <v>       0.31461106       0.03965479      -0.12444408 </v>
   <v>       0.18852171       0.29405038      -0.12426202 </v>
   <v>      -0.06459557       0.29596196      -0.12473271 </v>
   <v>       0.06652528       0.03775707       0.38909141 </v>
   <v>       0.43688951      -0.20487100      -0.12431575 </v>
   <v>       0.06482738      -0.46171007      -0.12447131 </v>
   <v>      -0.31524520      -0.20491355      -0.12457805 </v>
   <v>       0.43678501       0.29596105      -0.12405188 </v>
   <v>      -0.31364331       0.29716768      -0.12425085 </v>
   <v>      -0.05881836      -0.21241014       0.38906156 </v>
   <v>       0.19176743      -0.21214304       0.38908736 </v>
   <v>      -0.18269436       0.03871529       0.38924150 </v>
   <v>      -0.05880709       0.28686306       0.38897420 </v>
   <v>       0.31612990       0.03699976       0.38906197 </v>
   <v>       0.19125089       0.28765749       0.38908685 </v>
   <v>       0.31457449      -0.46135585      -0.12420452 </v>
   <v>      -0.18650401      -0.46153514      -0.12442676 </v>
   <v>      -0.43646512       0.03885104      -0.12422992 </v>
   <v>      -0.30837230      -0.21213690       0.38909451 </v>
   <v>       0.06709863      -0.46191868       0.38908381 </v>
   <v>      -0.30868925       0.28751641       0.38907477 </v>
   <v>       0.44134181      -0.21227408       0.38907752 </v>
   <v>       0.44156480       0.28773716       0.38910557 </v>
   <v>      -0.18363472      -0.46248081       0.38908443 </v>
   <v>      -0.43354640       0.03765775       0.38907348 </v>
   <v>       0.31624481      -0.46223342       0.38905555 </v>
   <v>      -0.43644242      -0.46094635      -0.12433419 </v>
   <v>      -0.05830522      -0.03693694      -0.16644829 </v>
   <v>       0.19128318      -0.03744773      -0.16669355 </v>
   <v>       0.06641962       0.21338977      -0.16637186 </v>
   <v>       0.06593305      -0.28490129      -0.16638149 </v>
   <v>      -0.18225711       0.21390496      -0.16665225 </v>
   <v>       0.31677776       0.21181700      -0.16667175 </v>
   <v>      -0.43372583      -0.46243759       0.38909314 </v>
   <v>      -0.18316678      -0.28569127      -0.16694197 </v>
   <v>      -0.30842826      -0.03835363      -0.16688344 </v>
   <v>       0.31761280      -0.28756837      -0.16718474 </v>
   <v>      -0.05840465       0.46268205      -0.16647074 </v>
   <v>       0.44269514      -0.03817034      -0.16691964 </v>
   <v>       0.19172702       0.46250600      -0.16683322 </v>
   <v>       0.06213880      -0.12897508       0.43443901 </v>
   <v>       0.18769720       0.12024442       0.43439146 </v>
   <v>      -0.06296800       0.12029140       0.43460716 </v>
   <v>      -0.43409587       0.21286700      -0.16699562 </v>
   <v>      -0.30804060       0.46133215      -0.16694792 </v>
   <v>       0.44167056       0.46230651      -0.16686239 </v>
   <v>      -0.43367855      -0.28737624      -0.16692743 </v>
   <v>      -0.18843862      -0.12897775       0.43421230 </v>
   <v>       0.31199576      -0.12971408       0.43447343 </v>
   <v>       0.06232113       0.37075314       0.43441989 </v>
   <v>       0.18707402      -0.37968502       0.43443975 </v>
   <v>      -0.06268087      -0.37956035       0.43445912 </v>
   <v>      -0.31241751       0.11995517       0.43440848 </v>
   <v>       0.43691138       0.12065613       0.43438419 </v>
   <v>      -0.18810913       0.37161410       0.43426233 </v>
   <v>       0.31211795       0.37047594       0.43443852 </v>
   <v>      -0.31218775      -0.37960747       0.43443904 </v>
   <v>       0.43724180      -0.37971063       0.43444522 </v>
   <v>      -0.43753275      -0.12951767       0.43446232 </v>
   <v>      -0.43791585       0.37042234       0.43445575 </v>
   <v>       0.06024928      -0.12733951      -0.21177136 </v>
   <v>       0.18508452       0.12139223      -0.21167179 </v>
   <v>      -0.06467113       0.12268522      -0.21165962 </v>
   <v>      -0.18991832      -0.12781901      -0.21180446 </v>
   <v>       0.31139274      -0.12858962      -0.21195230 </v>
   <v>       0.06082436       0.37299974      -0.21187688 </v>
   <v>       0.43525144       0.12113034      -0.21133456 </v>
   <v>       0.18541690      -0.37922647      -0.21191633 </v>
   <v>      -0.06585934      -0.37748778      -0.21199474 </v>
   <v>      -0.31644009       0.12194937      -0.21167673 </v>
   <v>       0.31067246       0.37211609      -0.21178326 </v>
   <v>      -0.18932080       0.37280526      -0.21181392 </v>
   <v>       0.43440084      -0.37880541      -0.21150745 </v>
   <v>      -0.43967650      -0.12790079      -0.21169723 </v>
   <v>      -0.31499612      -0.37860446      -0.21184137 </v>
   <v>       0.18729832      -0.04417044       0.47865446 </v>
   <v>      -0.06279882      -0.04468561       0.47869091 </v>
   <v>       0.06252378       0.20580122       0.47866320 </v>
   <v>      -0.43960027       0.37162231      -0.21162680 </v>
   <v>       0.06224896      -0.29425918       0.47858375 </v>
   <v>      -0.18789335       0.20575333       0.47867641 </v>
   <v>       0.31224956       0.20569198       0.47865987 </v>
   <v>      -0.18761439      -0.29434991       0.47865303 </v>
   <v>       0.31227179      -0.29431370       0.47864962 </v>
   <v>      -0.31270494      -0.04427823       0.47864228 </v>
   <v>       0.43723830      -0.04430962       0.47863633 </v>
   <v>      -0.06274396       0.45567931       0.47865107 </v>
   <v>       0.18711422       0.45555535       0.47867334 </v>
   <v>      -0.43781824       0.20572569       0.47862613 </v>
   <v>      -0.31287216       0.45559700       0.47862794 </v>
   <v>       0.43725798       0.45574210       0.47861683 </v>
   <v>      -0.43779568      -0.29428553       0.47861137 </v>
   <v>       0.06552767       0.03987815      -0.25604918 </v>
   <v>      -0.05943544      -0.20993981      -0.25586614 </v>
   <v>       0.19044544      -0.20975338      -0.25600333 </v>
   <v>      -0.18452672       0.04034209      -0.25612667 </v>
   <v>      -0.05996872       0.28957582      -0.25601360 </v>
   <v>       0.31531420       0.04062409      -0.25613485 </v>
   <v>       0.19108573       0.29039011      -0.25608748 </v>
   <v>       0.06553731      -0.46016643      -0.25600168 </v>
   <v>      -0.30991925      -0.20902973      -0.25597737 </v>
   <v>       0.43989732      -0.20937487      -0.25594445 </v>
   <v>      -0.30947668       0.29032884      -0.25608453 </v>
   <v>       0.43990784       0.29086879      -0.25597984 </v>
   <v>      -0.18431555      -0.46009741      -0.25605416 </v>
   <v>       0.31551503      -0.45987809      -0.25587703 </v>
   <v>      -0.43414899       0.04045788      -0.25610455 </v>
   <v>       0.06164899      -0.12871702      -0.47865452 </v>
   <v>       0.18665468       0.12127343      -0.47864256 </v>
   <v>      -0.06359067       0.12127224      -0.47861081 </v>
   <v>       0.31161395      -0.12853780      -0.47866203 </v>
   <v>      -0.18844068      -0.12876350      -0.47866592 </v>
   <v>       0.06126452       0.37172495      -0.47861161 </v>
   <v>      -0.06356110      -0.37855260      -0.47860453 </v>
   <v>       0.18673317      -0.37872805      -0.47857883 </v>
   <v>       0.43651164       0.12131238      -0.47867170 </v>
   <v>      -0.31343995       0.12133757      -0.47866554 </v>
   <v>       0.31153296       0.37137937      -0.47869952 </v>
   <v>      -0.18833460       0.37167602      -0.47863312 </v>
   <v>      -0.43443317      -0.45939831      -0.25613773 </v>
   <v>      -0.31353457      -0.37857036      -0.47874081 </v>
   <v>       0.43658820      -0.37834104      -0.47866758 </v>
   <v>      -0.43822873      -0.12824168      -0.47862340 </v>
   <v>      -0.43844092       0.37136156      -0.47868392 </v>
   <v>       0.18512112      -0.04185383      -0.30031757 </v>
   <v>      -0.06483962      -0.04175281      -0.30044548 </v>
   <v>       0.06031609       0.20798091      -0.30043593 </v>
   <v>       0.06041868      -0.29213881      -0.30044204 </v>
   <v>       0.31037296       0.20791335      -0.30037360 </v>
   <v>      -0.18952532       0.20771598      -0.30038558 </v>
   <v>       0.31031624      -0.29227253      -0.30042045 </v>
   <v>      -0.18982651      -0.29204445      -0.30044282 </v>
   <v>       0.43511925      -0.04200871      -0.30044609 </v>
   <v>      -0.31491854      -0.04199032      -0.30040269 </v>
   <v>       0.18499721       0.45798473      -0.30045443 </v>
   <v>      -0.06500209       0.45798883      -0.30042276 </v>
   <v>      -0.43962622       0.20769981      -0.30041581 </v>
   <v>       0.43534801       0.45795032      -0.30045815 </v>
   <v>      -0.31499073       0.45806188      -0.30040452 </v>
   <v>      -0.06309334      -0.04258700      -0.43456209 </v>
   <v>       0.18705874      -0.04267880      -0.43455054 </v>
   <v>       0.06252085       0.20728357      -0.43463666 </v>
   <v>      -0.43961983      -0.29238099      -0.30043222 </v>
   <v>       0.06176866      -0.29363603      -0.43449217 </v>
   <v>      -0.18857305       0.20666067      -0.43458665 </v>
   <v>       0.31143517       0.20659721      -0.43452601 </v>
   <v>       0.31182826      -0.29302997      -0.43459052 </v>
   <v>      -0.18840475      -0.29338199      -0.43454410 </v>
   <v>       0.43698644      -0.04279469      -0.43458722 </v>
   <v>      -0.31258518      -0.04277554      -0.43453786 </v>
   <v>       0.18715906       0.45720119      -0.43454789 </v>
   <v>      -0.06319869       0.45676979      -0.43443832 </v>
   <v>      -0.43773209       0.20716072      -0.43452797 </v>
   <v>      -0.31302614       0.45708233      -0.43456949 </v>
   <v>       0.43700366       0.45728033      -0.43453528 </v>
   <v>      -0.43803482      -0.29293221      -0.43450186 </v>
   <v>       0.06639418      -0.12540191      -0.34509962 </v>
   <v>      -0.05854478       0.12495995      -0.34509189 </v>
   <v>       0.19150757       0.12496168      -0.34510536 </v>
   <v>      -0.18362763      -0.12516420      -0.34506665 </v>
   <v>       0.31652694      -0.12521047      -0.34514672 </v>
   <v>       0.06644359       0.37473758      -0.34508441 </v>
   <v>      -0.05845362      -0.37487251      -0.34513511 </v>
   <v>       0.19148556      -0.37511106      -0.34508899 </v>
   <v>      -0.30860048       0.12480491      -0.34509663 </v>
   <v>      -0.18354303       0.37471747      -0.34510017 </v>
   <v>       0.44146252       0.12479160      -0.34519078 </v>
   <v>       0.31647178       0.37471359      -0.34512003 </v>
   <v>      -0.30867968      -0.37513489      -0.34505493 </v>
   <v>      -0.43382831      -0.12558289      -0.34509483 </v>
   <v>       0.44138946      -0.37508473      -0.34510855 </v>
   <v>      -0.43340017       0.37472718      -0.34515091 </v>
   <v>       0.05873442       0.03782281      -0.38915722 </v>
   <v>       0.18354077      -0.21195312      -0.38913942 </v>
   <v>      -0.06628958      -0.21234239      -0.38909498 </v>
   <v>       0.30859847       0.03791051      -0.38904978 </v>
   <v>      -0.19120246       0.03786007      -0.38913557 </v>
   <v>       0.18367902       0.28802780      -0.38912315 </v>
   <v>      -0.06629139       0.28792606      -0.38915059 </v>
   <v>       0.43372811      -0.21213116      -0.38912323 </v>
   <v>       0.05862189      -0.46230925      -0.38909776 </v>
   <v>       0.43358463       0.28809975      -0.38915760 </v>
   <v>      -0.31641392      -0.21202033      -0.38912867 </v>
   <v>      -0.31642063       0.28799881      -0.38910555 </v>
   <v>       0.30874097      -0.46210861      -0.38912802 </v>
   <v>      -0.19123894      -0.46209474      -0.38909645 </v>
   <v>      -0.44115589       0.03797969      -0.38907559 </v>
   <v>      -0.44138130      -0.46198573      -0.38914495 </v>
  </varray>
 </structure>
 <varray name="primitive_index" >
  <v type="int" >        1 </v>
  <v type="int" >      125 </v>
  <v type="int" >       60 </v>
  <v type="int" >       83 </v>
  <v type="int" >       44 </v>
  <v type="int" >      202 </v>
  <v type="int" >       26 </v>
  <v type="int" >      256 </v>
  <v type="int" >      111 </v>
  <v type="int" >      155 </v>
  <v type="int" >      277 </v>
  <v type="int" >       51 </v>
  <v type="int" >      102 </v>
  <v type="int" >      182 </v>
  <v type="int" >      108 </v>
  <v type="int" >      212 </v>
  <v type="int" >      170 </v>
  <v type="int" >       20 </v>
  <v type="int" >      146 </v>
  <v type="int" >       50 </v>
  <v type="int" >      104 </v>
  <v type="int" >      163 </v>
  <v type="int" >      176 </v>
  <v type="int" >      117 </v>
  <v type="int" >      284 </v>
  <v type="int" >      166 </v>
  <v type="int" >      145 </v>
  <v type="int" >      250 </v>
  <v type="int" >      167 </v>
  <v type="int" >      205 </v>
  <v type="int" >      114 </v>
  <v type="int" >       91 </v>
  <v type="int" >      278 </v>
  <v type="int" >      192 </v>
  <v type="int" >      213 </v>
  <v type="int" >      174 </v>
  <v type="int" >       92 </v>
  <v type="int" >      276 </v>
  <v type="int" >      229 </v>
  <v type="int" >       97 </v>
  <v type="int" >      189 </v>
  <v type="int" >      175 </v>
  <v type="int" >       30 </v>
  <v type="int" >      185 </v>
  <v type="int" >      200 </v>
  <v type="int" >      179 </v>
  <v type="int" >       52 </v>
  <v type="int" >      103 </v>
  <v type="int" >      283 </v>
  <v type="int" >       24 </v>
  <v type="int" >      112 </v>
  <v type="int" >      127 </v>
  <v type="int" >      261 </v>
  <v type="int" >      139 </v>
  <v type="int" >      243 </v>
  <v type="int" >      168 </v>
  <v type="int" >      137 </v>
  <v type="int" >      118 </v>
  <v type="int" >      265 </v>
  <v type="int" >       58 </v>
  <v type="int" >      275 </v>
  <v type="int" >      221 </v>
  <v type="int" >       81 </v>
  <v type="int" >      214 </v>
  <v type="int" >      135 </v>
  <v type="int" >      215 </v>
  <v type="int" >       72 </v>
  <v type="int" >       98 </v>
  <v type="int" >      226 </v>
  <v type="int" >      178 </v>
  <v type="int" >       28 </v>
  <v type="int" >      109 </v>
  <v type="int" >      263 </v>
  <v type="int" >      220 </v>
  <v type="int" >      159 </v>
  <v type="int" >      242 </v>
  <v type="int" >      130 </v>
  <v type="int" >      210 </v>
  <v type="int" >      101 </v>
  <v type="int" >      171 </v>
  <v type="int" >      194 </v>
  <v type="int" >      258 </v>
  <v type="int" >       47 </v>
  <v type="int" >      216 </v>
  <v type="int" >       86 </v>
  <v type="int" >      207 </v>
  <v type="int" >      208 </v>
  <v type="int" >      172 </v>
  <v type="int" >       73 </v>
  <v type="int" >       25 </v>
  <v type="int" >       12 </v>
  <v type="int" >      116 </v>
  <v type="int" >      219 </v>
  <v type="int" >      206 </v>
  <v type="int" >       48 </v>
  <v type="int" >      282 </v>
  <v type="int" >      164 </v>
  <v type="int" >      268 </v>
  <v type="int" >      281 </v>
  <v type="int" >       14 </v>
  <v type="int" >      245 </v>
  <v type="int" >      120 </v>
  <v type="int" >      280 </v>
  <v type="int" >      124 </v>
  <v type="int" >      150 </v>
  <v type="int" >      266 </v>
  <v type="int" >       29 </v>
  <v type="int" >      255 </v>
  <v type="int" >      191 </v>
  <v type="int" >      190 </v>
  <v type="int" >      287 </v>
  <v type="int" >      279 </v>
  <v type="int" >       13 </v>
  <v type="int" >      165 </v>
  <v type="int" >      248 </v>
  <v type="int" >       18 </v>
  <v type="int" >      231 </v>
  <v type="int" >      161 </v>
  <v type="int" >       45 </v>
  <v type="int" >      273 </v>
  <v type="int" >       84 </v>
  <v type="int" >      264 </v>
  <v type="int" >        4 </v>
  <v type="int" >      123 </v>
  <v type="int" >       16 </v>
  <v type="int" >       67 </v>
  <v type="int" >       64 </v>
  <v type="int" >       17 </v>
  <v type="int" >        7 </v>
  <v type="int" >      259 </v>
  <v type="int" >      134 </v>
  <v type="int" >        6 </v>
  <v type="int" >       39 </v>
  <v type="int" >      222 </v>
  <v type="int" >      253 </v>
  <v type="int" >       88 </v>
  <v type="int" >        5 </v>
  <v type="int" >       36 </v>
  <v type="int" >      110 </v>
  <v type="int" >      181 </v>
  <v type="int" >      285 </v>
  <v type="int" >      160 </v>
  <v type="int" >      158 </v>
  <v type="int" >      143 </v>
  <v type="int" >       82 </v>
  <v type="int" >       74 </v>
  <v type="int" >      241 </v>
  <v type="int" >      235 </v>
  <v type="int" >       23 </v>
  <v type="int" >      218 </v>
  <v type="int" >      238 </v>
  <v type="int" >      131 </v>
  <v type="int" >      257 </v>
  <v type="int" >      201 </v>
  <v type="int" >       80 </v>
  <v type="int" >      113 </v>
  <v type="int" >      232 </v>
  <v type="int" >      249 </v>
  <v type="int" >       69 </v>
  <v type="int" >      251 </v>
  <v type="int" >      197 </v>
  <v type="int" >        3 </v>
  <v type="int" >      149 </v>
  <v type="int" >       55 </v>
  <v type="int" >      224 </v>
  <v type="int" >      254 </v>
  <v type="int" >       49 </v>
  <v type="int" >      272 </v>
  <v type="int" >      132 </v>
  <v type="int" >      188 </v>
  <v type="int" >      138 </v>
  <v type="int" >       57 </v>
  <v type="int" >      184 </v>
  <v type="int" >       33 </v>
  <v type="int" >       66 </v>
  <v type="int" >       94 </v>
  <v type="int" >      236 </v>
  <v type="int" >      223 </v>
  <v type="int" >      106 </v>
  <v type="int" >      157 </v>
  <v type="int" >       21 </v>
  <v type="int" >      230 </v>
  <v type="int" >      234 </v>
  <v type="int" >       99 </v>
  <v type="int" >       75 </v>
  <v type="int" >      105 </v>
  <v type="int" >      269 </v>
  <v type="int" >      244 </v>
  <v type="int" >      237 </v>
  <v type="int" >      199 </v>
  <v type="int" >      156 </v>
  <v type="int" >      169 </v>
  <v type="int" >        9 </v>
  <v type="int" >       46 </v>
  <v type="int" >      262 </v>
  <v type="int" >      151 </v>
  <v type="int" >      187 </v>
  <v type="int" >      239 </v>
  <v type="int" >       11 </v>
  <v type="int" >      211 </v>
  <v type="int" >       43 </v>
  <v type="int" >       31 </v>
  <v type="int" >       19 </v>
  <v type="int" >       71 </v>
  <v type="int" >       87 </v>
  <v type="int" >      288 </v>
  <v type="int" >      267 </v>
  <v type="int" >       27 </v>
  <v type="int" >      140 </v>
  <v type="int" >      286 </v>
  <v type="int" >      144 </v>
  <v type="int" >       10 </v>
  <v type="int" >      107 </v>
  <v type="int" >      203 </v>
  <v type="int" >       68 </v>
  <v type="int" >      119 </v>
  <v type="int" >       34 </v>
  <v type="int" >      183 </v>
  <v type="int" >      177 </v>
  <v type="int" >      270 </v>
  <v type="int" >      195 </v>
  <v type="int" >      252 </v>
  <v type="int" >       77 </v>
  <v type="int" >      247 </v>
  <v type="int" >      173 </v>
  <v type="int" >      225 </v>
  <v type="int" >       37 </v>
  <v type="int" >      274 </v>
  <v type="int" >       63 </v>
  <v type="int" >      233 </v>
  <v type="int" >      154 </v>
  <v type="int" >      141 </v>
  <v type="int" >       38 </v>
  <v type="int" >       54 </v>
  <v type="int" >      246 </v>
  <v type="int" >      152 </v>
  <v type="int" >       53 </v>
  <v type="int" >      193 </v>
  <v type="int" >       76 </v>
  <v type="int" >      129 </v>
  <v type="int" >      162 </v>
  <v type="int" >       62 </v>
  <v type="int" >      133 </v>
  <v type="int" >       65 </v>
  <v type="int" >      271 </v>
  <v type="int" >       93 </v>
  <v type="int" >       90 </v>
  <v type="int" >       32 </v>
  <v type="int" >       56 </v>
  <v type="int" >       95 </v>
  <v type="int" >       59 </v>
  <v type="int" >       42 </v>
  <v type="int" >        8 </v>
  <v type="int" >      228 </v>
  <v type="int" >       70 </v>
  <v type="int" >      186 </v>
  <v type="int" >      196 </v>
  <v type="int" >      122 </v>
  <v type="int" >      121 </v>
  <v type="int" >       79 </v>
  <v type="int" >        2 </v>
  <v type="int" >      198 </v>
  <v type="int" >      240 </v>
  <v type="int" >      153 </v>
  <v type="int" >      209 </v>
  <v type="int" >       35 </v>
  <v type="int" >      204 </v>
  <v type="int" >       85 </v>
  <v type="int" >      227 </v>
  <v type="int" >       89 </v>
  <v type="int" >       40 </v>
  <v type="int" >       78 </v>
  <v type="int" >      142 </v>
  <v type="int" >       15 </v>
  <v type="int" >      136 </v>
  <v type="int" >      148 </v>
  <v type="int" >      217 </v>
  <v type="int" >       61 </v>
  <v type="int" >      100 </v>
  <v type="int" >       96 </v>
  <v type="int" >      126 </v>
  <v type="int" >      115 </v>
  <v type="int" >      180 </v>
  <v type="int" >      147 </v>
  <v type="int" >       41 </v>
  <v type="int" >       22 </v>
  <v type="int" >      260 </v>
  <v type="int" >      128 </v>
 </varray>
 <kpoints>
  <generation param="Gamma">
   <v type="int" name="divisions">       4        4        1 </v>
   <v name="usershift">      0.00000000       0.00000000       0.00000000 </v>
   <v name="genvec1">      0.25000000       0.00000000       0.00000000 </v>
   <v name="genvec2">      0.00000000       0.25000000       0.00000000 </v>
   <v name="genvec3">      0.00000000       0.00000000       1.00000000 </v>
   <v name="shift">      0.00000000       0.00000000       0.00000000 </v>
  </generation>
  <varray name="kpointlist" >
   <v>       0.00000000       0.00000000       0.00000000 </v>
   <v>       0.25000000       0.00000000       0.00000000 </v>
   <v>       0.50000000       0.00000000       0.00000000 </v>
   <v>       0.00000000       0.25000000       0.00000000 </v>
   <v>       0.25000000       0.25000000       0.00000000 </v>
   <v>       0.50000000       0.25000000       0.00000000 </v>
   <v>      -0.25000000       0.25000000       0.00000000 </v>
   <v>       0.00000000       0.50000000       0.00000000 </v>
   <v>       0.25000000       0.50000000       0.00000000 </v>
   <v>       0.50000000       0.50000000       0.00000000 </v>
  </varray>
  <varray name="weights" >
   <v>       0.06250000 </v>
   <v>       0.12500000 </v>
   <v>       0.06250000 </v>
   <v>       0.12500000 </v>
   <v>       0.12500000 </v>
   <v>       0.12500000 </v>
   <v>       0.12500000 </v>
   <v>       0.06250000 </v>
   <v>       0.12500000 </v>
   <v>       0.06250000 </v>
  </varray>
 </kpoints>
 <parameters>
  <separator name="general" >
   <i type="string" name="SYSTEM">unknown system</i>
   <i type="logical" name="LCOMPAT"> F  </i>
  </separator>
  <separator name="electronic" >
   <i type="string" name="PREC">accura</i>
   <i name="ENMAX">    450.00000000</i>
   <i name="ENAUG">    838.43500000</i>
   <i name="EDIFF">      0.00000100</i>
   <i type="int" name="IALGO">    68</i>
   <i type="int" name="IWAVPR">    11</i>
   <i type="int" name="NBANDS">  1386</i>
   <i name="NELECT">   2290.00000000</i>
   <i type="int" name="TURBO">     0</i>
   <i type="int" name="IRESTART">     0</i>
   <i type="int" name="NREBOOT">     0</i>
   <i type="int" name="NMIN">     0</i>
   <i name="EREF">      0.00000000</i>
   <separator name="electronic smearing" >
    <i type="int" name="ISMEAR">     0</i>
    <i name="SIGMA">      0.15000000</i>
    <i name="KSPACING">      0.50000000</i>
    <i type="logical" name="KGAMMA"> T  </i>
   </separator>
   <separator name="electronic projectors" >
    <i type="logical" name="LREAL"> T  </i>
    <v name="ROPT">     -0.00025000     -0.00025000</v>
    <i type="int" name="LMAXPAW">  -100</i>
    <i type="int" name="LMAXMIX">     2</i>
    <i type="logical" name="NLSPLINE"> F  </i>
   </separator>
   <separator name="electronic startup" >
    <i type="int" name="ISTART">     0</i>
    <i type="int" name="ICHARG">     2</i>
    <i type="int" name="INIWAV">     1</i>
   </separator>
   <separator name="electronic spin" >
    <i type="int" name="ISPIN">     1</i>
    <i type="logical" name="LNONCOLLINEAR"> F  </i>
    <v name="MAGMOM">      1.00000000      1.00000000      1.00000000      1.00000000      1.00000000      1.00000000      1.00000000      1.00000000      1.00000000      1.00000000      1.00000000      1.00000000      1.00000000      1.00000000      1.00000000      1.00000000      1.00000000      1.00000000      1.00000000      1.00000000
      1.00000000      1.00000000      1.00000000      1.00000000      1.00000000      1.00000000      1.00000000      1.00000000      1.00000000      1.00000000      1.00000000      1.00000000      1.00000000      1.00000000      1.00000000      1.00000000      1.00000000      1.00000000      1.00000000      1.00000000
      1.00000000      1.00000000      1.00000000      1.00000000      1.00000000      1.00000000      1.00000000      1.00000000      1.00000000      1.00000000      1.00000000      1.00000000      1.00000000      1.00000000      1.00000000      1.00000000      1.00000000      1.00000000      1.00000000      1.00000000
      1.00000000      1.00000000      1.00000000      1.00000000      1.00000000      1.00000000      1.00000000      1.00000000      1.00000000      1.00000000      1.00000000      1.00000000      1.00000000      1.00000000      1.00000000      1.00000000      1.00000000      1.00000000      1.00000000      1.00000000
      1.00000000      1.00000000      1.00000000      1.00000000      1.00000000      1.00000000      1.00000000      1.00000000      1.00000000      1.00000000      1.00000000      1.00000000      1.00000000      1.00000000      1.00000000      1.00000000      1.00000000      1.00000000      1.00000000      1.00000000
      1.00000000      1.00000000      1.00000000      1.00000000      1.00000000      1.00000000      1.00000000      1.00000000      1.00000000      1.00000000      1.00000000      1.00000000      1.00000000      1.00000000      1.00000000      1.00000000      1.00000000      1.00000000      1.00000000      1.00000000
      1.00000000      1.00000000      1.00000000      1.00000000      1.00000000      1.00000000      1.00000000      1.00000000      1.00000000      1.00000000      1.00000000      1.00000000      1.00000000      1.00000000      1.00000000      1.00000000      1.00000000      1.00000000      1.00000000      1.00000000
      1.00000000      1.00000000      1.00000000      1.00000000      1.00000000      1.00000000      1.00000000      1.00000000      1.00000000      1.00000000      1.00000000      1.00000000      1.00000000      1.00000000      1.00000000      1.00000000      1.00000000      1.00000000      1.00000000      1.00000000
      1.00000000      1.00000000      1.00000000      1.00000000      1.00000000      1.00000000      1.00000000      1.00000000      1.00000000      1.00000000      1.00000000      1.00000000      1.00000000      1.00000000      1.00000000      1.00000000      1.00000000      1.00000000      1.00000000      1.00000000
      1.00000000      1.00000000      1.00000000      1.00000000      1.00000000      1.00000000      1.00000000      1.00000000      1.00000000      1.00000000      1.00000000      1.00000000      1.00000000      1.00000000      1.00000000      1.00000000      1.00000000      1.00000000      1.00000000      1.00000000
      1.00000000      1.00000000      1.00000000      1.00000000      1.00000000      1.00000000      1.00000000      1.00000000      1.00000000      1.00000000      1.00000000      1.00000000      1.00000000      1.00000000      1.00000000      1.00000000      1.00000000      1.00000000      1.00000000      1.00000000
      1.00000000      1.00000000      1.00000000      1.00000000      1.00000000      1.00000000      1.00000000      1.00000000      1.00000000      1.00000000      1.00000000      1.00000000      1.00000000      1.00000000      1.00000000      1.00000000      1.00000000      1.00000000      1.00000000      1.00000000
      1.00000000      1.00000000      1.00000000      1.00000000      1.00000000      1.00000000      1.00000000      1.00000000      1.00000000      1.00000000      1.00000000      1.00000000      1.00000000      1.00000000      1.00000000      1.00000000      1.00000000      1.00000000      1.00000000      1.00000000
      1.00000000      1.00000000      1.00000000      1.00000000      1.00000000      1.00000000      1.00000000      1.00000000      1.00000000      1.00000000      1.00000000      1.00000000      1.00000000      1.00000000      1.00000000      1.00000000      1.00000000      1.00000000      1.00000000      1.00000000
      1.00000000      1.00000000      1.00000000      1.00000000      1.00000000      1.00000000      1.00000000      1.00000000</v>
    <i name="NUPDOWN">     -1.00000000</i>
    <i type="logical" name="LSORBIT"> F  </i>
    <v name="SAXIS">      0.00000000      0.00000000      1.00000000</v>
    <i type="logical" name="LSPIRAL"> F  </i>
    <v name="QSPIRAL">      0.00000000      0.00000000      0.00000000</v>
    <i type="logical" name="LZEROZ"> F  </i>
   </separator>
   <separator name="electronic exchange-correlation" >
    <i type="logical" name="LASPH"> F  </i>
    <i type="logical" name="LMETAGGA"> F  </i>
   </separator>
   <separator name="electronic convergence" >
    <i type="int" name="NELM">   100</i>
    <i type="int" name="NELMDL">     0</i>
    <i type="int" name="NELMIN">     4</i>
    <i name="ENINI">    450.00000000</i>
    <separator name="electronic convergence detail" >
     <i type="logical" name="LDIAG"> T  </i>
     <i type="logical" name="LSUBROT"> F  </i>
     <i name="WEIMIN">      0.00100000</i>
     <i name="EBREAK">      0.00000000</i>
     <i name="DEPER">      0.30000000</i>
     <i type="int" name="NRMM">     4</i>
     <i name="TIME">      0.40000000</i>
    </separator>
   </separator>
   <separator name="electronic mixer" >
    <i name="AMIX">      0.40000000</i>
    <i name="BMIX">      1.00000000</i>
    <i name="AMIN">      0.10000000</i>
    <i name="AMIX_MAG">      1.60000000</i>
    <i name="BMIX_MAG">      1.00000000</i>
    <separator name="electronic mixer details" >
     <i type="int" name="IMIX">     4</i>
     <i type="logical" name="MIXFIRST"> F  </i>
     <i type="int" name="MAXMIX">   -45</i>
     <i name="WC">    100.00000000</i>
     <i type="int" name="INIMIX">     1</i>
     <i type="int" name="MIXPRE">     1</i>
     <i type="int" name="MREMOVE">     5</i>
    </separator>
   </separator>
   <separator name="electronic dipolcorrection" >
    <i type="logical" name="LDIPOL"> F  </i>
    <i type="logical" name="LMONO"> F  </i>
    <i type="int" name="IDIPOL">     0</i>
    <i name="EPSILON">      1.00000000</i>
    <v name="DIPOL">   -100.00000000   -100.00000000   -100.00000000</v>
    <i name="EFIELD">      0.00000000</i>
   </separator>
  </separator>
  <separator name="grids" >
   <i type="int" name="NGX">    70</i>
   <i type="int" name="NGY">    60</i>
   <i type="int" name="NGZ">   320</i>
   <i type="int" name="NGXF">   140</i>
   <i type="int" name="NGYF">   120</i>
   <i type="int" name="NGZF">   640</i>
   <i type="logical" name="ADDGRID"> F  </i>
  </separator>
  <separator name="ionic" >
   <i type="int" name="NSW">     5</i>
   <i type="int" name="IBRION">     2</i>
   <i type="int" name="MDALGO">     0</i>
   <i type="int" name="ISIF">     2</i>
   <i name="PSTRESS">      0.00000000</i>
   <i name="EDIFFG">      0.00001000</i>
   <i type="int" name="NFREE">     1</i>
   <i name="POTIM">      0.25000000</i>
   <i name="SMASS">     -3.00000000</i>
   <i name="SCALEE">      1.00000000</i>
  </separator>
  <separator name="ionic md" >
   <i name="TEBEG">      0.00010000</i>
   <i name="TEEND">      0.00010000</i>
   <i type="int" name="NBLOCK">     1</i>
   <i type="int" name="KBLOCK">     5</i>
   <i type="int" name="NPACO">   256</i>
   <i name="APACO">     16.00000000</i>
  </separator>
  <separator name="symmetry" >
   <i type="int" name="ISYM">     2</i>
   <i name="SYMPREC">      0.00001000</i>
  </separator>
  <separator name="dos" >
   <i type="int" name="LORBIT">     0</i>
   <v name="RWIGS">     -1.00000000     -1.00000000</v>
   <i type="int" name="NEDOS">   301</i>
   <i name="EMIN">     10.00000000</i>
   <i name="EMAX">    -10.00000000</i>
   <i name="EFERMI">      0.00000000</i>
  </separator>
  <separator name="writing" >
   <i type="int" name="NWRITE">     2</i>
   <i type="logical" name="LWAVE"> F  </i>
   <i type="logical" name="LDOWNSAMPLE"> F  </i>
   <i type="logical" name="LCHARG"> F  </i>
   <i type="logical" name="LPARD"> F  </i>
   <i type="logical" name="LVTOT"> F  </i>
   <i type="logical" name="LVHAR"> F  </i>
   <i type="logical" name="LELF"> F  </i>
   <i type="logical" name="LOPTICS"> F  </i>
   <v name="STM">      0.00000000      0.00000000      0.00000000      0.00000000      0.00000000      0.00000000      0.00000000</v>
  </separator>
  <separator name="performance" >
   <i type="int" name="NPAR">    14</i>
   <i type="int" name="NSIM">     4</i>
   <i type="int" name="NBLK">    -1</i>
   <i type="logical" name="LPLANE"> T  </i>
   <i type="logical" name="LSCALAPACK"> T  </i>
   <i type="logical" name="LSCAAWARE"> T  </i>
   <i type="logical" name="LSCALU"> F  </i>
   <i type="logical" name="LASYNC"> F  </i>
   <i type="logical" name="LORBITALREAL"> F  </i>
  </separator>
  <separator name="miscellaneous" >
   <i type="int" name="IDIOT">     3</i>
   <i type="int" name="ISPECIAL">     0</i>
   <i type="logical" name="LMUSIC"> F  </i>
   <v name="POMASS">     55.84700000     54.93800000</v>
   <v name="DARWINR">      0.00000000      0.00000000</v>
   <v name="DARWINV">      1.00000000      1.00000000</v>
   <i type="logical" name="LCORR"> T  </i>
  </separator>
  <i type="logical" name="GGA_COMPAT"> T  </i>
  <i type="logical" name="LBERRY"> F  </i>
  <i type="int" name="ICORELEVEL">     0</i>
  <i type="logical" name="LDAU"> F  </i>
  <i type="int" name="I_CONSTRAINED_M">     0</i>
  <separator name="electronic exchange-correlation" >
   <i type="string" name="GGA">--</i>
   <i type="int" name="VOSKOWN">     0</i>
   <i type="logical" name="LHFCALC"> F  </i>
   <i type="string" name="PRECFOCK"></i>
   <i type="logical" name="LSYMGRAD"> F  </i>
   <i type="logical" name="LHFONE"> F  </i>
   <i type="logical" name="LRHFCALC"> F  </i>
   <i type="logical" name="LTHOMAS"> F  </i>
   <i type="logical" name="LMODELHF"> F  </i>
   <i name="ENCUT4O">     -1.00000000</i>
   <i type="int" name="EXXOEP">     0</i>
   <i type="int" name="FOURORBIT">     0</i>
   <i name="AEXX">      0.00000000</i>
   <i name="HFALPHA">      0.00000000</i>
   <i name="MCALPHA">      0.00000000</i>
   <i name="ALDAX">      1.00000000</i>
   <i name="AGGAX">      1.00000000</i>
   <i name="ALDAC">      1.00000000</i>
   <i name="AGGAC">      1.00000000</i>
   <i type="int" name="NKREDX">     1</i>
   <i type="int" name="NKREDY">     1</i>
   <i type="int" name="NKREDZ">     1</i>
   <i type="logical" name="SHIFTRED"> F  </i>
   <i type="logical" name="ODDONLY"> F  </i>
   <i type="logical" name="EVENONLY"> F  </i>
   <i type="int" name="LMAXFOCK">     0</i>
   <i type="int" name="NMAXFOCKAE">     0</i>
   <i type="logical" name="LFOCKAEDFT"> F  </i>
   <i name="HFSCREEN">      0.00000000</i>
   <i name="HFSCREENC">      0.00000000</i>
   <i type="int" name="NBANDSGWLOW">     0</i>
  </separator>
  <separator name="vdW DFT" >
   <i type="logical" name="LUSE_VDW"> F  </i>
   <i name="Zab_VDW">     -0.84910000</i>
   <i name="PARAM1">      0.12340000</i>
   <i name="PARAM2">      1.00000000</i>
   <i name="PARAM3">      0.00000000</i>
  </separator>
  <separator name="model GW" >
   <i type="int" name="MODEL_GW">     0</i>
   <i name="MODEL_EPS0">      7.68123389</i>
   <i name="MODEL_ALPHA">      1.00000000</i>
  </separator>
  <separator name="linear response parameters" >
   <i type="logical" name="LEPSILON"> F  </i>
   <i type="logical" name="LRPA"> F  </i>
   <i type="logical" name="LNABLA"> F  </i>
   <i type="logical" name="LVEL"> F  </i>
   <i type="int" name="KINTER">     0</i>
   <i name="CSHIFT">      0.10000000</i>
   <i name="OMEGAMAX">     -1.00000000</i>
   <i name="DEG_THRESHOLD">      0.00200000</i>
   <i name="RTIME">     -0.10000000</i>
   <i name="WPLASMAI">      0.00000000</i>
   <v name="DFIELD">      0.00000000      0.00000000      0.00000000</v>
   <v name="WPLASMA">      0.00000000      0.00000000      0.00000000      0.00000000      0.00000000      0.00000000      0.00000000      0.00000000      0.00000000</v>
  </separator>
  <separator name="orbital magnetization" >
   <i type="logical" name="NUCIND"> F  </i>
   <v name="MAGPOS">      0.00000000      0.00000000      0.00000000</v>
   <i type="logical" name="LNICSALL"> T  </i>
   <i type="logical" name="ORBITALMAG"> F  </i>
   <i type="logical" name="LMAGBLOCH"> F  </i>
   <i type="logical" name="LCHIMAG"> F  </i>
   <i type="logical" name="LGAUGE"> T  </i>
   <i type="int" name="MAGATOM">     0</i>
   <v name="MAGDIPOL">      0.00000000      0.00000000      0.00000000</v>
   <v name="AVECCONST">      0.00000000      0.00000000      0.00000000</v>
  </separator>
  <separator name="response functions" >
   <i type="logical" name="LADDER"> F  </i>
   <i type="logical" name="LRPAFORCE"> F  </i>
   <i type="logical" name="LFXC"> F  </i>
   <i type="logical" name="LHARTREE"> T  </i>
   <i type="int" name="IBSE">     0</i>
   <v type="int" name="KPOINT">    -1     0     0     0</v>
   <i type="logical" name="LTCTE"> F  </i>
   <i type="logical" name="LTETE"> F  </i>
   <i type="logical" name="LTRIPLET"> F  </i>
   <i type="logical" name="LFXCEPS"> F  </i>
   <i type="logical" name="LFXHEG"> F  </i>
   <i type="int" name="NATURALO">     2</i>
   <i type="logical" name="L2ORDER"> F  </i>
   <i type="logical" name="LMP2LT"> F  </i>
   <i type="logical" name="LUSEW"> F  </i>
   <i name="ENCUTGW">     -2.00000000</i>
   <i name="ENCUTGWSOFT">     -2.00000000</i>
   <i name="ENCUTLF">     -1.00000000</i>
   <i type="int" name="LMAXMP2">    -1</i>
   <i name="SCISSOR">      0.00000000</i>
   <i type="int" name="NOMEGA">     0</i>
   <i type="int" name="NOMEGAR">     0</i>
   <i type="int" name="NBANDSGW">    -1</i>
   <i type="int" name="NBANDSO">    -1</i>
   <i type="int" name="NBANDSV">    -1</i>
   <i type="int" name="NELM">   100</i>
   <i type="int" name="NELMHF">     1</i>
   <i type="int" name="DIM">     3</i>
   <i type="int" name="ANTIRES">     0</i>
   <i name="OMEGAMAX">    -30.00000000</i>
   <i name="OMEGAMIN">    -30.00000000</i>
   <i name="OMEGATL">   -200.00000000</i>
   <i type="int" name="OMEGAGRID">   140</i>
   <i name="CSHIFT">     -0.10000000</i>
   <i type="logical" name="SELFENERGY"> F  </i>
   <i type="logical" name="LSPECTRAL"> F  </i>
   <i type="logical" name="LSPECTRALGW"> F  </i>
   <i type="logical" name="LSINGLES"> F  </i>
   <i type="logical" name="LFERMIGW"> F  </i>
   <i type="logical" name="ODDONLYGW"> F  </i>
   <i type="logical" name="EVENONLYGW"> F  </i>
   <i type="int" name="NKREDLFX">     1</i>
   <i type="int" name="NKREDLFY">     1</i>
   <i type="int" name="NKREDLFZ">     1</i>
   <i type="int" name="MAXMEM">  2800</i>
   <i type="int" name="TELESCOPE">     0</i>
   <i type="int" name="TAUPAR">     1</i>
   <i type="int" name="OMEGAPAR">    -1</i>
   <i name="LAMBDA">      1.00000000</i>
  </separator>
  <separator name="External order field" >
   <i name="OFIELD_KAPPA">      0.00000000</i>
   <v name="OFIELD_K">      0.00000000      0.00000000      0.00000000</v>
   <i name="OFIELD_Q6_NEAR">      0.00000000</i>
   <i name="OFIELD_Q6_FAR">      0.00000000</i>
   <i name="OFIELD_A">      0.00000000</i>
  </separator>
 </parameters>
 <atominfo>
  <atoms>     288 </atoms>
  <types>       2 </types>
  <array name="atoms" >
   <dimension dim="1">ion</dimension>
   <field type="string">element</field>
   <field type="int">atomtype</field>
   <set>
    <rc><c>Fe</c><c>   1</c></rc>
    <rc><c>Fe</c><c>   1</c></rc>
    <rc><c>Fe</c><c>   1</c></rc>
    <rc><c>Fe</c><c>   1</c></rc>
    <rc><c>Fe</c><c>   1</c></rc>
    <rc><c>Fe</c><c>   1</c></rc>
    <rc><c>Fe</c><c>   1</c></rc>
    <rc><c>Fe</c><c>   1</c></rc>
    <rc><c>Fe</c><c>   1</c></rc>
    <rc><c>Fe</c><c>   1</c></rc>
    <rc><c>Fe</c><c>   1</c></rc>
    <rc><c>Fe</c><c>   1</c></rc>
    <rc><c>Fe</c><c>   1</c></rc>
    <rc><c>Fe</c><c>   1</c></rc>
    <rc><c>Fe</c><c>   1</c></rc>
    <rc><c>Fe</c><c>   1</c></rc>
    <rc><c>Fe</c><c>   1</c></rc>
    <rc><c>Fe</c><c>   1</c></rc>
    <rc><c>Fe</c><c>   1</c></rc>
    <rc><c>Fe</c><c>   1</c></rc>
    <rc><c>Fe</c><c>   1</c></rc>
    <rc><c>Fe</c><c>   1</c></rc>
    <rc><c>Fe</c><c>   1</c></rc>
    <rc><c>Fe</c><c>   1</c></rc>
    <rc><c>Fe</c><c>   1</c></rc>
    <rc><c>Fe</c><c>   1</c></rc>
    <rc><c>Fe</c><c>   1</c></rc>
    <rc><c>Fe</c><c>   1</c></rc>
    <rc><c>Fe</c><c>   1</c></rc>
    <rc><c>Fe</c><c>   1</c></rc>
    <rc><c>Fe</c><c>   1</c></rc>
    <rc><c>Fe</c><c>   1</c></rc>
    <rc><c>Fe</c><c>   1</c></rc>
    <rc><c>Fe</c><c>   1</c></rc>
    <rc><c>Fe</c><c>   1</c></rc>
    <rc><c>Fe</c><c>   1</c></rc>
    <rc><c>Fe</c><c>   1</c></rc>
    <rc><c>Fe</c><c>   1</c></rc>
    <rc><c>Fe</c><c>   1</c></rc>
    <rc><c>Fe</c><c>   1</c></rc>
    <rc><c>Fe</c><c>   1</c></rc>
    <rc><c>Fe</c><c>   1</c></rc>
    <rc><c>Fe</c><c>   1</c></rc>
    <rc><c>Fe</c><c>   1</c></rc>
    <rc><c>Fe</c><c>   1</c></rc>
    <rc><c>Fe</c><c>   1</c></rc>
    <rc><c>Fe</c><c>   1</c></rc>
    <rc><c>Fe</c><c>   1</c></rc>
    <rc><c>Fe</c><c>   1</c></rc>
    <rc><c>Fe</c><c>   1</c></rc>
    <rc><c>Fe</c><c>   1</c></rc>
    <rc><c>Fe</c><c>   1</c></rc>
    <rc><c>Fe</c><c>   1</c></rc>
    <rc><c>Fe</c><c>   1</c></rc>
    <rc><c>Fe</c><c>   1</c></rc>
    <rc><c>Fe</c><c>   1</c></rc>
    <rc><c>Fe</c><c>   1</c></rc>
    <rc><c>Fe</c><c>   1</c></rc>
    <rc><c>Fe</c><c>   1</c></rc>
    <rc><c>Fe</c><c>   1</c></rc>
    <rc><c>Fe</c><c>   1</c></rc>
    <rc><c>Fe</c><c>   1</c></rc>
    <rc><c>Fe</c><c>   1</c></rc>
    <rc><c>Fe</c><c>   1</c></rc>
    <rc><c>Fe</c><c>   1</c></rc>
    <rc><c>Fe</c><c>   1</c></rc>
    <rc><c>Fe</c><c>   1</c></rc>
    <rc><c>Fe</c><c>   1</c></rc>
    <rc><c>Fe</c><c>   1</c></rc>
    <rc><c>Fe</c><c>   1</c></rc>
    <rc><c>Fe</c><c>   1</c></rc>
    <rc><c>Fe</c><c>   1</c></rc>
    <rc><c>Fe</c><c>   1</c></rc>
    <rc><c>Fe</c><c>   1</c></rc>
    <rc><c>Fe</c><c>   1</c></rc>
    <rc><c>Fe</c><c>   1</c></rc>
    <rc><c>Fe</c><c>   1</c></rc>
    <rc><c>Fe</c><c>   1</c></rc>
    <rc><c>Fe</c><c>   1</c></rc>
    <rc><c>Fe</c><c>   1</c></rc>
    <rc><c>Fe</c><c>   1</c></rc>
    <rc><c>Fe</c><c>   1</c></rc>
    <rc><c>Fe</c><c>   1</c></rc>
    <rc><c>Fe</c><c>   1</c></rc>
    <rc><c>Fe</c><c>   1</c></rc>
    <rc><c>Fe</c><c>   1</c></rc>
    <rc><c>Fe</c><c>   1</c></rc>
    <rc><c>Fe</c><c>   1</c></rc>
    <rc><c>Fe</c><c>   1</c></rc>
    <rc><c>Fe</c><c>   1</c></rc>
    <rc><c>Fe</c><c>   1</c></rc>
    <rc><c>Fe</c><c>   1</c></rc>
    <rc><c>Fe</c><c>   1</c></rc>
    <rc><c>Fe</c><c>   1</c></rc>
    <rc><c>Fe</c><c>   1</c></rc>
    <rc><c>Fe</c><c>   1</c></rc>
    <rc><c>Fe</c><c>   1</c></rc>
    <rc><c>Fe</c><c>   1</c></rc>
    <rc><c>Fe</c><c>   1</c></rc>
    <rc><c>Fe</c><c>   1</c></rc>
    <rc><c>Fe</c><c>   1</c></rc>
    <rc><c>Fe</c><c>   1</c></rc>
    <rc><c>Fe</c><c>   1</c></rc>
    <rc><c>Fe</c><c>   1</c></rc>
    <rc><c>Fe</c><c>   1</c></rc>
    <rc><c>Fe</c><c>   1</c></rc>
    <rc><c>Fe</c><c>   1</c></rc>
    <rc><c>Fe</c><c>   1</c></rc>
    <rc><c>Fe</c><c>   1</c></rc>
    <rc><c>Fe</c><c>   1</c></rc>
    <rc><c>Fe</c><c>   1</c></rc>
    <rc><c>Fe</c><c>   1</c></rc>
    <rc><c>Fe</c><c>   1</c></rc>
    <rc><c>Fe</c><c>   1</c></rc>
    <rc><c>Fe</c><c>   1</c></rc>
    <rc><c>Fe</c><c>   1</c></rc>
    <rc><c>Fe</c><c>   1</c></rc>
    <rc><c>Fe</c><c>   1</c></rc>
    <rc><c>Fe</c><c>   1</c></rc>
    <rc><c>Fe</c><c>   1</c></rc>
    <rc><c>Fe</c><c>   1</c></rc>
    <rc><c>Fe</c><c>   1</c></rc>
    <rc><c>Fe</c><c>   1</c></rc>
    <rc><c>Fe</c><c>   1</c></rc>
    <rc><c>Fe</c><c>   1</c></rc>
    <rc><c>Fe</c><c>   1</c></rc>
    <rc><c>Fe</c><c>   1</c></rc>
    <rc><c>Fe</c><c>   1</c></rc>
    <rc><c>Fe</c><c>   1</c></rc>
    <rc><c>Fe</c><c>   1</c></rc>
    <rc><c>Fe</c><c>   1</c></rc>
    <rc><c>Fe</c><c>   1</c></rc>
    <rc><c>Fe</c><c>   1</c></rc>
    <rc><c>Fe</c><c>   1</c></rc>
    <rc><c>Fe</c><c>   1</c></rc>
    <rc><c>Fe</c><c>   1</c></rc>
    <rc><c>Fe</c><c>   1</c></rc>
    <rc><c>Fe</c><c>   1</c></rc>
    <rc><c>Fe</c><c>   1</c></rc>
    <rc><c>Fe</c><c>   1</c></rc>
    <rc><c>Fe</c><c>   1</c></rc>
    <rc><c>Fe</c><c>   1</c></rc>
    <rc><c>Fe</c><c>   1</c></rc>
    <rc><c>Fe</c><c>   1</c></rc>
    <rc><c>Fe</c><c>   1</c></rc>
    <rc><c>Fe</c><c>   1</c></rc>
    <rc><c>Fe</c><c>   1</c></rc>
    <rc><c>Fe</c><c>   1</c></rc>
    <rc><c>Fe</c><c>   1</c></rc>
    <rc><c>Fe</c><c>   1</c></rc>
    <rc><c>Fe</c><c>   1</c></rc>
    <rc><c>Fe</c><c>   1</c></rc>
    <rc><c>Fe</c><c>   1</c></rc>
    <rc><c>Fe</c><c>   1</c></rc>
    <rc><c>Fe</c><c>   1</c></rc>
    <rc><c>Fe</c><c>   1</c></rc>
    <rc><c>Fe</c><c>   1</c></rc>
    <rc><c>Fe</c><c>   1</c></rc>
    <rc><c>Fe</c><c>   1</c></rc>
    <rc><c>Fe</c><c>   1</c></rc>
    <rc><c>Fe</c><c>   1</c></rc>
    <rc><c>Fe</c><c>   1</c></rc>
    <rc><c>Fe</c><c>   1</c></rc>
    <rc><c>Fe</c><c>   1</c></rc>
    <rc><c>Fe</c><c>   1</c></rc>
    <rc><c>Fe</c><c>   1</c></rc>
    <rc><c>Fe</c><c>   1</c></rc>
    <rc><c>Fe</c><c>   1</c></rc>
    <rc><c>Fe</c><c>   1</c></rc>
    <rc><c>Fe</c><c>   1</c></rc>
    <rc><c>Fe</c><c>   1</c></rc>
    <rc><c>Fe</c><c>   1</c></rc>
    <rc><c>Fe</c><c>   1</c></rc>
    <rc><c>Fe</c><c>   1</c></rc>
    <rc><c>Fe</c><c>   1</c></rc>
    <rc><c>Fe</c><c>   1</c></rc>
    <rc><c>Fe</c><c>   1</c></rc>
    <rc><c>Fe</c><c>   1</c></rc>
    <rc><c>Fe</c><c>   1</c></rc>
    <rc><c>Fe</c><c>   1</c></rc>
    <rc><c>Fe</c><c>   1</c></rc>
    <rc><c>Fe</c><c>   1</c></rc>
    <rc><c>Fe</c><c>   1</c></rc>
    <rc><c>Fe</c><c>   1</c></rc>
    <rc><c>Fe</c><c>   1</c></rc>
    <rc><c>Fe</c><c>   1</c></rc>
    <rc><c>Fe</c><c>   1</c></rc>
    <rc><c>Fe</c><c>   1</c></rc>
    <rc><c>Fe</c><c>   1</c></rc>
    <rc><c>Fe</c><c>   1</c></rc>
    <rc><c>Fe</c><c>   1</c></rc>
    <rc><c>Fe</c><c>   1</c></rc>
    <rc><c>Fe</c><c>   1</c></rc>
    <rc><c>Fe</c><c>   1</c></rc>
    <rc><c>Fe</c><c>   1</c></rc>
    <rc><c>Fe</c><c>   1</c></rc>
    <rc><c>Fe</c><c>   1</c></rc>
    <rc><c>Fe</c><c>   1</c></rc>
    <rc><c>Fe</c><c>   1</c></rc>
    <rc><c>Fe</c><c>   1</c></rc>
    <rc><c>Fe</c><c>   1</c></rc>
    <rc><c>Fe</c><c>   1</c></rc>
    <rc><c>Fe</c><c>   1</c></rc>
    <rc><c>Fe</c><c>   1</c></rc>
    <rc><c>Fe</c><c>   1</c></rc>
    <rc><c>Fe</c><c>   1</c></rc>
    <rc><c>Fe</c><c>   1</c></rc>
    <rc><c>Fe</c><c>   1</c></rc>
    <rc><c>Fe</c><c>   1</c></rc>
    <rc><c>Fe</c><c>   1</c></rc>
    <rc><c>Fe</c><c>   1</c></rc>
    <rc><c>Fe</c><c>   1</c></rc>
    <rc><c>Fe</c><c>   1</c></rc>
    <rc><c>Fe</c><c>   1</c></rc>
    <rc><c>Fe</c><c>   1</c></rc>
    <rc><c>Fe</c><c>   1</c></rc>
    <rc><c>Fe</c><c>   1</c></rc>
    <rc><c>Fe</c><c>   1</c></rc>
    <rc><c>Fe</c><c>   1</c></rc>
    <rc><c>Fe</c><c>   1</c></rc>
    <rc><c>Fe</c><c>   1</c></rc>
    <rc><c>Fe</c><c>   1</c></rc>
    <rc><c>Fe</c><c>   1</c></rc>
    <rc><c>Fe</c><c>   1</c></rc>
    <rc><c>Fe</c><c>   1</c></rc>
    <rc><c>Fe</c><c>   1</c></rc>
    <rc><c>Fe</c><c>   1</c></rc>
    <rc><c>Fe</c><c>   1</c></rc>
    <rc><c>Fe</c><c>   1</c></rc>
    <rc><c>Fe</c><c>   1</c></rc>
    <rc><c>Fe</c><c>   1</c></rc>
    <rc><c>Fe</c><c>   1</c></rc>
    <rc><c>Fe</c><c>   1</c></rc>
    <rc><c>Fe</c><c>   1</c></rc>
    <rc><c>Fe</c><c>   1</c></rc>
    <rc><c>Fe</c><c>   1</c></rc>
    <rc><c>Fe</c><c>   1</c></rc>
    <rc><c>Fe</c><c>   1</c></rc>
    <rc><c>Fe</c><c>   1</c></rc>
    <rc><c>Fe</c><c>   1</c></rc>
    <rc><c>Fe</c><c>   1</c></rc>
    <rc><c>Fe</c><c>   1</c></rc>
    <rc><c>Fe</c><c>   1</c></rc>
    <rc><c>Fe</c><c>   1</c></rc>
    <rc><c>Fe</c><c>   1</c></rc>
    <rc><c>Fe</c><c>   1</c></rc>
    <rc><c>Fe</c><c>   1</c></rc>
    <rc><c>Fe</c><c>   1</c></rc>
    <rc><c>Fe</c><c>   1</c></rc>
    <rc><c>Fe</c><c>   1</c></rc>
    <rc><c>Fe</c><c>   1</c></rc>
    <rc><c>Fe</c><c>   1</c></rc>
    <rc><c>Fe</c><c>   1</c></rc>
    <rc><c>Fe</c><c>   1</c></rc>
    <rc><c>Fe</c><c>   1</c></rc>
    <rc><c>Fe</c><c>   1</c></rc>
    <rc><c>Fe</c><c>   1</c></rc>
    <rc><c>Fe</c><c>   1</c></rc>
    <rc><c>Fe</c><c>   1</c></rc>
    <rc><c>Fe</c><c>   1</c></rc>
    <rc><c>Fe</c><c>   1</c></rc>
    <rc><c>Fe</c><c>   1</c></rc>
    <rc><c>Fe</c><c>   1</c></rc>
    <rc><c>Fe</c><c>   1</c></rc>
    <rc><c>Fe</c><c>   1</c></rc>
    <rc><c>Fe</c><c>   1</c></rc>
    <rc><c>Fe</c><c>   1</c></rc>
    <rc><c>Fe</c><c>   1</c></rc>
    <rc><c>Fe</c><c>   1</c></rc>
    <rc><c>Fe</c><c>   1</c></rc>
    <rc><c>Fe</c><c>   1</c></rc>
    <rc><c>Fe</c><c>   1</c></rc>
    <rc><c>Fe</c><c>   1</c></rc>
    <rc><c>Fe</c><c>   1</c></rc>
    <rc><c>Mn</c><c>   2</c></rc>
    <rc><c>Mn</c><c>   2</c></rc>
    <rc><c>Mn</c><c>   2</c></rc>
    <rc><c>Mn</c><c>   2</c></rc>
    <rc><c>Mn</c><c>   2</c></rc>
    <rc><c>Mn</c><c>   2</c></rc>
    <rc><c>Mn</c><c>   2</c></rc>
    <rc><c>Mn</c><c>   2</c></rc>
    <rc><c>Mn</c><c>   2</c></rc>
    <rc><c>Mn</c><c>   2</c></rc>
    <rc><c>Mn</c><c>   2</c></rc>
    <rc><c>Mn</c><c>   2</c></rc>
    <rc><c>Mn</c><c>   2</c></rc>
    <rc><c>Mn</c><c>   2</c></rc>
   </set>
  </array>
  <array name="atomtypes" >
   <dimension dim="1">type</dimension>
   <field type="int">atomspertype</field>
   <field type="string">element</field>
   <field>mass</field>
   <field>valence</field>
   <field type="string">pseudopotential</field>
   <set>
    <rc><c> 274</c><c>Fe</c><c>     55.84700000</c><c>      8.00000000</c><c>  PAW_PBE Fe_GW 31Mar2010               </c></rc>
    <rc><c>  14</c><c>Mn</c><c>     54.93800000</c><c>      7.00000000</c><c>  PAW_PBE Mn_GW 31Mar2010               </c></rc>
   </set>
  </array>
 </atominfo>
 <structure name="initialpos" >
  <crystal>
   <varray name="basis" >
    <v>       9.72667804       0.00000000       0.00000000 </v>
    <v>       0.00000000       8.42355028       0.00000000 </v>
    <v>       0.00000000       0.00000000      45.00000000 </v>
   </varray>
   <i name="volume">   3686.99226691 </i>
   <varray name="rec_basis" >
    <v>       0.10281002       0.00000000       0.00000000 </v>
    <v>       0.00000000       0.11871479       0.00000000 </v>
    <v>       0.00000000       0.00000000       0.02222222 </v>
   </varray>
  </crystal>
  <varray name="positions" >
   <v>       0.06188525       0.03106498       0.12432081 </v>
   <v>       0.31652694       0.87478953       0.65485328 </v>
   <v>       0.18508452       0.12139223       0.78832821 </v>
   <v>       0.44156480       0.28773716       0.38910557 </v>
   <v>       0.31761280       0.71243163       0.83281526 </v>
   <v>       0.81774289       0.21390496       0.83334775 </v>
   <v>       0.19128318       0.96255227       0.83330645 </v>
   <v>       0.56226791       0.20716072       0.56547203 </v>
   <v>       0.06552767       0.03987815       0.74395082 </v>
   <v>       0.81155932       0.87123650       0.52133408 </v>
   <v>       0.19108573       0.29039011       0.74391252 </v>
   <v>       0.93368523       0.45223497       0.34490408 </v>
   <v>       0.94119291       0.28686306       0.38897420 </v>
   <v>       0.81305442       0.03949968       0.87543217 </v>
   <v>       0.18354077       0.78804688       0.61086058 </v>
   <v>       0.56645360       0.03765775       0.38907348 </v>
   <v>       0.94169478       0.96306306       0.83355171 </v>
   <v>       0.31457449       0.53864415       0.87579548 </v>
   <v>       0.69052332       0.29032884       0.74391547 </v>
   <v>       0.18255981       0.61393651       0.16673058 </v>
   <v>       0.81210665       0.20575333       0.47867641 </v>
   <v>       0.80876106       0.53790526       0.61090355 </v>
   <v>       0.31199576       0.87028592       0.43447343 </v>
   <v>       0.80920101       0.03829807       0.25616018 </v>
   <v>       0.68343222       0.95167478       0.34491879 </v>
   <v>       0.93116762       0.11487071       0.16729627 </v>
   <v>       0.06164899       0.87128298       0.52134548 </v>
   <v>       0.55900798       0.53866319       0.25611842 </v>
   <v>       0.68475480       0.79508645       0.87542195 </v>
   <v>       0.55622390       0.36579511       0.16672050 </v>
   <v>       0.43989732       0.79062513       0.74405555 </v>
   <v>       0.81159525       0.70661801       0.56545590 </v>
   <v>       0.56032350       0.87209921       0.78830277 </v>
   <v>       0.68656005       0.12133757       0.52133446 </v>
   <v>       0.81645697       0.37471747       0.65489983 </v>
   <v>       0.94159535       0.46268205       0.83352926 </v>
   <v>       0.06031609       0.20798091       0.69956407 </v>
   <v>       0.43511925       0.95799129       0.69955391 </v>
   <v>       0.31677776       0.21181700       0.83332825 </v>
   <v>       0.44138946       0.62491527       0.65489145 </v>
   <v>       0.30874097       0.53789139       0.61087198 </v>
   <v>       0.93680131       0.45676979       0.56556168 </v>
   <v>       0.69008075       0.79097027       0.74402263 </v>
   <v>       0.93370003       0.78850523       0.12464294 </v>
   <v>       0.69162770       0.78786310       0.38909451 </v>
   <v>       0.94056456       0.79006019       0.74413386 </v>
   <v>       0.05875853       0.20284427       0.34505297 </v>
   <v>       0.68340702       0.45234729       0.34507879 </v>
   <v>       0.43525144       0.12113034       0.78866544 </v>
   <v>       0.06505428       0.20531529       0.21165733 </v>
   <v>       0.05489112       0.36599615       0.16676619 </v>
   <v>       0.93376984       0.78927765       0.25600526 </v>
   <v>       0.56037378       0.20769981       0.69958419 </v>
   <v>       0.68508146       0.95800968       0.69959731 </v>
   <v>       0.81008168       0.87218099       0.78819554 </v>
   <v>       0.43698644       0.95720531       0.56541278 </v>
   <v>       0.81067920       0.37280526       0.78818608 </v>
   <v>       0.68435176       0.28977635       0.25606927 </v>
   <v>       0.18715906       0.45720119       0.56545211 </v>
   <v>       0.05578485       0.86575078       0.16679040 </v>
   <v>       0.18367902       0.28802780       0.61087685 </v>
   <v>       0.06252085       0.20728357       0.56536334 </v>
   <v>       0.31037296       0.20791335       0.69962640 </v>
   <v>       0.56355758       0.53905365       0.87566581 </v>
   <v>       0.06176866       0.70636397       0.56550783 </v>
   <v>       0.68500388       0.62139554       0.78815863 </v>
   <v>       0.31624481       0.53776658       0.38905555 </v>
   <v>       0.18673317       0.62127195       0.52142117 </v>
   <v>       0.56246725       0.87048233       0.43446232 </v>
   <v>       0.43700366       0.45728033       0.56546472 </v>
   <v>       0.43990784       0.29086879       0.74402016 </v>
   <v>       0.81922677       0.87494201       0.30039727 </v>
   <v>       0.80871572       0.70279534       0.34509889 </v>
   <v>       0.44167056       0.46230651       0.83313761 </v>
   <v>       0.68729506       0.95572177       0.47864228 </v>
   <v>       0.68500927       0.45806188       0.69959548 </v>
   <v>       0.56177127       0.87175832       0.52137660 </v>
   <v>       0.56659983       0.37472718       0.65484909 </v>
   <v>       0.81637237       0.87483580       0.65493335 </v>
   <v>       0.81189087       0.37161410       0.43426233 </v>
   <v>       0.80898929       0.53832815       0.25626901 </v>
   <v>       0.69195940       0.46133215       0.83305208 </v>
   <v>       0.18607489       0.78852520       0.12425002 </v>
   <v>       0.69131075       0.28751641       0.38907477 </v>
   <v>       0.31647178       0.37471359       0.65487997 </v>
   <v>       0.30923844       0.20277946       0.34504361 </v>
   <v>       0.81568445       0.53990259       0.74394584 </v>
   <v>       0.69157174       0.96164637       0.83311656 </v>
   <v>       0.56617169       0.87441711       0.65490517 </v>
   <v>       0.31182826       0.70697003       0.56540948 </v>
   <v>       0.31253068       0.53204999       0.12430395 </v>
   <v>       0.68926564       0.95600289       0.21193284 </v>
   <v>       0.31143517       0.20659721       0.56547399 </v>
   <v>       0.18729832       0.95582956       0.47865446 </v>
   <v>       0.68741482       0.95722446       0.56546214 </v>
   <v>       0.43372811       0.78786884       0.61087677 </v>
   <v>       0.68251082       0.61229195       0.16675549 </v>
   <v>       0.31918031       0.87436283       0.30041240 </v>
   <v>       0.31227179       0.70568630       0.47864962 </v>
   <v>       0.93370861       0.28792606       0.61084941 </v>
   <v>       0.44465835       0.62492275       0.30055544 </v>
   <v>       0.80656245       0.86446177       0.16727305 </v>
   <v>       0.56592772       0.20338096       0.21195226 </v>
   <v>       0.93282192       0.61306747       0.16682632 </v>
   <v>       0.43723830       0.95569038       0.47863633 </v>
   <v>       0.56039973       0.37162231       0.78837320 </v>
   <v>       0.06126452       0.37172495       0.52138839 </v>
   <v>       0.30707819       0.36391785       0.16684169 </v>
   <v>       0.69468728       0.12440514       0.30044490 </v>
   <v>       0.44269514       0.96182966       0.83308036 </v>
   <v>       0.18463914       0.28765823       0.12448238 </v>
   <v>       0.18413179       0.28939526       0.25611534 </v>
   <v>       0.31211795       0.37047594       0.43443852 </v>
   <v>       0.56260853       0.03259107       0.12455393 </v>
   <v>       0.43358463       0.28809975       0.61084240 </v>
   <v>       0.18381517       0.45285258       0.34512318 </v>
   <v>       0.43440725       0.28766063       0.12455441 </v>
   <v>       0.68396452       0.78941893       0.25615831 </v>
   <v>       0.43651164       0.12131238       0.52132830 </v>
   <v>       0.18852171       0.29405038       0.87573798 </v>
   <v>       0.19150757       0.12496168       0.65489464 </v>
   <v>       0.94145522       0.12495995       0.65490811 </v>
   <v>       0.81636528       0.53751919       0.38908443 </v>
   <v>       0.06652528       0.03775707       0.38909141 </v>
   <v>       0.18322738       0.11244896       0.16653345 </v>
   <v>       0.05862189       0.53769075       0.61090224 </v>
   <v>       0.93418001       0.28962567       0.25607538 </v>
   <v>       0.55861870       0.53801427       0.61085505 </v>
   <v>       0.93690666       0.95741300       0.56543791 </v>
   <v>       0.69400054       0.62493715       0.30039988 </v>
   <v>       0.93731913       0.62043965       0.43445912 </v>
   <v>       0.93414066       0.62251222       0.78800526 </v>
   <v>       0.56038017       0.70761901       0.69956778 </v>
   <v>       0.06593305       0.71509871       0.83361851 </v>
   <v>       0.94491618       0.12381061       0.30037611 </v>
   <v>       0.93371042       0.78765761       0.61090502 </v>
   <v>       0.43381422       0.78962035       0.25617438 </v>
   <v>       0.31067246       0.37211609       0.78821674 </v>
   <v>       0.43977860       0.45624276       0.21189238 </v>
   <v>       0.18665468       0.12127343       0.52135744 </v>
   <v>       0.81017349       0.70795555       0.69955718 </v>
   <v>       0.05873442       0.03782281       0.61084278 </v>
   <v>       0.56590413       0.21286700       0.83300438 </v>
   <v>       0.31161395       0.87146220       0.52133797 </v>
   <v>       0.68626305       0.28846878       0.12427207 </v>
   <v>       0.18914292       0.95640085       0.21204330 </v>
   <v>       0.68357937       0.28799881       0.61089445 </v>
   <v>       0.30859847       0.03791051       0.61095022 </v>
   <v>       0.93532887       0.12268522       0.78834038 </v>
   <v>       0.43688951       0.79512900       0.87568425 </v>
   <v>       0.81547328       0.04034209       0.74387333 </v>
   <v>       0.93499791       0.45798883       0.69957724 </v>
   <v>       0.19148556       0.62488894       0.65491101 </v>
   <v>       0.31031624       0.70772747       0.69957955 </v>
   <v>       0.93448170       0.28791555       0.12439029 </v>
   <v>       0.43725798       0.45574210       0.47861683 </v>
   <v>       0.06224896       0.70574082       0.47858375 </v>
   <v>       0.93703200       0.12029140       0.43460716 </v>
   <v>       0.44414039       0.12486328       0.30051621 </v>
   <v>       0.18769720       0.12024442       0.43439146 </v>
   <v>       0.56353488       0.03885104       0.87577008 </v>
   <v>       0.18705874       0.95732120       0.56544946 </v>
   <v>       0.68414652       0.78874046       0.12470717 </v>
   <v>       0.55916766       0.70273633       0.34505392 </v>
   <v>       0.31612990       0.03699976       0.38906197 </v>
   <v>       0.68249939       0.11454802       0.16724967 </v>
   <v>       0.81499112       0.20496902       0.21161575 </v>
   <v>       0.06005273       0.53837015       0.25606877 </v>
   <v>       0.56220432       0.70571447       0.47861137 </v>
   <v>       0.43443239       0.78789865       0.12443709 </v>
   <v>       0.56920171       0.37470663       0.30051125 </v>
   <v>       0.43348215       0.95255435       0.34512304 </v>
   <v>       0.18512112       0.95814617       0.69968243 </v>
   <v>       0.43180868       0.61387796       0.16665132 </v>
   <v>       0.93989496       0.45612055       0.21204725 </v>
   <v>       0.06166403       0.53111996       0.12434547 </v>
   <v>       0.81166540       0.37167602       0.52136688 </v>
   <v>       0.94408836       0.62442543       0.30019074 </v>
   <v>       0.30942290       0.03893853       0.25567988 </v>
   <v>       0.68358608       0.78797967       0.61087133 </v>
   <v>       0.19172702       0.46250600       0.83316678 </v>
   <v>       0.43208983       0.11307556       0.16664491 </v>
   <v>       0.31153296       0.37137937       0.52130048 </v>
   <v>       0.43440084       0.62119459       0.78849255 </v>
   <v>       0.05908183       0.03847778       0.25615911 </v>
   <v>       0.56196518       0.70706779       0.56549814 </v>
   <v>       0.94003128       0.28957582       0.74398640 </v>
   <v>       0.68355991       0.12194937       0.78832327 </v>
   <v>       0.18926201       0.45521059       0.21172998 </v>
   <v>       0.94118164       0.78758986       0.38906156 </v>
   <v>       0.68635669       0.29716768       0.87574915 </v>
   <v>       0.55567842       0.86504592       0.16666358 </v>
   <v>       0.43534801       0.45795032       0.69954185 </v>
   <v>       0.93398366       0.95159739       0.34491851 </v>
   <v>       0.68646543       0.62142964       0.52125919 </v>
   <v>       0.06639418       0.87459809       0.65490038 </v>
   <v>       0.06024928       0.87266049       0.78822864 </v>
   <v>       0.06644359       0.37473758       0.65491559 </v>
   <v>       0.68712784       0.45559700       0.47862794 </v>
   <v>       0.18433915       0.78948859       0.25599325 </v>
   <v>       0.43691138       0.12065613       0.43438419 </v>
   <v>       0.81351905       0.03139605       0.12432890 </v>
   <v>       0.93643890       0.62144740       0.52139547 </v>
   <v>       0.44146252       0.12479160       0.65480922 </v>
   <v>       0.81282952       0.53029924       0.12430218 </v>
   <v>       0.43356611       0.45249487       0.34509844 </v>
   <v>       0.80898798       0.20260537       0.34506238 </v>
   <v>       0.30887719       0.70259346       0.34496803 </v>
   <v>       0.69139952       0.12480491       0.65490337 </v>
   <v>       0.56920983       0.87480520       0.30052606 </v>
   <v>       0.06553731       0.53983357       0.74399832 </v>
   <v>       0.94038494       0.95529404       0.21161964 </v>
   <v>       0.81645202       0.70524757       0.21172149 </v>
   <v>       0.06891680       0.87489644       0.30046127 </v>
   <v>       0.19432838       0.12467706       0.30048639 </v>
   <v>       0.05865629       0.70236893       0.34498003 </v>
   <v>       0.80879754       0.03786007       0.61086443 </v>
   <v>       0.06232113       0.37075314       0.43441989 </v>
   <v>       0.55893568       0.20274744       0.34502311 </v>
   <v>       0.81936989       0.37489682       0.30038152 </v>
   <v>       0.55930850       0.03879431       0.25589993 </v>
   <v>       0.56627417       0.53756241       0.38909314 </v>
   <v>       0.06252378       0.20580122       0.47866320 </v>
   <v>       0.31139274       0.87141038       0.78804770 </v>
   <v>       0.93516038       0.95824719       0.69955452 </v>
   <v>       0.06890574       0.37491479       0.30043653 </v>
   <v>       0.69132032       0.62486511       0.65494507 </v>
   <v>       0.68697386       0.45708233       0.56543051 </v>
   <v>       0.43942740       0.95721564       0.21235318 </v>
   <v>       0.31224956       0.20569198       0.47865987 </v>
   <v>       0.81349599       0.53846486       0.87557324 </v>
   <v>       0.68781225       0.62039253       0.43443904 </v>
   <v>       0.81047468       0.20771598       0.69961442 </v>
   <v>       0.81238561       0.70565009       0.47865303 </v>
   <v>       0.81156138       0.87102225       0.43421230 </v>
   <v>       0.93720118       0.95531439       0.47869091 </v>
   <v>       0.56218176       0.20572569       0.47862613 </v>
   <v>       0.18707402       0.62031498       0.43443975 </v>
   <v>       0.31531420       0.04062409       0.74386515 </v>
   <v>       0.94154638       0.62512749       0.65486489 </v>
   <v>       0.56632145       0.71262376       0.83307257 </v>
   <v>       0.31926696       0.37436716       0.30042181 </v>
   <v>       0.56525335       0.70453814       0.21172201 </v>
   <v>       0.18711422       0.45555535       0.47867334 </v>
   <v>       0.31461106       0.03965479       0.87555592 </v>
   <v>       0.18499721       0.45798473       0.69954557 </v>
   <v>       0.56155908       0.37136156       0.52131608 </v>
   <v>       0.19125089       0.28765749       0.38908685 </v>
   <v>       0.43724180       0.62028937       0.43444522 </v>
   <v>       0.06675830       0.70560866       0.21170286 </v>
   <v>       0.56208415       0.37042234       0.43445575 </v>
   <v>       0.43658820       0.62165896       0.52133242 </v>
   <v>       0.81683322       0.71430873       0.83305803 </v>
   <v>       0.06082436       0.37299974       0.78812312 </v>
   <v>       0.43678501       0.29596105       0.87594812 </v>
   <v>       0.31113602       0.03149475       0.12438946 </v>
   <v>       0.68758249       0.11995517       0.43440848 </v>
   <v>       0.18372379       0.95264956       0.34510553 </v>
   <v>       0.06641962       0.21338977       0.83362814 </v>
   <v>       0.55884411       0.03797969       0.61092441 </v>
   <v>       0.68901956       0.45618519       0.21209894 </v>
   <v>       0.19044544       0.79024662       0.74399667 </v>
   <v>       0.19405386       0.62448900       0.30055262 </v>
   <v>       0.44134181       0.78772592       0.38907752 </v>
   <v>       0.43379399       0.28978937       0.25613289 </v>
   <v>       0.06482738       0.53828993       0.87552869 </v>
   <v>       0.56585101       0.04045788       0.74389545 </v>
   <v>       0.18762633       0.79469342       0.87561547 </v>
   <v>       0.93725604       0.45567931       0.47865107 </v>
   <v>       0.56556683       0.54060169       0.74386227 </v>
   <v>       0.81142695       0.20666067       0.56541335 </v>
   <v>       0.18541690       0.62077353       0.78808367 </v>
   <v>       0.06709863       0.53808132       0.38908381 </v>
   <v>       0.06041868       0.70786119       0.69955796 </v>
   <v>       0.30878967       0.53798531       0.25560801 </v>
   <v>       0.31498758       0.70415402       0.21240786 </v>
   <v>       0.30523914       0.86559510       0.16613051 </v>
   <v>       0.31588244       0.20548638       0.21209564 </v>
   <v>       0.81730564       0.03871529       0.38924150 </v>
   <v>       0.93540443       0.29596196       0.87526729 </v>
   <v>       0.93763346       0.79343048       0.87517808 </v>
   <v>       0.06568114       0.03731802       0.87531692 </v>
   <v>       0.56307758       0.52963277       0.12485244 </v>
   <v>       0.80489505       0.36658674       0.16649895 </v>
   <v>       0.06213880       0.87102492       0.43443901 </v>
   <v>       0.93640933       0.12127224       0.52138919 </v>
   <v>       0.19176743       0.78785696       0.38908736 </v>
   <v>       0.31551503       0.54012191       0.74412297 </v>
  </varray>
 </structure>
 <calculation>
  <scstep>
   <time name="dav">   55.03   55.04</time>
   <time name="total">   55.18   55.22</time>
   <energy>
    <i name="alphaZ">  16293.21160653 </i>
    <i name="ewald"> 737389.18536848 </i>
    <i name="hartreedc">-927889.19433876 </i>
    <i name="XCdc">  -6511.92948645 </i>
    <i name="pawpsdc"> 162273.92519768 </i>
    <i name="pawaedc">-159623.75899949 </i>
    <i name="eentropy">     -1.07167016 </i>
    <i name="bandstr">  38484.14380300 </i>
    <i name="atom"> 168671.76673737 </i>
    <i name="e_fr_energy">  29086.27821821 </i>
    <i name="e_wo_entrp">  29087.34988837 </i>
    <i name="e_0_energy">  29086.81405329 </i>
   </energy>
  </scstep>
  <scstep>
   <time name="dav">   54.57   54.58</time>
   <time name="total">   54.58   54.59</time>
   <energy>
    <i name="e_fr_energy">   1190.17109591 </i>
    <i name="e_wo_entrp">   1191.65986910 </i>
    <i name="e_0_energy">   1190.91548250 </i>
   </energy>
  </scstep>
  <scstep>
   <time name="dav">   71.61   71.62</time>
   <time name="total">   71.62   71.63</time>
   <energy>
    <i name="e_fr_energy">  -1949.26560210 </i>
    <i name="e_wo_entrp">  -1945.70926520 </i>
    <i name="e_0_energy">  -1947.48743365 </i>
   </energy>
  </scstep>
  <scstep>
   <time name="dav">   89.86   89.90</time>
   <time name="total">   89.86   89.90</time>
   <energy>
    <i name="e_fr_energy">  -2618.96492520 </i>
    <i name="e_wo_entrp">  -2615.44712932 </i>
    <i name="e_0_energy">  -2617.20602726 </i>
   </energy>
  </scstep>
  <scstep>
   <time name="dav">   86.03   86.07</time>
   <time name="total">   88.11   88.15</time>
   <energy>
    <i name="e_fr_energy">  -2738.63457003 </i>
    <i name="e_wo_entrp">  -2734.99000460 </i>
    <i name="e_0_energy">  -2736.81228732 </i>
   </energy>
  </scstep>
  <scstep>
   <time name="diag">    8.32    8.32</time>
   <time name="diis">   37.26   37.26</time>
   <time name="orth">    2.32    2.32</time>
   <time name="total">   50.24   50.27</time>
   <energy>
    <i name="e_fr_energy">  -5209.07235802 </i>
    <i name="e_wo_entrp">  -5206.45012296 </i>
    <i name="e_0_energy">  -5207.76124049 </i>
   </energy>
  </scstep>
  <scstep>
   <time name="diag">    8.35    8.35</time>
   <time name="diis">   22.26   22.26</time>
   <time name="orth">    2.31    2.31</time>
   <time name="total">   35.05   35.09</time>
[...]
       <r>     5.8542     0.0000  2772.0000 </r>
       <r>     5.8970     0.0000  2772.0000 </r>
       <r>     5.9398     0.0000  2772.0000 </r>
       <r>     5.9825     0.0000  2772.0000 </r>
       <r>     6.0253     0.0000  2772.0000 </r>
       <r>     6.0681     0.0000  2772.0000 </r>
       <r>     6.1108     0.0000  2772.0000 </r>
       <r>     6.1536     0.0000  2772.0000 </r>
       <r>     6.1963     0.0000  2772.0000 </r>
       <r>     6.2391     0.0000  2772.0000 </r>
       <r>     6.2819     0.0000  2772.0000 </r>
       <r>     6.3246     0.0000  2772.0000 </r>
       <r>     6.3674     0.0000  2772.0000 </r>
       <r>     6.4102     0.0000  2772.0000 </r>
       <r>     6.4529     0.0000  2772.0000 </r>
       <r>     6.4957     0.0000  2772.0000 </r>
       <r>     6.5384     0.0000  2772.0000 </r>
       <r>     6.5812     0.0000  2772.0000 </r>
       <r>     6.6240     0.0000  2772.0000 </r>
       <r>     6.6667     0.0000  2772.0000 </r>
       <r>     6.7095     0.0000  2772.0000 </r>
       <r>     6.7523     0.0000  2772.0000 </r>
       <r>     6.7950     0.0000  2772.0000 </r>
      </set>
     </set>
    </array>
   </total>
  </dos>
 </calculation>
 <structure name="finalpos" >
  <crystal>
   <varray name="basis" >
    <v>       9.72667804       0.00000000       0.00000000 </v>
    <v>       0.00000000       8.42355028       0.00000000 </v>
    <v>       0.00000000       0.00000000      45.00000000 </v>
   </varray>
   <i name="volume">   3686.99226691 </i>
   <varray name="rec_basis" >
    <v>       0.10281002       0.00000000       0.00000000 </v>
    <v>       0.00000000       0.11871479       0.00000000 </v>
    <v>       0.00000000       0.00000000       0.02222222 </v>
   </varray>
  </crystal>
  <varray name="positions" >
   <v>       0.06059665       0.03381419       0.12455531 </v>
   <v>       0.31379114       0.87414313       0.65486651 </v>
   <v>       0.18688760       0.12340135       0.78804444 </v>
   <v>       0.43990040       0.28798485       0.38939467 </v>
   <v>       0.31465559       0.70976779       0.83305636 </v>
   <v>       0.81590512       0.21140790       0.83334142 </v>
   <v>       0.18887794       0.96026234       0.83343917 </v>
   <v>       0.56187830       0.20611197       0.56573456 </v>
   <v>       0.06329445       0.04045692       0.74392720 </v>
   <v>       0.81124638       0.87249002       0.52167440 </v>
   <v>       0.18863601       0.29077525       0.74391427 </v>
   <v>       0.93705848       0.45413362       0.34517133 </v>
   <v>       0.93907571       0.28767617       0.38938610 </v>
   <v>       0.81313430       0.04346421       0.87519470 </v>
   <v>       0.18579082       0.78898467       0.61059006 </v>
   <v>       0.56449840       0.03822308       0.38943074 </v>
   <v>       0.94109270       0.96086664       0.83344260 </v>
   <v>       0.31338316       0.54294648       0.87531617 </v>
   <v>       0.68871678       0.29084986       0.74389019 </v>
   <v>       0.18457820       0.61723351       0.16666409 </v>
   <v>       0.81203756       0.20507363       0.47840258 </v>
   <v>       0.81069231       0.53893254       0.61068886 </v>
   <v>       0.31239485       0.87102609       0.43433152 </v>
   <v>       0.81192654       0.03852523       0.25610511 </v>
   <v>       0.68713605       0.95423257       0.34513152 </v>
   <v>       0.93347876       0.11693757       0.16678288 </v>
   <v>       0.06219970       0.87250258       0.52154798 </v>
   <v>       0.56163102       0.53870061       0.25614783 </v>
   <v>       0.68752936       0.79231334       0.87521441 </v>
   <v>       0.55866277       0.36748302       0.16642476 </v>
   <v>       0.43898283       0.79103369       0.74391494 </v>
   <v>       0.81171491       0.70617943       0.56576530 </v>
   <v>       0.56246476       0.87284469       0.78805741 </v>
   <v>       0.68643128       0.12216722       0.52165097 </v>
   <v>       0.81352391       0.37401436       0.65495400 </v>
   <v>       0.94056450       0.46119748       0.83334998 </v>
   <v>       0.06167317       0.20764397       0.69951993 </v>
   <v>       0.43707448       0.95725246       0.69951524 </v>
   <v>       0.31447495       0.20993091       0.83351243 </v>
   <v>       0.43885451       0.62371856       0.65491062 </v>
   <v>       0.31099260       0.53912647       0.61064664 </v>
   <v>       0.93667946       0.45564666       0.56581110 </v>
   <v>       0.68887255       0.79079912       0.74392359 </v>
   <v>       0.93362257       0.78483926       0.12485452 </v>
   <v>       0.69012806       0.78765809       0.38937940 </v>
   <v>       0.93868424       0.79040098       0.74398756 </v>
   <v>       0.06219221       0.20472936       0.34514588 </v>
   <v>       0.68730338       0.45399631       0.34512323 </v>
   <v>       0.43692457       0.12354900       0.78817869 </v>
   <v>       0.06272879       0.20418153       0.21166044 </v>
   <v>       0.05750956       0.36679057       0.16650329 </v>
   <v>       0.93653741       0.78861995       0.25601774 </v>
   <v>       0.56197767       0.20758296       0.69954335 </v>
   <v>       0.68679799       0.95705567       0.69959472 </v>
   <v>       0.81169124       0.87323733       0.78803704 </v>
   <v>       0.43695558       0.95612689       0.56574845 </v>
   <v>       0.81199787       0.37413078       0.78804906 </v>
   <v>       0.68689885       0.28843085       0.25626028 </v>
   <v>       0.18672918       0.45603744       0.56576621 </v>
   <v>       0.05868961       0.86786298       0.16651658 </v>
   <v>       0.18601642       0.28929478       0.61073354 </v>
   <v>       0.06161554       0.20599164       0.56575022 </v>
   <v>       0.31229674       0.20762788       0.69958825 </v>
   <v>       0.56492071       0.54362151       0.87521283 </v>
   <v>       0.06171738       0.70598211       0.56575890 </v>
   <v>       0.68695845       0.62344918       0.78803556 </v>
   <v>       0.31408977       0.53777216       0.38944124 </v>
   <v>       0.18717755       0.62260158       0.52164259 </v>
   <v>       0.56258080       0.87150414       0.43426432 </v>
   <v>       0.43691412       0.45610781       0.56574666 </v>
   <v>       0.43914993       0.29126424       0.74385203 </v>
   <v>       0.81531858       0.87329744       0.30038007 </v>
   <v>       0.81204722       0.70341978       0.34522321 </v>
   <v>       0.44027639       0.46035739       0.83335892 </v>
   <v>       0.68771586       0.95491895       0.47836458 </v>
   <v>       0.68692723       0.45726783       0.69958992 </v>
   <v>       0.56202227       0.87224916       0.52161287 </v>
   <v>       0.56401212       0.37378009       0.65483901 </v>
   <v>       0.81346624       0.87378004       0.65493205 </v>
   <v>       0.81224350       0.37098984       0.43411408 </v>
   <v>       0.81180018       0.53800328       0.25621956 </v>
   <v>       0.69071873       0.46072714       0.83324210 </v>
   <v>       0.18511712       0.78486835       0.12442404 </v>
   <v>       0.68965411       0.28769287       0.38935901 </v>
   <v>       0.31365546       0.37396580       0.65485538 </v>
   <v>       0.31223577       0.20429102       0.34517237 </v>
   <v>       0.81368201       0.54054965       0.74382885 </v>
   <v>       0.69066036       0.96017909       0.83327634 </v>
   <v>       0.56374355       0.87392982       0.65492881 </v>
   <v>       0.31178649       0.70619662       0.56573803 </v>
   <v>       0.31011992       0.53439040       0.12450461 </v>
   <v>       0.68812948       0.95431203       0.21190194 </v>
   <v>       0.31184102       0.20639880       0.56571774 </v>
   <v>       0.18708818       0.95491501       0.47834488 </v>
   <v>       0.68701420       0.95625213       0.56580328 </v>
   <v>       0.43594305       0.78903983       0.61060975 </v>
   <v>       0.68314933       0.61549309       0.16671306 </v>
   <v>       0.31521909       0.87250816       0.30048478 </v>
   <v>       0.31203099       0.70476251       0.47828149 </v>
   <v>       0.93581287       0.28891076       0.61065225 </v>
   <v>       0.44059768       0.62255096       0.30059997 </v>
   <v>       0.80829290       0.86657359       0.16673164 </v>
   <v>       0.56412644       0.20373841       0.21204446 </v>
   <v>       0.93451249       0.61592566       0.16679542 </v>
   <v>       0.43721651       0.95480909       0.47842132 </v>
   <v>       0.56232214       0.37357637       0.78812519 </v>
   <v>       0.06171949       0.37266685       0.52160351 </v>
   <v>       0.30810110       0.36585829       0.16645218 </v>
   <v>       0.69052809       0.12326783       0.30055231 </v>
   <v>       0.44074399       0.95952826       0.83326960 </v>
   <v>       0.18497488       0.28371147       0.12462906 </v>
   <v>       0.18667651       0.28776681       0.25614637 </v>
   <v>       0.31248093       0.37114437       0.43427820 </v>
   <v>       0.56139793       0.03387446       0.12466222 </v>
   <v>       0.43606428       0.28921303       0.61063543 </v>
   <v>       0.18708631       0.45418860       0.34525266 </v>
   <v>       0.43286668       0.28367186       0.12467831 </v>
   <v>       0.68677390       0.78855442       0.25622289 </v>
   <v>       0.43697771       0.12271730       0.52160236 </v>
   <v>       0.18908550       0.29279730       0.87557710 </v>
   <v>       0.18864272       0.12429996       0.65494867 </v>
   <v>       0.93855539       0.12401141       0.65488201 </v>
   <v>       0.81466673       0.53756326       0.38939624 </v>
   <v>       0.06422062       0.03825445       0.38948515 </v>
   <v>       0.18350702       0.11599593       0.16659694 </v>
   <v>       0.06084921       0.53900695       0.61062795 </v>
   <v>       0.93665852       0.28818409       0.25613532 </v>
   <v>       0.56095279       0.53907518       0.61062885 </v>
   <v>       0.93680196       0.95575751       0.56578435 </v>
   <v>       0.69062101       0.62338571       0.30064414 </v>
   <v>       0.93779331       0.62138676       0.43417595 </v>
   <v>       0.93652455       0.62467512       0.78808968 </v>
   <v>       0.56174101       0.70673385       0.69954801 </v>
   <v>       0.06414071       0.71146298       0.83337004 </v>
   <v>       0.94028197       0.12338369       0.30045993 </v>
   <v>       0.93575127       0.78879900       0.61068807 </v>
   <v>       0.43661819       0.78835007       0.25622864 </v>
   <v>       0.31178809       0.37297522       0.78812302 </v>
   <v>       0.43855807       0.45471480       0.21192275 </v>
   <v>       0.18705818       0.12219160       0.52162501 </v>
   <v>       0.81170312       0.70697692       0.69959807 </v>
   <v>       0.06064616       0.03926483       0.61057403 </v>
   <v>       0.56493110       0.21038121       0.83311020 </v>
   <v>       0.31173064       0.87213826       0.52166961 </v>
   <v>       0.68614800       0.28344020       0.12461573 </v>
   <v>       0.18742928       0.95559986       0.21190627 </v>
   <v>       0.68565366       0.28931669       0.61075695 </v>
   <v>       0.31085556       0.03899148       0.61066496 </v>
   <v>       0.93676076       0.12470311       0.78811692 </v>
   <v>       0.43785323       0.79109005       0.87522538 </v>
   <v>       0.81368563       0.04083552       0.74386294 </v>
   <v>       0.93658666       0.45732091       0.69955068 </v>
   <v>       0.18870452       0.62386734       0.65488641 </v>
   <v>       0.31208675       0.70721694       0.69953062 </v>
   <v>       0.93433191       0.28338898       0.12459153 </v>
   <v>       0.43729846       0.45459739       0.47834984 </v>
   <v>       0.06217488       0.70443744       0.47829090 </v>
   <v>       0.93729738       0.12076441       0.43449111 </v>
   <v>       0.44059352       0.12307430       0.30055348 </v>
   <v>       0.18744701       0.12050201       0.43410230 </v>
   <v>       0.56506902       0.04278959       0.87518946 </v>
   <v>       0.18640627       0.95606305       0.56580728 </v>
   <v>       0.68563431       0.78522305       0.12491612 </v>
   <v>       0.56240577       0.70376027       0.34521680 </v>
   <v>       0.31419229       0.03781367       0.38947507 </v>
   <v>       0.68483336       0.11647443       0.16686085 </v>
   <v>       0.81383976       0.20397675       0.21186359 </v>
   <v>       0.06158242       0.53856490       0.25603083 </v>
   <v>       0.56237365       0.70475708       0.47832867 </v>
   <v>       0.43397955       0.78497178       0.12454885 </v>
   <v>       0.56546822       0.37296460       0.30062122 </v>
   <v>       0.43717551       0.95404267       0.34520690 </v>
   <v>       0.18696772       0.95741682       0.69960921 </v>
   <v>       0.43378052       0.61665747       0.16672922 </v>
   <v>       0.93849685       0.45465868       0.21205130 </v>
   <v>       0.06039338       0.53280835       0.12458327 </v>
   <v>       0.81167283       0.37252502       0.52162307 </v>
   <v>       0.94043466       0.62345327       0.30039929 </v>
   <v>       0.31145815       0.03849615       0.25605174 </v>
   <v>       0.68596793       0.78904368       0.61065030 </v>
   <v>       0.18982151       0.46092487       0.83342064 </v>
   <v>       0.43391761       0.11563993       0.16673638 </v>
   <v>       0.31180156       0.37258899       0.52162986 </v>
   <v>       0.43723840       0.62360402       0.78823378 </v>
   <v>       0.06126351       0.03844096       0.25604538 </v>
   <v>       0.56176839       0.70608782       0.56574268 </v>
   <v>       0.93860691       0.29053590       0.74393260 </v>
   <v>       0.68693351       0.12370649       0.78796635 </v>
   <v>       0.18717480       0.45491489       0.21184079 </v>
   <v>       0.93901723       0.78739424       0.38947328 </v>
   <v>       0.68809417       0.29360313       0.87537554 </v>
   <v>       0.55754730       0.86678092       0.16660022 </v>
   <v>       0.43726313       0.45721943       0.69955958 </v>
   <v>       0.93737063       0.95410224       0.34522183 </v>
   <v>       0.68644375       0.62231112       0.52158555 </v>
   <v>       0.06360271       0.87387664       0.65489279 </v>
   <v>       0.06189509       0.87315176       0.78817401 </v>
   <v>       0.06336389       0.37393533       0.65488632 </v>
   <v>       0.68730633       0.45449878       0.47828448 </v>
   <v>       0.18659579       0.78851135       0.25615041 </v>
   <v>       0.43735510       0.12110527       0.43432596 </v>
   <v>       0.81116378       0.03433440       0.12470461 </v>
   <v>       0.93662169       0.62235035       0.52159835 </v>
   <v>       0.43901229       0.12408272       0.65490948 </v>
   <v>       0.81211085       0.53394988       0.12438358 </v>
   <v>       0.43750114       0.45406426       0.34516155 </v>
   <v>       0.81219965       0.20399258       0.34518775 </v>
   <v>       0.31237269       0.70397397       0.34513106 </v>
   <v>       0.68855857       0.12405330       0.65492618 </v>
   <v>       0.56551731       0.87292632       0.30054231 </v>
   <v>       0.06304594       0.54024276       0.74386801 </v>
   <v>       0.93840558       0.95496593       0.21183071 </v>
   <v>       0.81392060       0.70425066       0.21193814 </v>
   <v>       0.06525554       0.87301088       0.30054408 </v>
   <v>       0.19034894       0.12344412       0.30041129 </v>
   <v>       0.06197748       0.70390464       0.34520021 </v>
   <v>       0.81100774       0.03914821       0.61061033 </v>
   <v>       0.06240696       0.37121884       0.43412116 </v>
   <v>       0.56245806       0.20404023       0.34516575 </v>
   <v>       0.81538410       0.37332464       0.30043379 </v>
   <v>       0.56200833       0.03885021       0.25618260 </v>
   <v>       0.56428054       0.53746663       0.38932193 </v>
   <v>       0.06233305       0.20459667       0.47836615 </v>
   <v>       0.31222727       0.87223713       0.78790352 </v>
   <v>       0.93658406       0.95724776       0.69952469 </v>
   <v>       0.06526394       0.37330791       0.30061971 </v>
   <v>       0.68861829       0.62384823       0.65496398 </v>
   <v>       0.68669509       0.45595975       0.56575371 </v>
   <v>       0.43843380       0.95478280       0.21206665 </v>
   <v>       0.31210126       0.20464740       0.47834073 </v>
   <v>       0.81351444       0.54284784       0.87523978 </v>
   <v>       0.68812831       0.62086668       0.43418611 </v>
   <v>       0.81173208       0.20758396       0.69955636 </v>
   <v>       0.81244789       0.70493654       0.47826273 </v>
   <v>       0.81240501       0.87107682       0.43420928 </v>
   <v>       0.93715728       0.95447166       0.47835376 </v>
   <v>       0.56245786       0.20468699       0.47838572 </v>
   <v>       0.18733484       0.62113439       0.43424902 </v>
   <v>       0.31375133       0.04105706       0.74388991 </v>
   <v>       0.93847730       0.62387619       0.65492603 </v>
   <v>       0.56521226       0.70999762       0.83310661 </v>
   <v>       0.31533431       0.37284667       0.30056572 </v>
   <v>       0.56370554       0.70439346       0.21184381 </v>
   <v>       0.18718965       0.45473246       0.47834512 </v>
   <v>       0.31439660       0.04403071       0.87525842 </v>
   <v>       0.18661914       0.45734629       0.69951810 </v>
   <v>       0.56198850       0.37254130       0.52160791 </v>
   <v>       0.18875539       0.28780124       0.38947554 </v>
   <v>       0.43694348       0.62094987       0.43426506 </v>
   <v>       0.06341022       0.70429186       0.21178501 </v>
   <v>       0.56261861       0.37087934       0.43433673 </v>
   <v>       0.43684646       0.62245244       0.52160650 </v>
   <v>       0.81522890       0.71087961       0.83294454 </v>
   <v>       0.06212427       0.37452768       0.78811561 </v>
   <v>       0.43757771       0.29337902       0.87542985 </v>
   <v>       0.31026422       0.03461559       0.12420475 </v>
   <v>       0.68791833       0.12135048       0.43423619 </v>
   <v>       0.18684604       0.95402038       0.34522535 </v>
   <v>       0.06446116       0.21098478       0.83336329 </v>
   <v>       0.56107888       0.03920902       0.61063961 </v>
   <v>       0.68788042       0.45447641       0.21196091 </v>
   <v>       0.18853059       0.79057392       0.74390432 </v>
   <v>       0.19024362       0.62282218       0.30045961 </v>
   <v>       0.43960212       0.78737729       0.38941811 </v>
   <v>       0.43639632       0.28829580       0.25615599 </v>
   <v>       0.06554935       0.54258748       0.87537593 </v>
   <v>       0.56448287       0.04111209       0.74393220 </v>
   <v>       0.18842847       0.79180696       0.87547951 </v>
   <v>       0.93701937       0.45431634       0.47831144 </v>
   <v>       0.56448705       0.54089284       0.74381566 </v>
   <v>       0.81157645       0.20625328       0.56574435 </v>
   <v>       0.18684165       0.62359808       0.78812991 </v>
   <v>       0.06467159       0.53813271       0.38951403 </v>
   <v>       0.06186353       0.70707342       0.69956238 </v>
   <v>       0.31095923       0.53795660       0.25589974 </v>
   <v>       0.31358297       0.70457387       0.21213489 </v>
   <v>       0.30720296       0.86730139       0.16611406 </v>
   <v>       0.31348083       0.20486158       0.21203036 </v>
   <v>       0.81563453       0.03797992       0.38943834 </v>
   <v>       0.93689149       0.29413132       0.87530772 </v>
   <v>       0.93807853       0.79002737       0.87513031 </v>
   <v>       0.06543226       0.04198958       0.87520169 </v>
   <v>       0.56174895       0.53324310       0.12488372 </v>
   <v>       0.80776165       0.36681319       0.16610929 </v>
   <v>       0.06166405       0.87127025       0.43419075 </v>
   <v>       0.93668582       0.12264152       0.52150030 </v>
   <v>       0.18942137       0.78691352       0.38930934 </v>
   <v>       0.31420450       0.54066716       0.74400093 </v>
  </varray>
 </structure>
</modeling>
