unknown system                          
           1
     9.726678    0.000000    0.000000
     0.000000    8.423550    0.000000
     0.000000    0.000000   45.000000
   Fe   Mn
 274  14
Direct configuration=     1
   0.06188525  0.03106498  0.12432081
   0.31652694  0.87478953  0.65485328
   0.18508452  0.12139223  0.78832821
   0.44156480  0.28773716  0.38910557
   0.31761280  0.71243163  0.83281526
   0.81774289  0.21390496  0.83334775
   0.19128318  0.96255227  0.83330645
   0.56226791  0.20716072  0.56547203
   0.06552767  0.03987815  0.74395082
   0.81155932  0.87123650  0.52133408
   0.19108573  0.29039011  0.74391252
   0.93368523  0.45223497  0.34490408
   0.94119291  0.28686306  0.38897420
   0.81305442  0.03949968  0.87543217
   0.18354077  0.78804688  0.61086058
   0.56645360  0.03765775  0.38907348
   0.94169478  0.96306306  0.83355171
   0.31457449  0.53864415  0.87579548
   0.69052332  0.29032884  0.74391547
   0.18255981  0.61393651  0.16673058
   0.81210665  0.20575333  0.47867641
   0.80876106  0.53790526  0.61090355
   0.31199576  0.87028592  0.43447343
   0.80920101  0.03829807  0.25616018
   0.68343222  0.95167478  0.34491879
   0.93116762  0.11487071  0.16729627
   0.06164899  0.87128298  0.52134548
   0.55900798  0.53866319  0.25611842
   0.68475480  0.79508645  0.87542195
   0.55622390  0.36579511  0.16672050
   0.43989732  0.79062513  0.74405555
   0.81159525  0.70661801  0.56545590
   0.56032350  0.87209921  0.78830277
   0.68656005  0.12133757  0.52133446
   0.81645697  0.37471747  0.65489983
   0.94159535  0.46268205  0.83352926
   0.06031609  0.20798091  0.69956407
   0.43511925  0.95799129  0.69955391
   0.31677776  0.21181700  0.83332825
   0.44138946  0.62491527  0.65489145
   0.30874097  0.53789139  0.61087198
   0.93680131  0.45676979  0.56556168
   0.69008075  0.79097027  0.74402263
   0.93370003  0.78850523  0.12464294
   0.69162770  0.78786310  0.38909451
   0.94056456  0.79006019  0.74413386
   0.05875853  0.20284427  0.34505297
   0.68340702  0.45234729  0.34507879
   0.43525144  0.12113034  0.78866544
   0.06505428  0.20531529  0.21165733
   0.05489112  0.36599615  0.16676619
   0.93376984  0.78927765  0.25600526
   0.56037378  0.20769981  0.69958419
   0.68508146  0.95800968  0.69959731
   0.81008168  0.87218099  0.78819554
   0.43698644  0.95720531  0.56541278
   0.81067920  0.37280526  0.78818608
   0.68435176  0.28977635  0.25606927
   0.18715906  0.45720119  0.56545211
   0.05578485  0.86575078  0.16679040
   0.18367902  0.28802780  0.61087685
   0.06252085  0.20728357  0.56536334
   0.31037296  0.20791335  0.69962640
   0.56355758  0.53905365  0.87566581
   0.06176866  0.70636397  0.56550783
   0.68500388  0.62139554  0.78815863
   0.31624481  0.53776658  0.38905555
   0.18673317  0.62127195  0.52142117
   0.56246725  0.87048233  0.43446232
   0.43700366  0.45728033  0.56546472
   0.43990784  0.29086879  0.74402016
   0.81922677  0.87494201  0.30039727
   0.80871572  0.70279534  0.34509889
   0.44167056  0.46230651  0.83313761
   0.68729506  0.95572177  0.47864228
   0.68500927  0.45806188  0.69959548
   0.56177127  0.87175832  0.52137660
   0.56659983  0.37472718  0.65484909
   0.81637237  0.87483580  0.65493335
   0.81189087  0.37161410  0.43426233
   0.80898929  0.53832815  0.25626901
   0.69195940  0.46133215  0.83305208
   0.18607489  0.78852520  0.12425002
   0.69131075  0.28751641  0.38907477
   0.31647178  0.37471359  0.65487997
   0.30923844  0.20277946  0.34504361
   0.81568445  0.53990259  0.74394584
   0.69157174  0.96164637  0.83311656
   0.56617169  0.87441711  0.65490517
   0.31182826  0.70697003  0.56540948
   0.31253068  0.53204999  0.12430395
   0.68926564  0.95600289  0.21193284
   0.31143517  0.20659721  0.56547399
   0.18729832  0.95582956  0.47865446
   0.68741482  0.95722446  0.56546214
   0.43372811  0.78786884  0.61087677
   0.68251082  0.61229195  0.16675549
   0.31918031  0.87436283  0.30041240
   0.31227179  0.70568630  0.47864962
   0.93370861  0.28792606  0.61084941
   0.44465835  0.62492275  0.30055544
   0.80656245  0.86446177  0.16727305
   0.56592772  0.20338096  0.21195226
   0.93282192  0.61306747  0.16682632
   0.43723830  0.95569038  0.47863633
   0.56039973  0.37162231  0.78837320
   0.06126452  0.37172495  0.52138839
   0.30707819  0.36391785  0.16684169
   0.69468728  0.12440514  0.30044490
   0.44269514  0.96182966  0.83308036
   0.18463914  0.28765823  0.12448238
   0.18413179  0.28939526  0.25611534
   0.31211795  0.37047594  0.43443852
   0.56260853  0.03259107  0.12455393
   0.43358463  0.28809975  0.61084240
   0.18381517  0.45285258  0.34512318
   0.43440725  0.28766063  0.12455441
   0.68396452  0.78941893  0.25615831
   0.43651164  0.12131238  0.52132830
   0.18852171  0.29405038  0.87573798
   0.19150757  0.12496168  0.65489464
   0.94145522  0.12495995  0.65490811
   0.81636528  0.53751919  0.38908443
   0.06652528  0.03775707  0.38909141
   0.18322738  0.11244896  0.16653345
   0.05862189  0.53769075  0.61090224
   0.93418001  0.28962567  0.25607538
   0.55861870  0.53801427  0.61085505
   0.93690666  0.95741300  0.56543791
   0.69400054  0.62493715  0.30039988
   0.93731913  0.62043965  0.43445912
   0.93414066  0.62251222  0.78800526
   0.56038017  0.70761901  0.69956778
   0.06593305  0.71509871  0.83361851
   0.94491618  0.12381061  0.30037611
   0.93371042  0.78765761  0.61090502
   0.43381422  0.78962035  0.25617438
   0.31067246  0.37211609  0.78821674
   0.43977860  0.45624276  0.21189238
   0.18665468  0.12127343  0.52135744
   0.81017349  0.70795555  0.69955718
   0.05873442  0.03782281  0.61084278
   0.56590413  0.21286700  0.83300438
   0.31161395  0.87146220  0.52133797
   0.68626305  0.28846878  0.12427207
   0.18914292  0.95640085  0.21204330
   0.68357937  0.28799881  0.61089445
   0.30859847  0.03791051  0.61095022
   0.93532887  0.12268522  0.78834038
   0.43688951  0.79512900  0.87568425
   0.81547328  0.04034209  0.74387333
   0.93499791  0.45798883  0.69957724
   0.19148556  0.62488894  0.65491101
   0.31031624  0.70772747  0.69957955
   0.93448170  0.28791555  0.12439029
   0.43725798  0.45574210  0.47861683
   0.06224896  0.70574082  0.47858375
   0.93703200  0.12029140  0.43460716
   0.44414039  0.12486328  0.30051621
   0.18769720  0.12024442  0.43439146
   0.56353488  0.03885104  0.87577008
   0.18705874  0.95732120  0.56544946
   0.68414652  0.78874046  0.12470717
   0.55916766  0.70273633  0.34505392
   0.31612990  0.03699976  0.38906197
   0.68249939  0.11454802  0.16724967
   0.81499112  0.20496902  0.21161575
   0.06005273  0.53837015  0.25606877
   0.56220432  0.70571447  0.47861137
   0.43443239  0.78789865  0.12443709
   0.56920171  0.37470663  0.30051125
   0.43348215  0.95255435  0.34512304
   0.18512112  0.95814617  0.69968243
   0.43180868  0.61387796  0.16665132
   0.93989496  0.45612055  0.21204725
   0.06166403  0.53111996  0.12434547
   0.81166540  0.37167602  0.52136688
   0.94408836  0.62442543  0.30019074
   0.30942290  0.03893853  0.25567988
   0.68358608  0.78797967  0.61087133
   0.19172702  0.46250600  0.83316678
   0.43208983  0.11307556  0.16664491
   0.31153296  0.37137937  0.52130048
   0.43440084  0.62119459  0.78849255
   0.05908183  0.03847778  0.25615911
   0.56196518  0.70706779  0.56549814
   0.94003128  0.28957582  0.74398640
   0.68355991  0.12194937  0.78832327
   0.18926201  0.45521059  0.21172998
   0.94118164  0.78758986  0.38906156
   0.68635669  0.29716768  0.87574915
   0.55567842  0.86504592  0.16666358
   0.43534801  0.45795032  0.69954185
   0.93398366  0.95159739  0.34491851
   0.68646543  0.62142964  0.52125919
   0.06639418  0.87459809  0.65490038
   0.06024928  0.87266049  0.78822864
   0.06644359  0.37473758  0.65491559
   0.68712784  0.45559700  0.47862794
   0.18433915  0.78948859  0.25599325
   0.43691138  0.12065613  0.43438419
   0.81351905  0.03139605  0.12432890
   0.93643890  0.62144740  0.52139547
   0.44146252  0.12479160  0.65480922
   0.81282952  0.53029924  0.12430218
   0.43356611  0.45249487  0.34509844
   0.80898798  0.20260537  0.34506238
   0.30887719  0.70259346  0.34496803
   0.69139952  0.12480491  0.65490337
   0.56920983  0.87480520  0.30052606
   0.06553731  0.53983357  0.74399832
   0.94038494  0.95529404  0.21161964
   0.81645202  0.70524757  0.21172149
   0.06891680  0.87489644  0.30046127
   0.19432838  0.12467706  0.30048639
   0.05865629  0.70236893  0.34498003
   0.80879754  0.03786007  0.61086443
   0.06232113  0.37075314  0.43441989
   0.55893568  0.20274744  0.34502311
   0.81936989  0.37489682  0.30038152
   0.55930850  0.03879431  0.25589993
   0.56627417  0.53756241  0.38909314
   0.06252378  0.20580122  0.47866320
   0.31139274  0.87141038  0.78804770
   0.93516038  0.95824719  0.69955452
   0.06890574  0.37491479  0.30043653
   0.69132032  0.62486511  0.65494507
   0.68697386  0.45708233  0.56543051
   0.43942740  0.95721564  0.21235318
   0.31224956  0.20569198  0.47865987
   0.81349599  0.53846486  0.87557324
   0.68781225  0.62039253  0.43443904
   0.81047468  0.20771598  0.69961442
   0.81238561  0.70565009  0.47865303
   0.81156138  0.87102225  0.43421230
   0.93720118  0.95531439  0.47869091
   0.56218176  0.20572569  0.47862613
   0.18707402  0.62031498  0.43443975
   0.31531420  0.04062409  0.74386515
   0.94154638  0.62512749  0.65486489
   0.56632145  0.71262376  0.83307257
   0.31926696  0.37436716  0.30042181
   0.56525335  0.70453814  0.21172201
   0.18711422  0.45555535  0.47867334
   0.31461106  0.03965479  0.87555592
   0.18499721  0.45798473  0.69954557
   0.56155908  0.37136156  0.52131608
   0.19125089  0.28765749  0.38908685
   0.43724180  0.62028937  0.43444522
   0.06675830  0.70560866  0.21170286
   0.56208415  0.37042234  0.43445575
   0.43658820  0.62165896  0.52133242
   0.81683322  0.71430873  0.83305803
   0.06082436  0.37299974  0.78812312
   0.43678501  0.29596105  0.87594812
   0.31113602  0.03149475  0.12438946
   0.68758249  0.11995517  0.43440848
   0.18372379  0.95264956  0.34510553
   0.06641962  0.21338977  0.83362814
   0.55884411  0.03797969  0.61092441
   0.68901956  0.45618519  0.21209894
   0.19044544  0.79024662  0.74399667
   0.19405386  0.62448900  0.30055262
   0.44134181  0.78772592  0.38907752
   0.43379399  0.28978937  0.25613289
   0.06482738  0.53828993  0.87552869
   0.56585101  0.04045788  0.74389545
   0.18762633  0.79469342  0.87561547
   0.93725604  0.45567931  0.47865107
   0.56556683  0.54060169  0.74386227
   0.81142695  0.20666067  0.56541335
   0.18541690  0.62077353  0.78808367
   0.06709863  0.53808132  0.38908381
   0.06041868  0.70786119  0.69955796
   0.30878967  0.53798531  0.25560801
   0.31498758  0.70415402  0.21240786
   0.30523914  0.86559510  0.16613051
   0.31588244  0.20548638  0.21209564
   0.81730564  0.03871529  0.38924150
   0.93540443  0.29596196  0.87526729
   0.93763346  0.79343048  0.87517808
   0.06568114  0.03731802  0.87531692
   0.56307758  0.52963277  0.12485244
   0.80489505  0.36658674  0.16649895
   0.06213880  0.87102492  0.43443901
   0.93640933  0.12127224  0.52138919
   0.19176743  0.78785696  0.38908736
   0.31551503  0.54012191  0.74412297
Direct configuration=     2
   0.06169869  0.03157221  0.12437304
   0.31614438  0.87468355  0.65486270
   0.18529680  0.12170552  0.78828081
   0.44132903  0.28779016  0.38915257
   0.31712128  0.71197765  0.83287692
   0.81744576  0.21357275  0.83336130
   0.19089205  0.96215100  0.83335106
   0.56222543  0.20698621  0.56551498
   0.06518980  0.03996229  0.74394989
   0.81142862  0.87151468  0.52140913
   0.19070655  0.29044119  0.74390930
   0.93415017  0.45251566  0.34495132
   0.94088875  0.28701601  0.38905177
   0.81306315  0.04017573  0.87538367
   0.18385812  0.78816472  0.61080793
   0.56620092  0.03776159  0.38913583
   0.94163745  0.96271246  0.83354254
   0.31431841  0.53936536  0.87569272
   0.69025113  0.29045221  0.74390653
   0.18286255  0.61444180  0.16669886
   0.81211314  0.20561624  0.47860560
   0.80902440  0.53803028  0.61086672
   0.31198238  0.87039382  0.43444669
   0.80963119  0.03836681  0.25615089
   0.68399937  0.95208273  0.34495100
   0.93151524  0.11515960  0.16717571
   0.06179260  0.87153572  0.52139547
   0.55940266  0.53868154  0.25612770
   0.68519807  0.79453247  0.87538223
   0.55657706  0.36598179  0.16664956
   0.43981594  0.79067832  0.74402495
   0.81161668  0.70657904  0.56551839
   0.56068342  0.87211127  0.78825958
   0.68650534  0.12152023  0.52140385
   0.81601639  0.37463421  0.65491998
   0.94147410  0.46257333  0.83350934
   0.06050654  0.20799487  0.69955841
   0.43543340  0.95788117  0.69955473
   0.31642782  0.21162454  0.83338713
   0.44105139  0.62470198  0.65490325
   0.30906554  0.53806505  0.61083160
   0.93677958  0.45657664  0.56561430
   0.68991181  0.79087578  0.74400511
   0.93363955  0.78796345  0.12469447
   0.69149330  0.78780537  0.38914876
   0.94026153  0.79005850  0.74411608
   0.05927054  0.20316614  0.34506908
   0.68400185  0.45258145  0.34508167
   0.43549582  0.12151971  0.78857973
   0.06470169  0.20510873  0.21164965
   0.05525860  0.36597297  0.16669048
   0.93419766  0.78918342  0.25601138
   0.56060781  0.20774097  0.69958331
   0.68530994  0.95785776  0.69960350
   0.81031395  0.87225275  0.78817689
   0.43699794  0.95703126  0.56547130
   0.81085749  0.37304827  0.78816175
   0.68472981  0.28956790  0.25610826
   0.18708206  0.45701867  0.56551208
   0.05619636  0.86612794  0.16670940
   0.18400904  0.28822786  0.61085077
   0.06234499  0.20706529  0.56543400
   0.31070201  0.20790898  0.69962457
   0.56378878  0.53982735  0.87556964
   0.06176415  0.70631443  0.56556145
   0.68532774  0.62168197  0.78814463
   0.31587192  0.53775356  0.38912479
   0.18684735  0.62152079  0.52147480
   0.56250381  0.87066647  0.43442349
   0.43699988  0.45709307  0.56551151
   0.43986090  0.29093489  0.74397817
   0.81864956  0.87470811  0.30038372
   0.80919563  0.70280558  0.34512351
   0.44148348  0.46208828  0.83321071
   0.68744938  0.95559376  0.47857327
   0.68528975  0.45794784  0.69960359
   0.56180168  0.87183632  0.52143867
   0.56624872  0.37459968  0.65485858
   0.81593121  0.87466886  0.65493791
   0.81196619  0.37148764  0.43423111
   0.80942567  0.53826977  0.25626268
   0.69181431  0.46133897  0.83310759
   0.18587334  0.78796391  0.12428805
   0.69112692  0.28756257  0.38912299
   0.31607149  0.37460889  0.65488471
   0.30968064  0.20304715  0.34505694
   0.81535475  0.53999178  0.74392246
   0.69149429  0.96140417  0.83316707
   0.56583821  0.87434737  0.65491624
   0.31180879  0.70686348  0.56546703
   0.31214816  0.53238391  0.12433424
   0.68914372  0.95575508  0.21192668
   0.31151001  0.20657919  0.56551762
   0.18720867  0.95566654  0.47857336
   0.68736591  0.95707921  0.56552243
   0.43405132  0.78802335  0.61082864
   0.68256460  0.61281982  0.16673010
   0.31859630  0.87410268  0.30041264
   0.31217849  0.70553057  0.47856140
   0.93400307  0.28805912  0.61081363
   0.44404898  0.62453552  0.30056345
   0.80678435  0.86483764  0.16713748
   0.56568601  0.20348197  0.21196869
   0.93306976  0.61349400  0.16679584
   0.43720542  0.95554443  0.47857855
   0.56073451  0.37195499  0.78832785
   0.06133759  0.37187590  0.52144628
   0.30712680  0.36412314  0.16674552
   0.69407626  0.12429037  0.30045787
   0.44243233  0.96144480  0.83314225
   0.18466934  0.28695965  0.12452793
   0.18451450  0.28912655  0.25612511
   0.31213323  0.37058980  0.43440516
   0.56247400  0.03286627  0.12457327
   0.43396777  0.28827646  0.61080515
   0.18428277  0.45301928  0.34514322
   0.43410506  0.28697231  0.12458265
   0.68439085  0.78928674  0.25617134
   0.43663852  0.12160700  0.52139110
   0.18857925  0.29388214  0.87571091
   0.19109006  0.12491148  0.65490886
   0.94101359  0.12486106  0.65490415
   0.81617597  0.53752341  0.38914115
   0.06615028  0.03786057  0.38917446
   0.18315678  0.11300912  0.16652027
   0.05895109  0.53787239  0.61085417
   0.93455143  0.28939170  0.25608357
   0.55896432  0.53814806  0.61081661
   0.93688728  0.95714743  0.56550620
   0.69352207  0.62468955  0.30044032
   0.93742333  0.62064953  0.43439981
   0.93446174  0.62284252  0.78803209
   0.56058320  0.70743006  0.69957489
   0.06568734  0.71444544  0.83358793
   0.94420518  0.12381524  0.30038058
   0.93399863  0.78782458  0.61086398
   0.43420284  0.78942827  0.25618042
   0.31079619  0.37221168  0.78820608
   0.43960253  0.45602347  0.21190234
   0.18671085  0.12144052  0.52141793
   0.81036524  0.70774032  0.69957369
   0.05898637  0.03804408  0.61078975
   0.56581570  0.21255857  0.83304165
   0.31164459  0.87155224  0.52141276
   0.68625898  0.28755880  0.12434977
   0.18887972  0.95632456  0.21201857
   0.68387634  0.28820277  0.61086887
   0.30892083  0.03805833  0.61089694
   0.93550858  0.12300130  0.78830563
   0.43699405  0.79434337  0.87559927
   0.81518924  0.04042968  0.74387522
   0.93518789  0.45790606  0.69957645
   0.19107892  0.62471381  0.65491096
   0.31061163  0.70763337  0.69957561
   0.93451810  0.28707713  0.12445259
   0.43727527  0.45552958  0.47856153
   0.06223573  0.70553950  0.47849775
   0.93707241  0.12031472  0.43458155
   0.44365603  0.12464816  0.30051542
   0.18759840  0.12023217  0.43433577
   0.56382659  0.03947457  0.87565407
   0.18693001  0.95709576  0.56551561
   0.68446823  0.78818799  0.12476303
   0.55965649  0.70282412  0.34507578
   0.31581556  0.03713170  0.38914173
   0.68291874  0.11481751  0.16715908
   0.81489244  0.20482135  0.21165765
   0.06026255  0.53841848  0.25606876
   0.56225473  0.70553766  0.47855317
   0.43436343  0.78741983  0.12446450
   0.56865757  0.37442975  0.30052890
   0.43404946  0.95278957  0.34513081
   0.18542046  0.95803945  0.69967746
   0.43208774  0.61432114  0.16665680
   0.93969262  0.45587699  0.21205588
   0.06147633  0.53135499  0.12438975
   0.81161401  0.37177348  0.52142536
   0.94357441  0.62428268  0.30021651
   0.30968669  0.03890878  0.25574680
   0.68394318  0.78813879  0.61083002
   0.19142969  0.46238038  0.83324309
   0.43235151  0.11344164  0.16664560
   0.31162434  0.37160714  0.52137671
   0.43486742  0.62158155  0.78845748
   0.05940029  0.03849792  0.25613719
   0.56193925  0.70691495  0.56553951
   0.93979505  0.28976462  0.74397552
   0.68411162  0.12221119  0.78826163
   0.18893448  0.45515372  0.21175226
   0.94085291  0.78752591  0.38914926
   0.68666223  0.29661986  0.87567867
   0.55593784  0.86529206  0.16663342
   0.43568237  0.45782026  0.69954945
   0.93446548  0.95199289  0.34497448
   0.68636763  0.62156170  0.52133234
   0.06597586  0.87449033  0.65489869
   0.06046459  0.87264093  0.78822457
   0.06597080  0.37463811  0.65491744
   0.68716281  0.45534554  0.47855211
   0.18466351  0.78933075  0.25602115
   0.43696191  0.12069735  0.43437156
   0.81320705  0.03190524  0.12440888
   0.93647099  0.62158345  0.52144930
   0.44113917  0.12472000  0.65483435
   0.81276446  0.53097884  0.12431396
   0.43419151  0.45271916  0.34509929
   0.80944529  0.20283410  0.34508165
   0.30940869  0.70275226  0.34499249
   0.69097767  0.12474174  0.65491294
   0.56867845  0.87453954  0.30051922
   0.06509003  0.53988071  0.74397615
   0.94010335  0.95533093  0.21165483
   0.81606480  0.70507879  0.21176048
   0.06838881  0.87460441  0.30046384
   0.19376067  0.12455445  0.30046177
   0.05913226  0.70253748  0.34501849
   0.80911750  0.03805665  0.61081536
   0.06230562  0.37083993  0.43435573
   0.55947346  0.20297559  0.34503924
   0.81876977  0.37467288  0.30038738
   0.55970766  0.03884622  0.25595669
   0.56602246  0.53754870  0.38912721
   0.06242234  0.20549600  0.47858580
   0.31146160  0.87142996  0.78802266
   0.93533782  0.95808927  0.69955517
   0.06838508  0.37469612  0.30045966
   0.69093120  0.62468877  0.65496004
   0.68692564  0.45688869  0.56548789
   0.43927017  0.95680478  0.21230584
   0.31222865  0.20547972  0.47858304
   0.81349844  0.53921310  0.87550259
   0.68793057  0.62049184  0.43439157
   0.81061443  0.20777525  0.69960888
   0.81242399  0.70556985  0.47854904
   0.81176928  0.87101865  0.43420646
   0.93719690  0.95521238  0.47859666
   0.56226532  0.20554761  0.47857058
   0.18706263  0.62049655  0.43440048
   0.31510622  0.04070202  0.74386349
   0.94107225  0.62490712  0.65488402
   0.56620443  0.71217237  0.83309679
   0.31870148  0.37415501  0.30044112
   0.56502530  0.70456046  0.21174016
   0.18713201  0.45545076  0.47859288
   0.31452168  0.04041043  0.87549334
   0.18522525  0.45787579  0.69954130
   0.56162337  0.37157540  0.52138187
   0.19082491  0.28767800  0.38915981
   0.43712842  0.62041504  0.43441226
   0.06627672  0.70540458  0.21171867
   0.56219965  0.37047597  0.43443696
   0.43665787  0.62176851  0.52139906
   0.81659138  0.71371124  0.83304400
   0.06097392  0.37326605  0.78813156
   0.43684245  0.29557057  0.87585112
   0.31096862  0.03207855  0.12434770
   0.68769424  0.12018019  0.43437678
   0.18416152  0.95284912  0.34512384
   0.06613952  0.21310102  0.83359525
   0.55919546  0.03817103  0.61087180
   0.68889286  0.45593188  0.21208487
   0.19014663  0.79030225  0.74398436
   0.19349874  0.62422441  0.30052449
   0.44108687  0.78765373  0.38913872
   0.43415274  0.28956272  0.25614506
   0.06499104  0.53900626  0.87548610
   0.56567097  0.04056853  0.74389356
   0.18772027  0.79412789  0.87559127
   0.93718062  0.45542055  0.47856414
   0.56548475  0.54062864  0.74384567
   0.81144598  0.20660500  0.56547297
   0.18554994  0.62123504  0.78811087
   0.06671243  0.53810414  0.38916721
   0.06060884  0.70769208  0.69956733
   0.30906326  0.53800405  0.25565810
   0.31482739  0.70425942  0.21236595
   0.30547884  0.86584039  0.16612065
   0.31548917  0.20539491  0.21208075
   0.81713057  0.03858255  0.38928832
   0.93562471  0.29566864  0.87527847
   0.93770366  0.79280246  0.87516925
   0.06563913  0.03806952  0.87529839
   0.56291801  0.53021026  0.12485164
   0.80535592  0.36650309  0.16641156
   0.06202434  0.87106235  0.43439027
   0.93642642  0.12154434  0.52141640
   0.19136652  0.78765758  0.38914403
   0.31537628  0.54020388  0.74409298
Direct configuration=     3
   0.06113901  0.03309388  0.12452973
   0.31499672  0.87436560  0.65489095
   0.18593362  0.12264540  0.78813860
   0.44062173  0.28794915  0.38929357
   0.31564673  0.71061572  0.83306193
   0.81655439  0.21257612  0.83340197
   0.18971866  0.96094718  0.83348487
   0.56209798  0.20646270  0.56564381
   0.06417620  0.04021470  0.74394711
   0.81103652  0.87234923  0.52163429
   0.18956900  0.29059441  0.74389966
   0.93554497  0.45335771  0.34509305
   0.93997626  0.28747486  0.38928447
   0.81308935  0.04220387  0.87523819
   0.18481017  0.78851824  0.61064998
   0.56544287  0.03807311  0.38932289
   0.94146544  0.96166067  0.83351503
   0.31355015  0.54152898  0.87538444
   0.68943457  0.29082232  0.74387970
   0.18377075  0.61595765  0.16660369
   0.81213262  0.20520496  0.47839315
   0.80981441  0.53840535  0.61075623
   0.31194224  0.87071754  0.43436647
   0.81092171  0.03857301  0.25612299
   0.68570084  0.95330658  0.34504765
   0.93255812  0.11602627  0.16681404
   0.06222343  0.87229393  0.52154545
   0.56058671  0.53873660  0.25615556
   0.68652789  0.79287054  0.87526307
   0.55763651  0.36654185  0.16643672
   0.43957180  0.79083789  0.74393316
   0.81168097  0.70646213  0.56570587
   0.56176320  0.87214746  0.78813003
   0.68634121  0.12206821  0.52161202
   0.81469465  0.37438442  0.65498044
   0.94111035  0.46224719  0.83344957
   0.06107788  0.20803674  0.69954142
   0.43637586  0.95755081  0.69955719
   0.31537802  0.21104719  0.83356375
   0.44003717  0.62406212  0.65493865
   0.31003923  0.53858604  0.61071049
   0.93671438  0.45599718  0.56577215
   0.68940498  0.79059231  0.74395255
   0.93345812  0.78633810  0.12484909
   0.69109009  0.78763218  0.38931151
   0.93935243  0.79005342  0.74406273
   0.06080659  0.20413175  0.34511740
   0.68578634  0.45328393  0.34509033
   0.43622894  0.12268781  0.78832261
   0.06364392  0.20448902  0.21162660
   0.05636104  0.36590342  0.16646335
   0.93548110  0.78890073  0.25602976
   0.56130988  0.20786448  0.69958070
   0.68599539  0.95740201  0.69962207
   0.81101076  0.87246806  0.78812095
   0.43703246  0.95650909  0.56564687
   0.81139238  0.37377730  0.78808875
   0.68586396  0.28894255  0.25622523
   0.18685106  0.45647111  0.56569197
   0.05743088  0.86725942  0.16646641
   0.18499908  0.28882801  0.61077252
   0.06181743  0.20641043  0.56564598
   0.31168916  0.20789588  0.69961906
   0.56448240  0.54214845  0.87528115
   0.06175060  0.70616580  0.56572228
   0.68629932  0.62254128  0.78810262
   0.31475328  0.53771447  0.38933250
   0.18718991  0.62226731  0.52163566
   0.56261351  0.87121887  0.43430699
   0.43698852  0.45653130  0.56565188
   0.43972006  0.29113318  0.74385220
   0.81691793  0.87400640  0.30034307
   0.81063537  0.70283630  0.34519738
   0.44092224  0.46143358  0.83342999
   0.68791235  0.95520971  0.47836621
   0.68613119  0.45760574  0.69962793
   0.56189290  0.87207031  0.52162486
   0.56519538  0.37421719  0.65488703
   0.81460773  0.87416803  0.65495158
   0.81219212  0.37110829  0.43413743
   0.81073481  0.53809460  0.25624372
   0.69137907  0.46135944  0.83327411
   0.18526871  0.78628005  0.12440214
   0.69057546  0.28770106  0.38926762
   0.31487063  0.37429478  0.65489891
   0.31100723  0.20385019  0.34509695
   0.81436566  0.54025936  0.74385233
   0.69126194  0.96067757  0.83331858
   0.56483778  0.87413816  0.65494945
   0.31175036  0.70654383  0.56563965
   0.31100060  0.53338567  0.12442511
   0.68877796  0.95501163  0.21190822
   0.31173452  0.20652514  0.56564848
   0.18693974  0.95517745  0.47833004
   0.68721919  0.95664348  0.56570333
   0.43502096  0.78848688  0.61068423
   0.68272595  0.61440341  0.16665395
   0.31684427  0.87332222  0.30041336
   0.31189860  0.70506339  0.47829675
   0.93488647  0.28845828  0.61070629
   0.44222088  0.62337384  0.30058750
   0.80745004  0.86596527  0.16673079
   0.56496085  0.20378501  0.21201798
   0.93381328  0.61477359  0.16670439
   0.43710677  0.95510656  0.47840519
   0.56173884  0.37295302  0.78819182
   0.06155679  0.37232876  0.52161994
   0.30727263  0.36473899  0.16645700
   0.69224320  0.12394606  0.30049678
   0.44164392  0.96029020  0.83332792
   0.18475993  0.28486389  0.12466461
   0.18566263  0.28832043  0.25615441
   0.31217906  0.37093138  0.43430510
   0.56207043  0.03369186  0.12463129
   0.43511719  0.28880657  0.61069342
   0.18568556  0.45351935  0.34520332
   0.43319851  0.28490735  0.12466735
   0.68566984  0.78889016  0.25621041
   0.43701916  0.12249087  0.52157949
   0.18875188  0.29337743  0.87562970
   0.18983756  0.12476090  0.65495151
   0.93968872  0.12456439  0.65489227
   0.81560804  0.53753604  0.38931131
   0.06502530  0.03817108  0.38942362
   0.18294500  0.11468960  0.16648074
   0.05993866  0.53841731  0.61070998
   0.93566570  0.28868978  0.25610812
   0.56000118  0.53854944  0.61070132
   0.93682913  0.95635072  0.56571108
   0.69208666  0.62394676  0.30056163
   0.93773593  0.62127916  0.43422189
   0.93542498  0.62383344  0.78811256
   0.56119226  0.70686320  0.69959623
   0.06495020  0.71248565  0.83349620
   0.94207217  0.12382912  0.30039400
   0.93486324  0.78832550  0.61074087
   0.43536868  0.78885203  0.25619853
   0.31116738  0.37249845  0.78817411
   0.43907430  0.45536560  0.21193222
   0.18687936  0.12194179  0.52159940
   0.81094049  0.70709463  0.69962323
   0.05974223  0.03870789  0.61063066
   0.56555041  0.21163329  0.83315348
   0.31173651  0.87182236  0.52163712
   0.68624678  0.28482888  0.12458286
   0.18809014  0.95609568  0.21194435
   0.68476724  0.28881464  0.61079214
   0.30988789  0.03850180  0.61073711
   0.93604771  0.12394953  0.78820137
   0.43730764  0.79198647  0.87534431
   0.81433712  0.04069246  0.74388092
   0.93575782  0.45765773  0.69957408
   0.18985899  0.62418842  0.65491079
   0.31149777  0.70735107  0.69956380
   0.93462729  0.28456187  0.12463949
   0.43732715  0.45489200  0.47839565
   0.06219604  0.70493552  0.47823977
   0.93719362  0.12038470  0.43450474
   0.44220295  0.12400278  0.30051304
   0.18730199  0.12019543  0.43416869
   0.56470173  0.04134517  0.87530604
   0.18654382  0.95641942  0.56571406
   0.68543336  0.78653058  0.12493062
   0.56112298  0.70308748  0.34514138
   0.31487256  0.03752754  0.38938103
   0.68417680  0.11562599  0.16688731
   0.81459639  0.20437834  0.21178335
   0.06089203  0.53856345  0.25606872
   0.56240595  0.70500722  0.47837856
   0.43415654  0.78598335  0.12454670
   0.56702515  0.37359911  0.30058184
   0.43575140  0.95349523  0.34515413
   0.18631847  0.95771931  0.69966257
   0.43292493  0.61565070  0.16667324
   0.93908562  0.45514631  0.21208180
   0.06091324  0.53206011  0.12452258
   0.81145983  0.37206585  0.52160079
   0.94203255  0.62385445  0.30029382
   0.31047806  0.03881956  0.25594755
   0.68501448  0.78861616  0.61070610
   0.19053768  0.46200354  0.83347201
   0.43313654  0.11453991  0.16664767
   0.31189849  0.37229044  0.52160541
   0.43626716  0.62274242  0.78835227
   0.06035566  0.03855832  0.25607143
   0.56186144  0.70645641  0.56566363
   0.93908633  0.29033102  0.74394289
   0.68576676  0.12299666  0.78807668
   0.18795191  0.45498313  0.21181910
   0.93986671  0.78733407  0.38941236
   0.68757885  0.29497641  0.87546726
   0.55671610  0.86603050  0.16654294
   0.43668545  0.45743008  0.69957223
   0.93591093  0.95317940  0.34514237
   0.68607423  0.62195786  0.52155181
   0.06472091  0.87416702  0.65489362
   0.06111051  0.87258226  0.78821236
   0.06455242  0.37433971  0.65492298
   0.68726773  0.45459116  0.47832462
   0.18563660  0.78885721  0.25610484
   0.43711350  0.12082102  0.43433368
   0.81227104  0.03343279  0.12464883
   0.93656726  0.62199158  0.52161082
   0.44016910  0.12450522  0.65490973
   0.81256927  0.53301764  0.12434931
   0.43606771  0.45339205  0.34510183