 288 288   0   0
  0.1280206E+02  0.9726678E-09  0.8423550E-09  0.4500000E-08  0.2500000E-15
   1.0000000000000000E-004
  CAR 
 unknown system                          
      6.76354377     -6.06334720  301      4.30902737      1.00000000
     -6.063  0.0000E+00  0.0000E+00
     -6.021  0.0000E+00  0.0000E+00
     -5.978  0.0000E+00  0.0000E+00
     -5.935  0.0000E+00  0.0000E+00
     -5.892  0.0000E+00  0.0000E+00
     -5.850  0.0000E+00  0.0000E+00
     -5.807  0.0000E+00  0.0000E+00
     -5.764  0.0000E+00  0.0000E+00
     -5.721  0.0000E+00  0.0000E+00
     -5.679  0.0000E+00  0.0000E+00
     -5.636  0.0000E+00  0.0000E+00
     -5.593  0.0000E+00  0.0000E+00
     -5.550  0.0000E+00  0.0000E+00
     -5.508  0.0000E+00  0.0000E+00
     -5.465  0.0000E+00  0.0000E+00
     -5.422  0.1623E-17  0.6939E-19
     -5.379  0.4057E-16  0.1804E-17
     -5.336  0.8695E-15  0.3898E-16
     -5.294  0.1586E-13  0.7171E-15
     -5.251  0.2464E-12  0.1125E-13
     -5.208  0.3259E-11  0.1506E-12
     -5.165  0.3671E-10  0.1720E-11
     -5.123  0.3524E-09  0.1679E-10
     -5.080  0.2883E-08  0.1401E-09
     -5.037  0.2011E-07  0.1000E-08
     -4.994  0.1198E-06  0.6122E-08
     -4.952  0.6097E-06  0.3219E-07
     -4.909  0.2657E-05  0.1458E-06
     -4.866  0.9951E-05  0.5713E-06
     -4.823  0.3216E-04  0.1946E-05
     -4.781  0.9028E-04  0.5806E-05
     -4.738  0.2222E-03  0.1531E-04
     -4.695  0.4850E-03  0.3604E-04
     -4.652  0.9515E-03  0.7673E-04
     -4.610  0.1701E-02  0.1494E-03
     -4.567  0.2802E-02  0.2692E-03
     -4.524  0.4288E-02  0.4526E-03
     -4.481  0.6135E-02  0.7149E-03
     -4.439  0.8248E-02  0.1068E-02
     -4.396  0.1047E-01  0.1515E-02
     -4.353  0.1261E-01  0.2054E-02
     -4.310  0.1447E-01  0.2673E-02
     -4.268  0.1595E-01  0.3355E-02
     -4.225  0.1704E-01  0.4084E-02
     -4.182  0.1789E-01  0.4848E-02
     -4.139  0.1870E-01  0.5648E-02
     -4.097  0.1973E-01  0.6491E-02
     -4.054  0.2117E-01  0.7397E-02
     -4.011  0.2306E-01  0.8382E-02
     -3.968  0.2525E-01  0.9462E-02
     -3.926  0.2748E-01  0.1064E-01
     -3.883  0.2939E-01  0.1189E-01
     -3.840  0.3071E-01  0.1321E-01
     -3.797  0.3131E-01  0.1455E-01
     -3.755  0.3129E-01  0.1588E-01
     -3.712  0.3097E-01  0.1721E-01
     -3.669  0.3074E-01  0.1852E-01
     -3.626  0.3098E-01  0.1985E-01
     -3.583  0.3188E-01  0.2121E-01
     -3.541  0.3342E-01  0.2264E-01
     -3.498  0.3540E-01  0.2415E-01
     -3.455  0.3750E-01  0.2576E-01
     -3.412  0.3940E-01  0.2744E-01
     -3.370  0.4084E-01  0.2919E-01
     -3.327  0.4169E-01  0.3097E-01
     -3.284  0.4200E-01  0.3276E-01
     -3.241  0.4199E-01  0.3456E-01
     -3.199  0.4202E-01  0.3636E-01
     -3.156  0.4248E-01  0.3817E-01
     -3.113  0.4363E-01  0.4004E-01
     -3.070  0.4550E-01  0.4198E-01
     -3.028  0.4787E-01  0.4403E-01
     -2.985  0.5035E-01  0.4618E-01
     -2.942  0.5242E-01  0.4842E-01
     -2.899  0.5364E-01  0.5072E-01
     -2.857  0.5393E-01  0.5302E-01
     -2.814  0.5363E-01  0.5532E-01
     -2.771  0.5336E-01  0.5760E-01
     -2.728  0.5366E-01  0.5989E-01
     -2.686  0.5463E-01  0.6223E-01
     -2.643  0.5582E-01  0.6462E-01
     -2.600  0.5659E-01  0.6703E-01
     -2.557  0.5659E-01  0.6945E-01
     -2.515  0.5611E-01  0.7185E-01
     -2.472  0.5601E-01  0.7425E-01
     -2.429  0.5730E-01  0.7670E-01
     -2.386  0.6058E-01  0.7929E-01
     -2.344  0.6550E-01  0.8209E-01
     -2.301  0.7073E-01  0.8511E-01
     -2.258  0.7445E-01  0.8830E-01
     -2.215  0.7537E-01  0.9152E-01
     -2.173  0.7361E-01  0.9467E-01
     -2.130  0.7068E-01  0.9769E-01
     -2.087  0.6864E-01  0.1006E+00
     -2.044  0.6910E-01  0.1036E+00
     -2.001  0.7243E-01  0.1067E+00
     -1.959  0.7771E-01  0.1100E+00
     -1.916  0.8321E-01  0.1136E+00
     -1.873  0.8718E-01  0.1173E+00
     -1.830  0.8877E-01  0.1211E+00
     -1.788  0.8839E-01  0.1249E+00
     -1.745  0.8734E-01  0.1286E+00
     -1.702  0.8688E-01  0.1323E+00
     -1.659  0.8761E-01  0.1361E+00
     -1.617  0.8942E-01  0.1399E+00
     -1.574  0.9191E-01  0.1438E+00
     -1.531  0.9473E-01  0.1479E+00
     -1.488  0.9775E-01  0.1520E+00
     -1.446  0.1008E+00  0.1563E+00
     -1.403  0.1036E+00  0.1608E+00
     -1.360  0.1058E+00  0.1653E+00
     -1.317  0.1075E+00  0.1699E+00
     -1.275  0.1096E+00  0.1746E+00
     -1.232  0.1140E+00  0.1795E+00
     -1.189  0.1218E+00  0.1847E+00
     -1.146  0.1324E+00  0.1903E+00
     -1.104  0.1433E+00  0.1965E+00
     -1.061  0.1516E+00  0.2029E+00
     -1.018  0.1556E+00  0.2096E+00
     -0.975  0.1564E+00  0.2163E+00
     -0.933  0.1576E+00  0.2230E+00
     -0.890  0.1634E+00  0.2300E+00
     -0.847  0.1760E+00  0.2375E+00
     -0.804  0.1953E+00  0.2459E+00
     -0.762  0.2202E+00  0.2553E+00
     -0.719  0.2498E+00  0.2660E+00
     -0.676  0.2845E+00  0.2781E+00
     -0.633  0.3245E+00  0.2920E+00
     -0.591  0.3682E+00  0.3077E+00
     -0.548  0.4118E+00  0.3254E+00
     -0.505  0.4508E+00  0.3446E+00
     -0.462  0.4822E+00  0.3652E+00
     -0.420  0.5057E+00  0.3869E+00
     -0.377  0.5234E+00  0.4092E+00
     -0.334  0.5379E+00  0.4322E+00
     -0.291  0.5508E+00  0.4558E+00
     -0.248  0.5620E+00  0.4798E+00
     -0.206  0.5700E+00  0.5042E+00
     -0.163  0.5742E+00  0.5287E+00
     -0.120  0.5754E+00  0.5533E+00
     -0.077  0.5760E+00  0.5780E+00
     -0.035  0.5787E+00  0.6027E+00
      0.008  0.5858E+00  0.6278E+00
      0.051  0.5992E+00  0.6534E+00
      0.094  0.6200E+00  0.6799E+00
      0.136  0.6483E+00  0.7076E+00
      0.179  0.6820E+00  0.7368E+00
      0.222  0.7175E+00  0.7675E+00
      0.265  0.7512E+00  0.7996E+00
      0.307  0.7803E+00  0.8329E+00
      0.350  0.8043E+00  0.8673E+00
      0.393  0.8236E+00  0.9025E+00
      0.436  0.8392E+00  0.9384E+00
      0.478  0.8512E+00  0.9748E+00
      0.521  0.8588E+00  0.1012E+01
      0.564  0.8616E+00  0.1048E+01
      0.607  0.8596E+00  0.1085E+01
      0.649  0.8537E+00  0.1122E+01
      0.692  0.8439E+00  0.1158E+01
      0.735  0.8299E+00  0.1193E+01
      0.778  0.8123E+00  0.1228E+01
      0.820  0.7935E+00  0.1262E+01
      0.863  0.7770E+00  0.1295E+01
      0.906  0.7659E+00  0.1328E+01
      0.949  0.7606E+00  0.1360E+01
      0.991  0.7586E+00  0.1393E+01
      1.034  0.7563E+00  0.1425E+01
      1.077  0.7504E+00  0.1457E+01
      1.120  0.7406E+00  0.1489E+01
      1.162  0.7297E+00  0.1520E+01
      1.205  0.7225E+00  0.1551E+01
      1.248  0.7226E+00  0.1582E+01
      1.291  0.7284E+00  0.1613E+01
      1.333  0.7342E+00  0.1644E+01
      1.376  0.7331E+00  0.1676E+01
      1.419  0.7221E+00  0.1707E+01
      1.462  0.7041E+00  0.1737E+01
      1.505  0.6861E+00  0.1766E+01
      1.547  0.6750E+00  0.1795E+01
      1.590  0.6747E+00  0.1824E+01
      1.633  0.6851E+00  0.1853E+01
      1.676  0.7039E+00  0.1883E+01
      1.718  0.7276E+00  0.1914E+01
      1.761  0.7528E+00  0.1946E+01
      1.804  0.7771E+00  0.1980E+01
      1.847  0.7988E+00  0.2014E+01
      1.889  0.8171E+00  0.2049E+01
      1.932  0.8326E+00  0.2084E+01
      1.975  0.8468E+00  0.2121E+01
      2.018  0.8615E+00  0.2157E+01
      2.060  0.8775E+00  0.2195E+01
      2.103  0.8945E+00  0.2233E+01
      2.146  0.9118E+00  0.2272E+01
      2.189  0.9286E+00  0.2312E+01
      2.231  0.9453E+00  0.2352E+01
      2.274  0.9638E+00  0.2393E+01
      2.317  0.9868E+00  0.2436E+01
      2.360  0.1017E+01  0.2479E+01
      2.402  0.1055E+01  0.2524E+01
      2.445  0.1099E+01  0.2571E+01
      2.488  0.1145E+01  0.2620E+01
      2.531  0.1190E+01  0.2671E+01
      2.573  0.1229E+01  0.2724E+01
      2.616  0.1259E+01  0.2777E+01
      2.659  0.1279E+01  0.2832E+01
      2.702  0.1289E+01  0.2887E+01
      2.744  0.1295E+01  0.2943E+01
      2.787  0.1302E+01  0.2998E+01
      2.830  0.1316E+01  0.3055E+01
      2.873  0.1341E+01  0.3112E+01
      2.915  0.1375E+01  0.3171E+01
      2.958  0.1405E+01  0.3231E+01
      3.001  0.1415E+01  0.3291E+01
      3.044  0.1390E+01  0.3351E+01
      3.087  0.1328E+01  0.3407E+01
      3.129  0.1238E+01  0.3460E+01
      3.172  0.1141E+01  0.3509E+01
      3.215  0.1052E+01  0.3554E+01
      3.258  0.9837E+00  0.3596E+01
      3.300  0.9372E+00  0.3636E+01
      3.343  0.9103E+00  0.3675E+01
      3.386  0.8980E+00  0.3714E+01
      3.429  0.8939E+00  0.3752E+01
      3.471  0.8912E+00  0.3790E+01
      3.514  0.8835E+00  0.3828E+01
      3.557  0.8683E+00  0.3865E+01
      3.600  0.8488E+00  0.3901E+01
      3.642  0.8328E+00  0.3937E+01
      3.685  0.8288E+00  0.3972E+01
      3.728  0.8405E+00  0.4008E+01
      3.771  0.8649E+00  0.4045E+01
      3.813  0.8952E+00  0.4083E+01
      3.856  0.9248E+00  0.4123E+01
      3.899  0.9504E+00  0.4164E+01
      3.942  0.9720E+00  0.4205E+01
      3.984  0.9910E+00  0.4247E+01
      4.027  0.1008E+01  0.4291E+01
      4.070  0.1023E+01  0.4334E+01
      4.113  0.1032E+01  0.4378E+01
      4.155  0.1034E+01  0.4423E+01
      4.198  0.1028E+01  0.4467E+01
      4.241  0.1016E+01  0.4510E+01
      4.284  0.1001E+01  0.4553E+01
      4.326  0.9886E+00  0.4595E+01
      4.369  0.9808E+00  0.4637E+01
      4.412  0.9793E+00  0.4679E+01
      4.455  0.9822E+00  0.4721E+01
      4.497  0.9863E+00  0.4763E+01
      4.540  0.9878E+00  0.4805E+01
      4.583  0.9850E+00  0.4847E+01
      4.626  0.9790E+00  0.4889E+01
      4.668  0.9739E+00  0.4931E+01
      4.711  0.9745E+00  0.4973E+01
      4.754  0.9841E+00  0.5015E+01
      4.797  0.1003E+01  0.5058E+01
      4.840  0.1029E+01  0.5102E+01
      4.882  0.1057E+01  0.5147E+01
      4.925  0.1084E+01  0.5193E+01
      4.968  0.1106E+01  0.5240E+01
      5.011  0.1113E+01  0.5288E+01
      5.053  0.1094E+01  0.5335E+01
      5.096  0.1035E+01  0.5379E+01
      5.139  0.9299E+00  0.5419E+01
      5.182  0.7806E+00  0.5452E+01
      5.224  0.6040E+00  0.5478E+01
      5.267  0.4258E+00  0.5496E+01
      5.310  0.2706E+00  0.5508E+01
      5.353  0.1538E+00  0.5514E+01
      5.395  0.7760E-01  0.5518E+01
      5.438  0.3457E-01  0.5519E+01
      5.481  0.1353E-01  0.5520E+01
      5.524  0.4637E-02  0.5520E+01
      5.566  0.1386E-02  0.5520E+01
      5.609  0.3606E-03  0.5520E+01
      5.652  0.8142E-04  0.5520E+01
      5.695  0.1593E-04  0.5520E+01
      5.737  0.2694E-05  0.5520E+01
      5.780  0.3933E-06  0.5520E+01
      5.823  0.4950E-07  0.5520E+01
      5.866  0.5364E-08  0.5520E+01
      5.908  0.4998E-09  0.5520E+01
      5.951  0.4000E-10  0.5520E+01
      5.994  0.2747E-11  0.5520E+01
      6.037  0.1617E-12  0.5520E+01
      6.079  0.8158E-14  0.5520E+01
      6.122  0.3454E-15  0.5520E+01
      6.165  0.7790E-17  0.5520E+01
      6.208  0.0000E+00  0.5520E+01
      6.250  0.0000E+00  0.5520E+01
      6.293  0.0000E+00  0.5520E+01
      6.336  0.0000E+00  0.5520E+01
      6.379  0.0000E+00  0.5520E+01
      6.421  0.0000E+00  0.5520E+01
      6.464  0.0000E+00  0.5520E+01
      6.507  0.0000E+00  0.5520E+01
      6.550  0.0000E+00  0.5520E+01
      6.593  0.0000E+00  0.5520E+01
      6.635  0.0000E+00  0.5520E+01
      6.678  0.0000E+00  0.5520E+01
      6.721  0.0000E+00  0.5520E+01
      6.764  0.0000E+00  0.5520E+01
