<?xml version="1.0" encoding="ISO-8859-1"?>
<modeling>
 <generator>
  <i name="program" type="string">vasp </i>
  <i name="version" type="string">5.4.4.18Apr17-6-g9f103f2a35  </i>
  <i name="subversion" type="string">(build May 29 2019 08:40:53) complex            parallel </i>
  <i name="platform" type="string">LinuxPGI </i>
  <i name="date" type="string">2021 11 22 </i>
  <i name="time" type="string">02:27:48 </i>
 </generator>
 <incar>
  <i type="int" name="ISTART">     2</i>
  <i type="string" name="PREC">accurate</i>
  <i type="string" name="ALGO"> Fast</i>
  <i type="int" name="ICHARG">     2</i>
  <i type="int" name="INIWAV">     1</i>
  <i type="int" name="NELM">   100</i>
  <i type="int" name="NELMIN">     4</i>
  <i type="int" name="IBRION">     2</i>
  <i name="EDIFF">      0.00001000</i>
  <i type="int" name="NSW">   500</i>
  <i type="int" name="ISIF">     2</i>
  <i type="int" name="ISYM">     2</i>
  <i name="ENCUT">    500.00000000</i>
  <i name="POTIM">      0.25000000</i>
  <i type="string" name="LREAL"> Auto</i>
  <i type="int" name="ISMEAR">     0</i>
  <i name="SIGMA">      0.15000000</i>
  <i type="logical" name="LWAVE"> F  </i>
  <i type="logical" name="LCHARG"> F  </i>
  <v type="int" name="KPOINT_BSE">    -1     0     0     0</v>
  <i type="int" name="NELM">   100</i>
 </incar>
 <structure name="primitive_cell" >
  <crystal>
   <varray name="basis" >
    <v>       9.72667800       0.00000000       0.00000000 </v>
    <v>       0.00000000       8.42355000       0.00000000 </v>
    <v>       0.00000000       0.00000000      45.00000000 </v>
   </varray>
   <i name="volume">   3686.99213101 </i>
   <varray name="rec_basis" >
    <v>       0.10281002       0.00000000       0.00000000 </v>
    <v>       0.00000000       0.11871479       0.00000000 </v>
    <v>       0.00000000       0.00000000       0.02222222 </v>
   </varray>
  </crystal>
  <varray name="positions" >
   <v>      -0.43778343      -0.29526063      -0.30166808 </v>
   <v>       0.31247607      -0.29527870      -0.30170660 </v>
   <v>      -0.43738999      -0.46154130      -0.25754768 </v>
   <v>       0.43758153      -0.04518267      -0.30172657 </v>
   <v>       0.43741866      -0.21168341      -0.25756191 </v>
   <v>      -0.31244465       0.45508721      -0.30167951 </v>
   <v>       0.43755549       0.45453714      -0.30167067 </v>
   <v>      -0.31249123      -0.04516450      -0.30170608 </v>
   <v>      -0.31278139      -0.21192955      -0.25748551 </v>
   <v>      -0.18742415      -0.29486938      -0.30168367 </v>
   <v>      -0.43731989      -0.12861605      -0.34617129 </v>
   <v>       0.43746637      -0.37854604      -0.34624170 </v>
   <v>      -0.31224885      -0.37831402      -0.34619290 </v>
   <v>       0.31247680      -0.46154067      -0.25754995 </v>
   <v>      -0.43768703       0.03774961      -0.25757698 </v>
   <v>      -0.18766042      -0.46206908      -0.25755117 </v>
   <v>      -0.43757255       0.37169237      -0.34617085 </v>
   <v>       0.31239521      -0.12864685      -0.34615679 </v>
   <v>      -0.18756663      -0.12803853      -0.34614371 </v>
   <v>       0.31254925       0.03779274      -0.25758456 </v>
   <v>       0.18775265      -0.21168509      -0.25750921 </v>
   <v>       0.18744121       0.45464991      -0.30169105 </v>
   <v>       0.18747274      -0.04491258      -0.30170179 </v>
   <v>      -0.43782214       0.20471795      -0.30170513 </v>
   <v>      -0.31274984       0.28800360      -0.25757158 </v>
   <v>       0.43749928       0.28796744      -0.25751461 </v>
   <v>      -0.18750008       0.03806747      -0.25758752 </v>
   <v>      -0.06253262      -0.21187469      -0.25755422 </v>
   <v>       0.43748859      -0.37835485      -0.21334937 </v>
   <v>      -0.06235560       0.45503718      -0.30176443 </v>
   <v>      -0.43738583      -0.12860244      -0.21334634 </v>
   <v>      -0.31263790      -0.37859465      -0.21333624 </v>
   <v>      -0.06245738      -0.04471617      -0.30163716 </v>
   <v>       0.18729204      -0.37835228      -0.34615063 </v>
   <v>       0.31250944       0.37141724      -0.34619129 </v>
   <v>       0.43753768       0.12151643      -0.34617600 </v>
   <v>       0.43752686      -0.21151390      -0.39013283 </v>
   <v>      -0.18751870       0.37150563      -0.34618838 </v>
   <v>      -0.31262400      -0.21159081      -0.39013725 </v>
   <v>      -0.43765277      -0.46161627      -0.39020743 </v>
   <v>      -0.06244271      -0.37804900      -0.34624574 </v>
   <v>      -0.31236492       0.12168318      -0.34621727 </v>
   <v>       0.06267784      -0.29491869      -0.30167628 </v>
   <v>       0.31253625       0.20470780      -0.30171765 </v>
   <v>      -0.18756252       0.20501637      -0.30173199 </v>
   <v>       0.31219242      -0.12862045      -0.21341697 </v>
   <v>      -0.18762889      -0.12897016      -0.21338001 </v>
   <v>      -0.43746997       0.37142686      -0.21334362 </v>
   <v>       0.31248135      -0.46152431      -0.39014368 </v>
   <v>      -0.43743528       0.03879359      -0.39005900 </v>
   <v>      -0.18733026      -0.46155894      -0.39018792 </v>
   <v>       0.18777663       0.28820550      -0.25756354 </v>
   <v>       0.06237769      -0.46201327      -0.25761953 </v>
   <v>       0.18761316      -0.37850115      -0.21336639 </v>
   <v>       0.43749788       0.12193926      -0.21349789 </v>
   <v>       0.31250514       0.37157288      -0.21336418 </v>
   <v>      -0.31258243       0.12122117      -0.21339279 </v>
   <v>       0.43762295       0.28852453      -0.39006379 </v>
   <v>      -0.06252100       0.28809788      -0.25749491 </v>
   <v>       0.18764706      -0.21165631      -0.39008617 </v>
   <v>      -0.06251979      -0.37886930      -0.21337431 </v>
   <v>       0.06249043      -0.12802353      -0.34614253 </v>
   <v>      -0.18756701       0.37096428      -0.21334369 </v>
   <v>      -0.31260854       0.28851968      -0.39015134 </v>
   <v>       0.31249814       0.03864465      -0.39005461 </v>
   <v>       0.18735278       0.12151563      -0.34622999 </v>
   <v>      -0.06256170      -0.21167816      -0.39009002 </v>
   <v>      -0.06245492       0.12190258      -0.34618020 </v>
   <v>      -0.18746508       0.03868748      -0.39017473 </v>
   <v>       0.06255849       0.03832141      -0.25753333 </v>
   <v>       0.06258661       0.37145507      -0.34620844 </v>
   <v>      -0.43738322      -0.29466749      -0.16856225 </v>
   <v>      -0.43759382      -0.29458830      -0.43483396 </v>
   <v>       0.06288447       0.20498668      -0.30172014 </v>
   <v>       0.06274772      -0.12881976      -0.21333798 </v>
   <v>       0.18752424       0.12145351      -0.21339803 </v>
   <v>      -0.06245580       0.12107307      -0.21337210 </v>
   <v>       0.18736658       0.28828498      -0.39016347 </v>
   <v>       0.06257376      -0.46184391      -0.39020801 </v>
   <v>      -0.06233184       0.28834148      -0.39013628 </v>
   <v>       0.43741856       0.45556909      -0.43469543 </v>
   <v>       0.43749658       0.45484222      -0.16862715 </v>
   <v>      -0.18746576      -0.29581678      -0.16865924 </v>
   <v>       0.31255935      -0.29452261      -0.43474288 </v>
   <v>       0.31236462      -0.29470853      -0.16860574 </v>
   <v>      -0.31256812      -0.04476369      -0.43470371 </v>
   <v>      -0.31244046      -0.04559725      -0.16856492 </v>
   <v>      -0.18748845      -0.29473190      -0.43474953 </v>
   <v>       0.43756082      -0.04454722      -0.43477531 </v>
   <v>      -0.31217758       0.45522409      -0.43482021 </v>
   <v>      -0.31228129       0.45472218      -0.16849234 </v>
   <v>       0.43758573      -0.04548723      -0.16797045 </v>
   <v>       0.06254489       0.37124703      -0.21340960 </v>
   <v>       0.06244856       0.03850551      -0.39013509 </v>
   <v>       0.18738713      -0.04563705      -0.16864164 </v>
   <v>       0.18751696      -0.04489024      -0.43466431 </v>
   <v>      -0.43792572       0.20460972      -0.16863008 </v>
   <v>       0.18745731       0.45529900      -0.43477915 </v>
   <v>      -0.06268604       0.45532396      -0.43475797 </v>
   <v>      -0.06245255      -0.04483195      -0.43467708 </v>
   <v>      -0.06248571       0.45444686      -0.16863539 </v>
   <v>       0.18728832       0.45471418      -0.16852957 </v>
   <v>      -0.06254607      -0.04540075      -0.16847475 </v>
   <v>      -0.43751320       0.20538630      -0.43500432 </v>
   <v>       0.31245461       0.20577486      -0.43462312 </v>
   <v>      -0.18745775       0.20547444      -0.43461787 </v>
   <v>       0.31289684       0.20456905      -0.16863246 </v>
   <v>       0.06244732      -0.29588966      -0.16863987 </v>
   <v>      -0.18744107       0.20500726      -0.16862004 </v>
   <v>       0.06254600      -0.29470812      -0.43480575 </v>
   <v>      -0.43693146      -0.46274507      -0.12649883 </v>
   <v>      -0.31255756      -0.21213227      -0.12639856 </v>
   <v>       0.43746875      -0.21151897      -0.12629675 </v>
   <v>       0.43740535      -0.37810397      -0.47854872 </v>
   <v>      -0.43743079      -0.12745760      -0.47858534 </v>
   <v>      -0.31250166      -0.37782914      -0.47865920 </v>
   <v>       0.31192520      -0.46270271      -0.12652138 </v>
   <v>      -0.18743170      -0.46228432      -0.12638615 </v>
   <v>      -0.43793886       0.03749013      -0.12629761 </v>
   <v>       0.31254173      -0.12780184      -0.47852883 </v>
   <v>      -0.43767230       0.37249092      -0.47863648 </v>
   <v>      -0.18761704      -0.12754822      -0.47852155 </v>
   <v>       0.18761577      -0.21208559      -0.12642876 </v>
   <v>      -0.31242792       0.28830308      -0.12645835 </v>
   <v>      -0.06251637      -0.21198121      -0.12645101 </v>
   <v>      -0.18687766       0.03748495      -0.12643667 </v>
   <v>       0.43749255       0.28748965      -0.12644965 </v>
   <v>       0.31293893       0.03756165      -0.12628685 </v>
   <v>      -0.18745274       0.37194816      -0.47852926 </v>
   <v>       0.18743627      -0.37770348      -0.47855950 </v>
   <v>       0.31261985       0.37187920      -0.47860461 </v>
   <v>      -0.06233152      -0.37779635      -0.47853064 </v>
   <v>       0.06245059       0.20493541      -0.16859767 </v>
   <v>       0.43711329       0.12199015      -0.47861397 </v>
   <v>      -0.31220209       0.12205484      -0.47866397 </v>
   <v>       0.06253586       0.20517773      -0.43501403 </v>
   <v>       0.18745003       0.28828994      -0.12647178 </v>
   <v>       0.06247646      -0.46227422      -0.12640142 </v>
   <v>      -0.06250950       0.28791925      -0.12639844 </v>
   <v>       0.18803379       0.12192436      -0.47857544 </v>
   <v>       0.06251090      -0.12765886      -0.47856851 </v>
   <v>      -0.06297353       0.12194036      -0.47856547 </v>
   <v>       0.06191627       0.03758059      -0.12646938 </v>
   <v>       0.06252414       0.37262570      -0.47871691 </v>
   <v>      -0.43767395      -0.29435260       0.47864942 </v>
   <v>       0.31252533      -0.29425880       0.47870193 </v>
   <v>      -0.18735471      -0.29424510       0.47870258 </v>
   <v>       0.43747653      -0.04468837       0.47865449 </v>
   <v>      -0.31199306       0.45564789       0.47862212 </v>
   <v>       0.43712978       0.45583644       0.47858654 </v>
   <v>      -0.31247368      -0.04474511       0.47855943 </v>
   <v>      -0.43755217       0.20555634       0.47874039 </v>
   <v>       0.18805488       0.45588449       0.47862157 </v>
   <v>      -0.06311879       0.45591774       0.47862637 </v>
   <v>       0.18763765      -0.04472371       0.47867775 </v>
   <v>      -0.06261732      -0.04468958       0.47870342 </v>
   <v>       0.31227833       0.20629401       0.47857715 </v>
   <v>      -0.18722111       0.20624649       0.47857579 </v>
   <v>       0.06250345      -0.29446146       0.47861400 </v>
   <v>       0.06250504       0.20550903       0.47875108 </v>
   <v>      -0.31245009      -0.37712937       0.43490257 </v>
   <v>       0.43705581      -0.37696977       0.43485364 </v>
   <v>      -0.43762618      -0.12723356       0.43479317 </v>
   <v>       0.31303509      -0.12697599       0.43495096 </v>
   <v>      -0.18776508      -0.12708101       0.43492822 </v>
   <v>      -0.43754907       0.37289615       0.43477371 </v>
   <v>       0.18773478      -0.37750380       0.43487642 </v>
   <v>       0.31302626       0.37236717       0.43481823 </v>
   <v>      -0.06238973      -0.37715978       0.43487097 </v>
   <v>      -0.18810156       0.37217994       0.43481150 </v>
   <v>      -0.31215378       0.12247794       0.43484644 </v>
   <v>       0.43682021       0.12249101       0.43481788 </v>
   <v>       0.06235448      -0.12733952       0.43495237 </v>
   <v>       0.18778833       0.12210931       0.43485436 </v>
   <v>      -0.06254086       0.12213596       0.43480473 </v>
   <v>       0.06246530       0.37262649       0.43470738 </v>
   <v>       0.43774064      -0.21078766       0.39020267 </v>
   <v>      -0.31289105      -0.21032257       0.39020686 </v>
   <v>      -0.43758274      -0.46046654       0.39008359 </v>
   <v>       0.31235375      -0.46079445       0.39009728 </v>
   <v>      -0.18722736      -0.46045259       0.39011658 </v>
   <v>      -0.43755182       0.03970767       0.39015240 </v>
   <v>      -0.31259354       0.28957481       0.39021107 </v>
   <v>       0.43764102       0.28933274       0.39018734 </v>
   <v>       0.18744736      -0.21081424       0.39016841 </v>
   <v>      -0.06267517      -0.21093492       0.39014905 </v>
   <v>       0.31250824       0.03933998       0.39002955 </v>
   <v>      -0.18757892       0.03932264       0.38998875 </v>
   <v>      -0.06256187       0.28871766       0.39023338 </v>
   <v>       0.18747096       0.28889183       0.39015188 </v>
   <v>       0.06232701      -0.46103511       0.39015976 </v>
   <v>       0.06249495       0.03941413       0.39014375 </v>
   <v>      -0.43742757      -0.29395825       0.34621342 </v>
   <v>       0.31300506      -0.29391461       0.34619630 </v>
   <v>      -0.18804966      -0.29392563       0.34620923 </v>
   <v>      -0.31228736       0.45638813       0.34615230 </v>
   <v>       0.43745352      -0.04397012       0.34620901 </v>
   <v>      -0.31255023      -0.04367496       0.34617717 </v>
   <v>       0.43728352       0.45610744       0.34601314 </v>
   <v>      -0.43741886       0.20618902       0.34619318 </v>
   <v>       0.18798812      -0.04351787       0.34623243 </v>
   <v>       0.18743051       0.45632389       0.34612278 </v>
   <v>      -0.06263336       0.45654461       0.34606255 </v>
   <v>      -0.06285864      -0.04382989       0.34611299 </v>
   <v>       0.06297100      -0.29318954       0.34636485 </v>
   <v>       0.31325373       0.20606674       0.34609063 </v>
   <v>      -0.18803241       0.20620088       0.34604206 </v>
   <v>       0.06251554       0.20636579       0.34621884 </v>
   <v>       0.43748056      -0.37718200       0.30179744 </v>
   <v>      -0.31260350      -0.37710925       0.30170007 </v>
   <v>      -0.43746020      -0.12693480       0.30165090 </v>
   <v>       0.31233727      -0.12688443       0.30173556 </v>
   <v>      -0.43748410       0.37255125       0.30167718 </v>
   <v>      -0.18749448      -0.12749800       0.30170079 </v>
   <v>      -0.31270823       0.12313713       0.30190748 </v>
   <v>      -0.18747677       0.37297894       0.30170014 </v>
   <v>       0.31240800       0.37264685       0.30168538 </v>
   <v>       0.18739004      -0.37681857       0.30169145 </v>
   <v>      -0.06278926      -0.37739576       0.30167875 </v>
   <v>       0.43754702       0.12293048       0.30171450 </v>
   <v>       0.18739729       0.12333143       0.30181158 </v>
   <v>       0.06262769      -0.12711612       0.30169001 </v>
   <v>      -0.06241967       0.12304230       0.30171096 </v>
   <v>       0.06259174       0.37335000       0.30174085 </v>
   <v>       0.43752843      -0.21012655       0.12627781 </v>
   <v>      -0.31267424      -0.21051202       0.12627595 </v>
   <v>      -0.43761124      -0.45987627       0.12642036 </v>
   <v>      -0.18726330      -0.45916742       0.12634174 </v>
   <v>      -0.43759530       0.03975063       0.12629427 </v>
   <v>       0.31260901      -0.45981114       0.12641290 </v>
   <v>      -0.06252586      -0.20998425       0.12618710 </v>
   <v>       0.18765782      -0.21048291       0.12625932 </v>
   <v>       0.43752187       0.29050417       0.12633962 </v>
   <v>       0.31263047       0.03986692       0.12628769 </v>
   <v>      -0.31326294       0.28943906       0.12643009 </v>
   <v>      -0.18814422       0.04004175       0.12634594 </v>
   <v>       0.43755194      -0.21021994       0.25758087 </v>
   <v>      -0.43736634      -0.46049805       0.25751733 </v>
   <v>      -0.31232500      -0.21013939       0.25749100 </v>
   <v>       0.06225902      -0.45916474       0.12633930 </v>
   <v>       0.18826287       0.28950739       0.12641066 </v>
   <v>      -0.06255149       0.29068741       0.12659380 </v>
   <v>      -0.18740176      -0.46030685       0.25752646 </v>
   <v>       0.31248679      -0.46048532       0.25745871 </v>
   <v>      -0.43737488       0.03949128       0.25749789 </v>
   <v>       0.06313481       0.04003646       0.12634308 </v>
   <v>      -0.31264765       0.28963469       0.25759102 </v>
   <v>       0.43752270       0.28921813       0.25748990 </v>
   <v>       0.18728384      -0.20996364       0.25748516 </v>
   <v>      -0.18744186       0.03979751       0.25749634 </v>
   <v>       0.31251446       0.03960939       0.25746545 </v>
   <v>      -0.06241219      -0.20980168       0.25739380 </v>
   <v>       0.18774718       0.28968134       0.25755362 </v>
   <v>      -0.06248227       0.28987360       0.25754015 </v>
   <v>       0.06258870      -0.45995214       0.25745741 </v>
   <v>       0.06235952       0.04022171       0.25745498 </v>
   <v>      -0.43770832      -0.12672002       0.16847199 </v>
   <v>      -0.31271863      -0.37652489       0.16857311 </v>
   <v>       0.43753843      -0.37674776       0.16861072 </v>
   <v>       0.31271001      -0.12670111       0.16848987 </v>
   <v>      -0.18721331      -0.12716260       0.16852034 </v>
   <v>      -0.43761429       0.37337321       0.16865656 </v>
   <v>      -0.06253604      -0.37732829       0.16840623 </v>
   <v>      -0.31211866       0.12343563       0.16841908 </v>
   <v>      -0.18683092       0.37263559       0.16849773 </v>
   <v>       0.18773196      -0.37651894       0.16855925 </v>
   <v>       0.31260258       0.37341695       0.16867241 </v>
   <v>       0.43753924       0.12308089       0.16857071 </v>
   <v>       0.18711457       0.12344892       0.16840522 </v>
   <v>       0.06225945      -0.12704176       0.16848085 </v>
   <v>      -0.06249595       0.12356035       0.16848586 </v>
   <v>      -0.43727758      -0.29354800       0.21333349 </v>
   <v>       0.06187456       0.37274126       0.16845323 </v>
   <v>       0.43741815      -0.04311489       0.21354772 </v>
   <v>      -0.31309657       0.45677088       0.21345154 </v>
   <v>       0.43743454       0.45690954       0.21331707 </v>
   <v>      -0.18779461      -0.29397932       0.21333400 </v>
   <v>      -0.31221028      -0.04378907       0.21336372 </v>
   <v>       0.31234821      -0.29353423       0.21330940 </v>
   <v>      -0.06253983      -0.04395321       0.21359848 </v>
   <v>      -0.43740937       0.20677806       0.21339856 </v>
   <v>       0.18810927       0.45673688       0.21338780 </v>
   <v>      -0.06250105       0.45658214       0.21331538 </v>
   <v>       0.18727057      -0.04386784       0.21328193 </v>
   <v>       0.31242999       0.20667161       0.21339058 </v>
   <v>      -0.18767327       0.20677226       0.21335860 </v>
   <v>       0.06279826      -0.29402566       0.21336191 </v>
   <v>       0.06266550       0.20676037       0.21338105 </v>
  </varray>
 </structure>
 <varray name="primitive_index" >
  <v type="int" >        1 </v>
  <v type="int" >       65 </v>
  <v type="int" >      177 </v>
  <v type="int" >      232 </v>
  <v type="int" >       75 </v>
  <v type="int" >       54 </v>
  <v type="int" >      146 </v>
  <v type="int" >      122 </v>
  <v type="int" >      225 </v>
  <v type="int" >      285 </v>
  <v type="int" >       38 </v>
  <v type="int" >      279 </v>
  <v type="int" >      234 </v>
  <v type="int" >       89 </v>
  <v type="int" >      272 </v>
  <v type="int" >      221 </v>
  <v type="int" >      239 </v>
  <v type="int" >      252 </v>
  <v type="int" >        2 </v>
  <v type="int" >      143 </v>
  <v type="int" >       22 </v>
  <v type="int" >      264 </v>
  <v type="int" >      224 </v>
  <v type="int" >      142 </v>
  <v type="int" >        6 </v>
  <v type="int" >      167 </v>
  <v type="int" >       52 </v>
  <v type="int" >      240 </v>
  <v type="int" >      111 </v>
  <v type="int" >       99 </v>
  <v type="int" >       98 </v>
  <v type="int" >      181 </v>
  <v type="int" >       30 </v>
  <v type="int" >      250 </v>
  <v type="int" >      191 </v>
  <v type="int" >       12 </v>
  <v type="int" >      249 </v>
  <v type="int" >       29 </v>
  <v type="int" >      209 </v>
  <v type="int" >      101 </v>
  <v type="int" >      130 </v>
  <v type="int" >      197 </v>
  <v type="int" >      222 </v>
  <v type="int" >      208 </v>
  <v type="int" >      175 </v>
  <v type="int" >      107 </v>
  <v type="int" >      104 </v>
  <v type="int" >      183 </v>
  <v type="int" >       62 </v>
  <v type="int" >       88 </v>
  <v type="int" >       70 </v>
  <v type="int" >      154 </v>
  <v type="int" >       41 </v>
  <v type="int" >       11 </v>
  <v type="int" >      246 </v>
  <v type="int" >      245 </v>
  <v type="int" >        7 </v>
  <v type="int" >      223 </v>
  <v type="int" >      275 </v>
  <v type="int" >      150 </v>
  <v type="int" >      141 </v>
  <v type="int" >      132 </v>
  <v type="int" >       43 </v>
  <v type="int" >       45 </v>
  <v type="int" >      118 </v>
  <v type="int" >      270 </v>
  <v type="int" >      215 </v>
  <v type="int" >      203 </v>
  <v type="int" >      220 </v>
  <v type="int" >       25 </v>
  <v type="int" >       72 </v>
  <v type="int" >       53 </v>
  <v type="int" >      202 </v>
  <v type="int" >      117 </v>
  <v type="int" >      136 </v>
  <v type="int" >      110 </v>
  <v type="int" >      273 </v>
  <v type="int" >       76 </v>
  <v type="int" >      120 </v>
  <v type="int" >       84 </v>
  <v type="int" >       68 </v>
  <v type="int" >      251 </v>
  <v type="int" >      174 </v>
  <v type="int" >      172 </v>
  <v type="int" >      236 </v>
  <v type="int" >      103 </v>
  <v type="int" >      204 </v>
  <v type="int" >       85 </v>
  <v type="int" >      148 </v>
  <v type="int" >       48 </v>
  <v type="int" >      173 </v>
  <v type="int" >      274 </v>
  <v type="int" >       13 </v>
  <v type="int" >      170 </v>
  <v type="int" >       60 </v>
  <v type="int" >      265 </v>
  <v type="int" >      180 </v>
  <v type="int" >      190 </v>
  <v type="int" >       15 </v>
  <v type="int" >       40 </v>
  <v type="int" >       49 </v>
  <v type="int" >       79 </v>
  <v type="int" >       61 </v>
  <v type="int" >      230 </v>
  <v type="int" >       74 </v>
  <v type="int" >      116 </v>
  <v type="int" >      179 </v>
  <v type="int" >       31 </v>
  <v type="int" >       35 </v>
  <v type="int" >      102 </v>
  <v type="int" >        8 </v>
  <v type="int" >      241 </v>
  <v type="int" >      219 </v>
  <v type="int" >      121 </v>
  <v type="int" >      139 </v>
  <v type="int" >       90 </v>
  <v type="int" >        5 </v>
  <v type="int" >       47 </v>
  <v type="int" >      198 </v>
  <v type="int" >      185 </v>
  <v type="int" >      114 </v>
  <v type="int" >      161 </v>
  <v type="int" >       33 </v>
  <v type="int" >       91 </v>
  <v type="int" >       16 </v>
  <v type="int" >      212 </v>
  <v type="int" >      256 </v>
  <v type="int" >      238 </v>
  <v type="int" >      267 </v>
  <v type="int" >       58 </v>
  <v type="int" >      126 </v>
  <v type="int" >        4 </v>
  <v type="int" >        9 </v>
  <v type="int" >      187 </v>
  <v type="int" >       80 </v>
  <v type="int" >       23 </v>
  <v type="int" >      258 </v>
  <v type="int" >      231 </v>
  <v type="int" >      216 </v>
  <v type="int" >       19 </v>
  <v type="int" >       86 </v>
  <v type="int" >      207 </v>
  <v type="int" >      253 </v>
  <v type="int" >      144 </v>
  <v type="int" >       95 </v>
  <v type="int" >      134 </v>
  <v type="int" >      247 </v>
  <v type="int" >       97 </v>
  <v type="int" >      165 </v>
  <v type="int" >      242 </v>
  <v type="int" >      156 </v>
  <v type="int" >      282 </v>
  <v type="int" >       46 </v>
  <v type="int" >      184 </v>
  <v type="int" >      228 </v>
  <v type="int" >       56 </v>
  <v type="int" >       39 </v>
  <v type="int" >       51 </v>
  <v type="int" >      113 </v>
  <v type="int" >      288 </v>
  <v type="int" >      276 </v>
  <v type="int" >      149 </v>
  <v type="int" >       18 </v>
  <v type="int" >      155 </v>
  <v type="int" >       57 </v>
  <v type="int" >      261 </v>
  <v type="int" >      140 </v>
  <v type="int" >      138 </v>
  <v type="int" >      151 </v>
  <v type="int" >       92 </v>
  <v type="int" >       20 </v>
  <v type="int" >      176 </v>
  <v type="int" >      213 </v>
  <v type="int" >       17 </v>
  <v type="int" >      160 </v>
  <v type="int" >      286 </v>
  <v type="int" >      192 </v>
  <v type="int" >      263 </v>
  <v type="int" >      152 </v>
  <v type="int" >       82 </v>
  <v type="int" >       81 </v>
  <v type="int" >       87 </v>
  <v type="int" >      163 </v>
  <v type="int" >       59 </v>
  <v type="int" >      271 </v>
  <v type="int" >      145 </v>
  <v type="int" >      100 </v>
  <v type="int" >      137 </v>
  <v type="int" >       36 </v>
  <v type="int" >      200 </v>
  <v type="int" >      195 </v>
  <v type="int" >      147 </v>
  <v type="int" >      123 </v>
  <v type="int" >      157 </v>
  <v type="int" >      125 </v>
  <v type="int" >      217 </v>
  <v type="int" >       73 </v>
  <v type="int" >      237 </v>
  <v type="int" >      214 </v>
  <v type="int" >      182 </v>
  <v type="int" >      194 </v>
  <v type="int" >       14 </v>
  <v type="int" >       55 </v>
  <v type="int" >       50 </v>
  <v type="int" >      283 </v>
  <v type="int" >      189 </v>
  <v type="int" >      218 </v>
  <v type="int" >      287 </v>
  <v type="int" >        3 </v>
  <v type="int" >      229 </v>
  <v type="int" >      206 </v>
  <v type="int" >       78 </v>
  <v type="int" >      193 </v>
  <v type="int" >      131 </v>
  <v type="int" >       26 </v>
  <v type="int" >      254 </v>
  <v type="int" >       10 </v>
  <v type="int" >       27 </v>
  <v type="int" >      284 </v>
  <v type="int" >      278 </v>
  <v type="int" >      164 </v>
  <v type="int" >       63 </v>
  <v type="int" >      235 </v>
  <v type="int" >      210 </v>
  <v type="int" >       44 </v>
  <v type="int" >      243 </v>
  <v type="int" >      119 </v>
  <v type="int" >      109 </v>
  <v type="int" >       28 </v>
  <v type="int" >      255 </v>
  <v type="int" >      262 </v>
  <v type="int" >      106 </v>
  <v type="int" >      244 </v>
  <v type="int" >      269 </v>
  <v type="int" >       34 </v>
  <v type="int" >      227 </v>
  <v type="int" >      186 </v>
  <v type="int" >      233 </v>
  <v type="int" >      115 </v>
  <v type="int" >      259 </v>
  <v type="int" >      127 </v>
  <v type="int" >      277 </v>
  <v type="int" >       64 </v>
  <v type="int" >      133 </v>
  <v type="int" >      169 </v>
  <v type="int" >      268 </v>
  <v type="int" >       71 </v>
  <v type="int" >      178 </v>
  <v type="int" >      166 </v>
  <v type="int" >      196 </v>
  <v type="int" >       94 </v>
  <v type="int" >      199 </v>
  <v type="int" >      188 </v>
  <v type="int" >      226 </v>
  <v type="int" >      260 </v>
  <v type="int" >       96 </v>
  <v type="int" >       93 </v>
  <v type="int" >      205 </v>
  <v type="int" >       69 </v>
  <v type="int" >      159 </v>
  <v type="int" >      168 </v>
  <v type="int" >      128 </v>
  <v type="int" >      153 </v>
  <v type="int" >      105 </v>
  <v type="int" >      171 </v>
  <v type="int" >      211 </v>
  <v type="int" >      158 </v>
  <v type="int" >      266 </v>
  <v type="int" >       32 </v>
  <v type="int" >      257 </v>
  <v type="int" >      129 </v>
  <v type="int" >       24 </v>
  <v type="int" >       83 </v>
  <v type="int" >      280 </v>
  <v type="int" >       37 </v>
  <v type="int" >       77 </v>
  <v type="int" >      248 </v>
  <v type="int" >      108 </v>
  <v type="int" >       21 </v>
  <v type="int" >      281 </v>
  <v type="int" >      124 </v>
  <v type="int" >      112 </v>
  <v type="int" >       67 </v>
  <v type="int" >      201 </v>
  <v type="int" >      162 </v>
  <v type="int" >      135 </v>
  <v type="int" >       42 </v>
  <v type="int" >       66 </v>
 </varray>
 <kpoints>
  <generation param="Gamma">
   <v type="int" name="divisions">       4        4        1 </v>
   <v name="usershift">      0.00000000       0.00000000       0.00000000 </v>
   <v name="genvec1">      0.25000000       0.00000000       0.00000000 </v>
   <v name="genvec2">      0.00000000       0.25000000       0.00000000 </v>
   <v name="genvec3">      0.00000000       0.00000000       1.00000000 </v>
   <v name="shift">      0.00000000       0.00000000       0.00000000 </v>
  </generation>
  <varray name="kpointlist" >
   <v>       0.00000000       0.00000000       0.00000000 </v>
   <v>       0.25000000       0.00000000       0.00000000 </v>
   <v>       0.50000000       0.00000000       0.00000000 </v>
   <v>       0.00000000       0.25000000       0.00000000 </v>
   <v>       0.25000000       0.25000000       0.00000000 </v>
   <v>       0.50000000       0.25000000       0.00000000 </v>
   <v>      -0.25000000       0.25000000       0.00000000 </v>
   <v>       0.00000000       0.50000000       0.00000000 </v>
   <v>       0.25000000       0.50000000       0.00000000 </v>
   <v>       0.50000000       0.50000000       0.00000000 </v>
  </varray>
  <varray name="weights" >
   <v>       0.06250000 </v>
   <v>       0.12500000 </v>
   <v>       0.06250000 </v>
   <v>       0.12500000 </v>
   <v>       0.12500000 </v>
   <v>       0.12500000 </v>
   <v>       0.12500000 </v>
   <v>       0.06250000 </v>
   <v>       0.12500000 </v>
   <v>       0.06250000 </v>
  </varray>
 </kpoints>
 <parameters>
  <separator name="general" >
   <i type="string" name="SYSTEM">unknown system</i>
   <i type="logical" name="LCOMPAT"> F  </i>
  </separator>
  <separator name="electronic" >
   <i type="string" name="PREC">accura</i>
   <i name="ENMAX">    500.00000000</i>
   <i name="ENAUG">    838.43500000</i>
   <i name="EDIFF">      0.00001000</i>
   <i type="int" name="IALGO">    68</i>
   <i type="int" name="IWAVPR">    11</i>
   <i type="int" name="NBANDS">  1380</i>
   <i name="NELECT">   2289.00000000</i>
   <i type="int" name="TURBO">     0</i>
   <i type="int" name="IRESTART">     0</i>
   <i type="int" name="NREBOOT">     0</i>
   <i type="int" name="NMIN">     0</i>
   <i name="EREF">      0.00000000</i>
   <separator name="electronic smearing" >
    <i type="int" name="ISMEAR">     0</i>
    <i name="SIGMA">      0.15000000</i>
    <i name="KSPACING">      0.50000000</i>
    <i type="logical" name="KGAMMA"> T  </i>
   </separator>
   <separator name="electronic projectors" >
    <i type="logical" name="LREAL"> T  </i>
    <v name="ROPT">     -0.00025000     -0.00025000</v>
    <i type="int" name="LMAXPAW">  -100</i>
    <i type="int" name="LMAXMIX">     2</i>
    <i type="logical" name="NLSPLINE"> F  </i>
   </separator>
   <separator name="electronic startup" >
    <i type="int" name="ISTART">     0</i>
    <i type="int" name="ICHARG">     2</i>
    <i type="int" name="INIWAV">     1</i>
   </separator>
   <separator name="electronic spin" >
    <i type="int" name="ISPIN">     1</i>
    <i type="logical" name="LNONCOLLINEAR"> F  </i>
    <v name="MAGMOM">      1.00000000      1.00000000      1.00000000      1.00000000      1.00000000      1.00000000      1.00000000      1.00000000      1.00000000      1.00000000      1.00000000      1.00000000      1.00000000      1.00000000      1.00000000      1.00000000      1.00000000      1.00000000      1.00000000      1.00000000
      1.00000000      1.00000000      1.00000000      1.00000000      1.00000000      1.00000000      1.00000000      1.00000000      1.00000000      1.00000000      1.00000000      1.00000000      1.00000000      1.00000000      1.00000000      1.00000000      1.00000000      1.00000000      1.00000000      1.00000000
      1.00000000      1.00000000      1.00000000      1.00000000      1.00000000      1.00000000      1.00000000      1.00000000      1.00000000      1.00000000      1.00000000      1.00000000      1.00000000      1.00000000      1.00000000      1.00000000      1.00000000      1.00000000      1.00000000      1.00000000
      1.00000000      1.00000000      1.00000000      1.00000000      1.00000000      1.00000000      1.00000000      1.00000000      1.00000000      1.00000000      1.00000000      1.00000000      1.00000000      1.00000000      1.00000000      1.00000000      1.00000000      1.00000000      1.00000000      1.00000000
      1.00000000      1.00000000      1.00000000      1.00000000      1.00000000      1.00000000      1.00000000      1.00000000      1.00000000      1.00000000      1.00000000      1.00000000      1.00000000      1.00000000      1.00000000      1.00000000      1.00000000      1.00000000      1.00000000      1.00000000
      1.00000000      1.00000000      1.00000000      1.00000000      1.00000000      1.00000000      1.00000000      1.00000000      1.00000000      1.00000000      1.00000000      1.00000000      1.00000000      1.00000000      1.00000000      1.00000000      1.00000000      1.00000000      1.00000000      1.00000000
      1.00000000      1.00000000      1.00000000      1.00000000      1.00000000      1.00000000      1.00000000      1.00000000      1.00000000      1.00000000      1.00000000      1.00000000      1.00000000      1.00000000      1.00000000      1.00000000      1.00000000      1.00000000      1.00000000      1.00000000
      1.00000000      1.00000000      1.00000000      1.00000000      1.00000000      1.00000000      1.00000000      1.00000000      1.00000000      1.00000000      1.00000000      1.00000000      1.00000000      1.00000000      1.00000000      1.00000000      1.00000000      1.00000000      1.00000000      1.00000000
      1.00000000      1.00000000      1.00000000      1.00000000      1.00000000      1.00000000      1.00000000      1.00000000      1.00000000      1.00000000      1.00000000      1.00000000      1.00000000      1.00000000      1.00000000      1.00000000      1.00000000      1.00000000      1.00000000      1.00000000
      1.00000000      1.00000000      1.00000000      1.00000000      1.00000000      1.00000000      1.00000000      1.00000000      1.00000000      1.00000000      1.00000000      1.00000000      1.00000000      1.00000000      1.00000000      1.00000000      1.00000000      1.00000000      1.00000000      1.00000000
      1.00000000      1.00000000      1.00000000      1.00000000      1.00000000      1.00000000      1.00000000      1.00000000      1.00000000      1.00000000      1.00000000      1.00000000      1.00000000      1.00000000      1.00000000      1.00000000      1.00000000      1.00000000      1.00000000      1.00000000
      1.00000000      1.00000000      1.00000000      1.00000000      1.00000000      1.00000000      1.00000000      1.00000000      1.00000000      1.00000000      1.00000000      1.00000000      1.00000000      1.00000000      1.00000000      1.00000000      1.00000000      1.00000000      1.00000000      1.00000000
      1.00000000      1.00000000      1.00000000      1.00000000      1.00000000      1.00000000      1.00000000      1.00000000      1.00000000      1.00000000      1.00000000      1.00000000      1.00000000      1.00000000      1.00000000      1.00000000      1.00000000      1.00000000      1.00000000      1.00000000
      1.00000000      1.00000000      1.00000000      1.00000000      1.00000000      1.00000000      1.00000000      1.00000000      1.00000000      1.00000000      1.00000000      1.00000000      1.00000000      1.00000000      1.00000000      1.00000000      1.00000000      1.00000000      1.00000000      1.00000000
      1.00000000      1.00000000      1.00000000      1.00000000      1.00000000      1.00000000      1.00000000      1.00000000</v>
    <i name="NUPDOWN">     -1.00000000</i>
    <i type="logical" name="LSORBIT"> F  </i>
    <v name="SAXIS">      0.00000000      0.00000000      1.00000000</v>
    <i type="logical" name="LSPIRAL"> F  </i>
    <v name="QSPIRAL">      0.00000000      0.00000000      0.00000000</v>
    <i type="logical" name="LZEROZ"> F  </i>
   </separator>
   <separator name="electronic exchange-correlation" >
    <i type="logical" name="LASPH"> F  </i>
    <i type="logical" name="LMETAGGA"> F  </i>
   </separator>
   <separator name="electronic convergence" >
    <i type="int" name="NELM">   100</i>
    <i type="int" name="NELMDL">     0</i>
    <i type="int" name="NELMIN">     4</i>
    <i name="ENINI">    500.00000000</i>
    <separator name="electronic convergence detail" >
     <i type="logical" name="LDIAG"> T  </i>
     <i type="logical" name="LSUBROT"> F  </i>
     <i name="WEIMIN">      0.00100000</i>
     <i name="EBREAK">      0.00000000</i>
     <i name="DEPER">      0.30000000</i>
     <i type="int" name="NRMM">     4</i>
     <i name="TIME">      0.40000000</i>
    </separator>
   </separator>
   <separator name="electronic mixer" >
    <i name="AMIX">      0.40000000</i>
    <i name="BMIX">      1.00000000</i>
    <i name="AMIN">      0.10000000</i>
    <i name="AMIX_MAG">      1.60000000</i>
    <i name="BMIX_MAG">      1.00000000</i>
    <separator name="electronic mixer details" >
     <i type="int" name="IMIX">     4</i>
     <i type="logical" name="MIXFIRST"> F  </i>
     <i type="int" name="MAXMIX">   -45</i>
     <i name="WC">    100.00000000</i>
     <i type="int" name="INIMIX">     1</i>
     <i type="int" name="MIXPRE">     1</i>
     <i type="int" name="MREMOVE">     5</i>
    </separator>
   </separator>
   <separator name="electronic dipolcorrection" >
    <i type="logical" name="LDIPOL"> F  </i>
    <i type="logical" name="LMONO"> F  </i>
    <i type="int" name="IDIPOL">     0</i>
    <i name="EPSILON">      1.00000000</i>
    <v name="DIPOL">   -100.00000000   -100.00000000   -100.00000000</v>
    <i name="EFIELD">      0.00000000</i>
   </separator>
  </separator>
  <separator name="grids" >
   <i type="int" name="NGX">    72</i>
   <i type="int" name="NGY">    64</i>
   <i type="int" name="NGZ">   336</i>
   <i type="int" name="NGXF">   144</i>
   <i type="int" name="NGYF">   128</i>
   <i type="int" name="NGZF">   672</i>
   <i type="logical" name="ADDGRID"> F  </i>
  </separator>
  <separator name="ionic" >
   <i type="int" name="NSW">   500</i>
   <i type="int" name="IBRION">     2</i>
   <i type="int" name="MDALGO">     0</i>
   <i type="int" name="ISIF">     2</i>
   <i name="PSTRESS">      0.00000000</i>
   <i name="EDIFFG">      0.00010000</i>
   <i type="int" name="NFREE">     1</i>
   <i name="POTIM">      0.25000000</i>
   <i name="SMASS">     -3.00000000</i>
   <i name="SCALEE">      1.00000000</i>
  </separator>
  <separator name="ionic md" >
   <i name="TEBEG">      0.00010000</i>
   <i name="TEEND">      0.00010000</i>
   <i type="int" name="NBLOCK">     1</i>
   <i type="int" name="KBLOCK">   500</i>
   <i type="int" name="NPACO">   256</i>
   <i name="APACO">     16.00000000</i>
  </separator>
  <separator name="symmetry" >
   <i type="int" name="ISYM">     2</i>
   <i name="SYMPREC">      0.00001000</i>
  </separator>
  <separator name="dos" >
   <i type="int" name="LORBIT">     0</i>
   <v name="RWIGS">     -1.00000000     -1.00000000</v>
   <i type="int" name="NEDOS">   301</i>
   <i name="EMIN">     10.00000000</i>
   <i name="EMAX">    -10.00000000</i>
   <i name="EFERMI">      0.00000000</i>
  </separator>
  <separator name="writing" >
   <i type="int" name="NWRITE">     2</i>
   <i type="logical" name="LWAVE"> F  </i>
   <i type="logical" name="LDOWNSAMPLE"> F  </i>
   <i type="logical" name="LCHARG"> F  </i>
   <i type="logical" name="LPARD"> F  </i>
   <i type="logical" name="LVTOT"> F  </i>
   <i type="logical" name="LVHAR"> F  </i>
   <i type="logical" name="LELF"> F  </i>
   <i type="logical" name="LOPTICS"> F  </i>
   <v name="STM">      0.00000000      0.00000000      0.00000000      0.00000000      0.00000000      0.00000000      0.00000000</v>
  </separator>
  <separator name="performance" >
   <i type="int" name="NPAR">    10</i>
   <i type="int" name="NSIM">     4</i>
   <i type="int" name="NBLK">    -1</i>
   <i type="logical" name="LPLANE"> T  </i>
   <i type="logical" name="LSCALAPACK"> F  </i>
   <i type="logical" name="LSCAAWARE"> F  </i>
   <i type="logical" name="LSCALU"> F  </i>
   <i type="logical" name="LASYNC"> F  </i>
   <i type="logical" name="LORBITALREAL"> F  </i>
  </separator>
  <separator name="miscellaneous" >
   <i type="int" name="IDIOT">     3</i>
   <i type="int" name="ISPECIAL">     0</i>
   <i type="logical" name="LMUSIC"> F  </i>
   <v name="POMASS">     55.84700000     54.93800000</v>
   <v name="DARWINR">      0.00000000      0.00000000</v>
   <v name="DARWINV">      1.00000000      1.00000000</v>
   <i type="logical" name="LCORR"> T  </i>
  </separator>
  <i type="logical" name="GGA_COMPAT"> T  </i>
  <i type="logical" name="LBERRY"> F  </i>
  <i type="int" name="ICORELEVEL">     0</i>
  <i type="logical" name="LDAU"> F  </i>
  <i type="int" name="I_CONSTRAINED_M">     0</i>
  <separator name="electronic exchange-correlation" >
   <i type="string" name="GGA">--</i>
   <i type="int" name="VOSKOWN">     0</i>
   <i type="logical" name="LHFCALC"> F  </i>
   <i type="string" name="PRECFOCK"></i>
   <i type="logical" name="LSYMGRAD"> F  </i>
   <i type="logical" name="LHFONE"> F  </i>
   <i type="logical" name="LRHFCALC"> F  </i>
   <i type="logical" name="LTHOMAS"> F  </i>
   <i type="logical" name="LMODELHF"> F  </i>
   <i name="ENCUT4O">     -1.00000000</i>
   <i type="int" name="EXXOEP">     0</i>
   <i type="int" name="FOURORBIT">     0</i>
   <i name="AEXX">      0.00000000</i>
   <i name="HFALPHA">      0.00000000</i>
   <i name="MCALPHA">      0.00000000</i>
   <i name="ALDAX">      1.00000000</i>
   <i name="AGGAX">      1.00000000</i>
   <i name="ALDAC">      1.00000000</i>
   <i name="AGGAC">      1.00000000</i>
   <i type="int" name="NKREDX">     1</i>
   <i type="int" name="NKREDY">     1</i>
   <i type="int" name="NKREDZ">     1</i>
   <i type="logical" name="SHIFTRED"> F  </i>
   <i type="logical" name="ODDONLY"> F  </i>
   <i type="logical" name="EVENONLY"> F  </i>
   <i type="int" name="LMAXFOCK">     0</i>
   <i type="int" name="NMAXFOCKAE">     0</i>
   <i type="logical" name="LFOCKAEDFT"> F  </i>
   <i name="HFSCREEN">      0.00000000</i>
   <i name="HFSCREENC">      0.00000000</i>
   <i type="int" name="NBANDSGWLOW">     0</i>
  </separator>
  <separator name="vdW DFT" >
   <i type="logical" name="LUSE_VDW"> F  </i>
   <i name="Zab_VDW">     -0.84910000</i>
   <i name="PARAM1">      0.12340000</i>
   <i name="PARAM2">      1.00000000</i>
   <i name="PARAM3">      0.00000000</i>
  </separator>
  <separator name="model GW" >
   <i type="int" name="MODEL_GW">     0</i>
   <i name="MODEL_EPS0">      7.68123361</i>
   <i name="MODEL_ALPHA">      1.00000000</i>
  </separator>
  <separator name="linear response parameters" >
   <i type="logical" name="LEPSILON"> F  </i>
   <i type="logical" name="LRPA"> F  </i>
   <i type="logical" name="LNABLA"> F  </i>
   <i type="logical" name="LVEL"> F  </i>
   <i type="int" name="KINTER">     0</i>
   <i name="CSHIFT">      0.10000000</i>
   <i name="OMEGAMAX">     -1.00000000</i>
   <i name="DEG_THRESHOLD">      0.00200000</i>
   <i name="RTIME">     -0.10000000</i>
   <i name="WPLASMAI">      0.00000000</i>
   <v name="DFIELD">      0.00000000      0.00000000      0.00000000</v>
   <v name="WPLASMA">      0.00000000      0.00000000      0.00000000      0.00000000      0.00000000      0.00000000      0.00000000      0.00000000      0.00000000</v>
  </separator>
  <separator name="orbital magnetization" >
   <i type="logical" name="NUCIND"> F  </i>
   <v name="MAGPOS">      0.00000000      0.00000000      0.00000000</v>
   <i type="logical" name="LNICSALL"> T  </i>
   <i type="logical" name="ORBITALMAG"> F  </i>
   <i type="logical" name="LMAGBLOCH"> F  </i>
   <i type="logical" name="LCHIMAG"> F  </i>
   <i type="logical" name="LGAUGE"> T  </i>
   <i type="int" name="MAGATOM">     0</i>
   <v name="MAGDIPOL">      0.00000000      0.00000000      0.00000000</v>
   <v name="AVECCONST">      0.00000000      0.00000000      0.00000000</v>
  </separator>
  <separator name="response functions" >
   <i type="logical" name="LADDER"> F  </i>
   <i type="logical" name="LRPAFORCE"> F  </i>
   <i type="logical" name="LFXC"> F  </i>
   <i type="logical" name="LHARTREE"> T  </i>
   <i type="int" name="IBSE">     0</i>
   <v type="int" name="KPOINT">    -1     0     0     0</v>
   <i type="logical" name="LTCTE"> F  </i>
   <i type="logical" name="LTETE"> F  </i>
   <i type="logical" name="LTRIPLET"> F  </i>
   <i type="logical" name="LFXCEPS"> F  </i>
   <i type="logical" name="LFXHEG"> F  </i>
   <i type="int" name="NATURALO">     2</i>
   <i type="logical" name="L2ORDER"> F  </i>
   <i type="logical" name="LMP2LT"> F  </i>
   <i type="logical" name="LUSEW"> F  </i>
   <i name="ENCUTGW">     -2.00000000</i>
   <i name="ENCUTGWSOFT">     -2.00000000</i>
   <i name="ENCUTLF">     -1.00000000</i>
   <i type="int" name="LMAXMP2">    -1</i>
   <i name="SCISSOR">      0.00000000</i>
   <i type="int" name="NOMEGA">     0</i>
   <i type="int" name="NOMEGAR">     0</i>
   <i type="int" name="NBANDSGW">    -1</i>
   <i type="int" name="NBANDSO">    -1</i>
   <i type="int" name="NBANDSV">    -1</i>
   <i type="int" name="NELM">   100</i>
   <i type="int" name="NELMHF">     1</i>
   <i type="int" name="DIM">     3</i>
   <i type="int" name="ANTIRES">     0</i>
   <i name="OMEGAMAX">    -30.00000000</i>
   <i name="OMEGAMIN">    -30.00000000</i>
   <i name="OMEGATL">   -200.00000000</i>
   <i type="int" name="OMEGAGRID">   140</i>
   <i name="CSHIFT">     -0.10000000</i>
   <i type="logical" name="SELFENERGY"> F  </i>
   <i type="logical" name="LSPECTRAL"> F  </i>
   <i type="logical" name="LSPECTRALGW"> F  </i>
   <i type="logical" name="LSINGLES"> F  </i>
   <i type="logical" name="LFERMIGW"> F  </i>
   <i type="logical" name="ODDONLYGW"> F  </i>
   <i type="logical" name="EVENONLYGW"> F  </i>
   <i type="int" name="NKREDLFX">     1</i>
   <i type="int" name="NKREDLFY">     1</i>
   <i type="int" name="NKREDLFZ">     1</i>
   <i type="int" name="MAXMEM">  2800</i>
   <i type="int" name="TELESCOPE">     0</i>
   <i type="int" name="TAUPAR">     1</i>
   <i type="int" name="OMEGAPAR">    -1</i>
   <i name="LAMBDA">      1.00000000</i>
  </separator>
  <separator name="External order field" >
   <i name="OFIELD_KAPPA">      0.00000000</i>
   <v name="OFIELD_K">      0.00000000      0.00000000      0.00000000</v>
   <i name="OFIELD_Q6_NEAR">      0.00000000</i>
   <i name="OFIELD_Q6_FAR">      0.00000000</i>
   <i name="OFIELD_A">      0.00000000</i>
  </separator>
 </parameters>
 <atominfo>
  <atoms>     288 </atoms>
  <types>       2 </types>
  <array name="atoms" >
   <dimension dim="1">ion</dimension>
   <field type="string">element</field>
   <field type="int">atomtype</field>
   <set>
    <rc><c>Fe</c><c>   1</c></rc>
    <rc><c>Fe</c><c>   1</c></rc>
    <rc><c>Fe</c><c>   1</c></rc>
    <rc><c>Fe</c><c>   1</c></rc>
    <rc><c>Fe</c><c>   1</c></rc>
    <rc><c>Fe</c><c>   1</c></rc>
    <rc><c>Fe</c><c>   1</c></rc>
    <rc><c>Fe</c><c>   1</c></rc>
    <rc><c>Fe</c><c>   1</c></rc>
    <rc><c>Fe</c><c>   1</c></rc>
    <rc><c>Fe</c><c>   1</c></rc>
    <rc><c>Fe</c><c>   1</c></rc>
    <rc><c>Fe</c><c>   1</c></rc>
    <rc><c>Fe</c><c>   1</c></rc>
    <rc><c>Fe</c><c>   1</c></rc>
    <rc><c>Fe</c><c>   1</c></rc>
    <rc><c>Fe</c><c>   1</c></rc>
    <rc><c>Fe</c><c>   1</c></rc>
    <rc><c>Fe</c><c>   1</c></rc>
    <rc><c>Fe</c><c>   1</c></rc>
    <rc><c>Fe</c><c>   1</c></rc>
    <rc><c>Fe</c><c>   1</c></rc>
    <rc><c>Fe</c><c>   1</c></rc>
    <rc><c>Fe</c><c>   1</c></rc>
    <rc><c>Fe</c><c>   1</c></rc>
    <rc><c>Fe</c><c>   1</c></rc>
    <rc><c>Fe</c><c>   1</c></rc>
    <rc><c>Fe</c><c>   1</c></rc>
    <rc><c>Fe</c><c>   1</c></rc>
    <rc><c>Fe</c><c>   1</c></rc>
    <rc><c>Fe</c><c>   1</c></rc>
    <rc><c>Fe</c><c>   1</c></rc>
    <rc><c>Fe</c><c>   1</c></rc>
    <rc><c>Fe</c><c>   1</c></rc>
    <rc><c>Fe</c><c>   1</c></rc>
    <rc><c>Fe</c><c>   1</c></rc>
    <rc><c>Fe</c><c>   1</c></rc>
    <rc><c>Fe</c><c>   1</c></rc>
    <rc><c>Fe</c><c>   1</c></rc>
    <rc><c>Fe</c><c>   1</c></rc>
    <rc><c>Fe</c><c>   1</c></rc>
    <rc><c>Fe</c><c>   1</c></rc>
    <rc><c>Fe</c><c>   1</c></rc>
    <rc><c>Fe</c><c>   1</c></rc>
    <rc><c>Fe</c><c>   1</c></rc>
    <rc><c>Fe</c><c>   1</c></rc>
    <rc><c>Fe</c><c>   1</c></rc>
    <rc><c>Fe</c><c>   1</c></rc>
    <rc><c>Fe</c><c>   1</c></rc>
    <rc><c>Fe</c><c>   1</c></rc>
    <rc><c>Fe</c><c>   1</c></rc>
    <rc><c>Fe</c><c>   1</c></rc>
    <rc><c>Fe</c><c>   1</c></rc>
    <rc><c>Fe</c><c>   1</c></rc>
    <rc><c>Fe</c><c>   1</c></rc>
    <rc><c>Fe</c><c>   1</c></rc>
    <rc><c>Fe</c><c>   1</c></rc>
    <rc><c>Fe</c><c>   1</c></rc>
    <rc><c>Fe</c><c>   1</c></rc>
    <rc><c>Fe</c><c>   1</c></rc>
    <rc><c>Fe</c><c>   1</c></rc>
    <rc><c>Fe</c><c>   1</c></rc>
    <rc><c>Fe</c><c>   1</c></rc>
    <rc><c>Fe</c><c>   1</c></rc>
    <rc><c>Fe</c><c>   1</c></rc>
    <rc><c>Fe</c><c>   1</c></rc>
    <rc><c>Fe</c><c>   1</c></rc>
    <rc><c>Fe</c><c>   1</c></rc>
    <rc><c>Fe</c><c>   1</c></rc>
    <rc><c>Fe</c><c>   1</c></rc>
    <rc><c>Fe</c><c>   1</c></rc>
    <rc><c>Fe</c><c>   1</c></rc>
    <rc><c>Fe</c><c>   1</c></rc>
    <rc><c>Fe</c><c>   1</c></rc>
    <rc><c>Fe</c><c>   1</c></rc>
    <rc><c>Fe</c><c>   1</c></rc>
    <rc><c>Fe</c><c>   1</c></rc>
    <rc><c>Fe</c><c>   1</c></rc>
    <rc><c>Fe</c><c>   1</c></rc>
    <rc><c>Fe</c><c>   1</c></rc>
    <rc><c>Fe</c><c>   1</c></rc>
    <rc><c>Fe</c><c>   1</c></rc>
    <rc><c>Fe</c><c>   1</c></rc>
    <rc><c>Fe</c><c>   1</c></rc>
    <rc><c>Fe</c><c>   1</c></rc>
    <rc><c>Fe</c><c>   1</c></rc>
    <rc><c>Fe</c><c>   1</c></rc>
    <rc><c>Fe</c><c>   1</c></rc>
    <rc><c>Fe</c><c>   1</c></rc>
    <rc><c>Fe</c><c>   1</c></rc>
    <rc><c>Fe</c><c>   1</c></rc>
    <rc><c>Fe</c><c>   1</c></rc>
    <rc><c>Fe</c><c>   1</c></rc>
    <rc><c>Fe</c><c>   1</c></rc>
    <rc><c>Fe</c><c>   1</c></rc>
    <rc><c>Fe</c><c>   1</c></rc>
    <rc><c>Fe</c><c>   1</c></rc>
    <rc><c>Fe</c><c>   1</c></rc>
    <rc><c>Fe</c><c>   1</c></rc>
    <rc><c>Fe</c><c>   1</c></rc>
    <rc><c>Fe</c><c>   1</c></rc>
    <rc><c>Fe</c><c>   1</c></rc>
    <rc><c>Fe</c><c>   1</c></rc>
    <rc><c>Fe</c><c>   1</c></rc>
    <rc><c>Fe</c><c>   1</c></rc>
    <rc><c>Fe</c><c>   1</c></rc>
    <rc><c>Fe</c><c>   1</c></rc>
    <rc><c>Fe</c><c>   1</c></rc>
    <rc><c>Fe</c><c>   1</c></rc>
    <rc><c>Fe</c><c>   1</c></rc>
    <rc><c>Fe</c><c>   1</c></rc>
    <rc><c>Fe</c><c>   1</c></rc>
    <rc><c>Fe</c><c>   1</c></rc>
    <rc><c>Fe</c><c>   1</c></rc>
    <rc><c>Fe</c><c>   1</c></rc>
    <rc><c>Fe</c><c>   1</c></rc>
    <rc><c>Fe</c><c>   1</c></rc>
    <rc><c>Fe</c><c>   1</c></rc>
    <rc><c>Fe</c><c>   1</c></rc>
    <rc><c>Fe</c><c>   1</c></rc>
    <rc><c>Fe</c><c>   1</c></rc>
    <rc><c>Fe</c><c>   1</c></rc>
    <rc><c>Fe</c><c>   1</c></rc>
    <rc><c>Fe</c><c>   1</c></rc>
    <rc><c>Fe</c><c>   1</c></rc>
    <rc><c>Fe</c><c>   1</c></rc>
    <rc><c>Fe</c><c>   1</c></rc>
    <rc><c>Fe</c><c>   1</c></rc>
    <rc><c>Fe</c><c>   1</c></rc>
    <rc><c>Fe</c><c>   1</c></rc>
    <rc><c>Fe</c><c>   1</c></rc>
    <rc><c>Fe</c><c>   1</c></rc>
    <rc><c>Fe</c><c>   1</c></rc>
    <rc><c>Fe</c><c>   1</c></rc>
    <rc><c>Fe</c><c>   1</c></rc>
    <rc><c>Fe</c><c>   1</c></rc>
    <rc><c>Fe</c><c>   1</c></rc>
    <rc><c>Fe</c><c>   1</c></rc>
    <rc><c>Fe</c><c>   1</c></rc>
    <rc><c>Fe</c><c>   1</c></rc>
    <rc><c>Fe</c><c>   1</c></rc>
    <rc><c>Fe</c><c>   1</c></rc>
    <rc><c>Fe</c><c>   1</c></rc>
    <rc><c>Fe</c><c>   1</c></rc>
    <rc><c>Fe</c><c>   1</c></rc>
    <rc><c>Fe</c><c>   1</c></rc>
    <rc><c>Fe</c><c>   1</c></rc>
    <rc><c>Fe</c><c>   1</c></rc>
    <rc><c>Fe</c><c>   1</c></rc>
    <rc><c>Fe</c><c>   1</c></rc>
    <rc><c>Fe</c><c>   1</c></rc>
    <rc><c>Fe</c><c>   1</c></rc>
    <rc><c>Fe</c><c>   1</c></rc>
    <rc><c>Fe</c><c>   1</c></rc>
    <rc><c>Fe</c><c>   1</c></rc>
    <rc><c>Fe</c><c>   1</c></rc>
    <rc><c>Fe</c><c>   1</c></rc>
    <rc><c>Fe</c><c>   1</c></rc>
    <rc><c>Fe</c><c>   1</c></rc>
    <rc><c>Fe</c><c>   1</c></rc>
    <rc><c>Fe</c><c>   1</c></rc>
    <rc><c>Fe</c><c>   1</c></rc>
    <rc><c>Fe</c><c>   1</c></rc>
    <rc><c>Fe</c><c>   1</c></rc>
    <rc><c>Fe</c><c>   1</c></rc>
    <rc><c>Fe</c><c>   1</c></rc>
    <rc><c>Fe</c><c>   1</c></rc>
    <rc><c>Fe</c><c>   1</c></rc>
    <rc><c>Fe</c><c>   1</c></rc>
    <rc><c>Fe</c><c>   1</c></rc>
    <rc><c>Fe</c><c>   1</c></rc>
    <rc><c>Fe</c><c>   1</c></rc>
    <rc><c>Fe</c><c>   1</c></rc>
    <rc><c>Fe</c><c>   1</c></rc>
    <rc><c>Fe</c><c>   1</c></rc>
    <rc><c>Fe</c><c>   1</c></rc>
    <rc><c>Fe</c><c>   1</c></rc>
    <rc><c>Fe</c><c>   1</c></rc>
    <rc><c>Fe</c><c>   1</c></rc>
    <rc><c>Fe</c><c>   1</c></rc>
    <rc><c>Fe</c><c>   1</c></rc>
    <rc><c>Fe</c><c>   1</c></rc>
    <rc><c>Fe</c><c>   1</c></rc>
    <rc><c>Fe</c><c>   1</c></rc>
    <rc><c>Fe</c><c>   1</c></rc>
    <rc><c>Fe</c><c>   1</c></rc>
    <rc><c>Fe</c><c>   1</c></rc>
    <rc><c>Fe</c><c>   1</c></rc>
    <rc><c>Fe</c><c>   1</c></rc>
    <rc><c>Fe</c><c>   1</c></rc>
    <rc><c>Fe</c><c>   1</c></rc>
    <rc><c>Fe</c><c>   1</c></rc>
    <rc><c>Fe</c><c>   1</c></rc>
    <rc><c>Fe</c><c>   1</c></rc>
    <rc><c>Fe</c><c>   1</c></rc>
    <rc><c>Fe</c><c>   1</c></rc>
    <rc><c>Fe</c><c>   1</c></rc>
    <rc><c>Fe</c><c>   1</c></rc>
    <rc><c>Fe</c><c>   1</c></rc>
    <rc><c>Fe</c><c>   1</c></rc>
    <rc><c>Fe</c><c>   1</c></rc>
    <rc><c>Fe</c><c>   1</c></rc>
    <rc><c>Fe</c><c>   1</c></rc>
    <rc><c>Fe</c><c>   1</c></rc>
    <rc><c>Fe</c><c>   1</c></rc>
    <rc><c>Fe</c><c>   1</c></rc>
    <rc><c>Fe</c><c>   1</c></rc>
    <rc><c>Fe</c><c>   1</c></rc>
    <rc><c>Fe</c><c>   1</c></rc>
    <rc><c>Fe</c><c>   1</c></rc>
    <rc><c>Fe</c><c>   1</c></rc>
    <rc><c>Fe</c><c>   1</c></rc>
    <rc><c>Fe</c><c>   1</c></rc>
    <rc><c>Fe</c><c>   1</c></rc>
    <rc><c>Fe</c><c>   1</c></rc>
    <rc><c>Fe</c><c>   1</c></rc>
    <rc><c>Fe</c><c>   1</c></rc>
    <rc><c>Fe</c><c>   1</c></rc>
    <rc><c>Fe</c><c>   1</c></rc>
    <rc><c>Fe</c><c>   1</c></rc>
    <rc><c>Fe</c><c>   1</c></rc>
    <rc><c>Fe</c><c>   1</c></rc>
    <rc><c>Fe</c><c>   1</c></rc>
    <rc><c>Fe</c><c>   1</c></rc>
    <rc><c>Fe</c><c>   1</c></rc>
    <rc><c>Fe</c><c>   1</c></rc>
    <rc><c>Fe</c><c>   1</c></rc>
    <rc><c>Fe</c><c>   1</c></rc>
    <rc><c>Fe</c><c>   1</c></rc>
    <rc><c>Fe</c><c>   1</c></rc>
    <rc><c>Fe</c><c>   1</c></rc>
    <rc><c>Fe</c><c>   1</c></rc>
    <rc><c>Fe</c><c>   1</c></rc>
    <rc><c>Fe</c><c>   1</c></rc>
    <rc><c>Fe</c><c>   1</c></rc>
    <rc><c>Fe</c><c>   1</c></rc>
    <rc><c>Fe</c><c>   1</c></rc>
    <rc><c>Fe</c><c>   1</c></rc>
    <rc><c>Fe</c><c>   1</c></rc>
    <rc><c>Fe</c><c>   1</c></rc>
    <rc><c>Fe</c><c>   1</c></rc>
    <rc><c>Fe</c><c>   1</c></rc>
    <rc><c>Fe</c><c>   1</c></rc>
    <rc><c>Fe</c><c>   1</c></rc>
    <rc><c>Fe</c><c>   1</c></rc>
    <rc><c>Fe</c><c>   1</c></rc>
    <rc><c>Fe</c><c>   1</c></rc>
    <rc><c>Fe</c><c>   1</c></rc>
    <rc><c>Fe</c><c>   1</c></rc>
    <rc><c>Fe</c><c>   1</c></rc>
    <rc><c>Fe</c><c>   1</c></rc>
    <rc><c>Fe</c><c>   1</c></rc>
    <rc><c>Fe</c><c>   1</c></rc>
    <rc><c>Fe</c><c>   1</c></rc>
    <rc><c>Fe</c><c>   1</c></rc>
    <rc><c>Fe</c><c>   1</c></rc>
    <rc><c>Fe</c><c>   1</c></rc>
    <rc><c>Fe</c><c>   1</c></rc>
    <rc><c>Fe</c><c>   1</c></rc>
    <rc><c>Fe</c><c>   1</c></rc>
    <rc><c>Fe</c><c>   1</c></rc>
    <rc><c>Fe</c><c>   1</c></rc>
    <rc><c>Fe</c><c>   1</c></rc>
    <rc><c>Fe</c><c>   1</c></rc>
    <rc><c>Fe</c><c>   1</c></rc>
    <rc><c>Fe</c><c>   1</c></rc>
    <rc><c>Fe</c><c>   1</c></rc>
    <rc><c>Fe</c><c>   1</c></rc>
    <rc><c>Fe</c><c>   1</c></rc>
    <rc><c>Fe</c><c>   1</c></rc>
    <rc><c>Fe</c><c>   1</c></rc>
    <rc><c>Fe</c><c>   1</c></rc>
    <rc><c>Fe</c><c>   1</c></rc>
    <rc><c>Mn</c><c>   2</c></rc>
    <rc><c>Mn</c><c>   2</c></rc>
    <rc><c>Mn</c><c>   2</c></rc>
    <rc><c>Mn</c><c>   2</c></rc>
    <rc><c>Mn</c><c>   2</c></rc>
    <rc><c>Mn</c><c>   2</c></rc>
    <rc><c>Mn</c><c>   2</c></rc>
    <rc><c>Mn</c><c>   2</c></rc>
    <rc><c>Mn</c><c>   2</c></rc>
    <rc><c>Mn</c><c>   2</c></rc>
    <rc><c>Mn</c><c>   2</c></rc>
    <rc><c>Mn</c><c>   2</c></rc>
    <rc><c>Mn</c><c>   2</c></rc>
    <rc><c>Mn</c><c>   2</c></rc>
    <rc><c>Mn</c><c>   2</c></rc>
   </set>
  </array>
  <array name="atomtypes" >
   <dimension dim="1">type</dimension>
   <field type="int">atomspertype</field>
   <field type="string">element</field>
   <field>mass</field>
   <field>valence</field>
   <field type="string">pseudopotential</field>
   <set>
    <rc><c> 273</c><c>Fe</c><c>     55.84700000</c><c>      8.00000000</c><c>  PAW_PBE Fe_GW 31Mar2010               </c></rc>
    <rc><c>  15</c><c>Mn</c><c>     54.93800000</c><c>      7.00000000</c><c>  PAW_PBE Mn_GW 31Mar2010               </c></rc>
   </set>
  </array>
 </atominfo>
 <structure name="initialpos" >
  <crystal>
   <varray name="basis" >
    <v>       9.72667800       0.00000000       0.00000000 </v>
    <v>       0.00000000       8.42355000       0.00000000 </v>
    <v>       0.00000000       0.00000000      45.00000000 </v>
   </varray>
   <i name="volume">   3686.99213101 </i>
   <varray name="rec_basis" >
    <v>       0.10281002       0.00000000       0.00000000 </v>
    <v>       0.00000000       0.11871479       0.00000000 </v>
    <v>       0.00000000       0.00000000       0.02222222 </v>
   </varray>
  </crystal>
  <varray name="positions" >
   <v>       0.56221657       0.70473937       0.69833192 </v>
   <v>       0.81243337       0.87196147       0.65385629 </v>
   <v>       0.43748056       0.62281800       0.30179744 </v>
   <v>       0.93766848       0.62220365       0.52146936 </v>
   <v>       0.31192520       0.53729729       0.87347862 </v>
   <v>       0.68725016       0.28800360       0.74242842 </v>
   <v>       0.68741757       0.12122117       0.78660721 </v>
   <v>       0.56306854       0.53725493       0.87350117 </v>
   <v>       0.06245059       0.20493541       0.83140233 </v>
   <v>       0.31240800       0.37264685       0.30168538 </v>
   <v>       0.18761316       0.62149885       0.78663361 </v>
   <v>       0.43753768       0.12151643       0.65382400 </v>
   <v>       0.06254489       0.37124703       0.78659040 </v>
   <v>       0.18743051       0.45632389       0.34612278 </v>
   <v>       0.93731396       0.45532396       0.56524203 </v>
   <v>       0.93748363       0.78801879       0.87354899 </v>
   <v>       0.18778833       0.12210931       0.43485436 </v>
   <v>       0.56237382       0.87276644       0.43479317 </v>
   <v>       0.18803379       0.12192436       0.52142456 </v>
   <v>       0.68784622       0.12247794       0.43484644 </v>
   <v>       0.31234821       0.70646577       0.21330940 </v>
   <v>       0.18775265       0.78831491       0.74249079 </v>
   <v>       0.06253586       0.20517773       0.56498597 </v>
   <v>       0.56272242       0.70645200       0.21333349 </v>
   <v>       0.06255849       0.03832141       0.74246667 </v>
   <v>       0.68729177       0.12313713       0.30190748 </v>
   <v>       0.18739004       0.62318143       0.30169145 </v>
   <v>       0.56240470       0.03975063       0.12629427 </v>
   <v>       0.81248130       0.37150563       0.65381162 </v>
   <v>       0.93754262       0.95528383       0.69836284 </v>
   <v>       0.06244732       0.70411034       0.83136013 </v>
   <v>       0.18711457       0.12344892       0.16840522 </v>
   <v>       0.18761577       0.78791441       0.87357124 </v>
   <v>       0.68673706       0.28943906       0.12643009 </v>
   <v>       0.81255893       0.20500726       0.83137996 </v>
   <v>       0.93743813       0.28871766       0.39023338 </v>
   <v>       0.68690343       0.45677088       0.21345154 </v>
   <v>       0.56268011       0.87138395       0.65382871 </v>
   <v>       0.31227833       0.20629401       0.47857715 </v>
   <v>       0.93754745       0.95516805       0.56532292 </v>
   <v>       0.06237769       0.53798673       0.74238047 </v>
   <v>       0.06279826       0.70597434       0.21336191 </v>
   <v>       0.81243299       0.37096428       0.78665631 </v>
   <v>       0.43752843       0.78987345       0.12627781 </v>
   <v>       0.68739146       0.28851968       0.60984866 </v>
   <v>       0.18805488       0.45588449       0.47862157 </v>
   <v>       0.81256830       0.53771568       0.87361385 </v>
   <v>       0.68782242       0.45522409       0.56517979 </v>
   <v>       0.93751429       0.45444686       0.83136461 </v>
   <v>       0.93714136       0.95617011       0.34611299 </v>
   <v>       0.81277889       0.20624649       0.47857579 </v>
   <v>       0.81249992       0.03806747       0.74241248 </v>
   <v>       0.56261678       0.70533251       0.83143775 </v>
   <v>       0.68755535       0.45508721       0.69832049 </v>
   <v>       0.93736664       0.45654461       0.34606255 </v>
   <v>       0.93738268       0.95531042       0.47870342 </v>
   <v>       0.81223492       0.87291899       0.43492822 </v>
   <v>       0.18743627       0.62229652       0.52144050 </v>
   <v>       0.43764102       0.28933274       0.39018734 </v>
   <v>       0.18738713       0.95436295       0.83135836 </v>
   <v>       0.93745393       0.95459925       0.83152525 </v>
   <v>       0.31248135       0.53847569       0.60985632 </v>
   <v>       0.06262769       0.87288388       0.30169001 </v>
   <v>       0.81259824       0.53969315       0.25752646 </v>
   <v>       0.31247607       0.70472130       0.69829340 </v>
   <v>       0.06266550       0.20676037       0.21338105 </v>
   <v>       0.93749895       0.45658214       0.21331538 </v>
   <v>       0.43741856       0.45556909       0.56530457 </v>
   <v>       0.43753843       0.62325224       0.16861072 </v>
   <v>       0.81266974       0.53844106       0.60981208 </v>
   <v>       0.68735235       0.28963469       0.25759102 </v>
   <v>       0.06258661       0.37145507       0.65379156 </v>
   <v>       0.43745352       0.95602988       0.34620901 </v>
   <v>       0.31245461       0.20577486       0.56537688 </v>
   <v>       0.43741866       0.78831659       0.74243809 </v>
   <v>       0.18736658       0.28828498       0.60983653 </v>
   <v>       0.43743454       0.45690954       0.21331707 </v>
   <v>       0.31233727       0.87311557       0.30173556 </v>
   <v>       0.18728832       0.45471418       0.83147043 </v>
   <v>       0.68779791       0.12205484       0.52133603 </v>
   <v>       0.81277264       0.53954741       0.39011658 </v>
   <v>       0.31235375       0.53920555       0.39009728 </v>
   <v>       0.06187456       0.37274126       0.16845323 </v>
   <v>       0.93766816       0.28834148       0.60986372 </v>
   <v>       0.81251155       0.70526810       0.56525047 </v>
   <v>       0.06251090       0.87234114       0.52143149 </v>
   <v>       0.56244818       0.03970767       0.39015240 </v>
   <v>       0.56256472       0.03879359       0.60994100 </v>
   <v>       0.31247680       0.53845933       0.74245005 </v>
   <v>       0.68749834       0.62217086       0.52134080 </v>
   <v>       0.68757208       0.28830308       0.87354165 </v>
   <v>       0.81189844       0.37217994       0.43481150 </v>
   <v>       0.56229168       0.87327998       0.16847199 </v>
   <v>       0.31251446       0.03960939       0.25746545 </v>
   <v>       0.56232605       0.70564740       0.47864942 </v>
   <v>       0.06235952       0.04022171       0.25745498 </v>
   <v>       0.43747653       0.95531163       0.47865449 </v>
   <v>       0.56261417       0.87139756       0.78665366 </v>
   <v>       0.93764440       0.45503718       0.69823557 </v>
   <v>       0.31250824       0.03933998       0.39002955 </v>
   <v>       0.56234723       0.53838373       0.60979257 </v>
   <v>       0.06254600       0.70529188       0.56519425 </v>
   <v>       0.68743188       0.95523631       0.56529629 </v>
   <v>       0.81237111       0.87102984       0.78661999 </v>
   <v>       0.68788134       0.12343563       0.16841908 </v>
   <v>       0.18765782       0.78951709       0.12625932 </v>
   <v>       0.31219242       0.87137955       0.78658303 </v>
   <v>       0.68778972       0.95621093       0.21336372 </v>
   <v>       0.81273670       0.54083258       0.12634174 </v>
   <v>       0.18752424       0.12145351       0.78660197 </v>
   <v>       0.43748859       0.62164515       0.78665063 </v>
   <v>       0.18810927       0.45673688       0.21338780 </v>
   <v>       0.06250345       0.70553854       0.47861400 </v>
   <v>       0.56232770       0.37249092       0.52136352 </v>
   <v>       0.68767500       0.78986061       0.25749100 </v>
   <v>       0.81254225       0.20547444       0.56538213 </v>
   <v>       0.06288447       0.20498668       0.69827986 </v>
   <v>       0.31249814       0.03864465       0.60994539 </v>
   <v>       0.56238876       0.54012373       0.12642036 </v>
   <v>       0.06257376       0.53815609       0.60979199 </v>
   <v>       0.43740535       0.62189603       0.52145128 </v>
   <v>       0.68750877       0.95483550       0.69829392 </v>
   <v>       0.56257243       0.70604175       0.34621342 </v>
   <v>       0.56259063       0.20677806       0.21339856 </v>
   <v>       0.81195034       0.70607437       0.34620923 </v>
   <v>       0.31261985       0.37187920       0.52139539 </v>
   <v>       0.18826287       0.28950739       0.12641066 </v>
   <v>       0.56238571       0.37337321       0.16865656 </v>
   <v>       0.93750405       0.12356035       0.16848586 </v>
   <v>       0.93755729       0.62195100       0.65375426 </v>
   <v>       0.81250552       0.87250200       0.30170079 </v>
   <v>       0.06249043       0.87197647       0.65385747 </v>
   <v>       0.31248679       0.53951468       0.25745871 </v>
   <v>       0.31252533       0.70574120       0.47870193 </v>
   <v>       0.81232673       0.20677226       0.21335860 </v>
   <v>       0.06274772       0.87118024       0.78666202 </v>
   <v>       0.81242108       0.03932264       0.38998875 </v>
   <v>       0.31302626       0.37236717       0.43481823 </v>
   <v>       0.56256921       0.87254240       0.52141466 </v>
   <v>       0.18773478       0.62249620       0.43487642 </v>
   <v>       0.93748021       0.62113070       0.78662569 </v>
   <v>       0.56217786       0.20471795       0.69829487 </v>
   <v>       0.31254925       0.03779274       0.74241544 </v>
   <v>       0.06252414       0.37262570       0.52128309 </v>
   <v>       0.93732483       0.78906508       0.39014905 </v>
   <v>       0.43755549       0.45453714       0.69832933 </v>
   <v>       0.06249495       0.03941413       0.39014375 </v>
   <v>       0.43756082       0.95545278       0.56522469 </v>
   <v>       0.43705581       0.62303023       0.43485364 </v>
   <v>       0.18764706       0.78834369       0.60991383 </v>
   <v>       0.93761027       0.62284022       0.43487097 </v>
   <v>       0.56241726       0.53953346       0.39008359 </v>
   <v>       0.93746396       0.62267171       0.16840623 </v>
   <v>       0.18777663       0.28820550       0.74243646 </v>
   <v>       0.31303509       0.87302401       0.43495096 </v>
   <v>       0.68752632       0.95525489       0.47855943 </v>
   <v>       0.31300506       0.70608539       0.34619630 </v>
   <v>       0.31260258       0.37341695       0.16867241 </v>
   <v>       0.31271001       0.87329889       0.16848987 </v>
   <v>       0.93745914       0.12213596       0.43480473 </v>
   <v>       0.81238296       0.87245178       0.52147845 </v>
   <v>       0.31242999       0.20667161       0.21339058 </v>
   <v>       0.68740646       0.28957481       0.39021107 </v>
   <v>       0.18739729       0.12333143       0.30181158 </v>
   <v>       0.68800694       0.45564789       0.47862212 </v>
   <v>       0.18728384       0.79003636       0.25748516 </v>
   <v>       0.43749928       0.28796744       0.74248539 </v>
   <v>       0.81278669       0.87283740       0.16852034 </v>
   <v>       0.56262512       0.03949128       0.25749789 </v>
   <v>       0.06244856       0.03850551       0.60986491 </v>
   <v>       0.81316908       0.37263559       0.16849773 </v>
   <v>       0.31255935       0.70547739       0.56525712 </v>
   <v>       0.68771871       0.45472218       0.83150766 </v>
   <v>       0.81253424       0.70418322       0.83134076 </v>
   <v>       0.81243748       0.20501637       0.69826801 </v>
   <v>       0.43682021       0.12249101       0.43481788 </v>
   <v>       0.56261001       0.53845870       0.74245232 </v>
   <v>       0.43752270       0.28921813       0.25748990 </v>
   <v>       0.31289684       0.20456905       0.83136754 </v>
   <v>       0.56207428       0.20460972       0.83136992 </v>
   <v>       0.68736210       0.62140535       0.78666376 </v>
   <v>       0.56258114       0.20618902       0.34619318 </v>
   <v>       0.56253003       0.37142686       0.78665638 </v>
   <v>       0.93688121       0.45591774       0.47862637 </v>
   <v>       0.31254173       0.87219816       0.52147117 </v>
   <v>       0.43755194       0.78978006       0.25758087 </v>
   <v>       0.43711329       0.12199015       0.52138603 </v>
   <v>       0.18774718       0.28968134       0.25755362 </v>
   <v>       0.31325373       0.20606674       0.34609063 </v>
   <v>       0.18745731       0.45529900       0.56522085 </v>
   <v>       0.31250944       0.37141724       0.65380871 </v>
   <v>       0.43774064       0.78921234       0.39020267 </v>
   <v>       0.56251590       0.37255125       0.30167718 </v>
   <v>       0.18798812       0.95648213       0.34623243 </v>
   <v>       0.06232701       0.53896489       0.39015976 </v>
   <v>       0.81255814       0.03979751       0.25749634 </v>
   <v>       0.68763508       0.12168318       0.65378273 </v>
   <v>       0.56206114       0.03749013       0.87370239 </v>
   <v>       0.93758781       0.79019832       0.25739380 </v>
   <v>       0.18747096       0.28889183       0.39015188 </v>
   <v>       0.18727057       0.95613216       0.21328193 </v>
   <v>       0.56240618       0.70541170       0.56516604 </v>
   <v>       0.93754508       0.12190258       0.65381980 </v>
   <v>       0.68755954       0.95440275       0.83143508 </v>
   <v>       0.68728137       0.62347511       0.16857311 </v>
   <v>       0.56253980       0.87306520       0.30165090 </v>
   <v>       0.93702647       0.12194036       0.52143453 </v>
   <v>       0.31253625       0.20470780       0.69828235 </v>
   <v>       0.68737600       0.78840919       0.60986275 </v>
   <v>       0.06259174       0.37335000       0.30174085 </v>
   <v>       0.18773196       0.62348106       0.16855925 </v>
   <v>       0.81312234       0.03748495       0.87356333 </v>
   <v>       0.06235448       0.87266048       0.43495237 </v>
   <v>       0.43728352       0.45610744       0.34601314 </v>
   <v>       0.93743830       0.78832184       0.60990998 </v>
   <v>       0.93749050       0.28791925       0.87360156 </v>
   <v>       0.68771264       0.45638813       0.34615230 </v>
   <v>       0.81196759       0.20620088       0.34604206 </v>
   <v>       0.43746875       0.78848103       0.87370325 </v>
   <v>       0.81253492       0.03868748       0.60982527 </v>
   <v>       0.81233958       0.53793092       0.74244883 </v>
   <v>       0.06267784       0.70508131       0.69832372 </v>
   <v>       0.43762295       0.28852453       0.60993621 </v>
   <v>       0.18747274       0.95508742       0.69829821 </v>
   <v>       0.68721861       0.78807045       0.74251449 </v>
   <v>       0.93751773       0.28987360       0.25754015 </v>
   <v>       0.81185578       0.04004175       0.12634594 </v>
   <v>       0.18763765       0.95527629       0.47867775 </v>
   <v>       0.68739650       0.62289075       0.30170007 </v>
   <v>       0.56248680       0.20538630       0.56499568 </v>
   <v>       0.06247646       0.53772578       0.87359858 </v>
   <v>       0.43758153       0.95481733       0.69827343 </v>
   <v>       0.56263366       0.53950195       0.25751733 </v>
   <v>       0.68775115       0.62168598       0.65380710 </v>
   <v>       0.93758033       0.12304230       0.30171096 </v>
   <v>       0.31236462       0.70529147       0.83139426 </v>
   <v>       0.68744977       0.95632504       0.34617717 </v>
   <v>       0.31293893       0.03756165       0.87371315 </v>
   <v>       0.56242745       0.37169237       0.65382915 </v>
   <v>       0.93746738       0.78812531       0.74244578 </v>
   <v>       0.68744244       0.78786773       0.87360144 </v>
   <v>       0.43712978       0.45583644       0.47858654 </v>
   <v>       0.68732576       0.78948798       0.12627595 </v>
   <v>       0.43752187       0.29050417       0.12633962 </v>
   <v>       0.31250514       0.37157288       0.78663582 </v>
   <v>       0.43749788       0.12193926       0.78650211 </v>
   <v>       0.81264529       0.70575490       0.47870258 </v>
   <v>       0.81220539       0.70602068       0.21333400 </v>
   <v>       0.43752686       0.78848610       0.60986717 </v>
   <v>       0.18729204       0.62164772       0.65384937 </v>
   <v>       0.43749658       0.45484222       0.83137285 </v>
   <v>       0.31239521       0.87135315       0.65384321 </v>
   <v>       0.06191627       0.03758059       0.87353062 </v>
   <v>       0.81252323       0.37297894       0.30170014 </v>
   <v>       0.31260901       0.54018886       0.12641290 </v>
   <v>       0.43749255       0.28748965       0.87355035 </v>
   <v>       0.06225945       0.87295824       0.16848085 </v>
   <v>       0.18745003       0.28828994       0.87352822 </v>
   <v>       0.06225902       0.54083526       0.12633930 </v>
   <v>       0.06258870       0.54004786       0.25745741 </v>
   <v>       0.56245093       0.37289615       0.43477371 </v>
   <v>       0.93747414       0.79001575       0.12618710 </v>
   <v>       0.68710895       0.78967743       0.39020686 </v>
   <v>       0.18744121       0.45464991       0.69830895 </v>
   <v>       0.18751696       0.95510976       0.56533569 </v>
   <v>       0.43753924       0.12308089       0.16857071 </v>
   <v>       0.81254726       0.37194816       0.52147074 </v>
   <v>       0.06313481       0.04003646       0.12634308 </v>
   <v>       0.31263047       0.03986692       0.12628769 </v>
   <v>       0.18735278       0.12151563       0.65377001 </v>
   <v>       0.18744736       0.78918576       0.39016841 </v>
   <v>       0.56231297       0.03774961       0.74242302 </v>
   <v>       0.93754420       0.12107307       0.78662790 </v>
   <v>       0.43758573       0.95451277       0.83202955 </v>
   <v>       0.93747900       0.28809788       0.74250509 </v>
   <v>       0.68754991       0.62287063       0.43490257 </v>
   <v>       0.93744851       0.29068741       0.12659380 </v>
   <v>       0.43754702       0.12293048       0.30171450 </v>
   <v>       0.43746637       0.62145396       0.65375830 </v>
   <v>       0.43741815       0.95688511       0.21354772 </v>
   <v>       0.93746017       0.95604679       0.21359848 </v>
   <v>       0.56244783       0.20555634       0.47874039 </v>
   <v>       0.06297100       0.70681046       0.34636485 </v>
   <v>       0.93721074       0.62260424       0.30167875 </v>
   <v>       0.81257585       0.70513062       0.69831633 </v>
   <v>       0.06246530       0.37262649       0.43470738 </v>
   <v>       0.06251554       0.20636579       0.34621884 </v>
   <v>       0.06250504       0.20550903       0.47875108 </v>
  </varray>
 </structure>
 <calculation>
  <scstep>
   <time name="dav">  145.60  145.60</time>
   <time name="total">  146.07  146.07</time>
   <energy>
    <i name="alphaZ">  16277.55763135 </i>
    <i name="ewald"> 762945.36554509 </i>
    <i name="hartreedc">-953199.14449439 </i>
    <i name="XCdc">  -6525.32194204 </i>
    <i name="pawpsdc"> 162148.49262465 </i>
    <i name="pawaedc">-159453.03229289 </i>
    <i name="eentropy">     -0.97248065 </i>
    <i name="bandstr">  39737.75540031 </i>
    <i name="atom"> 168497.18126305 </i>
    <i name="e_fr_energy">  30427.88125449 </i>
    <i name="e_wo_entrp">  30428.85373513 </i>
    <i name="e_0_energy">  30428.36749481 </i>
   </energy>
  </scstep>
  <scstep>
   <time name="dav">  140.03  140.03</time>
   <time name="total">  140.04  140.03</time>
   <energy>
    <i name="e_fr_energy">   1531.41187569 </i>
    <i name="e_wo_entrp">   1532.79498880 </i>
    <i name="e_0_energy">   1532.10343224 </i>
   </energy>
  </scstep>
  <scstep>
   <time name="dav">  176.64  176.63</time>
   <time name="total">  176.64  176.64</time>
   <energy>
    <i name="e_fr_energy">  -1896.82814767 </i>
    <i name="e_wo_entrp">  -1893.29267325 </i>
    <i name="e_0_energy">  -1895.06041046 </i>
   </energy>
  </scstep>
  <scstep>
   <time name="dav">  216.57  216.56</time>
   <time name="total">  216.58  216.57</time>
   <energy>
    <i name="e_fr_energy">  -2609.78688852 </i>
    <i name="e_wo_entrp">  -2606.31686808 </i>
    <i name="e_0_energy">  -2608.05187830 </i>
   </energy>
  </scstep>
  <scstep>
   <time name="dav">  206.85  206.85</time>
   <time name="total">  211.56  211.55</time>
   <energy>
    <i name="e_fr_energy">  -2739.70457443 </i>
    <i name="e_wo_entrp">  -2736.17644187 </i>
    <i name="e_0_energy">  -2737.94050815 </i>
   </energy>
  </scstep>
  <scstep>
   <time name="diag">   29.19   29.19</time>
   <time name="diis">   75.49   75.48</time>
   <time name="orth">    9.88    9.87</time>
   <time name="total">  119.61  119.60</time>
   <energy>
    <i name="e_fr_energy">  -6935.47180144 </i>
    <i name="e_wo_entrp">  -6931.97344857 </i>
    <i name="e_0_energy">  -6933.72262501 </i>
   </energy>
  </scstep>
  <scstep>
   <time name="diag">   29.76   29.76</time>
   <time name="diis">   77.21   77.20</time>
   <time name="orth">    8.81    8.81</time>
   <time name="total">  121.38  121.38</time>
   <energy>
    <i name="e_fr_energy">  -7077.69649375 </i>
    <i name="e_wo_entrp">  -7073.66888132 </i>
    <i name="e_0_energy">  -7075.68268754 </i>
   </energy>
  </scstep>
  <scstep>
[...]
       <r>     5.8229     0.0000  2760.0000 </r>
       <r>     5.8657     0.0000  2760.0000 </r>
       <r>     5.9084     0.0000  2760.0000 </r>
       <r>     5.9512     0.0000  2760.0000 </r>
       <r>     5.9939     0.0000  2760.0000 </r>
       <r>     6.0367     0.0000  2760.0000 </r>
       <r>     6.0794     0.0000  2760.0000 </r>
       <r>     6.1222     0.0000  2760.0000 </r>
       <r>     6.1650     0.0000  2760.0000 </r>
       <r>     6.2077     0.0000  2760.0000 </r>
       <r>     6.2505     0.0000  2760.0000 </r>
       <r>     6.2932     0.0000  2760.0000 </r>
       <r>     6.3360     0.0000  2760.0000 </r>
       <r>     6.3787     0.0000  2760.0000 </r>
       <r>     6.4215     0.0000  2760.0000 </r>
       <r>     6.4642     0.0000  2760.0000 </r>
       <r>     6.5070     0.0000  2760.0000 </r>
       <r>     6.5498     0.0000  2760.0000 </r>
       <r>     6.5925     0.0000  2760.0000 </r>
       <r>     6.6353     0.0000  2760.0000 </r>
       <r>     6.6780     0.0000  2760.0000 </r>
       <r>     6.7208     0.0000  2760.0000 </r>
       <r>     6.7635     0.0000  2760.0000 </r>
      </set>
     </set>
    </array>
   </total>
  </dos>
 </calculation>
 <structure name="finalpos" >
  <crystal>
   <varray name="basis" >
    <v>       9.72667800       0.00000000       0.00000000 </v>
    <v>       0.00000000       8.42355000       0.00000000 </v>
    <v>       0.00000000       0.00000000      45.00000000 </v>
   </varray>
   <i name="volume">   3686.99213101 </i>
   <varray name="rec_basis" >
    <v>       0.10281002       0.00000000       0.00000000 </v>
    <v>       0.00000000       0.11871479       0.00000000 </v>
    <v>       0.00000000       0.00000000       0.02222222 </v>
   </varray>
  </crystal>
  <varray name="positions" >
   <v>       0.56221932       0.70474432       0.69833001 </v>
   <v>       0.81243574       0.87196909       0.65385574 </v>
   <v>       0.43747692       0.62281326       0.30179777 </v>
   <v>       0.93765233       0.62219933       0.52147048 </v>
   <v>       0.31192448       0.53728703       0.87347958 </v>
   <v>       0.68726249       0.28800167       0.74242769 </v>
   <v>       0.68741803       0.12122657       0.78660451 </v>
   <v>       0.56306879       0.53724435       0.87350215 </v>
   <v>       0.06244677       0.20493631       0.83140279 </v>
   <v>       0.31240566       0.37264268       0.30168581 </v>
   <v>       0.18761104       0.62150043       0.78663143 </v>
   <v>       0.43754343       0.12151722       0.65382343 </v>
   <v>       0.06254394       0.37124094       0.78658799 </v>
   <v>       0.18743179       0.45632214       0.34612269 </v>
   <v>       0.93730863       0.45532445       0.56524060 </v>
   <v>       0.93748368       0.78802435       0.87354962 </v>
   <v>       0.18778499       0.12210718       0.43485679 </v>
   <v>       0.56237870       0.87276881       0.43479474 </v>
   <v>       0.18802723       0.12193228       0.52142262 </v>
   <v>       0.68784646       0.12247613       0.43484985 </v>
   <v>       0.31234958       0.70646729       0.21330564 </v>
   <v>       0.18774475       0.78831887       0.74249015 </v>
   <v>       0.06252663       0.20517552       0.56498371 </v>
   <v>       0.56271213       0.70645530       0.21332899 </v>
   <v>       0.06255183       0.03832529       0.74246539 </v>
   <v>       0.68729016       0.12313129       0.30190808 </v>
   <v>       0.18738910       0.62318042       0.30169188 </v>
   <v>       0.56240988       0.03974926       0.12629874 </v>
   <v>       0.81248110       0.37150505       0.65381078 </v>
   <v>       0.93754134       0.95529475       0.69836210 </v>
   <v>       0.06244623       0.70410967       0.83136084 </v>
   <v>       0.18712012       0.12344006       0.16840582 </v>
   <v>       0.18760748       0.78791708       0.87357079 </v>
   <v>       0.68673687       0.28943154       0.12643468 </v>
   <v>       0.81256153       0.20501031       0.83138054 </v>
   <v>       0.93744227       0.28872295       0.39023251 </v>
   <v>       0.68689401       0.45677163       0.21344717 </v>
   <v>       0.56268917       0.87138221       0.65382861 </v>
   <v>       0.31227531       0.20629474       0.47858149 </v>
   <v>       0.93754491       0.95516946       0.56532175 </v>
   <v>       0.06237119       0.53798733       0.74237936 </v>
   <v>       0.06280927       0.70598120       0.21335788 </v>
   <v>       0.81243393       0.37095778       0.78665368 </v>
   <v>       0.43752924       0.78988129       0.12628314 </v>
   <v>       0.68739953       0.28852364       0.60984837 </v>
   <v>       0.18804890       0.45587470       0.47862453 </v>
   <v>       0.81257290       0.53770244       0.87361337 </v>
   <v>       0.68782966       0.45522767       0.56517916 </v>
   <v>       0.93751452       0.45443674       0.83136584 </v>
   <v>       0.93714559       0.95616219       0.34611279 </v>
   <v>       0.81278102       0.20625097       0.47857927 </v>
   <v>       0.81250421       0.03806700       0.74241052 </v>
   <v>       0.56262199       0.70532406       0.83143718 </v>
   <v>       0.68756012       0.45508600       0.69831888 </v>
   <v>       0.93737162       0.45655039       0.34606312 </v>
   <v>       0.93738590       0.95530515       0.47870657 </v>
   <v>       0.81223936       0.87291016       0.43493163 </v>
   <v>       0.18744787       0.62228607       0.52144088 </v>
   <v>       0.43763892       0.28932603       0.39018510 </v>
   <v>       0.18737727       0.95437003       0.83135733 </v>
   <v>       0.93745736       0.95460891       0.83152623 </v>
   <v>       0.31248006       0.53848035       0.60985564 </v>
   <v>       0.06263388       0.87288026       0.30169039 </v>
   <v>       0.81259803       0.53969274       0.25752708 </v>
   <v>       0.31247204       0.70472580       0.69829131 </v>
   <v>       0.06267442       0.20675090       0.21337800 </v>
   <v>       0.93750646       0.45658151       0.21331196 </v>
   <v>       0.43742176       0.45557299       0.56530436 </v>
   <v>       0.43753996       0.62325449       0.16861356 </v>
   <v>       0.81266736       0.53844190       0.60981203 </v>
   <v>       0.68734643       0.28963080       0.25759102 </v>
   <v>       0.06257906       0.37145313       0.65379141 </v>
   <v>       0.43744678       0.95603060       0.34620939 </v>
   <v>       0.31245304       0.20577373       0.56537392 </v>
   <v>       0.43742308       0.78832094       0.74243706 </v>
   <v>       0.18735874       0.28828928       0.60983625 </v>
   <v>       0.43742933       0.45691063       0.21331358 </v>
   <v>       0.31233532       0.87311525       0.30173583 </v>
   <v>       0.18728668       0.45471044       0.83147102 </v>
   <v>       0.68781666       0.12204426       0.52133628 </v>
   <v>       0.81277488       0.53955222       0.39011640 </v>
   <v>       0.31235065       0.53920139       0.39009460 </v>
   <v>       0.06188060       0.37274448       0.16845339 </v>
   <v>       0.93766116       0.28833761       0.60986329 </v>
   <v>       0.81251345       0.70526880       0.56524800 </v>
   <v>       0.06249968       0.87235919       0.52143135 </v>
   <v>       0.56244196       0.03971162       0.39015078 </v>
   <v>       0.56257338       0.03879094       0.60994034 </v>
   <v>       0.31247062       0.53846029       0.74245012 </v>
   <v>       0.68749831       0.62217764       0.52134156 </v>
   <v>       0.68757559       0.28830335       0.87354242 </v>
   <v>       0.81189995       0.37218123       0.43481449 </v>
   <v>       0.56228939       0.87328417       0.16847362 </v>
   <v>       0.31251303       0.03960950       0.25746539 </v>
   <v>       0.56234031       0.70563992       0.47865361 </v>
   <v>       0.06236552       0.04021835       0.25745437 </v>
   <v>       0.43747458       0.95531675       0.47865817 </v>
   <v>       0.56261853       0.87140568       0.78664985 </v>
   <v>       0.93764535       0.45503094       0.69823517 </v>
   <v>       0.31250861       0.03934506       0.39002784 </v>
   <v>       0.56235403       0.53838760       0.60979191 </v>
   <v>       0.06253911       0.70529318       0.56519406 </v>
   <v>       0.68743921       0.95523687       0.56529406 </v>
   <v>       0.81237283       0.87103699       0.78661570 </v>
   <v>       0.68787490       0.12343084       0.16841904 </v>
   <v>       0.18765596       0.78952209       0.12626320 </v>
   <v>       0.31218684       0.87138720       0.78658025 </v>
   <v>       0.68778805       0.95621154       0.21335864 </v>
   <v>       0.81273516       0.54084011       0.12634586 </v>
   <v>       0.18752178       0.12146007       0.78659951 </v>
   <v>       0.43748634       0.62164928       0.78664861 </v>
   <v>       0.18811755       0.45673874       0.21338514 </v>
   <v>       0.06249320       0.70554375       0.47861336 </v>
   <v>       0.56233064       0.37249523       0.52136213 </v>
   <v>       0.68766802       0.78986114       0.25749069 </v>
   <v>       0.81254489       0.20547607       0.56538057 </v>
   <v>       0.06287196       0.20498350       0.69827934 </v>
   <v>       0.31249452       0.03863641       0.60994484 </v>
   <v>       0.56239523       0.54012498       0.12642509 </v>
   <v>       0.06257086       0.53815853       0.60979192 </v>
   <v>       0.43741100       0.62190654       0.52145167 </v>
   <v>       0.68751561       0.95483871       0.69829338 </v>
   <v>       0.56257158       0.70603846       0.34621333 </v>
   <v>       0.56258340       0.20677294       0.21339397 </v>
   <v>       0.81195238       0.70607262       0.34621015 </v>
   <v>       0.31260953       0.37187314       0.52139393 </v>
   <v>       0.18826477       0.28949743       0.12641558 </v>
   <v>       0.56238393       0.37337386       0.16865768 </v>
   <v>       0.93750410       0.12354735       0.16848612 </v>
   <v>       0.93755533       0.62195233       0.65375358 </v>
   <v>       0.81250565       0.87249838       0.30170173 </v>
   <v>       0.06248309       0.87198156       0.65385774 </v>
   <v>       0.31248752       0.53951170       0.25745842 </v>
   <v>       0.31251687       0.70574173       0.47870526 </v>
   <v>       0.81232649       0.20676180       0.21335443 </v>
   <v>       0.06274726       0.87118913       0.78665873 </v>
   <v>       0.81242058       0.03931623       0.38998873 </v>
   <v>       0.31302425       0.37236286       0.43482009 </v>
   <v>       0.56257930       0.87254024       0.52141496 </v>
   <v>       0.18772572       0.62249900       0.43487781 </v>
   <v>       0.93748198       0.62112678       0.78662138 </v>
   <v>       0.56219167       0.20472031       0.69829371 </v>
   <v>       0.31254307       0.03779538       0.74241584 </v>
   <v>       0.06252003       0.37260646       0.52128294 </v>
   <v>       0.93732762       0.78905461       0.39014874 </v>
   <v>       0.43756078       0.45454943       0.69832751 </v>
   <v>       0.06250111       0.03940925       0.39014319 </v>
   <v>       0.43756211       0.95544823       0.56522295 </v>
   <v>       0.43705760       0.62302928       0.43485490 </v>
   <v>       0.18764493       0.78834278       0.60991413 </v>
   <v>       0.93761047       0.62284348       0.43487338 </v>
   <v>       0.56241911       0.53952733       0.39008274 </v>
   <v>       0.93746424       0.62267967       0.16840461 </v>
   <v>       0.18776241       0.28820393       0.74243658 </v>
   <v>       0.31303184       0.87302869       0.43495168 </v>
   <v>       0.68753211       0.95525214       0.47856285 </v>
   <v>       0.31300335       0.70608263       0.34619480 </v>
   <v>       0.31260603       0.37341736       0.16867472 </v>
   <v>       0.31270999       0.87329938       0.16849202 </v>
   <v>       0.93746103       0.12213358       0.43480901 </v>
   <v>       0.81237700       0.87245580       0.52147890 </v>
   <v>       0.31243005       0.20666553       0.21338730 </v>
   <v>       0.68740237       0.28957672       0.39021024 </v>
   <v>       0.18739800       0.12333208       0.30181247 </v>
   <v>       0.68800285       0.45564842       0.47862352 </v>
   <v>       0.18728891       0.79003331       0.25748524 </v>
   <v>       0.43749943       0.28796848       0.74248648 </v>
   <v>       0.81278713       0.87283887       0.16852088 </v>
   <v>       0.56261676       0.03948856       0.25749749 </v>
   <v>       0.06243777       0.03850753       0.60986502 </v>
   <v>       0.81316247       0.37263671       0.16849635 </v>
   <v>       0.31255904       0.70547499       0.56525681 </v>
   <v>       0.68772034       0.45471592       0.83150907 </v>
   <v>       0.81253825       0.70418096       0.83134226 </v>
   <v>       0.81244538       0.20501236       0.69826704 </v>
   <v>       0.43682082       0.12248883       0.43481967 </v>
   <v>       0.56261877       0.53846275       0.74245143 </v>
   <v>       0.43751626       0.28921930       0.25748986 </v>
   <v>       0.31289374       0.20457655       0.83136609 </v>
   <v>       0.56207721       0.20461940       0.83136892 </v>
   <v>       0.68736551       0.62140755       0.78666091 </v>
   <v>       0.56257617       0.20618347       0.34619439 </v>
   <v>       0.56253092       0.37141961       0.78665536 </v>
   <v>       0.93688562       0.45592087       0.47862785 </v>
   <v>       0.31255057       0.87221386       0.52147068 </v>
   <v>       0.43754609       0.78977805       0.25757960 </v>
   <v>       0.43709858       0.12198694       0.52138482 </v>
   <v>       0.18775134       0.28968000       0.25755345 </v>
   <v>       0.31325417       0.20606214       0.34609122 </v>
   <v>       0.18745324       0.45530243       0.56521917 </v>
   <v>       0.31250425       0.37142390       0.65380781 </v>
   <v>       0.43773756       0.78921425       0.39020136 </v>
   <v>       0.56250889       0.37254897       0.30167732 </v>
   <v>       0.18799135       0.95648091       0.34623237 </v>
   <v>       0.06232433       0.53896666       0.39015862 </v>
   <v>       0.81256034       0.03979352       0.25749600 </v>
   <v>       0.68764944       0.12168248       0.65378272 </v>
   <v>       0.56206845       0.03750573       0.87370573 </v>
   <v>       0.93759576       0.79020179       0.25739361 </v>
   <v>       0.18747364       0.28888706       0.39015013 </v>
   <v>       0.18727250       0.95613031       0.21327795 </v>
   <v>       0.56241131       0.70540915       0.56516500 </v>
   <v>       0.93754108       0.12190328       0.65381989 </v>
   <v>       0.68756941       0.95441083       0.83143470 </v>
   <v>       0.68727723       0.62348263       0.16857282 </v>
   <v>       0.56253690       0.87306199       0.30165141 </v>
   <v>       0.93702838       0.12194721       0.52143427 </v>
   <v>       0.31252729       0.20470859       0.69828200 </v>
   <v>       0.68737864       0.78840793       0.60986282 </v>
   <v>       0.06259738       0.37334863       0.30174183 </v>
   <v>       0.18773608       0.62348866       0.16856119 </v>
   <v>       0.81312962       0.03749560       0.87356473 </v>
   <v>       0.06234928       0.87265574       0.43495480 </v>
   <v>       0.43727936       0.45610368       0.34601361 </v>
   <v>       0.93743514       0.78832771       0.60990931 </v>
   <v>       0.93749006       0.28791581       0.87360254 </v>
   <v>       0.68771097       0.45639063       0.34615319 </v>
   <v>       0.81196644       0.20620375       0.34604216 </v>
   <v>       0.43746894       0.78847273       0.87370589 </v>
   <v>       0.81254002       0.03869259       0.60982485 </v>
   <v>       0.81234260       0.53793034       0.74244818 </v>
   <v>       0.06267702       0.70508636       0.69832294 </v>
   <v>       0.43762875       0.28853378       0.60993586 </v>
   <v>       0.18746273       0.95508624       0.69829765 </v>
   <v>       0.68722198       0.78807634       0.74251337 </v>
   <v>       0.93752628       0.28987162       0.25754112 </v>
   <v>       0.81185191       0.04003904       0.12634863 </v>
   <v>       0.18762844       0.95527682       0.47868072 </v>
   <v>       0.68739332       0.62289138       0.30170125 </v>
   <v>       0.56249490       0.20538526       0.56499554 </v>
   <v>       0.06247096       0.53771347       0.87359832 </v>
   <v>       0.43758600       0.95480855       0.69827249 </v>
   <v>       0.56262180       0.53949934       0.25751644 </v>
   <v>       0.68775405       0.62168496       0.65380629 </v>
   <v>       0.93758817       0.12303974       0.30171117 </v>
   <v>       0.31235605       0.70528386       0.83139300 </v>
   <v>       0.68744709       0.95632072       0.34617693 </v>
   <v>       0.31293025       0.03757869       0.87371656 </v>
   <v>       0.56244003       0.37169887       0.65382887 </v>
   <v>       0.93746725       0.78813182       0.74244512 </v>
   <v>       0.68744905       0.78786905       0.87360126 </v>
   <v>       0.43713528       0.45581967       0.47858965 </v>
   <v>       0.68732806       0.78948782       0.12627966 </v>
   <v>       0.43752669       0.29049870       0.12634318 </v>
   <v>       0.31250207       0.37156460       0.78663474 </v>
   <v>       0.43749731       0.12194079       0.78650074 </v>
   <v>       0.81265286       0.70576555       0.47870429 </v>
   <v>       0.81220428       0.70602939       0.21332920 </v>
   <v>       0.43752960       0.78848383       0.60986615 </v>
   <v>       0.18728550       0.62165001       0.65384950 </v>
   <v>       0.43749572       0.45483477       0.83137367 </v>
   <v>       0.31239074       0.87135113       0.65384312 </v>
   <v>       0.06190790       0.03759160       0.87353167 </v>
   <v>       0.81252608       0.37297734       0.30170155 </v>
   <v>       0.31260843       0.54019214       0.12641769 </v>
   <v>       0.43749328       0.28749086       0.87355170 </v>
   <v>       0.06226152       0.87295784       0.16848192 </v>
   <v>       0.18744608       0.28828910       0.87352907 </v>
   <v>       0.06225651       0.54084582       0.12634365 </v>
   <v>       0.06259974       0.54004439       0.25745817 </v>
   <v>       0.56245505       0.37289517       0.43477644 </v>
   <v>       0.93747353       0.79002155       0.12619104 </v>
   <v>       0.68711364       0.78967001       0.39020627 </v>
   <v>       0.18743148       0.45465633       0.69830821 </v>
   <v>       0.18751098       0.95510807       0.56533412 </v>
   <v>       0.43754017       0.12306869       0.16857172 </v>
   <v>       0.81255839       0.37193223       0.52147229 </v>
   <v>       0.06313580       0.04003214       0.12634635 </v>
   <v>       0.31262959       0.03986445       0.12629217 </v>
   <v>       0.18733677       0.12151367       0.65376995 </v>
   <v>       0.18744085       0.78918442       0.39016717 </v>
   <v>       0.56232089       0.03774755       0.74242266 </v>
   <v>       0.93754583       0.12108016       0.78662424 </v>
   <v>       0.43758150       0.95452404       0.83202596 </v>
   <v>       0.93747932       0.28809581       0.74250366 </v>
   <v>       0.68755933       0.62286873       0.43490465 </v>
   <v>       0.93744018       0.29067895       0.12659907 </v>
   <v>       0.43753913       0.12293087       0.30171433 </v>
   <v>       0.43747225       0.62146061       0.65375784 </v>
   <v>       0.43741249       0.95687718       0.21354200 </v>
   <v>       0.93746687       0.95604636       0.21359282 </v>
   <v>       0.56244741       0.20555850       0.47874184 </v>
   <v>       0.06297268       0.70680520       0.34636509 </v>
   <v>       0.93721860       0.62260391       0.30168047 </v>
   <v>       0.81257636       0.70513947       0.69831496 </v>
   <v>       0.06246157       0.37262995       0.43471043 </v>
   <v>       0.06252554       0.20636683       0.34621696 </v>
   <v>       0.06250701       0.20550781       0.47875561 </v>
  </varray>
 </structure>
</modeling>
