unknown system                          
            1
     9.726678    0.000000    0.000000
     0.000000    8.423550    0.000000
     0.000000    0.000000   45.000000
   Fe   Mn
 273  15
Direct configuration=     1
   0.56221657  0.70473937  0.69833192
   0.81243337  0.87196147  0.65385629
   0.43748056  0.62281800  0.30179744
   0.93766848  0.62220365  0.52146936
   0.31192520  0.53729729  0.87347862
   0.68725016  0.28800360  0.74242842
   0.68741757  0.12122117  0.78660721
   0.56306854  0.53725493  0.87350117
   0.06245059  0.20493541  0.83140233
   0.31240800  0.37264685  0.30168538
   0.18761316  0.62149885  0.78663361
   0.43753768  0.12151643  0.65382400
   0.06254489  0.37124703  0.78659040
   0.18743051  0.45632389  0.34612278
   0.93731396  0.45532396  0.56524203
   0.93748363  0.78801879  0.87354899
   0.18778833  0.12210931  0.43485436
   0.56237382  0.87276644  0.43479317
   0.18803379  0.12192436  0.52142456
   0.68784622  0.12247794  0.43484644
   0.31234821  0.70646577  0.21330940
   0.18775265  0.78831491  0.74249079
   0.06253586  0.20517773  0.56498597
   0.56272242  0.70645200  0.21333349
   0.06255849  0.03832141  0.74246667
   0.68729177  0.12313713  0.30190748
   0.18739004  0.62318143  0.30169145
   0.56240470  0.03975063  0.12629427
   0.81248130  0.37150563  0.65381162
   0.93754262  0.95528383  0.69836284
   0.06244732  0.70411034  0.83136013
   0.18711457  0.12344892  0.16840522
   0.18761577  0.78791441  0.87357124
   0.68673706  0.28943906  0.12643009
   0.81255893  0.20500726  0.83137996
   0.93743813  0.28871766  0.39023338
   0.68690343  0.45677088  0.21345154
   0.56268011  0.87138395  0.65382871
   0.31227833  0.20629401  0.47857715
   0.93754745  0.95516805  0.56532292
   0.06237769  0.53798673  0.74238047
   0.06279826  0.70597434  0.21336191
   0.81243299  0.37096428  0.78665631
   0.43752843  0.78987345  0.12627781
   0.68739146  0.28851968  0.60984866
   0.18805488  0.45588449  0.47862157
   0.81256830  0.53771568  0.87361385
   0.68782242  0.45522409  0.56517979
   0.93751429  0.45444686  0.83136461
   0.93714136  0.95617011  0.34611299
   0.81277889  0.20624649  0.47857579
   0.81249992  0.03806747  0.74241248
   0.56261678  0.70533251  0.83143775
   0.68755535  0.45508721  0.69832049
   0.93736664  0.45654461  0.34606255
   0.93738268  0.95531042  0.47870342
   0.81223492  0.87291899  0.43492822
   0.18743627  0.62229652  0.52144050
   0.43764102  0.28933274  0.39018734
   0.18738713  0.95436295  0.83135836
   0.93745393  0.95459925  0.83152525
   0.31248135  0.53847569  0.60985632
   0.06262769  0.87288388  0.30169001
   0.81259824  0.53969315  0.25752646
   0.31247607  0.70472130  0.69829340
   0.06266550  0.20676037  0.21338105
   0.93749895  0.45658214  0.21331538
   0.43741856  0.45556909  0.56530457
   0.43753843  0.62325224  0.16861072
   0.81266974  0.53844106  0.60981208
   0.68735235  0.28963469  0.25759102
   0.06258661  0.37145507  0.65379156
   0.43745352  0.95602988  0.34620901
   0.31245461  0.20577486  0.56537688
   0.43741866  0.78831659  0.74243809
   0.18736658  0.28828498  0.60983653
   0.43743454  0.45690954  0.21331707
   0.31233727  0.87311557  0.30173556
   0.18728832  0.45471418  0.83147043
   0.68779791  0.12205484  0.52133603
   0.81277264  0.53954741  0.39011658
   0.31235375  0.53920555  0.39009728
   0.06187456  0.37274126  0.16845323
   0.93766816  0.28834148  0.60986372
   0.81251155  0.70526810  0.56525047
   0.06251090  0.87234114  0.52143149
   0.56244818  0.03970767  0.39015240
   0.56256472  0.03879359  0.60994100
   0.31247680  0.53845933  0.74245005
   0.68749834  0.62217086  0.52134080
   0.68757208  0.28830308  0.87354165
   0.81189844  0.37217994  0.43481150
   0.56229168  0.87327998  0.16847199
   0.31251446  0.03960939  0.25746545
   0.56232605  0.70564740  0.47864942
   0.06235952  0.04022171  0.25745498
   0.43747653  0.95531163  0.47865449
   0.56261417  0.87139756  0.78665366
   0.93764440  0.45503718  0.69823557
   0.31250824  0.03933998  0.39002955
   0.56234723  0.53838373  0.60979257
   0.06254600  0.70529188  0.56519425
   0.68743188  0.95523631  0.56529629
   0.81237111  0.87102984  0.78661999
   0.68788134  0.12343563  0.16841908
   0.18765782  0.78951709  0.12625932
   0.31219242  0.87137955  0.78658303
   0.68778972  0.95621093  0.21336372
   0.81273670  0.54083258  0.12634174
   0.18752424  0.12145351  0.78660197
   0.43748859  0.62164515  0.78665063
   0.18810927  0.45673688  0.21338780
   0.06250345  0.70553854  0.47861400
   0.56232770  0.37249092  0.52136352
   0.68767500  0.78986061  0.25749100
   0.81254225  0.20547444  0.56538213
   0.06288447  0.20498668  0.69827986
   0.31249814  0.03864465  0.60994539
   0.56238876  0.54012373  0.12642036
   0.06257376  0.53815609  0.60979199
   0.43740535  0.62189603  0.52145128
   0.68750877  0.95483550  0.69829392
   0.56257243  0.70604175  0.34621342
   0.56259063  0.20677806  0.21339856
   0.81195034  0.70607437  0.34620923
   0.31261985  0.37187920  0.52139539
   0.18826287  0.28950739  0.12641066
   0.56238571  0.37337321  0.16865656
   0.93750405  0.12356035  0.16848586
   0.93755729  0.62195100  0.65375426
   0.81250552  0.87250200  0.30170079
   0.06249043  0.87197647  0.65385747
   0.31248679  0.53951468  0.25745871
   0.31252533  0.70574120  0.47870193
   0.81232673  0.20677226  0.21335860
   0.06274772  0.87118024  0.78666202
   0.81242108  0.03932264  0.38998875
   0.31302626  0.37236717  0.43481823
   0.56256921  0.87254240  0.52141466
   0.18773478  0.62249620  0.43487642
   0.93748021  0.62113070  0.78662569
   0.56217786  0.20471795  0.69829487
   0.31254925  0.03779274  0.74241544
   0.06252414  0.37262570  0.52128309
   0.93732483  0.78906508  0.39014905
   0.43755549  0.45453714  0.69832933
   0.06249495  0.03941413  0.39014375
   0.43756082  0.95545278  0.56522469
   0.43705581  0.62303023  0.43485364
   0.18764706  0.78834369  0.60991383
   0.93761027  0.62284022  0.43487097
   0.56241726  0.53953346  0.39008359
   0.93746396  0.62267171  0.16840623
   0.18777663  0.28820550  0.74243646
   0.31303509  0.87302401  0.43495096
   0.68752632  0.95525489  0.47855943
   0.31300506  0.70608539  0.34619630
   0.31260258  0.37341695  0.16867241
   0.31271001  0.87329889  0.16848987
   0.93745914  0.12213596  0.43480473
   0.81238296  0.87245178  0.52147845
   0.31242999  0.20667161  0.21339058
   0.68740646  0.28957481  0.39021107
   0.18739729  0.12333143  0.30181158
   0.68800694  0.45564789  0.47862212
   0.18728384  0.79003636  0.25748516
   0.43749928  0.28796744  0.74248539
   0.81278669  0.87283740  0.16852034
   0.56262512  0.03949128  0.25749789
   0.06244856  0.03850551  0.60986491
   0.81316908  0.37263559  0.16849773
   0.31255935  0.70547739  0.56525712
   0.68771871  0.45472218  0.83150766
   0.81253424  0.70418322  0.83134076
   0.81243748  0.20501637  0.69826801
   0.43682021  0.12249101  0.43481788
   0.56261001  0.53845870  0.74245232
   0.43752270  0.28921813  0.25748990
   0.31289684  0.20456905  0.83136754
   0.56207428  0.20460972  0.83136992
   0.68736210  0.62140535  0.78666376
   0.56258114  0.20618902  0.34619318
   0.56253003  0.37142686  0.78665638
   0.93688121  0.45591774  0.47862637
   0.31254173  0.87219816  0.52147117
   0.43755194  0.78978006  0.25758087
   0.43711329  0.12199015  0.52138603
   0.18774718  0.28968134  0.25755362
   0.31325373  0.20606674  0.34609063
   0.18745731  0.45529900  0.56522085
   0.31250944  0.37141724  0.65380871
   0.43774064  0.78921234  0.39020267
   0.56251590  0.37255125  0.30167718
   0.18798812  0.95648213  0.34623243
   0.06232701  0.53896489  0.39015976
   0.81255814  0.03979751  0.25749634
   0.68763508  0.12168318  0.65378273
   0.56206114  0.03749013  0.87370239
   0.93758781  0.79019832  0.25739380
   0.18747096  0.28889183  0.39015188
   0.18727057  0.95613216  0.21328193
   0.56240618  0.70541170  0.56516604
   0.93754508  0.12190258  0.65381980
   0.68755954  0.95440275  0.83143508
   0.68728137  0.62347511  0.16857311
   0.56253980  0.87306520  0.30165090
   0.93702647  0.12194036  0.52143453
   0.31253625  0.20470780  0.69828235
   0.68737600  0.78840919  0.60986275
   0.06259174  0.37335000  0.30174085
   0.18773196  0.62348106  0.16855925
   0.81312234  0.03748495  0.87356333
   0.06235448  0.87266048  0.43495237
   0.43728352  0.45610744  0.34601314
   0.93743830  0.78832184  0.60990998
   0.93749050  0.28791925  0.87360156
   0.68771264  0.45638813  0.34615230
   0.81196759  0.20620088  0.34604206
   0.43746875  0.78848103  0.87370325
   0.81253492  0.03868748  0.60982527
   0.81233958  0.53793092  0.74244883
   0.06267784  0.70508131  0.69832372
   0.43762295  0.28852453  0.60993621
   0.18747274  0.95508742  0.69829821
   0.68721861  0.78807045  0.74251449
   0.93751773  0.28987360  0.25754015
   0.81185578  0.04004175  0.12634594
   0.18763765  0.95527629  0.47867775
   0.68739650  0.62289075  0.30170007
   0.56248680  0.20538630  0.56499568
   0.06247646  0.53772578  0.87359858
   0.43758153  0.95481733  0.69827343
   0.56263366  0.53950195  0.25751733
   0.68775115  0.62168598  0.65380710
   0.93758033  0.12304230  0.30171096
   0.31236462  0.70529147  0.83139426
   0.68744977  0.95632504  0.34617717
   0.31293893  0.03756165  0.87371315
   0.56242745  0.37169237  0.65382915
   0.93746738  0.78812531  0.74244578
   0.68744244  0.78786773  0.87360144
   0.43712978  0.45583644  0.47858654
   0.68732576  0.78948798  0.12627595
   0.43752187  0.29050417  0.12633962
   0.31250514  0.37157288  0.78663582
   0.43749788  0.12193926  0.78650211
   0.81264529  0.70575490  0.47870258
   0.81220539  0.70602068  0.21333400
   0.43752686  0.78848610  0.60986717
   0.18729204  0.62164772  0.65384937
   0.43749658  0.45484222  0.83137285
   0.31239521  0.87135315  0.65384321
   0.06191627  0.03758059  0.87353062
   0.81252323  0.37297894  0.30170014
   0.31260901  0.54018886  0.12641290
   0.43749255  0.28748965  0.87355035
   0.06225945  0.87295824  0.16848085
   0.18745003  0.28828994  0.87352822
   0.06225902  0.54083526  0.12633930
   0.06258870  0.54004786  0.25745741
   0.56245093  0.37289615  0.43477371
   0.93747414  0.79001575  0.12618710
   0.68710895  0.78967743  0.39020686
   0.18744121  0.45464991  0.69830895
   0.18751696  0.95510976  0.56533569
   0.43753924  0.12308089  0.16857071
   0.81254726  0.37194816  0.52147074
   0.06313481  0.04003646  0.12634308
   0.31263047  0.03986692  0.12628769
   0.18735278  0.12151563  0.65377001
   0.18744736  0.78918576  0.39016841
   0.56231297  0.03774961  0.74242302
   0.93754420  0.12107307  0.78662790
   0.43758573  0.95451277  0.83202955
   0.93747900  0.28809788  0.74250509
   0.68754991  0.62287063  0.43490257
   0.93744851  0.29068741  0.12659380
   0.43754702  0.12293048  0.30171450
   0.43746637  0.62145396  0.65375830
   0.43741815  0.95688511  0.21354772
   0.93746017  0.95604679  0.21359848
   0.56244783  0.20555634  0.47874039
   0.06297100  0.70681046  0.34636485
   0.93721074  0.62260424  0.30167875
   0.81257585  0.70513062  0.69831633
   0.06246530  0.37262649  0.43470738
   0.06251554  0.20636579  0.34621884
   0.06250504  0.20550903  0.47875108
Direct configuration=     2
   0.56221945  0.70474456  0.69832991
   0.81243585  0.87196946  0.65385571
   0.43747674  0.62281303  0.30179779
   0.93765155  0.62219912  0.52147053
   0.31192445  0.53728653  0.87347962
   0.68726309  0.28800158  0.74242765
   0.68741805  0.12122684  0.78660438
   0.56306880  0.53724384  0.87350220
   0.06244658  0.20493636  0.83140281
   0.31240555  0.37264248  0.30168583
   0.18761093  0.62150051  0.78663132
   0.43754371  0.12151726  0.65382341
   0.06254389  0.37124065  0.78658787
   0.18743186  0.45632206  0.34612269
   0.93730837  0.45532447  0.56524054
   0.93748369  0.78802462  0.87354965
   0.18778483  0.12210707  0.43485691
   0.56237893  0.87276892  0.43479482
   0.18802691  0.12193267  0.52142252
   0.68784647  0.12247604  0.43485002
   0.31234964  0.70646736  0.21330546
   0.18774437  0.78831906  0.74249012
   0.06252618  0.20517542  0.56498360
   0.56271163  0.70645546  0.21332877
   0.06255151  0.03832548  0.74246533
   0.68729008  0.12313100  0.30190811
   0.18738906  0.62318037  0.30169190
   0.56241013  0.03974920  0.12629895
   0.81248109  0.37150502  0.65381074
   0.93754128  0.95529528  0.69836206
   0.06244618  0.70410964  0.83136088
   0.18712039  0.12343963  0.16840584
   0.18760708  0.78791721  0.87357077
   0.68673686  0.28943117  0.12643490
   0.81256165  0.20501046  0.83138056
   0.93744247  0.28872321  0.39023247
   0.68689355  0.45677167  0.21344696
   0.56268961  0.87138213  0.65382861
   0.31227516  0.20629478  0.47858170
   0.93754479  0.95516952  0.56532169
   0.06237087  0.53798736  0.74237931
   0.06280980  0.70598154  0.21335769
   0.81243398  0.37095747  0.78665356
   0.43752928  0.78988167  0.12628340
   0.68739992  0.28852384  0.60984835
   0.18804861  0.45587422  0.47862467
   0.81257313  0.53770180  0.87361335
   0.68783001  0.45522784  0.56517912
   0.93751454  0.45443625  0.83136590
   0.93714580  0.95616181  0.34611278
   0.81278113  0.20625118  0.47857944
   0.81250441  0.03806698  0.74241043
   0.56262224  0.70532365  0.83143715
   0.68756035  0.45508594  0.69831880
   0.93737186  0.45655067  0.34606314
   0.93738606  0.95530489  0.47870673
   0.81223957  0.87290973  0.43493179
   0.18744843  0.62228556  0.52144089
   0.43763882  0.28932571  0.39018500
   0.18737679  0.95437038  0.83135728
   0.93745753  0.95460938  0.83152628
   0.31247999  0.53848058  0.60985561
   0.06263418  0.87288008  0.30169041
   0.81259802  0.53969272  0.25752711
   0.31247184  0.70472602  0.69829120
   0.06267485  0.20675044  0.21337786
   0.93750682  0.45658148  0.21331179
   0.43742192  0.45557318  0.56530435
   0.43754003  0.62325460  0.16861370
   0.81266724  0.53844195  0.60981203
   0.68734615  0.28963061  0.25759102
   0.06257870  0.37145304  0.65379140
   0.43744646  0.95603064  0.34620941
   0.31245296  0.20577367  0.56537377
   0.43742329  0.78832115  0.74243701
   0.18735836  0.28828948  0.60983624
   0.43742908  0.45691068  0.21331341
   0.31233523  0.87311524  0.30173584
   0.18728660  0.45471026  0.83147105
   0.68781756  0.12204375  0.52133629
   0.81277499  0.53955245  0.39011639
   0.31235050  0.53920119  0.39009448
   0.06188089  0.37274464  0.16845340
   0.93766082  0.28833743  0.60986326
   0.81251354  0.70526883  0.56524788
   0.06249914  0.87236007  0.52143134
   0.56244166  0.03971182  0.39015070
   0.56257380  0.03879081  0.60994031
   0.31247032  0.53846033  0.74245013
   0.68749831  0.62217796  0.52134160
   0.68757576  0.28830337  0.87354245
   0.81190002  0.37218130  0.43481463
   0.56228928  0.87328437  0.16847370
   0.31251296  0.03960950  0.25746538
   0.56234100  0.70563956  0.47865381
   0.06236581  0.04021818  0.25745434
   0.43747448  0.95531700  0.47865835
   0.56261874  0.87140608  0.78664967
   0.93764539  0.45503064  0.69823515
   0.31250863  0.03934531  0.39002775
   0.56235436  0.53838779  0.60979188
   0.06253878  0.70529325  0.56519405
   0.68743956  0.95523689  0.56529395
   0.81237292  0.87103734  0.78661549
   0.68787459  0.12343061  0.16841904
   0.18765587  0.78952233  0.12626338
   0.31218657  0.87138757  0.78658011
   0.68778797  0.95621157  0.21335839
   0.81273508  0.54084048  0.12634606
   0.18752166  0.12146038  0.78659939
   0.43748623  0.62164948  0.78664852
   0.18811795  0.45673883  0.21338501
   0.06249270  0.70554400  0.47861333
   0.56233079  0.37249544  0.52136206
   0.68766768  0.78986116  0.25749068
   0.81254502  0.20547615  0.56538049
   0.06287136  0.20498335  0.69827931
   0.31249435  0.03863601  0.60994481
   0.56239554  0.54012504  0.12642531
   0.06257072  0.53815864  0.60979191
   0.43741127  0.62190704  0.52145169
   0.68751594  0.95483886  0.69829335
   0.56257154  0.70603830  0.34621332
   0.56258305  0.20677269  0.21339375
   0.81195248  0.70607254  0.34621019
   0.31260903  0.37187285  0.52139386
   0.18826486  0.28949694  0.12641582
   0.56238385  0.37337389  0.16865773
   0.93750410  0.12354672  0.16848613
   0.93755524  0.62195239  0.65375355
   0.81250566  0.87249820  0.30170177
   0.06248274  0.87198181  0.65385776
   0.31248755  0.53951156  0.25745841
   0.31251646  0.70574176  0.47870542
   0.81232648  0.20676129  0.21335423
   0.06274723  0.87118956  0.78665857
   0.81242056  0.03931592  0.38998873
   0.31302415  0.37236265  0.43482018
   0.56257979  0.87254013  0.52141497
   0.18772528  0.62249914  0.43487787
   0.93748206  0.62112659  0.78662117
   0.56219234  0.20472042  0.69829366
   0.31254277  0.03779551  0.74241586
   0.06251983  0.37260553  0.52128293
   0.93732776  0.78905410  0.39014872
   0.43756104  0.45455002  0.69832742
   0.06250141  0.03940901  0.39014317
   0.43756217  0.95544801  0.56522287
   0.43705769  0.62302923  0.43485496
   0.18764483  0.78834274  0.60991414
   0.93761048  0.62284364  0.43487350
   0.56241920  0.53952704  0.39008270
   0.93746425  0.62268006  0.16840453
   0.18776172  0.28820385  0.74243658
   0.31303168  0.87302891  0.43495172
   0.68753239  0.95525201  0.47856301
   0.31300326  0.70608249  0.34619473
   0.31260620  0.37341738  0.16867483
   0.31270999  0.87329940  0.16849213
   0.93746112  0.12213347  0.43480922
   0.81237671  0.87245600  0.52147892
   0.31243006  0.20666523  0.21338714
   0.68740217  0.28957682  0.39021020
   0.18739803  0.12333211  0.30181252
   0.68800265  0.45564844  0.47862359
   0.18728915  0.79003316  0.25748524
   0.43749944  0.28796853  0.74248653
   0.81278715  0.87283894  0.16852090
   0.56261635  0.03948843  0.25749747
   0.06243725  0.03850763  0.60986502
   0.81316215  0.37263676  0.16849628
   0.31255903  0.70547488  0.56525679
   0.68772042  0.45471562  0.83150914
   0.81253844  0.70418086  0.83134233
   0.81244576  0.20501217  0.69826700
   0.43682085  0.12248872  0.43481976
   0.56261919  0.53846295  0.74245139
   0.43751595  0.28921936  0.25748985
   0.31289359  0.20457691  0.83136602
   0.56207735  0.20461987  0.83136888
   0.68736568  0.62140766  0.78666077
   0.56257593  0.20618320  0.34619444
   0.56253096  0.37141926  0.78665531
   0.93688583  0.45592102  0.47862792
   0.31255099  0.87221462  0.52147065
   0.43754581  0.78977796  0.25757954
   0.43709786  0.12198679  0.52138477
   0.18775154  0.28967994  0.25755345
   0.31325419  0.20606192  0.34609125
   0.18745304  0.45530260  0.56521909
   0.31250400  0.37142422  0.65380776
   0.43773741  0.78921434  0.39020130
   0.56250855  0.37254886  0.30167732
   0.18799151  0.95648085  0.34623236
   0.06232420  0.53896675  0.39015857
   0.81256045  0.03979333  0.25749598
   0.68765014  0.12168244  0.65378272
   0.56206881  0.03750648  0.87370589
   0.93759614  0.79020195  0.25739360
   0.18747377  0.28888682  0.39015005
   0.18727260  0.95613022  0.21327776
   0.56241156  0.70540903  0.56516495
   0.93754088  0.12190331  0.65381989
   0.68756989  0.95441122  0.83143469
   0.68727703  0.62348300  0.16857281
   0.56253676  0.87306184  0.30165143
   0.93702847  0.12194754  0.52143425
   0.31252686  0.20470863  0.69828198
   0.68737877  0.78840787  0.60986283
   0.06259765  0.37334856  0.30174188
   0.18773628  0.62348903  0.16856128
   0.81312998  0.03749611  0.87356480
   0.06234903  0.87265551  0.43495492
   0.43727916  0.45610350  0.34601363
   0.93743499  0.78832800  0.60990927
   0.93749004  0.28791564  0.87360259
   0.68771089  0.45639075  0.34615323
   0.81196638  0.20620389  0.34604217
   0.43746895  0.78847232  0.87370602
   0.81254027  0.03869284  0.60982483
   0.81234274  0.53793031  0.74244815
   0.06267698  0.70508661  0.69832290
   0.43762903  0.28853423  0.60993584
   0.18746224  0.95508619  0.69829763
   0.68722215  0.78807663  0.74251332
   0.93752669  0.28987153  0.25754116
   0.81185172  0.04003891  0.12634876
   0.18762800  0.95527685  0.47868087
   0.68739316  0.62289141  0.30170131
   0.56249529  0.20538521  0.56499553
   0.06247069  0.53771287  0.87359831
   0.43758621  0.95480812  0.69827245
   0.56262123  0.53949921  0.25751640
   0.68775419  0.62168491  0.65380625
   0.93758855  0.12303962  0.30171118
   0.31235563  0.70528349  0.83139294
   0.68744696  0.95632051  0.34617692
   0.31292983  0.03757952  0.87371673
   0.56244063  0.37169918  0.65382886
   0.93746724  0.78813214  0.74244509
   0.68744937  0.78786911  0.87360126
   0.43713554  0.45581886  0.47858980
   0.68732817  0.78948781  0.12627984
   0.43752692  0.29049843  0.12634335
   0.31250192  0.37156420  0.78663469
   0.43749728  0.12194086  0.78650068
   0.81265322  0.70576607  0.47870437
   0.81220422  0.70602982  0.21332897
   0.43752974  0.78848372  0.60986610
   0.18728519  0.62165012  0.65384950
   0.43749567  0.45483441  0.83137370
   0.31239053  0.87135104  0.65384312
   0.06190749  0.03759214  0.87353172
   0.81252622  0.37297726  0.30170161
   0.31260840  0.54019229  0.12641792
   0.43749332  0.28749092  0.87355176
   0.06226162  0.87295783  0.16848198
   0.18744589  0.28828905  0.87352912
   0.06225639  0.54084633  0.12634386
   0.06260028  0.54004423  0.25745821
   0.56245525  0.37289513  0.43477658
   0.93747350  0.79002183  0.12619124
   0.68711387  0.78966965  0.39020624
   0.18743101  0.45465664  0.69830817
   0.18751069  0.95510799  0.56533404
   0.43754022  0.12306810  0.16857177
   0.81255893  0.37193146  0.52147236
   0.06313585  0.04003193  0.12634651
   0.31262955  0.03986433  0.12629239
   0.18733600  0.12151357  0.65376995
   0.18744054  0.78918435  0.39016711
   0.56232127  0.03774745  0.74242264
   0.93754591  0.12108050  0.78662406
   0.43758130  0.95452459  0.83202578
   0.93747933  0.28809571  0.74250359
   0.68755978  0.62286864  0.43490475
   0.93743977  0.29067854  0.12659933
   0.43753875  0.12293089  0.30171432
   0.43747253  0.62146093  0.65375782
   0.43741222  0.95687679  0.21354173
   0.93746719  0.95604634  0.21359254
   0.56244739  0.20555860  0.47874191
   0.06297276  0.70680495  0.34636510
   0.93721898  0.62260389  0.30168055
   0.81257638  0.70513990  0.69831489
   0.06246139  0.37263012  0.43471058
   0.06252602  0.20636688  0.34621687
   0.06250710  0.20550775  0.47875583
Direct configuration=     3
   0.56221932  0.70474432  0.69833001
   0.81243574  0.87196909  0.65385574
   0.43747692  0.62281326  0.30179777
   0.93765233  0.62219933  0.52147048
   0.31192448  0.53728703  0.87347958
   0.68726249  0.28800167  0.74242769
   0.68741803  0.12122657  0.78660451
   0.56306879  0.53724435  0.87350215
   0.06244677  0.20493631  0.83140279
   0.31240566  0.37264268  0.30168581
   0.18761104  0.62150043  0.78663143
   0.43754343  0.12151722  0.65382343
   0.06254394  0.37124094  0.78658799
   0.18743179  0.45632214  0.34612269
   0.93730863  0.45532445  0.56524060
   0.93748368  0.78802435  0.87354962
   0.18778499  0.12210718  0.43485679
   0.56237870  0.87276881  0.43479474
   0.18802723  0.12193228  0.52142262
   0.68784646  0.12247613  0.43484985
   0.31234958  0.70646729  0.21330564
   0.18774475  0.78831887  0.74249015
   0.06252663  0.20517552  0.56498371
   0.56271213  0.70645530  0.21332899
   0.06255183  0.03832529  0.74246539
   0.68729016  0.12313129  0.30190808
   0.18738910  0.62318042  0.30169188
   0.56240988  0.03974926  0.12629874
   0.81248110  0.37150505  0.65381078
   0.93754134  0.95529475  0.69836210
   0.06244623  0.70410967  0.83136084
   0.18712012  0.12344006  0.16840582
   0.18760748  0.78791708  0.87357079
   0.68673687  0.28943154  0.12643468
   0.81256153  0.20501031  0.83138054
   0.93744227  0.28872295  0.39023251
   0.68689401  0.45677163  0.21344717
   0.56268917  0.87138221  0.65382861
   0.31227531  0.20629474  0.47858149
   0.93754491  0.95516946  0.56532175
   0.06237119  0.53798733  0.74237936
   0.06280927  0.70598120  0.21335788
   0.81243393  0.37095778  0.78665368
   0.43752924  0.78988129  0.12628314
   0.68739953  0.28852364  0.60984837
   0.18804890  0.45587470  0.47862453
   0.81257290  0.53770244  0.87361337
   0.68782966  0.45522767  0.56517916
   0.93751452  0.45443674  0.83136584
   0.93714559  0.95616219  0.34611279
   0.81278102  0.20625097  0.47857927
   0.81250421  0.03806700  0.74241052
   0.56262199  0.70532406  0.83143718
   0.68756012  0.45508600  0.69831888
   0.93737162  0.45655039  0.34606312
   0.93738590  0.95530515  0.47870657
   0.81223936  0.87291016  0.43493163
   0.18744787  0.62228607  0.52144088
   0.43763892  0.28932603  0.39018510
   0.18737727  0.95437003  0.83135733
   0.93745736  0.95460891  0.83152623
   0.31248006  0.53848035  0.60985564
   0.06263388  0.87288026  0.30169039
   0.81259803  0.53969274  0.25752708
   0.31247204  0.70472580  0.69829131
   0.06267442  0.20675090  0.21337800
   0.93750646  0.45658151  0.21331196
   0.43742176  0.45557299  0.56530436
   0.43753996  0.62325449  0.16861356
   0.81266736  0.53844190  0.60981203
   0.68734643  0.28963080  0.25759102
   0.06257906  0.37145313  0.65379141
   0.43744678  0.95603060  0.34620939
   0.31245304  0.20577373  0.56537392
   0.43742308  0.78832094  0.74243706
   0.18735874  0.28828928  0.60983625
   0.43742933  0.45691063  0.21331358
   0.31233532  0.87311525  0.30173583
   0.18728668  0.45471044  0.83147102
   0.68781666  0.12204426  0.52133628
   0.81277488  0.53955222  0.39011640
   0.31235065  0.53920139  0.39009460
   0.06188060  0.37274448  0.16845339
   0.93766116  0.28833761  0.60986329
   0.81251345  0.70526880  0.56524800
   0.06249968  0.87235919  0.52143135
   0.56244196  0.03971162  0.39015078
   0.56257338  0.03879094  0.60994034
   0.31247062  0.53846029  0.74245012
   0.68749831  0.62217764  0.52134156
   0.68757559  0.28830335  0.87354242
   0.81189995  0.37218123  0.43481449
   0.56228939  0.87328417  0.16847362
   0.31251303  0.03960950  0.25746539
   0.56234031  0.70563992  0.47865361
   0.06236552  0.04021835  0.25745437
   0.43747458  0.95531675  0.47865817
   0.56261853  0.87140568  0.78664985
   0.93764535  0.45503094  0.69823517
   0.31250861  0.03934506  0.39002784
   0.56235403  0.53838760  0.60979191
   0.06253911  0.70529318  0.56519406
   0.68743921  0.95523687  0.56529406
   0.81237283  0.87103699  0.78661570
   0.68787490  0.12343084  0.16841904
   0.18765596  0.78952209  0.12626320
   0.31218684  0.87138720  0.78658025
   0.68778805  0.95621154  0.21335864
   0.81273516  0.54084011  0.12634586
   0.18752178  0.12146007  0.78659951
   0.43748634  0.62164928  0.78664861
   0.18811755  0.45673874  0.21338514
   0.06249320  0.70554375  0.47861336
   0.56233064  0.37249523  0.52136213
   0.68766802  0.78986114  0.25749069
   0.81254489  0.20547607  0.56538057
   0.06287196  0.20498350  0.69827934
   0.31249452  0.03863641  0.60994484
   0.56239523  0.54012498  0.12642509
   0.06257086  0.53815853  0.60979192
   0.43741100  0.62190654  0.52145167
   0.68751561  0.95483871  0.69829338
   0.56257158  0.70603846  0.34621333
   0.56258340  0.20677294  0.21339397
   0.81195238  0.70607262  0.34621015
   0.31260953  0.37187314  0.52139393
   0.18826477  0.28949743  0.12641558
   0.56238393  0.37337386  0.16865768
   0.93750410  0.12354735  0.16848612
   0.93755533  0.62195233  0.65375358
   0.81250565  0.87249838  0.30170173
   0.06248309  0.87198156  0.65385774
   0.31248752  0.53951170  0.25745842
   0.31251687  0.70574173  0.47870526
   0.81232649  0.20676180  0.21335443
   0.06274726  0.87118913  0.78665873
   0.81242058  0.03931623  0.38998873
   0.31302425  0.37236286  0.43482009
   0.56257930  0.87254024  0.52141496
   0.18772572  0.62249900  0.43487781
   0.93748198  0.62112678  0.78662138
   0.56219167  0.20472031  0.69829371
   0.31254307  0.03779538  0.74241584
   0.06252003  0.37260646  0.52128294
   0.93732762  0.78905461  0.39014874
   0.43756078  0.45454943  0.69832751
   0.06250111  0.03940925  0.39014319
   0.43756211  0.95544823  0.56522295
   0.43705760  0.62302928  0.43485490
   0.18764493  0.78834278  0.60991413
   0.93761047  0.62284348  0.43487338
   0.56241911  0.53952733  0.39008274
   0.93746424  0.62267967  0.16840461
   0.18776241  0.28820393  0.74243658
   0.31303184  0.87302869  0.43495168
   0.68753211  0.95525214  0.47856285
   0.31300335  0.70608263  0.34619480
   0.31260603  0.37341736  0.16867472
   0.31270999  0.87329938  0.16849202
   0.93746103  0.12213358  0.43480901
   0.81237700  0.87245580  0.52147890
   0.31243005  0.20666553  0.21338730
   0.68740237  0.28957672  0.39021024
   0.18739800  0.12333208  0.30181247
   0.68800285  0.45564842  0.47862352
   0.18728891  0.79003331  0.25748524
   0.43749943  0.28796848  0.74248648
   0.81278713  0.87283887  0.16852088
   0.56261676  0.03948856  0.25749749
   0.06243777  0.03850753  0.60986502
   0.81316247  0.37263671  0.16849635
   0.31255904  0.70547499  0.56525681
   0.68772034  0.45471592  0.83150907
   0.81253825  0.70418096  0.83134226
   0.81244538  0.20501236  0.69826704
   0.43682082  0.12248883  0.43481967
   0.56261877  0.53846275  0.74245143
   0.43751626  0.28921930  0.25748986
   0.31289374  0.20457655  0.83136609
   0.56207721  0.20461940  0.83136892
   0.68736551  0.62140755  0.78666091
   0.56257617  0.20618347  0.34619439
   0.56253092  0.37141961  0.78665536
   0.93688562  0.45592087  0.47862785
   0.31255057  0.87221386  0.52147068
   0.43754609  0.78977805  0.25757960
   0.43709858  0.12198694  0.52138482
   0.18775134  0.28968000  0.25755345
   0.31325417  0.20606214  0.34609122
   0.18745324  0.45530243  0.56521917
   0.31250425  0.37142390  0.65380781
   0.43773756  0.78921425  0.39020136
   0.56250889  0.37254897  0.30167732
   0.18799135  0.95648091  0.34623237
   0.06232433  0.53896666  0.39015862
   0.81256034  0.03979352  0.25749600
   0.68764944  0.12168248  0.65378272
   0.56206845  0.03750573  0.87370573
   0.93759576  0.79020179  0.25739361
   0.18747364  0.28888706  0.39015013
   0.18727250  0.95613031  0.21327795
   0.56241131  0.70540915  0.56516500
   0.93754108  0.12190328  0.65381989
   0.68756941  0.95441083  0.83143470
   0.68727723  0.62348263  0.16857282
   0.56253690  0.87306199  0.30165141