 288 288   0   0
  0.1280206E+02  0.9726678E-09  0.8423550E-09  0.4500000E-08  0.2500000E-15
  1.000000000000000E-004
  CAR 
 unknown system                          
      6.81827574     -6.01642128  301      4.29525114      1.00000000
     -6.016  0.0000E+00  0.0000E+00
     -5.974  0.0000E+00  0.0000E+00
     -5.931  0.0000E+00  0.0000E+00
     -5.888  0.0000E+00  0.0000E+00
     -5.845  0.0000E+00  0.0000E+00
     -5.803  0.0000E+00  0.0000E+00
     -5.760  0.0000E+00  0.0000E+00
     -5.717  0.0000E+00  0.0000E+00
     -5.674  0.0000E+00  0.0000E+00
     -5.631  0.0000E+00  0.0000E+00
     -5.589  0.0000E+00  0.0000E+00
     -5.546  0.0000E+00  0.0000E+00
     -5.503  0.0000E+00  0.0000E+00
     -5.460  0.0000E+00  0.0000E+00
     -5.417  0.0000E+00  0.0000E+00
     -5.375  0.1622E-15  0.6939E-17
     -5.332  0.4185E-14  0.1860E-15
     -5.289  0.9008E-13  0.4040E-14
     -5.246  0.1645E-11  0.7442E-13
     -5.204  0.2560E-10  0.1170E-11
     -5.161  0.3394E-09  0.1569E-10
     -5.118  0.3834E-08  0.1797E-09
     -5.075  0.3693E-07  0.1760E-08
     -5.032  0.3036E-06  0.1475E-07
     -4.990  0.2131E-05  0.1059E-06
     -4.947  0.1279E-04  0.6529E-06
     -4.904  0.6572E-04  0.3465E-05
     -4.861  0.2901E-03  0.1587E-04
     -4.819  0.1103E-02  0.6306E-04
     -4.776  0.3628E-02  0.2183E-03
     -4.733  0.1039E-01  0.6630E-03
     -4.690  0.2613E-01  0.1781E-02
     -4.647  0.5821E-01  0.4271E-02
     -4.605  0.1162E+00  0.9242E-02
     -4.562  0.2101E+00  0.1823E-01
     -4.519  0.3477E+00  0.3310E-01
     -4.476  0.5313E+00  0.5583E-01
     -4.433  0.7540E+00  0.8809E-01
     -4.391  0.9990E+00  0.1308E+00
     -4.348  0.1241E+01  0.1839E+00
     -4.305  0.1454E+01  0.2461E+00
     -4.262  0.1616E+01  0.3153E+00
     -4.220  0.1722E+01  0.3890E+00
     -4.177  0.1785E+01  0.4653E+00
     -4.134  0.1835E+01  0.5438E+00
     -4.091  0.1913E+01  0.6257E+00
     -4.048  0.2052E+01  0.7135E+00
     -4.006  0.2263E+01  0.8103E+00
     -3.963  0.2528E+01  0.9184E+00
     -3.920  0.2804E+01  0.1038E+01
     -3.877  0.3036E+01  0.1168E+01
     -3.835  0.3176E+01  0.1304E+01
     -3.792  0.3209E+01  0.1441E+01
     -3.749  0.3156E+01  0.1576E+01
     -3.706  0.3071E+01  0.1708E+01
     -3.663  0.3019E+01  0.1837E+01
     -3.621  0.3052E+01  0.1968E+01
     -3.578  0.3189E+01  0.2104E+01
     -3.535  0.3408E+01  0.2250E+01
     -3.492  0.3658E+01  0.2406E+01
     -3.449  0.3880E+01  0.2572E+01
     -3.407  0.4035E+01  0.2745E+01
     -3.364  0.4116E+01  0.2921E+01
     -3.321  0.4140E+01  0.3098E+01
     -3.278  0.4141E+01  0.3275E+01
     -3.236  0.4152E+01  0.3453E+01
     -3.193  0.4201E+01  0.3633E+01
     -3.150  0.4301E+01  0.3817E+01
     -3.107  0.4453E+01  0.4007E+01
     -3.064  0.4642E+01  0.4206E+01
     -3.022  0.4847E+01  0.4413E+01
     -2.979  0.5039E+01  0.4629E+01
     -2.936  0.5189E+01  0.4851E+01
     -2.893  0.5287E+01  0.5077E+01
     -2.851  0.5344E+01  0.5306E+01
     -2.808  0.5388E+01  0.5536E+01
     -2.765  0.5451E+01  0.5769E+01
     -2.722  0.5551E+01  0.6007E+01
     -2.679  0.5663E+01  0.6249E+01
     -2.637  0.5727E+01  0.6494E+01
     -2.594  0.5687E+01  0.6737E+01
     -2.551  0.5548E+01  0.6975E+01
     -2.508  0.5399E+01  0.7206E+01
     -2.465  0.5384E+01  0.7436E+01
     -2.423  0.5618E+01  0.7676E+01
     -2.380  0.6116E+01  0.7938E+01
     -2.337  0.6754E+01  0.8227E+01
     -2.294  0.7325E+01  0.8540E+01
     -2.252  0.7633E+01  0.8867E+01
     -2.209  0.7598E+01  0.9192E+01
     -2.166  0.7298E+01  0.9504E+01
     -2.123  0.6940E+01  0.9801E+01
     -2.080  0.6753E+01  0.1009E+02
     -2.038  0.6881E+01  0.1038E+02
     -1.995  0.7315E+01  0.1070E+02
     -1.952  0.7910E+01  0.1104E+02
     -1.909  0.8463E+01  0.1140E+02
     -1.867  0.8809E+01  0.1177E+02
     -1.824  0.8897E+01  0.1216E+02
     -1.781  0.8804E+01  0.1253E+02
     -1.738  0.8679E+01  0.1290E+02
     -1.695  0.8655E+01  0.1327E+02
     -1.653  0.8781E+01  0.1365E+02
     -1.610  0.9018E+01  0.1403E+02
     -1.567  0.9297E+01  0.1443E+02
     -1.524  0.9573E+01  0.1484E+02
     -1.481  0.9840E+01  0.1526E+02
     -1.439  0.1009E+02  0.1570E+02
     -1.396  0.1031E+02  0.1614E+02
     -1.353  0.1044E+02  0.1658E+02
     -1.310  0.1053E+02  0.1703E+02
     -1.268  0.1071E+02  0.1749E+02
     -1.225  0.1119E+02  0.1797E+02
     -1.182  0.1207E+02  0.1849E+02
     -1.139  0.1327E+02  0.1905E+02
     -1.096  0.1448E+02  0.1967E+02
     -1.054  0.1532E+02  0.2033E+02
     -1.011  0.1564E+02  0.2100E+02
     -0.968  0.1558E+02  0.2167E+02
     -0.925  0.1555E+02  0.2233E+02
     -0.883  0.1595E+02  0.2301E+02
     -0.840  0.1699E+02  0.2374E+02
     -0.797  0.1860E+02  0.2454E+02
     -0.754  0.2069E+02  0.2542E+02
     -0.711  0.2329E+02  0.2642E+02
     -0.669  0.2659E+02  0.2755E+02
     -0.626  0.3073E+02  0.2887E+02
     -0.583  0.3556E+02  0.3039E+02
     -0.540  0.4050E+02  0.3212E+02
     -0.498  0.4489E+02  0.3404E+02
     -0.455  0.4832E+02  0.3611E+02
     -0.412  0.5082E+02  0.3828E+02
     -0.369  0.5270E+02  0.4054E+02
     -0.326  0.5424E+02  0.4286E+02
     -0.284  0.5553E+02  0.4524E+02
     -0.241  0.5645E+02  0.4765E+02
     -0.198  0.5693E+02  0.5009E+02
     -0.155  0.5701E+02  0.5253E+02
     -0.112  0.5689E+02  0.5496E+02
     -0.070  0.5682E+02  0.5739E+02
     -0.027  0.5708E+02  0.5983E+02
      0.016  0.5789E+02  0.6231E+02
      0.059  0.5941E+02  0.6485E+02
      0.101  0.6168E+02  0.6749E+02
      0.144  0.6463E+02  0.7025E+02
      0.187  0.6810E+02  0.7317E+02
      0.230  0.7185E+02  0.7624E+02
      0.273  0.7560E+02  0.7948E+02
      0.315  0.7903E+02  0.8286E+02
      0.358  0.8188E+02  0.8636E+02
      0.401  0.8407E+02  0.8996E+02
      0.444  0.8563E+02  0.9362E+02
      0.486  0.8667E+02  0.9733E+02
      0.529  0.8724E+02  0.1011E+03
      0.572  0.8731E+02  0.1048E+03
      0.615  0.8692E+02  0.1085E+03
      0.658  0.8613E+02  0.1122E+03
      0.700  0.8501E+02  0.1158E+03
      0.743  0.8354E+02  0.1194E+03
      0.786  0.8173E+02  0.1229E+03
      0.829  0.7969E+02  0.1263E+03
      0.872  0.7778E+02  0.1296E+03
      0.914  0.7638E+02  0.1329E+03
      0.957  0.7574E+02  0.1362E+03
      1.000  0.7578E+02  0.1394E+03
      1.043  0.7612E+02  0.1427E+03
      1.085  0.7635E+02  0.1459E+03
      1.128  0.7617E+02  0.1492E+03
      1.171  0.7559E+02  0.1524E+03
      1.214  0.7479E+02  0.1556E+03
      1.257  0.7397E+02  0.1588E+03
      1.299  0.7325E+02  0.1619E+03
      1.342  0.7257E+02  0.1650E+03
      1.385  0.7173E+02  0.1681E+03
      1.428  0.7054E+02  0.1711E+03
      1.470  0.6897E+02  0.1740E+03
      1.513  0.6730E+02  0.1769E+03
      1.556  0.6607E+02  0.1798E+03
      1.599  0.6584E+02  0.1826E+03
      1.642  0.6691E+02  0.1854E+03
      1.684  0.6915E+02  0.1884E+03
      1.727  0.7212E+02  0.1915E+03
      1.770  0.7532E+02  0.1947E+03
      1.813  0.7842E+02  0.1981E+03
      1.856  0.8129E+02  0.2015E+03
      1.898  0.8389E+02  0.2051E+03
      1.941  0.8619E+02  0.2088E+03
      1.984  0.8825E+02  0.2126E+03
      2.027  0.9011E+02  0.2164E+03
      2.069  0.9180E+02  0.2204E+03
      2.112  0.9325E+02  0.2244E+03
      2.155  0.9440E+02  0.2284E+03
      2.198  0.9540E+02  0.2325E+03
      2.241  0.9660E+02  0.2366E+03
      2.283  0.9848E+02  0.2408E+03
      2.326  0.1014E+03  0.2452E+03
      2.369  0.1052E+03  0.2497E+03
      2.412  0.1097E+03  0.2544E+03
      2.454  0.1141E+03  0.2592E+03
      2.497  0.1180E+03  0.2643E+03
      2.540  0.1212E+03  0.2695E+03
      2.583  0.1236E+03  0.2748E+03
      2.626  0.1256E+03  0.2801E+03
      2.668  0.1275E+03  0.2856E+03
      2.711  0.1294E+03  0.2911E+03
      2.754  0.1316E+03  0.2967E+03
      2.797  0.1341E+03  0.3025E+03
      2.840  0.1369E+03  0.3083E+03
      2.882  0.1397E+03  0.3143E+03
      2.925  0.1417E+03  0.3204E+03
      2.968  0.1419E+03  0.3265E+03
      3.011  0.1395E+03  0.3324E+03
      3.053  0.1343E+03  0.3382E+03
      3.096  0.1267E+03  0.3436E+03
      3.139  0.1178E+03  0.3486E+03
      3.182  0.1088E+03  0.3533E+03
      3.225  0.1009E+03  0.3576E+03
      3.267  0.9460E+02  0.3616E+03
      3.310  0.9018E+02  0.3655E+03
      3.353  0.8733E+02  0.3692E+03
      3.396  0.8564E+02  0.3729E+03
      3.438  0.8468E+02  0.3765E+03
      3.481  0.8407E+02  0.3801E+03
      3.524  0.8351E+02  0.3837E+03
      3.567  0.8287E+02  0.3872E+03
      3.610  0.8237E+02  0.3908E+03
      3.652  0.8249E+02  0.3943E+03
      3.695  0.8377E+02  0.3979E+03
      3.738  0.8645E+02  0.4016E+03
      3.781  0.9032E+02  0.4054E+03
      3.824  0.9479E+02  0.4095E+03
      3.866  0.9916E+02  0.4137E+03
      3.909  0.1029E+03  0.4181E+03
      3.952  0.1059E+03  0.4227E+03
      3.995  0.1078E+03  0.4273E+03
      4.037  0.1089E+03  0.4319E+03
      4.080  0.1090E+03  0.4366E+03
      4.123  0.1084E+03  0.4412E+03
      4.166  0.1073E+03  0.4458E+03
      4.209  0.1061E+03  0.4504E+03
      4.251  0.1048E+03  0.4549E+03
      4.294  0.1036E+03  0.4593E+03
      4.337  0.1026E+03  0.4637E+03
      4.380  0.1019E+03  0.4680E+03
      4.422  0.1016E+03  0.4724E+03
      4.465  0.1012E+03  0.4767E+03
      4.508  0.1005E+03  0.4810E+03
      4.551  0.9937E+02  0.4853E+03
      4.594  0.9803E+02  0.4895E+03
      4.636  0.9707E+02  0.4936E+03
      4.679  0.9699E+02  0.4978E+03
      4.722  0.9803E+02  0.5019E+03
      4.765  0.1001E+03  0.5062E+03
      4.808  0.1026E+03  0.5106E+03
      4.850  0.1051E+03  0.5151E+03
      4.893  0.1071E+03  0.5197E+03
      4.936  0.1080E+03  0.5243E+03
      4.979  0.1077E+03  0.5289E+03
      5.021  0.1056E+03  0.5334E+03
      5.064  0.1013E+03  0.5378E+03
      5.107  0.9404E+02  0.5418E+03
      5.150  0.8331E+02  0.5454E+03
      5.193  0.6938E+02  0.5483E+03
      5.235  0.5354E+02  0.5506E+03
      5.278  0.3781E+02  0.5522E+03
      5.321  0.2418E+02  0.5533E+03
      5.364  0.1389E+02  0.5539E+03
      5.406  0.7126E+01  0.5542E+03
      5.449  0.3246E+01  0.5543E+03
      5.492  0.1308E+01  0.5544E+03
      5.535  0.4652E+00  0.5544E+03
      5.578  0.1457E+00  0.5544E+03
      5.620  0.4012E-01  0.5544E+03
      5.663  0.9702E-02  0.5544E+03
      5.706  0.2058E-02  0.5544E+03
      5.749  0.3825E-03  0.5544E+03
      5.791  0.6220E-04  0.5544E+03
      5.834  0.8830E-05  0.5544E+03
      5.877  0.1092E-05  0.5544E+03
      5.920  0.1175E-06  0.5544E+03
      5.963  0.1095E-07  0.5544E+03
      6.005  0.8836E-09  0.5544E+03
      6.048  0.6151E-10  0.5544E+03
      6.091  0.3687E-11  0.5544E+03
      6.134  0.1895E-12  0.5544E+03
      6.177  0.7850E-14  0.5544E+03
      6.219  0.2595E-15  0.5544E+03
      6.262  0.0000E+00  0.5544E+03
      6.305  0.0000E+00  0.5544E+03
      6.348  0.0000E+00  0.5544E+03
      6.390  0.0000E+00  0.5544E+03
      6.433  0.0000E+00  0.5544E+03
      6.476  0.0000E+00  0.5544E+03
      6.519  0.0000E+00  0.5544E+03
      6.562  0.0000E+00  0.5544E+03
      6.604  0.0000E+00  0.5544E+03
      6.647  0.0000E+00  0.5544E+03
      6.690  0.0000E+00  0.5544E+03
      6.733  0.0000E+00  0.5544E+03
      6.775  0.0000E+00  0.5544E+03
      6.818  0.0000E+00  0.5544E+03
