unknown system                          
           1
     9.726678    0.000000    0.000000
     0.000000    8.423550    0.000000
     0.000000    0.000000   45.000000
   Fe   Mn
 281   7
Direct configuration=     1
   0.05393384  0.70102544  0.21125655
   0.31769376  0.72455389  0.87619789
   0.68848094  0.95872020  0.61154542
   0.43832758  0.45837149  0.61160680
   0.44071724  0.28726733  0.25504739
   0.05837001  0.38945330  0.83344618
   0.30841669  0.88769307  0.83351986
   0.44692917  0.62643324  0.70040338
   0.05996402  0.21309990  0.74489707
   0.17888533  0.45163533  0.21138911
   0.56778664  0.21059104  0.47744823
   0.06674165  0.87504434  0.56689196
   0.56758153  0.22464825  0.87621011
   0.80864195  0.52776517  0.12396691
   0.42878321  0.95147696  0.21134671
   0.56662364  0.37495441  0.56685528
   0.81115856  0.04169975  0.38828425
   0.68189164  0.78896941  0.52240429
   0.44271725  0.46077448  0.47749319
   0.43391938  0.96253915  0.74468207
   0.44150384  0.62501097  0.56683610
   0.57148965  0.87646195  0.70057281
   0.30749289  0.02636417  0.12386860
   0.68971086  0.95885033  0.34396874
   0.68613572  0.78273414  0.12415926
   0.05285191  0.37375712  0.29956492
   0.68949930  0.46755722  0.87609535
   0.42922864  0.45156017  0.21149435
   0.80857336  0.37540441  0.43308230
   0.56335537  0.70855180  0.61154633
   0.55961354  0.54058024  0.65588718
   0.81713321  0.86253225  0.16658291
   0.56568607  0.53743680  0.25517800
   0.68945042  0.45881717  0.34389792
   0.19154719  0.61127060  0.16644723
   0.19423126  0.79968311  0.78885189
   0.44729643  0.12597840  0.70041072
   0.92799445  0.62358723  0.29962390
   0.31714635  0.22320893  0.87622598
   0.31666516  0.87486279  0.56684673
   0.81776722  0.22390815  0.87611336
   0.80965344  0.54080194  0.65582228
   0.55883600  0.52756478  0.12385586
   0.56920093  0.04968292  0.78897226
   0.19096834  0.28727974  0.25525062
   0.80873505  0.87534932  0.43301319
   0.57217110  0.37636049  0.70035789
   0.05760829  0.02635306  0.12397189
   0.30962083  0.54067793  0.65590872
   0.56491882  0.20892672  0.34400604
   0.18785959  0.95826072  0.61139102
   0.30288725  0.37386782  0.29962654
   0.43466583  0.79054102  0.65595320
   0.19490431  0.29888791  0.78889816
   0.06762615  0.36224383  0.16659340
   0.69705305  0.62630364  0.70046480
   0.31131739  0.54133424  0.38841751
   0.06755437  0.72301946  0.87634809
   0.93399994  0.63809884  0.83409830
   0.31988272  0.54961654  0.78896418
   0.30463624  0.20057619  0.21119464
   0.06793072  0.71068792  0.47746224
   0.55433165  0.20082483  0.21111138
   0.30959669  0.21251807  0.74495489
   0.07191796  0.37648921  0.70055852
   0.18308455  0.63766213  0.83360681
   0.06942012  0.04928491  0.78902742
   0.44163355  0.12498320  0.56691767
   0.93474678  0.29073766  0.65586045
   0.80426299  0.20098120  0.21121507
   0.92880382  0.95141557  0.21128798
   0.94150208  0.62515245  0.56678768
   0.80791115  0.38754738  0.83355173
   0.19699527  0.62628545  0.70036191
   0.80856230  0.88759960  0.83354743
   0.68501312  0.29073328  0.65604141
   0.31291670  0.20835514  0.61148728
   0.43463039  0.46262079  0.74486841
   0.43610449  0.79125279  0.38838974
   0.68465627  0.96264558  0.74480251
   0.80404358  0.70081638  0.21130412
   0.81347402  0.70835125  0.61157583
   0.43687174  0.78323946  0.12418689
   0.30960364  0.71239215  0.74488048
   0.32022086  0.04940015  0.78884947
   0.81122709  0.54215519  0.38830957
   0.68210156  0.28881309  0.52241472
   0.69482867  0.79949370  0.78895089
   0.19059839  0.78733696  0.25528930
   0.69157668  0.11220240  0.16643257
   0.69273198  0.96070877  0.47740033
   0.94047441  0.95926025  0.34411531
   0.80738083  0.03931271  0.52254380
   0.68379500  0.62478506  0.43296651
   0.43966590  0.45856273  0.34402733
   0.81044541  0.21180938  0.74458937
   0.43879165  0.96727223  0.87598040
   0.56651841  0.87479171  0.56684803
   0.80780352  0.02678995  0.12388904
   0.42855560  0.62349032  0.29941012
   0.81742587  0.72469309  0.87626888
   0.68834894  0.45860724  0.61152023
   0.31683809  0.86193710  0.16661871
   0.80300998  0.37355059  0.29947782
   0.18596170  0.29101962  0.38836428
   0.81997237  0.54929737  0.78887173
   0.18221611  0.78926951  0.52253366
   0.30292373  0.87389814  0.29956753
   0.17903665  0.95121707  0.21121983
   0.18452207  0.46236722  0.74491093
   0.43224804  0.28905600  0.52233504
   0.06485594  0.70853320  0.34385752
   0.18466435  0.79064083  0.65585176
   0.44466866  0.79929668  0.78882770
   0.68385734  0.12487784  0.43292767
   0.93209432  0.78861513  0.52241194
   0.69186307  0.61243274  0.16669815
   0.81454233  0.70828857  0.34383206
   0.93432729  0.46265312  0.74490852
   0.19011868  0.45892013  0.34399367
   0.57000712  0.54996746  0.78892188
   0.56650046  0.36245631  0.16644326
   0.56473179  0.70877328  0.34394936
   0.55303075  0.37364426  0.29959472
   0.18854608  0.46805603  0.87597321
   0.19243068  0.11193884  0.16655289
   0.44441786  0.29892236  0.78869363
   0.69100990  0.78736194  0.25539581
   0.93368529  0.13771157  0.83351312
   0.44262453  0.96071596  0.47747195
   0.56754218  0.72492891  0.87626511
   0.19261890  0.46081576  0.47747365
   0.93565310  0.28241547  0.12422868
   0.31143443  0.04136687  0.38841546
   0.06025436  0.04065221  0.65606801
   0.55873361  0.37502569  0.43310255
   0.68412034  0.46273724  0.74496496
   0.56000442  0.21271652  0.74489173
   0.94727814  0.12637373  0.70036868
   0.55955477  0.04063284  0.65584251
   0.55725509  0.53925632  0.52249129
   0.17798198  0.12364499  0.29955301
   0.44150229  0.11198448  0.16653355
   0.67758754  0.62359672  0.29961678
   0.92824039  0.12339034  0.29965000
   0.81668375  0.37510002  0.56689183
   0.05305806  0.87371600  0.29953370
   0.19171776  0.62490437  0.56687049
   0.94460855  0.79958231  0.78883122
   0.30870724  0.38744428  0.83359104
   0.94066631  0.46844477  0.87607995
   0.43397703  0.63829844  0.83350183
   0.06462834  0.20840874  0.34384933
   0.18929347  0.96769383  0.87616640
   0.93573405  0.78222238  0.12416966
   0.68668137  0.79152338  0.38845552
   0.93475536  0.79061341  0.65588049
   0.94176862  0.11197174  0.16644133
   0.43511058  0.29075819  0.65604852
   0.05476816  0.20087176  0.21120008
   0.67890662  0.95158110  0.21133819
   0.17843464  0.62357460  0.29942029
   0.82209644  0.87613719  0.70043636
   0.94686989  0.62659862  0.70050225
   0.19709484  0.12628683  0.70033795
   0.94266210  0.46071491  0.47718056
   0.81354247  0.20847081  0.61155454
   0.18357563  0.62503610  0.43307733
   0.42806423  0.12359772  0.29945444
   0.67822606  0.12362497  0.29943831
   0.56154424  0.54155158  0.38847562
   0.81443692  0.20843417  0.34395477
   0.43965160  0.46709999  0.87616757
   0.55864193  0.88777198  0.83350947
   0.31772350  0.21045760  0.47728766
   0.19274228  0.96074580  0.47742981
   0.05837510  0.88769135  0.83346146
   0.05721323  0.53916475  0.52249977
   0.94260995  0.96067300  0.47721601
   0.06326838  0.70843062  0.61155379
   0.55745486  0.03887400  0.52241268
   0.69596480  0.29878218  0.78870494
   0.81773466  0.36176660  0.16665174
   0.43367698  0.12486595  0.43298329
   0.06794533  0.21062258  0.47745584
   0.30995796  0.04084074  0.65597105
   0.43219497  0.78913365  0.52238164
   0.18353926  0.13756639  0.83352074
   0.18612714  0.28266917  0.12423470
   0.93988240  0.45930523  0.34400648
   0.56739124  0.86205979  0.16657747
   0.30418550  0.70096071  0.21120095
   0.94161483  0.61229555  0.16656071
   0.18830626  0.45855810  0.61149843
   0.07225170  0.87647916  0.70037342
   0.05983993  0.54065420  0.65588519
   0.30835450  0.52609559  0.12394977
   0.93643772  0.79125518  0.38844749
   0.94464094  0.29872874  0.78882027
   0.18473061  0.29054335  0.65590582
   0.93791864  0.95828440  0.61147905
   0.80990707  0.71189059  0.74486137
   0.69118561  0.28740973  0.25527916
   0.05940138  0.71233820  0.74495364
   0.67894888  0.45144579  0.21123548
   0.81786200  0.21070619  0.47745880
   0.56747501  0.71055850  0.47739066
   0.06693947  0.86232505  0.16657806
   0.93242377  0.28859775  0.52240964
   0.68460215  0.79042069  0.65584806
   0.05846611  0.87485264  0.43304365
   0.06795735  0.22285089  0.87615067
   0.80998488  0.04048736  0.65597098
   0.55900697  0.02677014  0.12397330
   0.30887803  0.37504647  0.43288241
   0.31652392  0.37482895  0.56681662
   0.31763233  0.71036370  0.47729895
   0.05720503  0.03927636  0.52250017
   0.32191756  0.87636713  0.70054965
   0.06546741  0.53760603  0.25517001
   0.68348837  0.13881264  0.83363448
   0.81517594  0.03767671  0.25516815
   0.18345537  0.12498535  0.43312662
   0.69747797  0.12625798  0.70044611
   0.18236731  0.28932339  0.52250302
   0.44079459  0.78752663  0.25528238
   0.44156745  0.61110926  0.16648399
   0.06343716  0.20854600  0.61152594
   0.18626853  0.79100725  0.38828080
   0.30700200  0.53884939  0.52240173
   0.82203169  0.37606085  0.70018774
   0.68631122  0.29112473  0.38841530
   0.19171467  0.12497509  0.56688485
   0.68976573  0.96770209  0.87606171
   0.69170118  0.12496245  0.56691561
   0.44001952  0.95894078  0.34404434
   0.18420708  0.96245135  0.74479031
   0.94047653  0.78762887  0.25511102
   0.55873278  0.87502221  0.43302210
   0.30859373  0.87506915  0.43303903
   0.80732162  0.53938957  0.52253180
   0.92934840  0.45128015  0.21121689
   0.31544325  0.53764068  0.25510982
   0.56157321  0.04141915  0.38843266
   0.93812056  0.45822394  0.61158727
   0.06158618  0.04141171  0.38841690
   0.06140844  0.54144424  0.38840928
   0.43625531  0.29110876  0.38838405
   0.69284602  0.46065911  0.47741545
   0.06651820  0.37508643  0.56684815
   0.55438070  0.70081152  0.21117107
   0.94059666  0.28741986  0.25524033
   0.81952598  0.04971796  0.78892809
   0.18978237  0.95878178  0.34397070
   0.55288243  0.87376648  0.29962145
   0.05861025  0.37491844  0.43289383
   0.31486847  0.70875793  0.34396166
   0.31467817  0.20887474  0.34391649
   0.94170162  0.12508230  0.56674774
   0.43856173  0.95869027  0.61154756
   0.56517639  0.03763776  0.25512832
   0.18610107  0.78300183  0.12422852
   0.06561035  0.03753954  0.25513775
   0.69158220  0.62505110  0.56687884
   0.05748052  0.52691662  0.12406507
   0.30738258  0.03844401  0.52230334
   0.68736196  0.28217565  0.12423481
   0.81778818  0.71070855  0.47747227
   0.43349386  0.13909830  0.83356535
   0.32220047  0.37653129  0.70038240
   0.68320241  0.63786203  0.83354952
   0.55980081  0.71220381  0.74483615
   0.93645621  0.29140539  0.38851637
   0.93999780  0.96863351  0.87615092
   0.56287533  0.20797148  0.61134164
   0.81658827  0.87510981  0.56688599
   0.80318478  0.87328333  0.29946618
   0.31565907  0.03758210  0.25528439
   0.43626951  0.28309973  0.12402592
   0.31345211  0.70847917  0.61155523
   0.43361625  0.62494975  0.43297216
   0.93299187  0.62481512  0.43314955
   0.55802980  0.38738128  0.83427895
   0.07083185  0.54918028  0.78879505
   0.93348583  0.12497259  0.43307347
   0.31866415  0.36270517  0.16584098
   0.93304494  0.96173142  0.74465331
   0.81629163  0.53775597  0.25531687
Direct configuration=     2
   0.05449200  0.70099394  0.21122977
   0.31745138  0.72402663  0.87612626
   0.68844274  0.95861071  0.61152619
   0.43832433  0.45832054  0.61158487
   0.44014067  0.28720294  0.25511597
   0.05870583  0.38907765  0.83354810
   0.30868559  0.88756453  0.83362866
   0.44626310  0.62644648  0.70039874
   0.06048475  0.21309237  0.74484646
   0.17941480  0.45157923  0.21137116
   0.56723386  0.21037001  0.47750448
   0.06635899  0.87500873  0.56688617
   0.56726924  0.22395863  0.87617907
   0.80887036  0.52812458  0.12404645
   0.42937261  0.95141824  0.21132181
   0.56627781  0.37490865  0.56683706
   0.81124972  0.04175402  0.38829790
   0.68248939  0.78924363  0.52236386
   0.44216692  0.46052825  0.47753617
   0.43449585  0.96260097  0.74465905
   0.44115929  0.62494515  0.56683566
   0.57092636  0.87644050  0.70053385
   0.30786255  0.02699564  0.12395633
   0.68927140  0.95870433  0.34397697
   0.68623618  0.78222925  0.12421498
   0.05353587  0.37368144  0.29956937
   0.68940334  0.46815995  0.87604319
   0.42977954  0.45152388  0.21144360
   0.80890516  0.37538528  0.43307380
   0.56333713  0.70847713  0.61153666
   0.56009142  0.54068633  0.65587350
   0.81671072  0.86271572  0.16649947
   0.56503581  0.53737039  0.25522869
   0.68905921  0.45870147  0.34392990
   0.19108662  0.61147013  0.16641613
   0.19386701  0.79958903  0.78883108
   0.44660641  0.12608004  0.70040838
   0.92869850  0.62353294  0.29963236
   0.31688204  0.22275886  0.87615204
   0.31627583  0.87483369  0.56683654
   0.81735295  0.22340208  0.87605248
   0.81010703  0.54092769  0.65581475
   0.55898729  0.52793610  0.12393320
   0.56888416  0.04973146  0.78897351
   0.19033733  0.28723393  0.25528878
   0.80902477  0.87533681  0.43301882
   0.57145850  0.37637418  0.70037101
   0.05799962  0.02683196  0.12403431
   0.31009200  0.54076896  0.65589020
   0.56448159  0.20878486  0.34403011
   0.18795992  0.95823824  0.61140088
   0.30357953  0.37381926  0.29962495
   0.43511472  0.79068825  0.65593308
   0.19449328  0.29881565  0.78889224
   0.06716863  0.36244780  0.16651047
   0.69634438  0.62635162  0.70044611
   0.31136138  0.54137373  0.38841639
   0.06724702  0.72258267  0.87628296
   0.93433068  0.63797004  0.83412062
   0.31955487  0.54962570  0.78896105
   0.30504422  0.20058817  0.21118914
   0.06735692  0.71043649  0.47752202
   0.55480777  0.20085473  0.21110549
   0.31020064  0.21265056  0.74488511
   0.07126728  0.37655752  0.70053034
   0.18353736  0.63765301  0.83367459
   0.06905828  0.04929629  0.78901871
   0.44127545  0.12494135  0.56690120
   0.93524613  0.29087686  0.65583341
   0.80474298  0.20105724  0.21119751
   0.92937773  0.95144231  0.21127767
   0.94115596  0.62511792  0.56678297
   0.80835201  0.38736826  0.83364049
   0.19631758  0.62632902  0.70035918
   0.80898757  0.88749854  0.83365169
   0.68543261  0.29081590  0.65600286
   0.31301318  0.20830094  0.61148781
   0.43516932  0.46265013  0.74480334
   0.43618159  0.79129620  0.38839461
   0.68507790  0.96266987  0.74476909
   0.80455207  0.70084106  0.21127817
   0.81342628  0.70831352  0.61155203
   0.43690566  0.78267654  0.12425871
   0.31011229  0.71246600  0.74481980
   0.31980827  0.04944052  0.78886575
   0.81127548  0.54208173  0.38832656
   0.68267655  0.28913078  0.52237866
   0.69443562  0.79947575  0.78894556
   0.19003836  0.78739310  0.25532107
   0.69119057  0.11227599  0.16639191
   0.69217914  0.96049242  0.47746947
   0.93994840  0.95910786  0.34411269
   0.80790423  0.03946884  0.52248050
   0.68396341  0.62484170  0.43297934
   0.43926591  0.45853325  0.34404885
   0.81084646  0.21202802  0.74457418
   0.43875116  0.96786781  0.87590868
   0.56619936  0.87475392  0.56683678
   0.80814546  0.02722617  0.12396232
   0.42909525  0.62348861  0.29944805
   0.81705982  0.72418654  0.87621235
   0.68831423  0.45849148  0.61150503
   0.31647235  0.86212935  0.16652018
   0.80366051  0.37347770  0.29950032
   0.18603594  0.29111995  0.38836860
   0.81945262  0.54933016  0.78890772
   0.18278561  0.78948522  0.52248419
   0.30360322  0.87382012  0.29958169
   0.17954861  0.95122257  0.21121821
   0.18509828  0.46245603  0.74485169
   0.43279831  0.28928326  0.52229710
   0.06446558  0.70853517  0.34390763
   0.18517302  0.79071547  0.65582925
   0.44423830  0.79930586  0.78882774
   0.68402351  0.12491899  0.43294749
   0.93267982  0.78887901  0.52237829
   0.69142739  0.61261194  0.16661804
   0.81415684  0.70833252  0.34389305
   0.93491535  0.46268339  0.74484098
   0.18963149  0.45881834  0.34401569
   0.56961413  0.54991503  0.78892785
   0.56624453  0.36263753  0.16635523
   0.56426507  0.70872362  0.34399968
   0.55374363  0.37358778  0.29959482
   0.18847733  0.46846738  0.87591400
   0.19195521  0.11209562  0.16648114
   0.44399724  0.29890610  0.78871235
   0.69032151  0.78734874  0.25541291
   0.93416320  0.13749265  0.83358549
   0.44210303  0.96048694  0.47751693
   0.56724157  0.72415880  0.87618206
   0.19205913  0.46055714  0.47751771
   0.93573403  0.28200368  0.12427673
   0.31144849  0.04140421  0.38842152
   0.06062633  0.04070734  0.65601673
   0.55905638  0.37505083  0.43309263
   0.68460818  0.46266927  0.74489791
   0.56054111  0.21285460  0.74481960
   0.94662565  0.12645031  0.70037438
   0.56007528  0.04072733  0.65583240
   0.55779933  0.53946998  0.52243174
   0.17866021  0.12358900  0.29955730
   0.44104915  0.11207663  0.16647419
   0.67828743  0.62355967  0.29962278
   0.92884165  0.12332094  0.29965041
   0.81629508  0.37504182  0.56688797
   0.05372988  0.87364320  0.29954327
   0.19132793  0.62488257  0.56686926
   0.94411075  0.79948172  0.78884155
   0.30908272  0.38729534  0.83369210
   0.94051016  0.46884323  0.87600613
   0.43442040  0.63815345  0.83358818
   0.06420557  0.20842248  0.34389757
   0.18917885  0.96818326  0.87606845
   0.93585635  0.78180678  0.12422102
   0.68662486  0.79155041  0.38844618
   0.93522158  0.79074060  0.65586462
   0.94134363  0.11209481  0.16639278
   0.43548580  0.29086567  0.65601701
   0.05525023  0.20089566  0.21118192
   0.67948089  0.95155995  0.21133056
   0.17901529  0.62356608  0.29945738
   0.82138173  0.87619473  0.70041985
   0.94623545  0.62661285  0.70048726
   0.19641723  0.12638622  0.70034894
   0.94215608  0.46043412  0.47727172
   0.81348063  0.20839723  0.61153665
   0.18403241  0.62504833  0.43307130
   0.42872885  0.12357385  0.29948897
   0.67883468  0.12352783  0.29947182
   0.56151176  0.54155505  0.38847079
   0.81407482  0.20838599  0.34399579
   0.43959358  0.46771397  0.87610653
   0.55899223  0.88766251  0.83361213
   0.31719733  0.21029690  0.47736242
   0.19214382  0.96051348  0.47748661
   0.05874995  0.88758449  0.83356386
   0.05778199  0.53935868  0.52243162
   0.94210185  0.96040733  0.47730545
   0.06327567  0.70835079  0.61153345
   0.55796179  0.03918063  0.52236703
   0.69538794  0.29875345  0.78870352
   0.81726849  0.36200119  0.16655447
   0.43397812  0.12488503  0.43299159
   0.06738016  0.21039874  0.47751461
   0.31041022  0.04089389  0.65594027
   0.43274719  0.78934004  0.52233617
   0.18395574  0.13738407  0.83360050
   0.18621927  0.28212444  0.12426082
   0.93942519  0.45917621  0.34402063
   0.56706733  0.86228483  0.16649107
   0.30466918  0.70092337  0.21118697
   0.94114825  0.61248351  0.16651055
   0.18829555  0.45847471  0.61148734
   0.07154639  0.87651850  0.70035561
   0.06028351  0.54077459  0.65588152
   0.30868193  0.52669557  0.12396949
   0.93642591  0.79136674  0.38844532
   0.94422246  0.29871785  0.78881455
   0.18518310  0.29068935  0.65589326
   0.93801806  0.95825806  0.61148193
   0.81041065  0.71205857  0.74482238
   0.69050821  0.28739039  0.25530333
   0.06004266  0.71243691  0.74488399
   0.67948758  0.45139479  0.21123401
   0.81728367  0.21045558  0.47751084
   0.56697021  0.71035707  0.47745723
   0.06650837  0.86248767  0.16649681
   0.93294444  0.28887905  0.52237680
   0.68502577  0.79055886  0.65584110
   0.05888656  0.87484398  0.43303215
   0.06759798  0.22234479  0.87608631
   0.81040535  0.04059455  0.65594111
   0.55914165  0.02719468  0.12404024
   0.30913318  0.37504488  0.43291396
   0.31617612  0.37480704  0.56680917
   0.31711085  0.71020128  0.47737344
   0.05778731  0.03945028  0.52242984
   0.32124383  0.87640015  0.70052317
   0.06493951  0.53750563  0.25522224
   0.68398627  0.13865188  0.83368640
   0.81465602  0.03755038  0.25522611
   0.18394776  0.12499697  0.43311183
   0.69672330  0.12629751  0.70042751
   0.18293475  0.28952268  0.52245790
   0.44020843  0.78749491  0.25531509
   0.44120243  0.61132545  0.16642216
   0.06340797  0.20844685  0.61150675
   0.18628343  0.79109349  0.38829578
   0.30761468  0.53913287  0.52235737
   0.82132739  0.37618551  0.70020760
   0.68632462  0.29125312  0.38841594
   0.19135544  0.12494317  0.56687358
   0.68970208  0.96827670  0.87597595
   0.69132481  0.12494254  0.56690481
   0.43957555  0.95887127  0.34406070
   0.18478381  0.96252329  0.74474935
   0.93997321  0.78762562  0.25517393
   0.55906645  0.87504695  0.43302133
   0.30891050  0.87506526  0.43303789
   0.80784565  0.53952538  0.52247210
   0.92985108  0.45128431  0.21123660
   0.31491334  0.53750015  0.25518748
   0.56153348  0.04147110  0.38842996
   0.93816709  0.45816233  0.61157120
   0.06157619  0.04147220  0.38841953
   0.06140870  0.54149236  0.38841168
   0.43630113  0.29119342  0.38839176
   0.69225903  0.46044832  0.47748428
   0.06619004  0.37504465  0.56685312
   0.55486688  0.70082468  0.21116523
   0.94004584  0.28733800  0.25527879
   0.81907510  0.04965575  0.78892479
   0.18938293  0.95870056  0.34399081
   0.55358432  0.87371687  0.29962893
   0.05900739  0.37491824  0.43291268
   0.31443805  0.70864993  0.34399167
   0.31426998  0.20874999  0.34395087
   0.94131283  0.12506398  0.56675351
   0.43848319  0.95860693  0.61153766
   0.56457153  0.03755240  0.25518920
   0.18609503  0.78244368  0.12428063
   0.06509197  0.03746259  0.25519486
   0.69122131  0.62499319  0.56687588
   0.05793087  0.52734600  0.12411538
   0.30790918  0.03883303  0.52227149
   0.68736928  0.28185254  0.12428520
   0.81721209  0.71048419  0.47752518
   0.43394068  0.13885602  0.83362955
   0.32153730  0.37650179  0.70037494
   0.68365218  0.63776771  0.83362764
   0.56030093  0.71226649  0.74478945
   0.93642538  0.29150890  0.38850193
   0.93989618  0.96902433  0.87606286
   0.56297043  0.20799140  0.61136045
   0.81623623  0.87506759  0.56688203
   0.80381170  0.87329745  0.29948494
   0.31502384  0.03748828  0.25531727
   0.43633729  0.28258978  0.12405184
   0.31341939  0.70841904  0.61154071
   0.43390284  0.62496196  0.43298200
   0.93339747  0.62486899  0.43313972
   0.55833942  0.38736490  0.83431760
   0.07032903  0.54920079  0.78878874
   0.93380390  0.12500662  0.43307609
   0.31815046  0.36278915  0.16580586
   0.93371711  0.96192773  0.74464767
   0.81567413  0.53760770  0.25532722
Direct configuration=     3
   0.05616646  0.70089943  0.21114942
   0.31672425  0.72244486  0.87591137
   0.68832813  0.95828223  0.61146848
   0.43831459  0.45816769  0.61151909
   0.43841099  0.28700980  0.25532171
   0.05971328  0.38795069  0.83385385
   0.30949230  0.88717891  0.83395506
   0.44426490  0.62648621  0.70038484
   0.06204693  0.21306980  0.74469464
   0.18100323  0.45141094  0.21131733
   0.56557551  0.20970693  0.47767322
   0.06521100  0.87490189  0.56686880
   0.56633238  0.22188977  0.87608595
   0.80955558  0.52920283  0.12428507
   0.43114080  0.95124208  0.21124709
   0.56524031  0.37477139  0.56678239
   0.81152318  0.04191684  0.38833886
   0.68428264  0.79006629  0.52224257
   0.44051592  0.45978958  0.47766510
   0.43622526  0.96278641  0.74458997
   0.44012566  0.62474769  0.56683432
   0.56923651  0.87637616  0.70041697
   0.30897153  0.02889004  0.12421952
   0.68795301  0.95826632  0.34400167
   0.68653754  0.78071456  0.12438213
   0.05558777  0.37345443  0.29958274
   0.68911546  0.46996815  0.87588670
   0.43143226  0.45141502  0.21129135
   0.80990056  0.37532789  0.43304830
   0.56328241  0.70825309  0.61150764
   0.56152506  0.54100459  0.65583247
   0.81544327  0.86326616  0.16624915
   0.56308502  0.53717115  0.25538078
   0.68788560  0.45835437  0.34402585
   0.18970493  0.61206872  0.16632284
   0.19277424  0.79930677  0.78876863
   0.44453634  0.12638493  0.70040138
   0.93081064  0.62337009  0.29965777
   0.31608912  0.22140864  0.87593023
   0.31510785  0.87474641  0.56680597
   0.81611014  0.22188390  0.87586984
   0.81146781  0.54130493  0.65579214
   0.55944116  0.52905007  0.12416521
   0.56793387  0.04987708  0.78897728
   0.18844428  0.28709651  0.25540328
   0.80989391  0.87529926  0.43303570
   0.56932070  0.37641524  0.70041035
   0.05917361  0.02826867  0.12422158
   0.31150552  0.54104202  0.65583463
   0.56316989  0.20835928  0.34410231
   0.18826090  0.95817080  0.61143045
   0.30565637  0.37367359  0.29962020
   0.43646139  0.79112997  0.65587273
   0.19326019  0.29859886  0.78887446
   0.06579607  0.36305968  0.16626167
   0.69421837  0.62649555  0.70039005
   0.31149338  0.54149221  0.38841305
   0.06632496  0.72127233  0.87608756
   0.93532291  0.63758363  0.83418758
   0.31857132  0.54965317  0.78895166
   0.30626816  0.20062411  0.21117264
   0.06563549  0.70968221  0.47770136
   0.55623615  0.20094441  0.21108781
   0.31201247  0.21304803  0.74467575
   0.06931526  0.37676248  0.70044581
   0.18489581  0.63762564  0.83387792
   0.06797274  0.04933044  0.78899256
   0.44020116  0.12481581  0.56685182
   0.93674419  0.29129444  0.65575228
   0.80618295  0.20128536  0.21114485
   0.93109947  0.95152250  0.21124676
   0.94011761  0.62501432  0.56676883
   0.80967459  0.38683093  0.83390678
   0.19428449  0.62645973  0.70035099
   0.81026338  0.88719534  0.83396444
   0.68669106  0.29106376  0.65588723
   0.31330261  0.20813835  0.61148940
   0.43678611  0.46273814  0.74460811
   0.43641289  0.79142643  0.38840923
   0.68634278  0.96274274  0.74466880
   0.80607757  0.70091508  0.21120031
   0.81328303  0.70820034  0.61148063
   0.43700742  0.78098778  0.12447418
   0.31163822  0.71268755  0.74463775
   0.31857052  0.04956164  0.78891460
   0.81142064  0.54186132  0.38837754
   0.68440150  0.29008382  0.52227047
   0.69325647  0.79942190  0.78892960
   0.18835830  0.78756153  0.25541639
   0.69003225  0.11249679  0.16626994
   0.69052065  0.95984338  0.47767687
   0.93837038  0.95865070  0.34410484
   0.80947441  0.03993722  0.52229059
   0.68446864  0.62501163  0.43301784
   0.43806596  0.45844482  0.34411341
   0.81204961  0.21268393  0.74452860
   0.43862968  0.96965455  0.87569350
   0.56524220  0.87464054  0.56680303
   0.80917127  0.02853483  0.12418213
   0.43071421  0.62348345  0.29956182
   0.81596167  0.72266688  0.87604276
   0.68821011  0.45814417  0.61145942
   0.31537514  0.86270609  0.16622462
   0.80561211  0.37325905  0.29956780
   0.18625867  0.29142096  0.38838158
   0.81789338  0.54942852  0.78901569
   0.18449412  0.79013235  0.52233580
   0.30564172  0.87358604  0.29962418
   0.18108448  0.95123909  0.21121334
   0.18682690  0.46272248  0.74467397
   0.43444914  0.28996504  0.52218330
   0.06329451  0.70854107  0.34405794
   0.18669904  0.79093937  0.65576174
   0.44294723  0.79933339  0.78882786
   0.68452204  0.12504245  0.43300693
   0.93443630  0.78967065  0.52227734
   0.69012037  0.61314954  0.16637769
   0.81300038  0.70846437  0.34407603
   0.93667953  0.46277420  0.74463836
   0.18816992  0.45851296  0.34408176
   0.56843515  0.54975775  0.78894574
   0.56547674  0.36318118  0.16609114
   0.56286490  0.70857465  0.34415063
   0.55588227  0.37341834  0.29959514
   0.18827111  0.46970144  0.87573637
   0.19052882  0.11256596  0.16626591
   0.44273538  0.29885730  0.78876851
   0.68825636  0.78730916  0.25546422
   0.93559691  0.13683591  0.83380258
   0.44053852  0.95979986  0.47765186
   0.56633974  0.72184845  0.87593291
   0.19037979  0.45978130  0.47764989
   0.93597683  0.28076832  0.12442090
   0.31149065  0.04151623  0.38843969
   0.06174223  0.04087271  0.65586287
   0.56002469  0.37512625  0.43306288
   0.68607168  0.46246535  0.74469677
   0.56215115  0.21326882  0.74460321
   0.94466818  0.12668004  0.70039147
   0.56163681  0.04101079  0.65580207
   0.55943205  0.54011095  0.52225309
   0.18069489  0.12342103  0.29957018
   0.43968974  0.11235307  0.16629611
   0.68038708  0.62344852  0.29964076
   0.93064543  0.12311273  0.29965165
   0.81512907  0.37486723  0.56687640
   0.05574536  0.87342479  0.29957198
   0.19015843  0.62481716  0.56686559
   0.94261738  0.79917995  0.78887253
   0.31020918  0.38684852  0.83399527
   0.94004170  0.47003863  0.87578469
   0.43575053  0.63771849  0.83384721
   0.06293725  0.20846368  0.34404229
   0.18883498  0.96965155  0.87577460
   0.93622323  0.78055996  0.12437511
   0.68645535  0.79163151  0.38841816
   0.93662022  0.79112215  0.65581702
   0.94006865  0.11246401  0.16624715
   0.43661147  0.29118809  0.65592249
   0.05669644  0.20096735  0.21112743
   0.68120368  0.95149649  0.21130765
   0.18075724  0.62354054  0.29956864
   0.81923761  0.87636736  0.70037031
   0.94433212  0.62665554  0.70044231
   0.19438442  0.12668437  0.70038191
   0.94063800  0.45959174  0.47754521
   0.81329512  0.20817647  0.61148296
   0.18540275  0.62508501  0.43305319
   0.43072269  0.12350225  0.29959255
   0.68066054  0.12323642  0.29957234
   0.56141433  0.54156548  0.38845633
   0.81298854  0.20824148  0.34411886
   0.43941954  0.46955591  0.87592340
   0.56004313  0.88733411  0.83392010
   0.31561879  0.20981483  0.47758670
   0.19034843  0.95981650  0.47765699
   0.05987449  0.88726393  0.83387103
   0.05948825  0.53994046  0.52222715
   0.94057755  0.95961031  0.47757378
   0.06329755  0.70811130  0.61147245
   0.55948259  0.04010051  0.52223006
   0.69365736  0.29866727  0.78869923
   0.81586998  0.36270496  0.16626264
   0.43488153  0.12494225  0.43301649
   0.06568467  0.20972720  0.47769090
   0.31176700  0.04105337  0.65584794
   0.43440384  0.78995921  0.52219976
   0.18520519  0.13683711  0.83383975
   0.18649565  0.28049025  0.12433916
   0.93805354  0.45878915  0.34406306
   0.56609560  0.86295994  0.16623188
   0.30612024  0.70081134  0.21114505
   0.93974851  0.61304738  0.16636007
   0.18826342  0.45822451  0.61145408
   0.06943049  0.87663650  0.70030219
   0.06161424  0.54113578  0.65587049
   0.30966425  0.52849550  0.12402863
   0.93639049  0.79170142  0.38843884
   0.94296702  0.29868517  0.78879740
   0.18654055  0.29112735  0.65585556
   0.93831630  0.95817903  0.61149056
   0.81192138  0.71256250  0.74470542
   0.68847601  0.28733236  0.25537587
   0.06196648  0.71273301  0.74467504
   0.68110368  0.45124177  0.21122958
   0.81554868  0.20970376  0.47766695