 288 288   0   0
  0.1280206E+02  0.9726678E-09  0.8423550E-09  0.4500000E-08  0.2500000E-15
  1.000000000000000E-004
  CAR 
 unknown system                          
      6.74742352     -6.09186943  301      4.29588045      1.00000000
     -6.092  0.0000E+00  0.0000E+00
     -6.049  0.0000E+00  0.0000E+00
     -6.006  0.0000E+00  0.0000E+00
     -5.963  0.0000E+00  0.0000E+00
     -5.921  0.0000E+00  0.0000E+00
     -5.878  0.0000E+00  0.0000E+00
     -5.835  0.0000E+00  0.0000E+00
     -5.792  0.0000E+00  0.0000E+00
     -5.749  0.0000E+00  0.0000E+00
     -5.707  0.0000E+00  0.0000E+00
     -5.664  0.0000E+00  0.0000E+00
     -5.621  0.0000E+00  0.0000E+00
     -5.578  0.0000E+00  0.0000E+00
     -5.536  0.0000E+00  0.0000E+00
     -5.493  0.0000E+00  0.0000E+00
     -5.450  0.1621E-15  0.6939E-17
     -5.407  0.4280E-14  0.1901E-15
     -5.364  0.9125E-13  0.4095E-14
     -5.322  0.1664E-11  0.7533E-13
     -5.279  0.2585E-10  0.1182E-11
     -5.236  0.3417E-09  0.1581E-10
     -5.193  0.3847E-08  0.1805E-09
     -5.150  0.3688E-07  0.1759E-08
     -5.108  0.3013E-06  0.1465E-07
     -5.065  0.2098E-05  0.1045E-06
     -5.022  0.1247E-04  0.6380E-06
     -4.979  0.6330E-04  0.3347E-05
     -4.936  0.2751E-03  0.1512E-04
     -4.894  0.1027E-02  0.5906E-04
     -4.851  0.3305E-02  0.2005E-03
     -4.808  0.9240E-02  0.5960E-03
     -4.765  0.2264E-01  0.1565E-02
     -4.722  0.4917E-01  0.3669E-02
     -4.680  0.9597E-01  0.7776E-02
     -4.637  0.1706E+00  0.1508E-01
     -4.594  0.2797E+00  0.2705E-01
     -4.551  0.4259E+00  0.4528E-01
     -4.508  0.6067E+00  0.7124E-01
     -4.466  0.8123E+00  0.1060E+00
     -4.423  0.1028E+01  0.1500E+00
     -4.380  0.1235E+01  0.2029E+00
     -4.337  0.1417E+01  0.2635E+00
     -4.294  0.1564E+01  0.3304E+00
     -4.252  0.1675E+01  0.4021E+00
     -4.209  0.1765E+01  0.4777E+00
     -4.166  0.1854E+01  0.5570E+00
     -4.123  0.1963E+01  0.6410E+00
     -4.080  0.2110E+01  0.7313E+00
     -4.038  0.2296E+01  0.8296E+00
     -3.995  0.2510E+01  0.9370E+00
     -3.952  0.2725E+01  0.1054E+01
     -3.909  0.2911E+01  0.1178E+01
     -3.866  0.3044E+01  0.1308E+01
     -3.824  0.3113E+01  0.1442E+01
     -3.781  0.3124E+01  0.1575E+01
     -3.738  0.3104E+01  0.1708E+01
     -3.695  0.3089E+01  0.1840E+01
     -3.652  0.3112E+01  0.1974E+01
     -3.610  0.3193E+01  0.2110E+01
     -3.567  0.3335E+01  0.2253E+01
     -3.524  0.3524E+01  0.2404E+01
     -3.481  0.3732E+01  0.2564E+01
     -3.438  0.3928E+01  0.2732E+01
     -3.396  0.4082E+01  0.2906E+01
     -3.353  0.4176E+01  0.3085E+01
     -3.310  0.4208E+01  0.3265E+01
     -3.267  0.4200E+01  0.3445E+01
     -3.224  0.4189E+01  0.3624E+01
     -3.182  0.4222E+01  0.3805E+01
     -3.139  0.4331E+01  0.3990E+01
     -3.096  0.4523E+01  0.4184E+01
     -3.053  0.4774E+01  0.4388E+01
     -3.010  0.5037E+01  0.4604E+01
     -2.968  0.5254E+01  0.4829E+01
     -2.925  0.5378E+01  0.5059E+01
     -2.882  0.5398E+01  0.5290E+01
     -2.839  0.5354E+01  0.5519E+01
     -2.796  0.5313E+01  0.5746E+01
     -2.754  0.5336E+01  0.5975E+01
     -2.711  0.5437E+01  0.6207E+01
     -2.668  0.5570E+01  0.6446E+01
     -2.625  0.5668E+01  0.6688E+01
     -2.582  0.5688E+01  0.6932E+01
     -2.540  0.5652E+01  0.7174E+01
     -2.497  0.5641E+01  0.7415E+01
     -2.454  0.5756E+01  0.7661E+01
     -2.411  0.6062E+01  0.7921E+01
     -2.368  0.6534E+01  0.8200E+01
     -2.326  0.7046E+01  0.8502E+01
     -2.283  0.7419E+01  0.8819E+01
     -2.240  0.7519E+01  0.9141E+01
     -2.197  0.7348E+01  0.9456E+01
     -2.154  0.7053E+01  0.9758E+01
     -2.112  0.6847E+01  0.1005E+02
     -2.069  0.6894E+01  0.1035E+02
     -2.026  0.7236E+01  0.1066E+02
     -1.983  0.7778E+01  0.1099E+02
     -1.940  0.8335E+01  0.1134E+02
     -1.898  0.8727E+01  0.1172E+02
     -1.855  0.8867E+01  0.1210E+02
     -1.812  0.8805E+01  0.1247E+02
     -1.769  0.8684E+01  0.1285E+02
     -1.727  0.8641E+01  0.1322E+02
     -1.684  0.8736E+01  0.1359E+02
     -1.641  0.8946E+01  0.1397E+02
     -1.598  0.9212E+01  0.1437E+02
     -1.555  0.9492E+01  0.1477E+02
     -1.513  0.9771E+01  0.1519E+02
     -1.470  0.1005E+02  0.1562E+02
     -1.427  0.1031E+02  0.1606E+02
     -1.384  0.1053E+02  0.1651E+02
     -1.341  0.1071E+02  0.1697E+02
     -1.299  0.1094E+02  0.1744E+02
     -1.256  0.1137E+02  0.1793E+02
     -1.213  0.1211E+02  0.1845E+02
     -1.170  0.1312E+02  0.1901E+02
     -1.127  0.1419E+02  0.1961E+02
     -1.085  0.1500E+02  0.2026E+02
     -1.042  0.1541E+02  0.2092E+02
     -0.999  0.1550E+02  0.2158E+02
     -0.956  0.1563E+02  0.2225E+02
     -0.913  0.1618E+02  0.2294E+02
     -0.871  0.1737E+02  0.2368E+02
     -0.828  0.1917E+02  0.2451E+02
     -0.785  0.2144E+02  0.2542E+02
     -0.742  0.2412E+02  0.2645E+02
     -0.699  0.2728E+02  0.2762E+02
     -0.657  0.3105E+02  0.2895E+02
     -0.614  0.3533E+02  0.3046E+02
     -0.571  0.3980E+02  0.3217E+02
     -0.528  0.4396E+02  0.3405E+02
     -0.485  0.4741E+02  0.3608E+02
     -0.443  0.5004E+02  0.3822E+02
     -0.400  0.5199E+02  0.4044E+02
     -0.357  0.5354E+02  0.4273E+02
     -0.314  0.5490E+02  0.4508E+02
     -0.271  0.5608E+02  0.4748E+02
     -0.229  0.5696E+02  0.4992E+02
     -0.186  0.5744E+02  0.5238E+02
     -0.143  0.5756E+02  0.5484E+02
     -0.100  0.5756E+02  0.5731E+02
     -0.057  0.5773E+02  0.5978E+02
     -0.015  0.5833E+02  0.6227E+02
      0.028  0.5952E+02  0.6482E+02
      0.071  0.6143E+02  0.6745E+02
      0.114  0.6406E+02  0.7019E+02
      0.157  0.6728E+02  0.7307E+02
      0.199  0.7078E+02  0.7610E+02
      0.242  0.7417E+02  0.7928E+02
      0.285  0.7718E+02  0.8258E+02
      0.328  0.7971E+02  0.8599E+02
      0.371  0.8179E+02  0.8949E+02
      0.413  0.8348E+02  0.9306E+02
      0.456  0.8483E+02  0.9669E+02
      0.499  0.8577E+02  0.1004E+03
      0.542  0.8625E+02  0.1041E+03
      0.585  0.8625E+02  0.1077E+03
      0.627  0.8581E+02  0.1114E+03
      0.670  0.8496E+02  0.1151E+03
      0.713  0.8369E+02  0.1186E+03
      0.756  0.8204E+02  0.1221E+03
      0.799  0.8019E+02  0.1256E+03
      0.841  0.7846E+02  0.1289E+03
      0.884  0.7717E+02  0.1322E+03
      0.927  0.7643E+02  0.1355E+03
      0.970  0.7607E+02  0.1388E+03
      1.013  0.7577E+02  0.1420E+03
      1.055  0.7522E+02  0.1452E+03
      1.098  0.7434E+02  0.1484E+03
      1.141  0.7333E+02  0.1515E+03
      1.184  0.7263E+02  0.1547E+03
      1.227  0.7257E+02  0.1578E+03
      1.269  0.7309E+02  0.1609E+03
      1.312  0.7366E+02  0.1640E+03
      1.355  0.7362E+02  0.1672E+03
      1.398  0.7264E+02  0.1703E+03
      1.441  0.7093E+02  0.1733E+03
      1.483  0.6914E+02  0.1763E+03
      1.526  0.6797E+02  0.1792E+03
      1.569  0.6783E+02  0.1821E+03
      1.612  0.6879E+02  0.1851E+03
      1.655  0.7062E+02  0.1881E+03
      1.697  0.7298E+02  0.1912E+03
      1.740  0.7552E+02  0.1944E+03
      1.783  0.7798E+02  0.1978E+03
      1.826  0.8019E+02  0.2012E+03
      1.868  0.8208E+02  0.2047E+03
      1.911  0.8370E+02  0.2083E+03
      1.954  0.8516E+02  0.2119E+03
      1.997  0.8663E+02  0.2156E+03
      2.040  0.8818E+02  0.2194E+03
      2.082  0.8982E+02  0.2233E+03
      2.125  0.9149E+02  0.2272E+03
      2.168  0.9315E+02  0.2312E+03
      2.211  0.9484E+02  0.2352E+03
      2.254  0.9675E+02  0.2394E+03
      2.296  0.9915E+02  0.2436E+03
      2.339  0.1023E+03  0.2480E+03
      2.382  0.1062E+03  0.2525E+03
      2.425  0.1107E+03  0.2573E+03
      2.468  0.1153E+03  0.2622E+03
      2.510  0.1196E+03  0.2673E+03
      2.553  0.1232E+03  0.2726E+03
      2.596  0.1259E+03  0.2780E+03
      2.639  0.1277E+03  0.2835E+03
      2.682  0.1288E+03  0.2890E+03
      2.724  0.1295E+03  0.2945E+03
      2.767  0.1306E+03  0.3001E+03
      2.810  0.1325E+03  0.3058E+03
      2.853  0.1355E+03  0.3116E+03
      2.896  0.1391E+03  0.3175E+03
      2.938  0.1420E+03  0.3236E+03
      2.981  0.1426E+03  0.3297E+03
      3.024  0.1396E+03  0.3357E+03
      3.067  0.1327E+03  0.3414E+03
      3.110  0.1234E+03  0.3466E+03
      3.152  0.1135E+03  0.3515E+03
      3.195  0.1047E+03  0.3560E+03
      3.238  0.9803E+02  0.3602E+03
      3.281  0.9363E+02  0.3642E+03
      3.324  0.9122E+02  0.3681E+03
      3.366  0.9022E+02  0.3719E+03
      3.409  0.8997E+02  0.3758E+03
      3.452  0.8972E+02  0.3796E+03
      3.495  0.8888E+02  0.3834E+03
      3.538  0.8730E+02  0.3872E+03
      3.580  0.8539E+02  0.3908E+03
      3.623  0.8396E+02  0.3944E+03
      3.666  0.8379E+02  0.3980E+03
      3.709  0.8511E+02  0.4016E+03
      3.752  0.8756E+02  0.4054E+03
      3.794  0.9047E+02  0.4093E+03
      3.837  0.9326E+02  0.4133E+03
      3.880  0.9569E+02  0.4174E+03
      3.923  0.9780E+02  0.4215E+03
      3.966  0.9970E+02  0.4258E+03
      4.008  0.1014E+03  0.4301E+03
      4.051  0.1028E+03  0.4345E+03
      4.094  0.1035E+03  0.4390E+03
      4.137  0.1033E+03  0.4434E+03
      4.180  0.1024E+03  0.4478E+03
      4.222  0.1010E+03  0.4521E+03
      4.265  0.9963E+02  0.4564E+03
      4.308  0.9868E+02  0.4606E+03
      4.351  0.9842E+02  0.4648E+03
      4.394  0.9879E+02  0.4690E+03
      4.436  0.9949E+02  0.4733E+03
      4.479  0.1001E+03  0.4776E+03
      4.522  0.1002E+03  0.4819E+03
      4.565  0.9967E+02  0.4861E+03
      4.608  0.9882E+02  0.4904E+03
      4.650  0.9813E+02  0.4946E+03
      4.693  0.9819E+02  0.4988E+03
      4.736  0.9934E+02  0.5030E+03
      4.779  0.1015E+03  0.5074E+03
      4.822  0.1045E+03  0.5118E+03
      4.864  0.1076E+03  0.5164E+03
      4.907  0.1104E+03  0.5212E+03
      4.950  0.1124E+03  0.5260E+03
      4.993  0.1128E+03  0.5308E+03
      5.036  0.1106E+03  0.5355E+03
      5.078  0.1046E+03  0.5400E+03
      5.121  0.9412E+02  0.5440E+03
      5.164  0.7929E+02  0.5474E+03
      5.207  0.6165E+02  0.5501E+03
      5.250  0.4369E+02  0.5519E+03
      5.292  0.2790E+02  0.5531E+03
      5.335  0.1592E+02  0.5538E+03
      5.378  0.8054E+01  0.5542E+03
      5.421  0.3593E+01  0.5543E+03
      5.463  0.1407E+01  0.5544E+03
      5.506  0.4817E+00  0.5544E+03
      5.549  0.1438E+00  0.5544E+03
      5.592  0.3732E-01  0.5544E+03
      5.635  0.8404E-02  0.5544E+03
      5.677  0.1639E-02  0.5544E+03
      5.720  0.2764E-03  0.5544E+03
      5.763  0.4025E-04  0.5544E+03
      5.806  0.5052E-05  0.5544E+03
      5.849  0.5461E-06  0.5544E+03
      5.891  0.5078E-07  0.5544E+03
      5.934  0.4057E-08  0.5544E+03
      5.977  0.2782E-09  0.5544E+03
      6.020  0.1637E-10  0.5544E+03
      6.063  0.8245E-12  0.5544E+03
      6.105  0.3470E-13  0.5544E+03
      6.148  0.7134E-15  0.5544E+03
      6.191  0.0000E+00  0.5544E+03
      6.234  0.0000E+00  0.5544E+03
      6.277  0.0000E+00  0.5544E+03
      6.319  0.0000E+00  0.5544E+03
      6.362  0.0000E+00  0.5544E+03
      6.405  0.0000E+00  0.5544E+03
      6.448  0.0000E+00  0.5544E+03
      6.491  0.0000E+00  0.5544E+03
      6.533  0.0000E+00  0.5544E+03
      6.576  0.0000E+00  0.5544E+03
      6.619  0.0000E+00  0.5544E+03
      6.662  0.0000E+00  0.5544E+03
      6.705  0.0000E+00  0.5544E+03
      6.747  0.0000E+00  0.5544E+03
