unknown system                          
           1
     9.726678    0.000000    0.000000
     0.000000    8.423550    0.000000
     0.000000    0.000000   45.000000
   Fe   Mn
 281   7
Direct configuration=     1
   0.06260671  0.03409214  0.12570838
   0.31160804  0.87163509  0.65387446
   0.18704039  0.11736616  0.78730186
   0.43762307  0.29056880  0.38980168
   0.31203324  0.70858061  0.83183526
   0.81212784  0.20891488  0.83240004
   0.31253733  0.36954815  0.16849113
   0.56243729  0.20721840  0.56494074
   0.06004097  0.03596374  0.74242745
   0.81227881  0.87092980  0.52108409
   0.18718923  0.28691738  0.74275519
   0.93739752  0.45665543  0.34607695
   0.93731481  0.29051719  0.38976941
   0.81110180  0.03586967  0.87437607
   0.18918380  0.78776826  0.61008660
   0.56240707  0.04042361  0.38982410
   0.93735753  0.95894051  0.83248830
   0.31367146  0.53515876  0.87445892
   0.68609589  0.28680001  0.74232370
   0.18818015  0.61953209  0.16850449
   0.81251319  0.20605827  0.47865514
   0.81434040  0.53788894  0.60996897
   0.31246449  0.87283846  0.43464247
   0.81369495  0.04142303  0.25731009
   0.68745396  0.95687940  0.34623311
   0.93752574  0.11942920  0.16811240
   0.93814875  0.12156937  0.52109062
   0.56301565  0.54024115  0.25745982
   0.68634566  0.79089582  0.87447467
   0.56317076  0.36984000  0.16824591
   0.43723981  0.78755776  0.74274674
   0.81256271  0.70732588  0.56491594
   0.56245166  0.86805728  0.78715506
   0.68760555  0.12099419  0.52111308
   0.81208333  0.37183190  0.65393433
   0.93575890  0.45856750  0.83204987
   0.06265149  0.20613478  0.69855311
   0.43730132  0.95605369  0.69847506
   0.31020406  0.20592979  0.83199528
   0.43735416  0.62201345  0.65395961
   0.31421349  0.53748146  0.60990810
   0.93751504  0.45726130  0.56500971
   0.68751338  0.78770238  0.74281249
   0.93757471  0.79125710  0.12574709
   0.68746158  0.79028269  0.38987680
   0.93736149  0.78723570  0.74285399
   0.06252078  0.20686927  0.34623909
   0.81245372  0.04056973  0.38983926
   0.43739947  0.11727933  0.78724442
   0.06225465  0.20802224  0.21290720
   0.06260590  0.37019125  0.16818086
   0.93918217  0.79108412  0.25749175
   0.56296798  0.20620541  0.69861858
   0.68758800  0.95632604  0.69842249
   0.43656308  0.79063421  0.12564553
   0.43707019  0.95700844  0.56486426
   0.81215710  0.36789001  0.78709852
   0.68954274  0.29119789  0.25735401
   0.18768489  0.45748581  0.56500636
   0.06303786  0.86959570  0.16845430
   0.18916886  0.28790349  0.61013039
   0.56306868  0.70630623  0.34624574
   0.31236361  0.20601025  0.69856140
   0.56238067  0.53493858  0.87435208
   0.06225646  0.70706123  0.56486706
   0.68786835  0.61713075  0.78706779
   0.31167493  0.54048942  0.38988667
   0.18780512  0.62078403  0.52107555
   0.56250351  0.87316252  0.43461166
   0.43725131  0.45758471  0.56500776
   0.43479965  0.28739106  0.74243601
   0.81240161  0.87346241  0.30145921
   0.81213715  0.70661891  0.34630821
   0.43705882  0.45620893  0.83160564
   0.68755690  0.95596674  0.47867135
   0.68778932  0.45616032  0.69833135
   0.56276647  0.87116706  0.52110288
   0.56196646  0.37184443  0.65398035
   0.81145974  0.87162891  0.65388432
   0.81256314  0.37293228  0.43463767
   0.81312440  0.54036211  0.25744066
   0.68694275  0.45654735  0.83178548
   0.18812895  0.79046195  0.12572094
   0.68751445  0.29085888  0.38977239
   0.31226773  0.37181722  0.65379671
   0.31236646  0.20672925  0.34622325
   0.81229775  0.53725637  0.74284689
   0.68552850  0.95805104  0.83209501
   0.56156010  0.87188674  0.65381964
   0.31214048  0.70716022  0.56489735
   0.31171173  0.53531298  0.12559319
   0.68757207  0.95805488  0.21295426
   0.31261992  0.20700265  0.56487230
   0.18775265  0.95579665  0.47868784
   0.68780104  0.95705912  0.56484750
   0.43944564  0.78799444  0.61003700
   0.68806358  0.61714054  0.16801764
   0.31246865  0.87311802  0.30154465
   0.31246612  0.70584405  0.47870804
   0.93927675  0.28787207  0.61017560
   0.43707888  0.62448264  0.30176833
   0.81291639  0.86925649  0.16838116
   0.56251961  0.20834986  0.21293235
   0.93782255  0.61686803  0.16798155
   0.93852367  0.79038340  0.87455612
   0.56241597  0.36773743  0.78699212
   0.06264958  0.37086123  0.52109280
   0.56255846  0.37131647  0.52105365
   0.68747651  0.12426600  0.30154065
   0.43778050  0.95658976  0.83174117
   0.18848179  0.29078048  0.12572259
   0.18967211  0.29099131  0.25744419
   0.31233873  0.37301436  0.43464320
   0.56132081  0.03413650  0.12558938
   0.43927505  0.28797641  0.60998159
   0.18753812  0.45709179  0.34638367
   0.43625018  0.29075999  0.12573252
   0.68891867  0.79066167  0.25753097
   0.43762186  0.12093841  0.52107225
   0.18831091  0.29114297  0.87464243
   0.18653974  0.12193046  0.65377630
   0.93694843  0.12224152  0.65383713
   0.31240462  0.20793272  0.21294739
   0.06255400  0.03978907  0.38980631
   0.18796350  0.11886254  0.16814463
   0.06415965  0.53719030  0.61007138
   0.93897184  0.29066907  0.25744987
   0.56428392  0.53769629  0.61007046
   0.93701589  0.95722306  0.56488350
   0.68705566  0.62439683  0.30172766
   0.93686935  0.62326214  0.43461562
   0.93688996  0.61756830  0.78695700
   0.56188367  0.70567164  0.69830829
   0.06202693  0.71062500  0.83252821
   0.93748468  0.12394374  0.30152857
   0.93934216  0.78792922  0.61000654
   0.43983940  0.79104528  0.25749769
   0.31187364  0.36822727  0.78704321
   0.43755744  0.45834575  0.21309492
   0.18748353  0.12144719  0.52107523
   0.81265380  0.70546337  0.69850124
   0.06417205  0.03739258  0.61006466
   0.56072414  0.20855771  0.83172902
   0.31285841  0.87074716  0.52111249
   0.68730790  0.29126685  0.12549718
   0.18762714  0.95804287  0.21305429
   0.68935187  0.28810152  0.60993151
   0.31438416  0.03765887  0.61016588
   0.93782866  0.11697225  0.78730012
   0.43786332  0.79130097  0.87439560
   0.81126226  0.03695537  0.74251625
   0.93747420  0.45660174  0.69839202
   0.18689375  0.62260467  0.65403494
   0.31271929  0.70517119  0.69841464
   0.93708174  0.29156569  0.12553241
   0.43756427  0.45603630  0.47863716
   0.06251248  0.70577782  0.47874366
   0.93746178  0.12350387  0.43460627
   0.43722941  0.12398121  0.30142991
   0.18700335  0.12381828  0.43462664
   0.56188807  0.03511784  0.87452175
   0.18786634  0.95736904  0.56494215
   0.68690161  0.79115021  0.12570738
   0.56158466  0.53554255  0.12560008
   0.31243613  0.03980289  0.38974301
   0.68889529  0.11912503  0.16817919
   0.81235851  0.20784086  0.21292166
   0.06289273  0.54021896  0.25739721
   0.56251022  0.70587969  0.47866765
   0.06246149  0.20700017  0.56496222
   0.56246297  0.37354551  0.30179716
   0.43739679  0.95702296  0.34627766
   0.18817605  0.95650157  0.69850685
   0.43778818  0.61923058  0.16853138
   0.93815091  0.45857336  0.21333992
   0.06196764  0.53498694  0.12560707
   0.81244261  0.37102002  0.52109777
   0.93701461  0.62439527  0.30163512
   0.31354853  0.04017543  0.25750402
   0.68920714  0.78767906  0.61008290
   0.18653311  0.45906136  0.83202167
   0.43789417  0.11888435  0.16809686
   0.31315726  0.37074085  0.52106341
   0.43755109  0.61713843  0.78711287
   0.06309221  0.04043260  0.25742655
   0.56230286  0.70725692  0.56493099
   0.93554941  0.28596504  0.74254746
   0.68718876  0.11726880  0.78722786
   0.18739335  0.45814113  0.21302195
   0.93757825  0.79072225  0.38975362
   0.68733239  0.29251348  0.87486423
   0.31267613  0.86970120  0.16847742
   0.43828402  0.45613731  0.69840710
   0.93793222  0.95677854  0.34631547
   0.68777091  0.62099599  0.52109036
   0.06157949  0.87139323  0.65377580
   0.06181596  0.86851406  0.78687242
   0.06149218  0.37140625  0.65377441
   0.68754007  0.45581245  0.47865415
   0.18802914  0.79006540  0.25747635
   0.43715457  0.12410170  0.43488872
   0.81170004  0.03459824  0.12553083
   0.93769820  0.62091571  0.52109646
   0.06194509  0.87390425  0.43495440
   0.81149971  0.53478415  0.12549631
   0.43787739  0.45677569  0.34622059
   0.81211247  0.20623891  0.34628137
   0.31237781  0.70551693  0.34604256
   0.68673887  0.12111445  0.65367668
   0.56232665  0.87367420  0.30147367
   0.06217377  0.53637269  0.74281531
   0.93743210  0.95801380  0.21294632
   0.81272420  0.70797820  0.21291454
   0.06262322  0.87378794  0.30147626
   0.18707424  0.12432556  0.30139184
   0.06251745  0.70686121  0.34620167
   0.81408255  0.03778646  0.61012200
   0.06252243  0.37300022  0.43466581
   0.56243441  0.20623503  0.34630106
   0.81273602  0.37399453  0.30180424
   0.43759748  0.95583044  0.47866150
   0.56238228  0.54035996  0.38978941
   0.06260332  0.20590543  0.47864494
   0.31313786  0.86759561  0.78694053
   0.93806826  0.95618669  0.69848417
   0.06237498  0.37355004  0.30148953
   0.68696974  0.62244566  0.65393951
   0.68749477  0.45735837  0.56503747
   0.43750113  0.95812791  0.21299387
   0.31246456  0.20590959  0.47865392
   0.43707817  0.12175641  0.65361270
   0.68744629  0.62345925  0.43472017
   0.81259704  0.20610048  0.69855063
   0.81265716  0.70586562  0.47866199
   0.81212903  0.87309840  0.43460188
   0.93733303  0.95582098  0.47878257
   0.56255590  0.20579799  0.47864832
   0.18755079  0.62329701  0.43457443
   0.31080334  0.03679119  0.74238981
   0.93716284  0.62219255  0.65397614
   0.56191172  0.70747459  0.83184035
   0.31261260  0.37381941  0.30141260
   0.56235931  0.70774256  0.21292771
   0.18758650  0.45578827  0.47875110
   0.31310318  0.03636595  0.87441848
   0.18752830  0.45645589  0.69857937
   0.81120541  0.53419064  0.87455884
   0.18751615  0.29044068  0.38975047
   0.43717393  0.62377450  0.43479336
   0.06208995  0.70786559  0.21291711
   0.56240876  0.37296882  0.43462992
   0.43760455  0.62102148  0.52110547
   0.81050586  0.70914730  0.83150812
   0.06271372  0.36822560  0.78708890
   0.43824777  0.29256166  0.87466310
   0.31176580  0.03488316  0.12561038
   0.68734899  0.12344718  0.43477138
   0.18758250  0.95692398  0.34626954
   0.06283790  0.20795502  0.83271184
   0.56424072  0.03772241  0.61016934
   0.68686999  0.45847247  0.21331826
   0.18755470  0.78715045  0.74286926
   0.18766593  0.62398646  0.30178762
   0.43745144  0.79098685  0.38985305
   0.43872877  0.29054411  0.25748915
   0.06267306  0.53526103  0.87441986
   0.56204097  0.03643421  0.74267389
   0.18675481  0.79080868  0.87453774
   0.93748861  0.45591042  0.47863552
   0.81245089  0.54048582  0.38985127
   0.81236976  0.20709740  0.56487517
   0.18746042  0.61696400  0.78703839
   0.06269338  0.54083039  0.38982264
   0.06313685  0.70468848  0.69838901
   0.31286412  0.53991155  0.25749008
   0.31235633  0.70836291  0.21282325
   0.56281066  0.86931492  0.16842260
   0.56033203  0.53769432  0.74236043
   0.68761805  0.45679761  0.34614519
   0.93614348  0.29170567  0.87454920
   0.56320175  0.04057116  0.25740011
   0.06323603  0.03353543  0.87451478
   0.18724092  0.79086321  0.38978885
   0.81264559  0.36884241  0.16722717
   0.18630257  0.95876229  0.83276824
   0.06282964  0.87072008  0.52110303
   0.81217166  0.86884303  0.78687276
   0.31099081  0.53592665  0.74301591
Direct configuration=     2
   0.06254290  0.03460355  0.12577135
   0.31172817  0.87172237  0.65388149
   0.18702889  0.11783983  0.78726268
   0.43765593  0.29052300  0.38988278
   0.31205330  0.70821421  0.83185507
   0.81214725  0.20854142  0.83239370
   0.31257485  0.36963223  0.16838586
   0.56248319  0.20699216  0.56498758
   0.06030834  0.03614812  0.74250730
   0.81231429  0.87115452  0.52115626
   0.18701704  0.28692745  0.74276402
   0.93743555  0.45670136  0.34604645
   0.93726092  0.29046905  0.38985017
   0.81100146  0.03649997  0.87434138
   0.18903922  0.78786088  0.61001503
   0.56239966  0.04043283  0.38990553
   0.93733733  0.95852392  0.83248056
   0.31352293  0.53575024  0.87436087
   0.68623181  0.28694127  0.74240889
   0.18814284  0.61975576  0.16842191
   0.81253528  0.20590174  0.47857794
   0.81418143  0.53797924  0.60992932
   0.31249249  0.87289239  0.43463912
   0.81356415  0.04122760  0.25731750
   0.68747138  0.95688037  0.34617569
   0.93751379  0.11956368  0.16807950
   0.93801990  0.12178838  0.52116062
   0.56303530  0.54027866  0.25745798
   0.68646327  0.79036760  0.87440281
   0.56306196  0.36998727  0.16817479
   0.43716244  0.78753675  0.74276078
   0.81262393  0.70709660  0.56496999
   0.56235399  0.86824265  0.78711558
   0.68767821  0.12132800  0.52117871
   0.81213398  0.37183881  0.65393826
   0.93585971  0.45831892  0.83207625
   0.06260622  0.20593850  0.69852682
   0.43738122  0.95591867  0.69847617
   0.31039853  0.20599003  0.83206625
   0.43733380  0.62199686  0.65395708
   0.31407117  0.53761584  0.60987114
   0.93754291  0.45702807  0.56504005
   0.68743225  0.78767254  0.74281413
   0.93762618  0.79067409  0.12584543
   0.68744452  0.79031989  0.38994381
   0.93730302  0.78725972  0.74284672
   0.06252373  0.20686153  0.34617247
   0.81246050  0.04055632  0.38991399
   0.43735008  0.11772855  0.78719212
   0.06228531  0.20785517  0.21293277
   0.06265219  0.37026583  0.16812385
   0.93900715  0.79100358  0.25745684
   0.56287457  0.20594526  0.69858813
   0.68756957  0.95609289  0.69842187
   0.43665881  0.79009764  0.12575886
   0.43716683  0.95684467  0.56492433
   0.81217282  0.36805474  0.78705938
   0.68933371  0.29109186  0.25735572
   0.18767638  0.45719012  0.56503731
   0.06306448  0.86973505  0.16835132
   0.18907088  0.28796397  0.61005606
   0.56295391  0.70640332  0.34618825
   0.31235111  0.20585648  0.69853314
   0.56232000  0.53565870  0.87426319
   0.06231349  0.70680674  0.56492631
   0.68775777  0.61747934  0.78705844
   0.31182212  0.54045518  0.38995212
   0.18788108  0.62108756  0.52116206
   0.56244752  0.87319963  0.43462433
   0.43733696  0.45732345  0.56504393
   0.43519385  0.28737163  0.74250160
   0.81245229  0.87357976  0.30146842
   0.81221854  0.70667048  0.34623559
   0.43706399  0.45624411  0.83171012
   0.68757800  0.95586771  0.47858337
   0.68772499  0.45597651  0.69836499
   0.56273120  0.87140300  0.52116641
   0.56204900  0.37177907  0.65396322
   0.81161099  0.87166356  0.65390279
   0.81253537  0.37301161  0.43464670
   0.81312215  0.54034716  0.25745086
   0.68690860  0.45645470  0.83184601
   0.18802680  0.78994483  0.12581917
   0.68748594  0.29076179  0.38985302
   0.31227343  0.37184135  0.65381386
   0.31238770  0.20677093  0.34615595
   0.81218176  0.53715228  0.74284981
   0.68576142  0.95775561  0.83213824
   0.56169037  0.87190812  0.65383259
   0.31218950  0.70697447  0.56495507
   0.31176906  0.53581327  0.12569567
   0.68756802  0.95792182  0.21298301
   0.31263510  0.20680708  0.56492560
   0.18777146  0.95582432  0.47861941
   0.68778136  0.95690380  0.56490935
   0.43924739  0.78804079  0.60997318
   0.68798225  0.61763872  0.16801035
   0.31248790  0.87324603  0.30153744
   0.31243751  0.70578851  0.47862667
   0.93913926  0.28791575  0.61009897
   0.43718825  0.62435887  0.30171072
   0.81288055  0.86938294  0.16828541
   0.56260182  0.20812382  0.21295194
   0.93780326  0.61739892  0.16798079
   0.93826350  0.78983971  0.87449369
   0.56229612  0.36798986  0.78696952
   0.06264994  0.37116074  0.52116464
   0.56260553  0.37152475  0.52113154
   0.68747240  0.12418724  0.30154444
   0.43775704  0.95644722  0.83182926
   0.18842906  0.29028969  0.12582446
   0.18943185  0.29081657  0.25742518
   0.31236526  0.37307614  0.43464803
   0.56143144  0.03465048  0.12567809
   0.43915062  0.28803635  0.60993223
   0.18753178  0.45705161  0.34629880
   0.43632310  0.29028104  0.12583322
   0.68880374  0.79063323  0.25749369
   0.43759994  0.12123436  0.52114203
   0.18839185  0.29062095  0.87458154
   0.18667904  0.12195070  0.65381474
   0.93702507  0.12214898  0.65386739
   0.31245680  0.20772389  0.21296978
   0.06249546  0.03984489  0.38988036
   0.18795224  0.11905215  0.16811570
   0.06405979  0.53733210  0.61002279
   0.93882072  0.29062507  0.25743201
   0.56416814  0.53780388  0.61000942
   0.93710226  0.95704806  0.56494344
   0.68713316  0.62432329  0.30169128
   0.93697135  0.62323822  0.43461712
   0.93692511  0.61790068  0.78697550
   0.56195396  0.70555598  0.69832429
   0.06189436  0.71012973  0.83249169
   0.93748380  0.12391092  0.30153767
   0.93920715  0.78802645  0.60994605
   0.43955639  0.79093786  0.25746654
   0.31192506  0.36831335  0.78703186
   0.43758699  0.45816050  0.21311706
   0.18751586  0.12165949  0.52115315
   0.81265432  0.70546936  0.69851053
   0.06403418  0.03749704  0.60999238
   0.56091709  0.20823089  0.83178866
   0.31287770  0.87103653  0.52118152
   0.68729153  0.29063367  0.12556204
   0.18762645  0.95792948  0.21308288
   0.68917577  0.28815405  0.60989490
   0.31424856  0.03775277  0.61010046
   0.93776115  0.11746573  0.78726163
   0.43780063  0.79073919  0.87432991
   0.81134562  0.03708861  0.74257384
   0.93750644  0.45632981  0.69841975
   0.18699769  0.62245819  0.65402659
   0.31270965  0.70517333  0.69842921
   0.93711302  0.29086846  0.12558679
   0.43757346  0.45590724  0.47855611
   0.06250383  0.70560384  0.47865887
   0.93741944  0.12350214  0.43460904
   0.43730038  0.12397604  0.30145746
   0.18708758  0.12373287  0.43462032
   0.56197768  0.03576144  0.87444133
   0.18786040  0.95717796  0.56499068
   0.68690440  0.79060300  0.12581233
   0.56164801  0.53594253  0.12568064
   0.31246132  0.03988518  0.38982757
   0.68872871  0.11929099  0.16813216
   0.81240182  0.20766691  0.21294111
   0.06289435  0.54025060  0.25739047
   0.56254046  0.70583485  0.47859278
   0.06251106  0.20676305  0.56501315
   0.56248745  0.37356691  0.30174422
   0.43740896  0.95697772  0.34621093
   0.18801305  0.95624585  0.69850068
   0.43775607  0.61952206  0.16844251
   0.93810502  0.45836917  0.21331904
   0.06201006  0.53549057  0.12567536
   0.81244458  0.37131702  0.52116768
   0.93709420  0.62432427  0.30160978
   0.31347237  0.04011981  0.25747113
   0.68909051  0.78779626  0.61001302
   0.18660931  0.45873123  0.83206280
   0.43788547  0.11908351  0.16806417
   0.31310157  0.37110101  0.52114128
   0.43754256  0.61749792  0.78709298
   0.06310462  0.04041162  0.25740199
   0.56235177  0.70704371  0.56497885
   0.93576176  0.28618373  0.74260488
   0.68713722  0.11776065  0.78718165
   0.18738752  0.45801275  0.21305065
   0.93752590  0.79068458  0.38984159
   0.68736404  0.29186703  0.87475612
   0.31271412  0.86987425  0.16838616
   0.43813995  0.45592715  0.69840767
   0.93787698  0.95681598  0.34623689
   0.68777442  0.62122482  0.52115786
   0.06170750  0.87147011  0.65380326
   0.06187540  0.86861522  0.78688847
   0.06167445  0.37150350  0.65379691
   0.68753709  0.45574068  0.47857099
   0.18808330  0.79012436  0.25745772
   0.43722455  0.12391660  0.43485278
   0.81176611  0.03524411  0.12561719
   0.93755757  0.62116651  0.52117496
   0.06204378  0.87373087  0.43495132
   0.81159579  0.53533820  0.12551891
   0.43784172  0.45676309  0.34616870
   0.81221055  0.20634429  0.34620819
   0.31240300  0.70580369  0.34603600
   0.68685149  0.12126314  0.65371622
   0.56240045  0.87376067  0.30148142
   0.06200544  0.53639248  0.74281646
   0.93747376  0.95789420  0.21297140
   0.81268942  0.70772579  0.21293392
   0.06262258  0.87381590  0.30147970
   0.18717020  0.12433729  0.30141130
   0.06250761  0.70685960  0.34614716
   0.81395362  0.03788528  0.61005700
   0.06248654  0.37305673  0.43467059
   0.56243607  0.20629213  0.34622434
   0.81271112  0.37396728  0.30174504
   0.43757009  0.95575025  0.47858996
   0.56234692  0.54028398  0.38986703
   0.06256785  0.20575572  0.47856716
   0.31307619  0.86776288  0.78691085
   0.93793584  0.95596091  0.69846942
   0.06242299  0.37363657  0.30150050
   0.68707647  0.62235741  0.65392738
   0.68753157  0.45711138  0.56506914
   0.43752735  0.95799214  0.21303285
   0.31248797  0.20577167  0.47857369
   0.43710129  0.12183077  0.65366728
   0.68743251  0.62341096  0.43471738
   0.81258174  0.20594854  0.69850532
   0.81266386  0.70583347  0.47858610
   0.81215339  0.87311685  0.43460599
   0.93729359  0.95583434  0.47870112
   0.56255769  0.20577336  0.47857233
   0.18751695  0.62327792  0.43458631
   0.31093904  0.03686922  0.74247185
   0.93720555  0.62211231  0.65397140
   0.56195416  0.70717254  0.83190110
   0.31263846  0.37386489  0.30143580
   0.56241731  0.70757848  0.21295932
   0.18757090  0.45570792  0.47865447
   0.31308307  0.03706544  0.87438256
   0.18754481  0.45616210  0.69856838
   0.81132310  0.53487910  0.87447711
   0.18751603  0.29037965  0.38983931
   0.43718970  0.62367687  0.43477683
   0.06217103  0.70767181  0.21294291
   0.56240310  0.37301619  0.43464066
   0.43759063  0.62125624  0.52117526
   0.81072730  0.70875585  0.83156696
   0.06264668  0.36849045  0.78707894
   0.43802416  0.29198524  0.87456107
   0.31183942  0.03540246  0.12567733
   0.68734499  0.12341987  0.43475749
   0.18760872  0.95694405  0.34619327
   0.06270146  0.20763646  0.83263508
   0.56410502  0.03784269  0.61007706
   0.68693896  0.45831464  0.21329510
   0.18741699  0.78718045  0.74284751
   0.18760591  0.62398330  0.30173872
   0.43748655  0.79087712  0.38992036
   0.43867737  0.29046441  0.25746601
   0.06258643  0.53586863  0.87435604
   0.56205537  0.03665244  0.74271086
   0.18686711  0.79018100  0.87452919
   0.93753110  0.45579276  0.47855500
   0.81247517  0.54038240  0.38991327
   0.81240393  0.20686181  0.56492244
   0.18739988  0.61744288  0.78705012
   0.06263878  0.54073273  0.38989838
   0.06307916  0.70474949  0.69839838
   0.31291827  0.54001964  0.25747303
   0.31241417  0.70811617  0.21286829
   0.56271900  0.86950555  0.16831866
   0.56070273  0.53766129  0.74241105
   0.68760966  0.45679614  0.34610949
   0.93612652  0.29125169  0.87452526
   0.56321103  0.04053192  0.25738671
   0.06317229  0.03430377  0.87450561
   0.18727538  0.79078325  0.38984334
   0.81264813  0.36904338  0.16724120
   0.18619661  0.95842607  0.83275274
   0.06281075  0.87104421  0.52115231
   0.81219879  0.86880979  0.78685062
   0.31112099  0.53612905  0.74299878
Direct configuration=     3
   0.06236946  0.03599346  0.12594247
   0.31205465  0.87195958  0.65390060
   0.18699763  0.11912715  0.78715620
   0.43774524  0.29039853  0.39010318
   0.31210784  0.70721843  0.83190890
   0.81220003  0.20752645  0.83237648
   0.31267684  0.36986074  0.16809976
   0.56260794  0.20637729  0.56511489
   0.06103497  0.03664920  0.74272432
   0.81241072  0.87176525  0.52135241
   0.18654907  0.28695481  0.74278802
   0.93753889  0.45682618  0.34596358
   0.93711445  0.29033821  0.39006963
   0.81072876  0.03821300  0.87424709
   0.18864631  0.78811259  0.60982050
   0.56237951  0.04045787  0.39012684
   0.93728244  0.95739172  0.83245953
   0.31311928  0.53735773  0.87409440
   0.68660121  0.28732518  0.74264039
   0.18804145  0.62036366  0.16819748
   0.81259530  0.20547634  0.47836813
   0.81374939  0.53822466  0.60982158
   0.31256858  0.87303895  0.43463000
   0.81320864  0.04069647  0.25733764
   0.68751871  0.95688298  0.34601965
   0.93748130  0.11992915  0.16799007
   0.93766970  0.12238358  0.52135086
   0.56308870  0.54038059  0.25745295
   0.68678290  0.78893204  0.87420750
   0.56276625  0.37038751  0.16798152
   0.43695219  0.78747963  0.74279894
   0.81279029  0.70647349  0.56511691
   0.56208856  0.86874646  0.78700829
   0.68787570  0.12223521  0.52135707
   0.81227162  0.37185759  0.65394894
   0.93613367  0.45764333  0.83214795
   0.06248318  0.20540507  0.69845536
   0.43759835  0.95555170  0.69847920
   0.31092707  0.20615377  0.83225910
   0.43727845  0.62195177  0.65395019
   0.31368437  0.53798106  0.60977067
   0.93761866  0.45639421  0.56512251
   0.68721176  0.78759141  0.74281858
   0.93776606  0.78908959  0.12611269
   0.68739813  0.79042100  0.39012595
   0.93714411  0.78732502  0.74282694
   0.06253172  0.20684047  0.34599143
   0.81247891  0.04051989  0.39011709
   0.43721585  0.11894940  0.78704997
   0.06236863  0.20740111  0.21300226
   0.06277800  0.37046854  0.16796892
   0.93853150  0.79078468  0.25736197
   0.56262070  0.20523823  0.69850538
   0.68751948  0.95545925  0.69842020
   0.43691899  0.78863937  0.12606688
   0.43742947  0.95639956  0.56508757
   0.81221554  0.36850245  0.78695301
   0.68876562  0.29080369  0.25736034
   0.18765323  0.45638649  0.56512140
   0.06313681  0.87011377  0.16807142
   0.18880462  0.28812834  0.60985406
   0.56264200  0.70666719  0.34603202
   0.31231715  0.20543856  0.69845633
   0.56215511  0.53761583  0.87402161
   0.06246848  0.70611510  0.56508734
   0.68745724  0.61842676  0.78703302
   0.31222213  0.54036211  0.39013000
   0.18808753  0.62191249  0.52139717
   0.56229538  0.87330049  0.43465878
   0.43756973  0.45661339  0.56514223
   0.43626519  0.28731885  0.74267987
   0.81259004  0.87389869  0.30149346
   0.81243975  0.70681063  0.34603823
   0.43707805  0.45633971  0.83199405
   0.68763536  0.95559856  0.47834425
   0.68755014  0.45547695  0.69845640
   0.56263534  0.87204421  0.52133907
   0.56227331  0.37160143  0.65391664
   0.81202205  0.87175775  0.65395298
   0.81245991  0.37322722  0.43467124
   0.81311605  0.54030652  0.25747861
   0.68681577  0.45620289  0.83201051
   0.18774920  0.78853941  0.12608614
   0.68740845  0.29049794  0.39007215
   0.31228893  0.37190695  0.65386046
   0.31244543  0.20688421  0.34597304
   0.81186652  0.53686939  0.74285773
   0.68639444  0.95695269  0.83225574
   0.56204440  0.87196625  0.65386780
   0.31232271  0.70646966  0.56511194
   0.31192488  0.53717292  0.12597422
   0.68755701  0.95756019  0.21306113
   0.31267636  0.20627556  0.56507044
   0.18782257  0.95589952  0.47843342
   0.68772786  0.95648168  0.56507744
   0.43870858  0.78816678  0.60979973
   0.68776123  0.61899266  0.16799055
   0.31254023  0.87359394  0.30151782
   0.31235975  0.70563757  0.47840553
   0.93876560  0.28803446  0.60989069
   0.43748547  0.62402250  0.30155414
   0.81278313  0.86972659  0.16802519
   0.56282526  0.20750952  0.21300518
   0.93775081  0.61884174  0.16797874
   0.93755641  0.78836211  0.87432404
   0.56197040  0.36867591  0.78690812
   0.06265093  0.37197475  0.52135988
   0.56273345  0.37209080  0.52134322
   0.68746124  0.12397318  0.30155473
   0.43769327  0.95605983  0.83206868
   0.18828577  0.28895583  0.12610130
   0.18877885  0.29034167  0.25737351
   0.31243736  0.37324405  0.43466117
   0.56173212  0.03604733  0.12591919
   0.43881247  0.28819926  0.60979808
   0.18751457  0.45694243  0.34606812
   0.43652129  0.28897936  0.12610689
   0.68849141  0.79055592  0.25739239
   0.43754036  0.12203867  0.52133167
   0.18861182  0.28920220  0.87441604
   0.18705765  0.12200574  0.65391921
   0.93723338  0.12189747  0.65394964
   0.31259861  0.20715635  0.21303061
   0.06233636  0.03999661  0.39008161
   0.18792164  0.11956748  0.16803706
   0.06378842  0.53771750  0.60989073
   0.93841000  0.29050548  0.25738346
   0.56385346  0.53809627  0.60984352
   0.93733700  0.95657246  0.56510632
   0.68734379  0.62412343  0.30159240
   0.93724856  0.62317320  0.43462119
   0.93702065  0.61880401  0.78702579
   0.56214497  0.70524166  0.69836776
   0.06153408  0.70878368  0.83239243
   0.93748141  0.12382174  0.30156241
   0.93884021  0.78829072  0.60978164
   0.43878725  0.79064593  0.25738189
   0.31206484  0.36854729  0.78700103
   0.43766728  0.45765701  0.21317723
   0.18760373  0.12223648  0.52136493
   0.81265573  0.70548564  0.69853577
   0.06365949  0.03778095  0.60979593
   0.56144150  0.20734268  0.83195074
   0.31293014  0.87182298  0.52136911
   0.68724703  0.28891284  0.12573834
   0.18762458  0.95762130  0.21316058
   0.68869714  0.28829682  0.60979540
   0.31388003  0.03800799  0.60992268
   0.93757766  0.11880690  0.78715701
   0.43763022  0.78921238  0.87415140
   0.81157218  0.03745071  0.74273035
   0.93759406  0.45559077  0.69849510
   0.18728015  0.62206007  0.65400389
   0.31268343  0.70517915  0.69846881
   0.93719802  0.28897355  0.12573456
   0.43759842  0.45555650  0.47833584
   0.06248029  0.70513099  0.47842842
   0.93730439  0.12349742  0.43461656
   0.43749324  0.12396199  0.30153236
   0.18731651  0.12350077  0.43460312
   0.56222124  0.03751059  0.87422276
   0.18784426  0.95665862  0.56512257
   0.68691197  0.78911582  0.12609758
   0.56182018  0.53702957  0.12589960
   0.31252978  0.04010885  0.39005738
   0.68827596  0.11974202  0.16800432
   0.81251951  0.20719416  0.21299396
   0.06289875  0.54033660  0.25737215
   0.56262263  0.70571301  0.47838929
   0.06264578  0.20611860  0.56515156
   0.56255397  0.37362506  0.30160032
   0.43744204  0.95685476  0.34602959
   0.18757006  0.95555087  0.69848392
   0.43766878  0.62031425  0.16820098
   0.93798032  0.45781425  0.21326230
   0.06212536  0.53685931  0.12586095
   0.81244995  0.37212420  0.52135768
   0.93731050  0.62413131  0.30154090
   0.31326540  0.03996865  0.25738176
   0.68877354  0.78811480  0.60982308
   0.18681642  0.45783402  0.83217461
   0.43786180  0.11962479  0.16797531
   0.31295021  0.37207983  0.52135293
   0.43751937  0.61847494  0.78703893
   0.06313834  0.04035460  0.25733523
   0.56248470  0.70646425  0.56510891
   0.93633887  0.28677808  0.74276094
   0.68699717  0.11909740  0.78705608
   0.18737167  0.45766383  0.21312866
   0.93738363  0.79058223  0.39008067
   0.68745003  0.29011012  0.87446232
   0.31281738  0.87034455  0.16813812
   0.43774839  0.45535600  0.69840924
   0.93772684  0.95691774  0.34602333
   0.68778397  0.62184673  0.52134131
   0.06205539  0.87167906  0.65387790
   0.06203695  0.86889013  0.78693209
   0.06216980  0.37176780  0.65385806
   0.68752899  0.45554560  0.47834497
   0.18823050  0.79028457  0.25740709
   0.43741472  0.12341355  0.43475511
   0.81194568  0.03699943  0.12585189
   0.93717537  0.62184814  0.52138833
   0.06231200  0.87325964  0.43494294
   0.81185692  0.53684399  0.12558034
   0.43774480  0.45672884  0.34602766