<?xml version="1.0" encoding="ISO-8859-1"?>
<modeling>
 <generator>
  <i name="program" type="string">vasp </i>
  <i name="version" type="string">5.4.4.18Apr17-6-g9f103f2a35  </i>
  <i name="subversion" type="string">(build Sep 27 2018 12:46:37) complex + VL-xray_ parallel </i>
  <i name="platform" type="string">LLNL_Quartz_ifc </i>
  <i name="date" type="string">2021 09 27 </i>
  <i name="time" type="string">01:57:35 </i>
 </generator>
 <incar>
  <i type="int" name="ISTART">     2</i>
  <i type="string" name="PREC">accurate</i>
  <i type="string" name="ALGO"> Fast</i>
  <i type="int" name="ICHARG">     2</i>
  <i type="int" name="INIWAV">     1</i>
  <i type="int" name="NELM">   100</i>
  <i type="int" name="NELMIN">     4</i>
  <i type="int" name="IBRION">     2</i>
  <i name="EDIFF">      0.00000100</i>
  <i type="int" name="NSW">     5</i>
  <i type="int" name="ISIF">     2</i>
  <i type="int" name="ISYM">     2</i>
  <i name="ENCUT">    450.00000000</i>
  <i name="POTIM">      0.25000000</i>
  <i type="string" name="LREAL"> Auto</i>
  <i type="int" name="ISMEAR">     0</i>
  <i name="SIGMA">      0.15000000</i>
  <i type="logical" name="LWAVE"> F  </i>
  <i type="logical" name="LCHARG"> F  </i>
  <i type="int" name="ICORELEVEL">     0</i>
  <i type="int" name="CLNT">     1</i>
  <i type="int" name="CLN">     1</i>
  <i type="int" name="INCAR     ">     0</i>
  <i name="CLZ">      0.00000000</i>
  <v type="int" name="KPOINT_BSE">    -1     0     0     0</v>
  <i type="int" name="NELM">   100</i>
 </incar>
 <structure name="primitive_cell" >
  <crystal>
   <varray name="basis" >
    <v>       9.72667804       0.00000000       0.00000000 </v>
    <v>       0.00000000       8.42355028       0.00000000 </v>
    <v>       0.00000000       0.00000000      45.00000000 </v>
   </varray>
   <i name="volume">   3686.99226691 </i>
   <varray name="rec_basis" >
    <v>       0.10281002       0.00000000       0.00000000 </v>
    <v>       0.00000000       0.11871479       0.00000000 </v>
    <v>       0.00000000       0.00000000       0.02222222 </v>
   </varray>
  </crystal>
  <varray name="positions" >
   <v>       0.06337974       0.03069467       0.12408631 </v>
   <v>       0.18227300       0.11267632       0.16639315 </v>
   <v>       0.18613664      -0.21160155       0.12384425 </v>
   <v>       0.05710433      -0.13658717       0.16666788 </v>
   <v>      -0.06541046      -0.21228609       0.12447451 </v>
   <v>       0.31137389       0.03001386       0.12406679 </v>
   <v>      -0.06949297       0.11539226       0.16670598 </v>
   <v>      -0.18810805       0.03117114       0.12409250 </v>
   <v>       0.18590188       0.28579492       0.12438772 </v>
   <v>      -0.06449302       0.28825907       0.12413627 </v>
   <v>       0.30510411      -0.13532159       0.16571068 </v>
   <v>       0.05554537       0.36489551       0.16646370 </v>
   <v>      -0.19305735      -0.13659567       0.16671412 </v>
   <v>       0.43208016       0.11248048       0.16666212 </v>
   <v>       0.30723341       0.36364675       0.16677908 </v>
   <v>      -0.05876959      -0.04659963       0.21128523 </v>
   <v>       0.43410726      -0.21385821       0.12427367 </v>
   <v>       0.18353098      -0.38654929       0.16671518 </v>
   <v>       0.06444632       0.20388441       0.21118678 </v>
   <v>       0.19016982      -0.04568229       0.21184473 </v>
   <v>      -0.19325745       0.36372222       0.16596894 </v>
   <v>       0.06132416      -0.46833088       0.12425806 </v>
   <v>      -0.06711846      -0.38780886       0.16648360 </v>
   <v>      -0.31508874      -0.21177264       0.12420912 </v>
   <v>       0.43575905       0.28742315       0.12406882 </v>
   <v>      -0.31709749       0.11484628       0.16674584 </v>
   <v>      -0.31469926       0.28620037       0.12418905 </v>
   <v>       0.06813932      -0.29656604       0.21147499 </v>
   <v>      -0.18359129       0.20339110       0.21116853 </v>
   <v>      -0.18563135      -0.47026009       0.12380519 </v>
   <v>      -0.43712331       0.03137336       0.12416350 </v>
   <v>       0.31580545       0.20534366       0.21133471 </v>
   <v>       0.31397513      -0.46851549       0.12414008 </v>
   <v>       0.43015919      -0.38407271       0.16653971 </v>
   <v>      -0.44293015      -0.13674603       0.16668850 </v>
   <v>      -0.18484927      -0.29644219       0.21136785 </v>
   <v>      -0.31000587      -0.04624428       0.21143859 </v>
   <v>       0.31411548      -0.29712399       0.21220274 </v>
   <v>       0.44189746      -0.04462753       0.21189791 </v>
   <v>      -0.05973978       0.45286893       0.21162042 </v>
   <v>       0.19108069       0.45364791       0.21126012 </v>
   <v>      -0.31795558      -0.38636431       0.16674211 </v>
   <v>      -0.44395779       0.36517043       0.16659413 </v>
   <v>       0.05887383       0.03747865       0.25579475 </v>
   <v>       0.18348599      -0.21257705       0.25553856 </v>
   <v>      -0.06632854      -0.21250535       0.25546841 </v>
   <v>       0.30943344       0.03704696       0.25559843 </v>
   <v>      -0.43404718       0.20357823       0.21124722 </v>
   <v>       0.18358858       0.28747285       0.25585047 </v>
   <v>      -0.19019916       0.03784218       0.25602801 </v>
   <v>      -0.43686152      -0.46964746       0.12417715 </v>
   <v>      -0.06566826       0.28796173       0.25592604 </v>
   <v>      -0.31040804       0.45392712       0.21185003 </v>
   <v>       0.44004943       0.45369460       0.21143899 </v>
   <v>      -0.43110857      -0.29602297       0.21183145 </v>
   <v>       0.43294170      -0.21265020       0.25564774 </v>
   <v>       0.05864822      -0.46266390       0.25578027 </v>
   <v>       0.43380865       0.28740713       0.25576073 </v>
   <v>      -0.31620944      -0.21258667       0.25579449 </v>
   <v>      -0.31624444       0.28716110       0.25594485 </v>
   <v>       0.30844497      -0.46285792       0.25552475 </v>
   <v>      -0.43939189       0.03714672       0.25559768 </v>
   <v>      -0.19138940      -0.46280707       0.25586312 </v>
   <v>       0.07081320      -0.12722009       0.30011289 </v>
   <v>      -0.05508904       0.12262323       0.30003221 </v>
   <v>       0.19472333       0.12364585       0.30008865 </v>
   <v>      -0.17897957      -0.12672907       0.30021897 </v>
   <v>       0.32009396      -0.12742175       0.30008782 </v>
   <v>       0.06994577       0.37333168       0.30011369 </v>
   <v>      -0.44219548      -0.46233388       0.25552490 </v>
   <v>      -0.05511137      -0.37590913       0.29988790 </v>
   <v>      -0.30450317       0.12328577       0.30022897 </v>
   <v>       0.19496557      -0.37690662       0.30036535 </v>
   <v>      -0.17962648       0.37282163       0.30005318 </v>
   <v>       0.32025856       0.37203182       0.30014217 </v>
   <v>       0.44440237       0.12333031       0.30039464 </v>
   <v>      -0.30530430      -0.37559178       0.30007847 </v>
   <v>      -0.42932685      -0.12697540       0.30025950 </v>
   <v>       0.44608676      -0.37622087       0.30015130 </v>
   <v>      -0.43026599       0.37172817       0.30007446 </v>
   <v>       0.18356633      -0.04759446       0.34493365 </v>
   <v>      -0.06626932      -0.04859947       0.34482648 </v>
   <v>       0.05866714       0.20280358       0.34494541 </v>
   <v>       0.05841771      -0.29818292       0.34482283 </v>
   <v>       0.30901192       0.20261144       0.34470378 </v>
   <v>      -0.19125446       0.20248470       0.34496024 </v>
   <v>       0.30892718      -0.29819145       0.34483196 </v>
   <v>       0.43357740      -0.04754061       0.34487467 </v>
   <v>      -0.19151699      -0.29744494       0.34493056 </v>
   <v>      -0.31695968      -0.04793172       0.34472759 </v>
   <v>       0.18373527       0.45261027       0.34491666 </v>
   <v>      -0.06628609       0.45239009       0.34480944 </v>
   <v>      -0.44112752       0.20265625       0.34478715 </v>
   <v>       0.43399728       0.45261479       0.34500122 </v>
   <v>       0.06532879       0.03897480      -0.12423969 </v>
   <v>      -0.31628492       0.45239905       0.34497264 </v>
   <v>      -0.44114799      -0.29782700       0.34490787 </v>
   <v>       0.18773883      -0.20267749      -0.12394644 </v>
   <v>      -0.06299597      -0.20457015      -0.12444104 </v>
   <v>       0.31435466       0.04098497      -0.12412730 </v>
   <v>      -0.18721579       0.04076530      -0.12419768 </v>
   <v>       0.18846646       0.29669517      -0.12382762 </v>
   <v>      -0.06517549       0.29783714      -0.12442727 </v>
   <v>       0.43642706      -0.20217572      -0.12380104 </v>
   <v>       0.06330836      -0.45929438      -0.12414177 </v>
   <v>      -0.31529806      -0.20222539      -0.12404853 </v>
   <v>       0.06665692       0.03800852       0.38907599 </v>
   <v>       0.43664393       0.29812268      -0.12364981 </v>
   <v>      -0.31452175       0.29905355      -0.12398143 </v>
   <v>       0.31330631      -0.45940933      -0.12394161 </v>
   <v>      -0.05876576      -0.21239122       0.38888140 </v>
   <v>       0.19311312      -0.21249625       0.38889255 </v>
   <v>      -0.18783236      -0.45969205      -0.12415182 </v>
   <v>      -0.18199236       0.03926733       0.38906804 </v>
   <v>       0.31627240       0.03697890       0.38882464 </v>
   <v>      -0.05904800       0.28655550       0.38893336 </v>
   <v>      -0.43725088       0.04064667      -0.12394725 </v>
   <v>       0.19108501       0.28755570       0.38897213 </v>
   <v>      -0.30833136      -0.21226443       0.38900302 </v>
   <v>       0.06731277      -0.46144914       0.38907905 </v>
   <v>      -0.30874909       0.28740910       0.38898431 </v>
   <v>       0.44148866      -0.21231072       0.38911318 </v>
   <v>       0.44141921       0.28743627       0.38909732 </v>
   <v>      -0.18391862      -0.46227174       0.38900591 </v>
   <v>      -0.43758825      -0.45921895      -0.12401479 </v>
   <v>       0.31601892      -0.46177608       0.38891064 </v>
   <v>      -0.43352879       0.03781788       0.38904536 </v>
   <v>      -0.05744519      -0.03501092      -0.16609599 </v>
   <v>       0.19156666      -0.03672467      -0.16641103 </v>
   <v>       0.06676711       0.21512424      -0.16599462 </v>
   <v>       0.06608808      -0.28319152      -0.16607448 </v>
   <v>      -0.18184277       0.21506220      -0.16638100 </v>
   <v>       0.31693027       0.21282012      -0.16655907 </v>
   <v>      -0.43365905      -0.46234560       0.38905963 </v>
   <v>      -0.18288441      -0.28464422      -0.16663660 </v>
   <v>      -0.30840470      -0.03761333      -0.16649574 </v>
   <v>       0.31805986      -0.28615937      -0.16680089 </v>
   <v>       0.44279260      -0.03693386      -0.16667813 </v>
   <v>      -0.05775453       0.46423521      -0.16624305 </v>
   <v>       0.19159358       0.46322897      -0.16649847 </v>
   <v>       0.06211345      -0.12898136       0.43443922 </v>
   <v>       0.18693948       0.12080117       0.43428478 </v>
   <v>      -0.43395157       0.21355529      -0.16676303 </v>
   <v>      -0.06313156       0.11997108       0.43451372 </v>
   <v>      -0.30794611       0.46223141      -0.16670217 </v>
   <v>       0.44232790       0.46283132      -0.16662349 </v>
   <v>      -0.43374880      -0.28643266      -0.16667270 </v>
   <v>      -0.18848823      -0.12893763       0.43422704 </v>
   <v>       0.31188655      -0.12933861       0.43445439 </v>
   <v>       0.06296196       0.37177289       0.43426995 </v>
   <v>       0.18703754      -0.37986512       0.43447888 </v>
   <v>      -0.06247188      -0.37949501       0.43446208 </v>
   <v>       0.43688606       0.12089594       0.43430535 </v>
   <v>      -0.31251887       0.12014008       0.43431567 </v>
   <v>      -0.18833969       0.37144739       0.43420736 </v>
   <v>       0.31247240       0.37040230       0.43445575 </v>
   <v>       0.43656592      -0.37871230       0.43436416 </v>
   <v>      -0.31201891      -0.37940547       0.43445627 </v>
   <v>      -0.43732488      -0.12959595       0.43443251 </v>
   <v>      -0.43793352       0.37103700       0.43441901 </v>
   <v>       0.18367015       0.12307553      -0.21135491 </v>
   <v>       0.05904950      -0.12604896      -0.21153619 </v>
   <v>      -0.06602097       0.12456612      -0.21137739 </v>
   <v>       0.31022382      -0.12684991      -0.21155602 </v>
   <v>      -0.19122808      -0.12617630      -0.21163130 </v>
   <v>       0.05887732       0.37488255      -0.21155752 </v>
   <v>       0.43371859       0.12291991      -0.21101247 </v>
   <v>       0.18438375      -0.37726836      -0.21150800 </v>
   <v>      -0.06690637      -0.37552774      -0.21165991 </v>
   <v>       0.30890686       0.37361164      -0.21125247 </v>
   <v>      -0.31763115       0.12279182      -0.21142518 </v>
   <v>      -0.19106277       0.37484278      -0.21149965 </v>
   <v>       0.43301786      -0.37700412      -0.21105760 </v>
   <v>      -0.44095619      -0.12643087      -0.21140312 </v>
   <v>      -0.31708395      -0.37736203      -0.21142526 </v>
   <v>       0.18736831      -0.04404949       0.47866365 </v>
   <v>      -0.06261207      -0.04456828       0.47870756 </v>
   <v>       0.06250366       0.20581385       0.47864436 </v>
   <v>      -0.44101994       0.37324339      -0.21127937 </v>
   <v>       0.06231716      -0.29401468       0.47857447 </v>
   <v>       0.31243727       0.20581527       0.47873213 </v>
   <v>      -0.18779635       0.20585596       0.47868765 </v>
   <v>       0.31220512      -0.29419231       0.47864296 </v>
   <v>      -0.18751064      -0.29423279       0.47864510 </v>
   <v>       0.43728016      -0.04414114       0.47866649 </v>
   <v>      -0.31264721      -0.04401364       0.47866913 </v>
   <v>       0.18733778       0.45583921       0.47868143 </v>
   <v>      -0.06267419       0.45574579       0.47865600 </v>
   <v>      -0.43792152       0.20564238       0.47868791 </v>
   <v>       0.43742223       0.45603310       0.47855205 </v>
   <v>      -0.31280202       0.45582184       0.47864990 </v>
   <v>      -0.43757367      -0.29425313       0.47868795 </v>
   <v>       0.06558573       0.04029491      -0.25583887 </v>
   <v>      -0.05955894      -0.20899762      -0.25548287 </v>
   <v>       0.18965391      -0.20838001      -0.25559438 </v>
   <v>      -0.06013690       0.29044191      -0.25550503 </v>
   <v>      -0.18443740       0.04075064      -0.25577635 </v>
   <v>       0.19055264       0.29112680      -0.25562894 </v>
   <v>       0.31504602       0.04159326      -0.25590100 </v>
   <v>       0.06534828      -0.45901567      -0.25564680 </v>
   <v>       0.43954224      -0.20798128      -0.25557282 </v>
   <v>      -0.30983597      -0.20829288      -0.25572105 </v>
   <v>      -0.30989101       0.29154179      -0.25575141 </v>
   <v>       0.43979204       0.29176178      -0.25568894 </v>
   <v>       0.31531644      -0.45844335      -0.25571174 </v>
   <v>      -0.18437575      -0.45969846      -0.25579214 </v>
   <v>      -0.43460049       0.04138297      -0.25576115 </v>
   <v>       0.06179609      -0.12806888      -0.47860221 </v>
   <v>       0.18689155       0.12188515      -0.47863158 </v>
   <v>      -0.06357440       0.12180339      -0.47845460 </v>
   <v>       0.31176639      -0.12814674      -0.47860807 </v>
   <v>      -0.18838792      -0.12854241      -0.47862388 </v>
   <v>       0.06155798       0.37245606      -0.47861444 </v>
   <v>      -0.43484547      -0.45857338      -0.25591045 </v>
   <v>       0.18688805      -0.37835841      -0.47853444 </v>
   <v>      -0.06327417      -0.37798369      -0.47856703 </v>
   <v>       0.43681847       0.12170563      -0.47852478 </v>
   <v>      -0.31331063       0.12189511      -0.47859476 </v>
   <v>       0.31157650       0.37203154      -0.47860996 </v>
   <v>      -0.18817619       0.37213316      -0.47863071 </v>
   <v>       0.43657776      -0.37786442      -0.47863147 </v>
   <v>      -0.31344216      -0.37852577      -0.47866888 </v>
   <v>      -0.43806315      -0.12776690      -0.47854035 </v>
   <v>      -0.43833486       0.37196591      -0.47857580 </v>
   <v>       0.18504613      -0.04259316      -0.30021022 </v>
   <v>      -0.06474750      -0.04191019      -0.30034124 </v>
   <v>       0.06048889       0.20760351      -0.30027151 </v>
   <v>       0.06069447      -0.29248429      -0.30030486 </v>
   <v>       0.31049942       0.20704634      -0.30017577 </v>
   <v>      -0.18933738       0.20742797      -0.30018449 </v>
   <v>       0.31033191      -0.29307581      -0.30024301 </v>
   <v>      -0.18990489      -0.29283426      -0.30025593 </v>
   <v>       0.43528663      -0.04250092      -0.30027686 </v>
   <v>      -0.31487160      -0.04297568      -0.30020762 </v>
   <v>       0.18513793       0.45773532      -0.30032220 </v>
   <v>      -0.06481681       0.45798408      -0.30036617 </v>
   <v>      -0.43966145       0.20696509      -0.30019175 </v>
   <v>       0.43543594       0.45742616      -0.30026212 </v>
   <v>      -0.31541769       0.45751500      -0.30019438 </v>
   <v>      -0.43954601      -0.29281196      -0.30023895 </v>
   <v>       0.18679869      -0.04293058      -0.43449776 </v>
   <v>      -0.06331297      -0.04270534      -0.43447128 </v>
   <v>       0.06215400       0.20697062      -0.43462033 </v>
   <v>       0.06179761      -0.29335901      -0.43446279 </v>
   <v>       0.31131887       0.20651820      -0.43449164 </v>
   <v>      -0.18875336       0.20705343      -0.43454452 </v>
   <v>       0.31126137      -0.29301368      -0.43447127 </v>
   <v>       0.43668029      -0.04282206      -0.43458572 </v>
   <v>      -0.18874422      -0.29351309      -0.43452289 </v>
   <v>      -0.31271334      -0.04312303      -0.43449266 </v>
   <v>       0.18727325       0.45702152      -0.43449323 </v>
   <v>      -0.06356314       0.45641493      -0.43438637 </v>
   <v>      -0.43793537       0.20702237      -0.43446516 </v>
   <v>      -0.31340760       0.45696587      -0.43461608 </v>
   <v>       0.43658759       0.45688237      -0.43442486 </v>
   <v>      -0.43774925      -0.29298520      -0.43445547 </v>
   <v>       0.06623850      -0.12543359      -0.34505292 </v>
   <v>       0.19113196       0.12494442      -0.34482616 </v>
   <v>      -0.05892724       0.12484478      -0.34501324 </v>
   <v>      -0.18394116      -0.12511696      -0.34493324 </v>
   <v>       0.31624247      -0.12555980      -0.34499827 </v>
   <v>       0.06625900       0.37447159      -0.34503180 </v>
   <v>       0.19109851      -0.37493844      -0.34494155 </v>
   <v>      -0.05875887      -0.37499525      -0.34509914 </v>
   <v>      -0.30887059       0.12481972      -0.34499321 </v>
   <v>      -0.18387390       0.37486478      -0.34497530 </v>
   <v>       0.44138487       0.12441659      -0.34507246 </v>
   <v>       0.31583108       0.37388226      -0.34500509 </v>
   <v>      -0.30896968      -0.37500832      -0.34478798 </v>
   <v>      -0.43405292      -0.12595866      -0.34502300 </v>
   <v>       0.44116553      -0.37524585      -0.34501612 </v>
   <v>      -0.43401959       0.37431969      -0.34502108 </v>
   <v>       0.05871492       0.03794135      -0.38911232 </v>
   <v>       0.18379992      -0.21202493      -0.38907020 </v>
   <v>      -0.06629989      -0.21242389      -0.38909459 </v>
   <v>       0.30890292       0.03834676      -0.38896504 </v>
   <v>      -0.06633517       0.28785460      -0.38912131 </v>
   <v>      -0.19093846       0.03838424      -0.38899902 </v>
   <v>       0.18411959       0.28853878      -0.38895329 </v>
   <v>       0.43407255      -0.21164418      -0.38904017 </v>
   <v>       0.05864536      -0.46194266      -0.38901723 </v>
   <v>       0.43403070       0.28838817      -0.38901966 </v>
   <v>      -0.31609051      -0.21186498      -0.38905022 </v>
   <v>      -0.31610298       0.28852512      -0.38896614 </v>
   <v>       0.30900775      -0.46170750      -0.38900304 </v>
   <v>      -0.19092036      -0.46155740      -0.38894600 </v>
   <v>      -0.44081033       0.03855971      -0.38889090 </v>
   <v>      -0.44125966      -0.46173806      -0.38902722 </v>
  </varray>
 </structure>
 <varray name="primitive_index" >
  <v type="int" >        1 </v>
  <v type="int" >      125 </v>
  <v type="int" >       83 </v>
  <v type="int" >       60 </v>
  <v type="int" >       44 </v>
  <v type="int" >      256 </v>
  <v type="int" >       26 </v>
  <v type="int" >      202 </v>
  <v type="int" >      111 </v>
  <v type="int" >      283 </v>
  <v type="int" >      277 </v>
  <v type="int" >       51 </v>
  <v type="int" >      102 </v>
  <v type="int" >      182 </v>
  <v type="int" >      108 </v>
  <v type="int" >      212 </v>
  <v type="int" >      170 </v>
  <v type="int" >       20 </v>
  <v type="int" >       50 </v>
  <v type="int" >      146 </v>
  <v type="int" >      284 </v>
  <v type="int" >      176 </v>
  <v type="int" >      104 </v>
  <v type="int" >      163 </v>
  <v type="int" >      117 </v>
  <v type="int" >      166 </v>
  <v type="int" >      145 </v>
  <v type="int" >      250 </v>
  <v type="int" >      167 </v>
  <v type="int" >      205 </v>
  <v type="int" >      114 </v>
  <v type="int" >      249 </v>
  <v type="int" >       91 </v>
  <v type="int" >      174 </v>
  <v type="int" >      192 </v>
  <v type="int" >      213 </v>
  <v type="int" >       92 </v>
  <v type="int" >      276 </v>
  <v type="int" >      229 </v>
  <v type="int" >      175 </v>
  <v type="int" >      189 </v>
  <v type="int" >       97 </v>
  <v type="int" >       30 </v>
  <v type="int" >      185 </v>
  <v type="int" >      200 </v>
  <v type="int" >       52 </v>
  <v type="int" >      179 </v>
  <v type="int" >      103 </v>
  <v type="int" >      112 </v>
  <v type="int" >       24 </v>
  <v type="int" >      155 </v>
  <v type="int" >      127 </v>
  <v type="int" >      261 </v>
  <v type="int" >      139 </v>
  <v type="int" >      288 </v>
  <v type="int" >      137 </v>
  <v type="int" >      168 </v>
  <v type="int" >      265 </v>
  <v type="int" >      118 </v>
  <v type="int" >       58 </v>
  <v type="int" >      275 </v>
  <v type="int" >      221 </v>
  <v type="int" >       81 </v>
  <v type="int" >      214 </v>
  <v type="int" >      135 </v>
  <v type="int" >      215 </v>
  <v type="int" >       72 </v>
  <v type="int" >       98 </v>
  <v type="int" >      226 </v>
  <v type="int" >       28 </v>
  <v type="int" >      178 </v>
  <v type="int" >      109 </v>
  <v type="int" >      263 </v>
  <v type="int" >      220 </v>
  <v type="int" >      242 </v>
  <v type="int" >      159 </v>
  <v type="int" >      130 </v>
  <v type="int" >      210 </v>
  <v type="int" >      101 </v>
  <v type="int" >      171 </v>
  <v type="int" >      258 </v>
  <v type="int" >      194 </v>
  <v type="int" >       47 </v>
  <v type="int" >      216 </v>
  <v type="int" >       86 </v>
  <v type="int" >      207 </v>
  <v type="int" >      208 </v>
  <v type="int" >      172 </v>
  <v type="int" >       73 </v>
  <v type="int" >       25 </v>
  <v type="int" >      116 </v>
  <v type="int" >       12 </v>
  <v type="int" >      219 </v>
  <v type="int" >      206 </v>
  <v type="int" >      282 </v>
  <v type="int" >       48 </v>
  <v type="int" >      164 </v>
  <v type="int" >      268 </v>
  <v type="int" >      281 </v>
  <v type="int" >      245 </v>
  <v type="int" >       14 </v>
  <v type="int" >      120 </v>
  <v type="int" >      280 </v>
  <v type="int" >      150 </v>
  <v type="int" >      266 </v>
  <v type="int" >       29 </v>
  <v type="int" >      124 </v>
  <v type="int" >      255 </v>
  <v type="int" >      191 </v>
  <v type="int" >       18 </v>
  <v type="int" >      190 </v>
  <v type="int" >      287 </v>
  <v type="int" >      231 </v>
  <v type="int" >      279 </v>
  <v type="int" >      165 </v>
  <v type="int" >       13 </v>
  <v type="int" >      161 </v>
  <v type="int" >      248 </v>
  <v type="int" >       45 </v>
  <v type="int" >      273 </v>
  <v type="int" >       84 </v>
  <v type="int" >      264 </v>
  <v type="int" >        4 </v>
  <v type="int" >      123 </v>
  <v type="int" >       64 </v>
  <v type="int" >       67 </v>
  <v type="int" >       16 </v>
  <v type="int" >       17 </v>
  <v type="int" >        7 </v>
  <v type="int" >      259 </v>
  <v type="int" >      134 </v>
  <v type="int" >        6 </v>
  <v type="int" >       39 </v>
  <v type="int" >      222 </v>
  <v type="int" >      253 </v>
  <v type="int" >       88 </v>
  <v type="int" >        5 </v>
  <v type="int" >      110 </v>
  <v type="int" >       36 </v>
  <v type="int" >      181 </v>
  <v type="int" >      285 </v>
  <v type="int" >      160 </v>
  <v type="int" >      143 </v>
  <v type="int" >      158 </v>
  <v type="int" >       82 </v>
  <v type="int" >       74 </v>
  <v type="int" >      241 </v>
  <v type="int" >      235 </v>
  <v type="int" >       23 </v>
  <v type="int" >      218 </v>
  <v type="int" >      238 </v>
  <v type="int" >      131 </v>
  <v type="int" >      201 </v>
  <v type="int" >      257 </v>
  <v type="int" >       80 </v>
  <v type="int" >      113 </v>
  <v type="int" >      278 </v>
  <v type="int" >      232 </v>
  <v type="int" >       69 </v>
  <v type="int" >      251 </v>
  <v type="int" >        3 </v>
  <v type="int" >      197 </v>
  <v type="int" >      149 </v>
  <v type="int" >      224 </v>
  <v type="int" >       55 </v>
  <v type="int" >      254 </v>
  <v type="int" >       49 </v>
  <v type="int" >      272 </v>
  <v type="int" >      132 </v>
  <v type="int" >      138 </v>
  <v type="int" >      188 </v>
  <v type="int" >       57 </v>
  <v type="int" >      184 </v>
  <v type="int" >       33 </v>
  <v type="int" >       66 </v>
  <v type="int" >       94 </v>
  <v type="int" >      236 </v>
  <v type="int" >      223 </v>
  <v type="int" >      106 </v>
  <v type="int" >      157 </v>
  <v type="int" >      230 </v>
  <v type="int" >       21 </v>
  <v type="int" >       99 </v>
  <v type="int" >      234 </v>
  <v type="int" >      105 </v>
  <v type="int" >       75 </v>
  <v type="int" >      244 </v>
  <v type="int" >      269 </v>
  <v type="int" >      237 </v>
  <v type="int" >      156 </v>
  <v type="int" >      199 </v>
  <v type="int" >      169 </v>
  <v type="int" >        9 </v>
  <v type="int" >       46 </v>
  <v type="int" >      262 </v>
  <v type="int" >      187 </v>
  <v type="int" >      151 </v>
  <v type="int" >       11 </v>
  <v type="int" >      239 </v>
  <v type="int" >      211 </v>
  <v type="int" >       31 </v>
  <v type="int" >       43 </v>
  <v type="int" >       19 </v>
  <v type="int" >       71 </v>
  <v type="int" >      243 </v>
  <v type="int" >       87 </v>
  <v type="int" >      267 </v>
  <v type="int" >       27 </v>
  <v type="int" >      140 </v>
  <v type="int" >      286 </v>
  <v type="int" >      144 </v>
  <v type="int" >       10 </v>
  <v type="int" >      107 </v>
  <v type="int" >      270 </v>
  <v type="int" >       68 </v>
  <v type="int" >      203 </v>
  <v type="int" >      119 </v>
  <v type="int" >       34 </v>
  <v type="int" >      183 </v>
  <v type="int" >      177 </v>
  <v type="int" >      252 </v>
  <v type="int" >      195 </v>
  <v type="int" >       77 </v>
  <v type="int" >      247 </v>
  <v type="int" >      173 </v>
  <v type="int" >      225 </v>
  <v type="int" >       37 </v>
  <v type="int" >      274 </v>
  <v type="int" >       63 </v>
  <v type="int" >      233 </v>
  <v type="int" >      154 </v>
  <v type="int" >      141 </v>
  <v type="int" >       38 </v>
  <v type="int" >       54 </v>
  <v type="int" >      246 </v>
  <v type="int" >      152 </v>
  <v type="int" >       53 </v>
  <v type="int" >      193 </v>
  <v type="int" >       76 </v>
  <v type="int" >      133 </v>
  <v type="int" >      162 </v>
  <v type="int" >      129 </v>
  <v type="int" >       62 </v>
  <v type="int" >       65 </v>
  <v type="int" >       93 </v>
  <v type="int" >      271 </v>
  <v type="int" >       90 </v>
  <v type="int" >       56 </v>
  <v type="int" >       32 </v>
  <v type="int" >       95 </v>
  <v type="int" >       59 </v>
  <v type="int" >       42 </v>
  <v type="int" >        8 </v>
  <v type="int" >      228 </v>
  <v type="int" >       70 </v>
  <v type="int" >      186 </v>
  <v type="int" >      196 </v>
  <v type="int" >      121 </v>
  <v type="int" >      122 </v>
  <v type="int" >       79 </v>
  <v type="int" >        2 </v>
  <v type="int" >      198 </v>
  <v type="int" >      153 </v>
  <v type="int" >      240 </v>
  <v type="int" >      209 </v>
  <v type="int" >       35 </v>
  <v type="int" >      204 </v>
  <v type="int" >       85 </v>
  <v type="int" >      227 </v>
  <v type="int" >       89 </v>
  <v type="int" >       40 </v>
  <v type="int" >       78 </v>
  <v type="int" >      142 </v>
  <v type="int" >       15 </v>
  <v type="int" >      136 </v>
  <v type="int" >      148 </v>
  <v type="int" >      100 </v>
  <v type="int" >      217 </v>
  <v type="int" >       61 </v>
  <v type="int" >       96 </v>
  <v type="int" >      126 </v>
  <v type="int" >      115 </v>
  <v type="int" >      180 </v>
  <v type="int" >      147 </v>
  <v type="int" >       41 </v>
  <v type="int" >       22 </v>
  <v type="int" >      260 </v>
  <v type="int" >      128 </v>
 </varray>
 <kpoints>
  <generation param="Gamma">
   <v type="int" name="divisions">       4        4        1 </v>
   <v name="usershift">      0.00000000       0.00000000       0.00000000 </v>
   <v name="genvec1">      0.25000000       0.00000000       0.00000000 </v>
   <v name="genvec2">      0.00000000       0.25000000       0.00000000 </v>
   <v name="genvec3">      0.00000000       0.00000000       1.00000000 </v>
   <v name="shift">      0.00000000       0.00000000       0.00000000 </v>
  </generation>
  <varray name="kpointlist" >
   <v>       0.00000000       0.00000000       0.00000000 </v>
   <v>       0.25000000       0.00000000       0.00000000 </v>
   <v>       0.50000000       0.00000000       0.00000000 </v>
   <v>       0.00000000       0.25000000       0.00000000 </v>
   <v>       0.25000000       0.25000000       0.00000000 </v>
   <v>       0.50000000       0.25000000       0.00000000 </v>
   <v>      -0.25000000       0.25000000       0.00000000 </v>
   <v>       0.00000000       0.50000000       0.00000000 </v>
   <v>       0.25000000       0.50000000       0.00000000 </v>
   <v>       0.50000000       0.50000000       0.00000000 </v>
  </varray>
  <varray name="weights" >
   <v>       0.06250000 </v>
   <v>       0.12500000 </v>
   <v>       0.06250000 </v>
   <v>       0.12500000 </v>
   <v>       0.12500000 </v>
   <v>       0.12500000 </v>
   <v>       0.12500000 </v>
   <v>       0.06250000 </v>
   <v>       0.12500000 </v>
   <v>       0.06250000 </v>
  </varray>
 </kpoints>
 <parameters>
  <separator name="general" >
   <i type="string" name="SYSTEM">unknown system</i>
   <i type="logical" name="LCOMPAT"> F  </i>
  </separator>
  <separator name="electronic" >
   <i type="string" name="PREC">accura</i>
   <i name="ENMAX">    450.00000000</i>
   <i name="ENAUG">    838.43500000</i>
   <i name="EDIFF">      0.00000100</i>
   <i type="int" name="IALGO">    68</i>
   <i type="int" name="IWAVPR">    11</i>
   <i type="int" name="NBANDS">  1386</i>
   <i name="NELECT">   2290.00000000</i>
   <i type="int" name="TURBO">     0</i>
   <i type="int" name="IRESTART">     0</i>
   <i type="int" name="NREBOOT">     0</i>
   <i type="int" name="NMIN">     0</i>
   <i name="EREF">      0.00000000</i>
   <separator name="electronic smearing" >
    <i type="int" name="ISMEAR">     0</i>
    <i name="SIGMA">      0.15000000</i>
    <i name="KSPACING">      0.50000000</i>
    <i type="logical" name="KGAMMA"> T  </i>
   </separator>
   <separator name="electronic projectors" >
    <i type="logical" name="LREAL"> T  </i>
    <v name="ROPT">     -0.00025000     -0.00025000</v>
    <i type="int" name="LMAXPAW">  -100</i>
    <i type="int" name="LMAXMIX">     2</i>
    <i type="logical" name="NLSPLINE"> F  </i>
   </separator>
   <separator name="electronic startup" >
    <i type="int" name="ISTART">     0</i>
    <i type="int" name="ICHARG">     2</i>
    <i type="int" name="INIWAV">     1</i>
   </separator>
   <separator name="electronic spin" >
    <i type="int" name="ISPIN">     1</i>
    <i type="logical" name="LNONCOLLINEAR"> F  </i>
    <v name="MAGMOM">      1.00000000      1.00000000      1.00000000      1.00000000      1.00000000      1.00000000      1.00000000      1.00000000      1.00000000      1.00000000      1.00000000      1.00000000      1.00000000      1.00000000      1.00000000      1.00000000      1.00000000      1.00000000      1.00000000      1.00000000
      1.00000000      1.00000000      1.00000000      1.00000000      1.00000000      1.00000000      1.00000000      1.00000000      1.00000000      1.00000000      1.00000000      1.00000000      1.00000000      1.00000000      1.00000000      1.00000000      1.00000000      1.00000000      1.00000000      1.00000000
      1.00000000      1.00000000      1.00000000      1.00000000      1.00000000      1.00000000      1.00000000      1.00000000      1.00000000      1.00000000      1.00000000      1.00000000      1.00000000      1.00000000      1.00000000      1.00000000      1.00000000      1.00000000      1.00000000      1.00000000
      1.00000000      1.00000000      1.00000000      1.00000000      1.00000000      1.00000000      1.00000000      1.00000000      1.00000000      1.00000000      1.00000000      1.00000000      1.00000000      1.00000000      1.00000000      1.00000000      1.00000000      1.00000000      1.00000000      1.00000000
      1.00000000      1.00000000      1.00000000      1.00000000      1.00000000      1.00000000      1.00000000      1.00000000      1.00000000      1.00000000      1.00000000      1.00000000      1.00000000      1.00000000      1.00000000      1.00000000      1.00000000      1.00000000      1.00000000      1.00000000
      1.00000000      1.00000000      1.00000000      1.00000000      1.00000000      1.00000000      1.00000000      1.00000000      1.00000000      1.00000000      1.00000000      1.00000000      1.00000000      1.00000000      1.00000000      1.00000000      1.00000000      1.00000000      1.00000000      1.00000000
      1.00000000      1.00000000      1.00000000      1.00000000      1.00000000      1.00000000      1.00000000      1.00000000      1.00000000      1.00000000      1.00000000      1.00000000      1.00000000      1.00000000      1.00000000      1.00000000      1.00000000      1.00000000      1.00000000      1.00000000
      1.00000000      1.00000000      1.00000000      1.00000000      1.00000000      1.00000000      1.00000000      1.00000000      1.00000000      1.00000000      1.00000000      1.00000000      1.00000000      1.00000000      1.00000000      1.00000000      1.00000000      1.00000000      1.00000000      1.00000000
      1.00000000      1.00000000      1.00000000      1.00000000      1.00000000      1.00000000      1.00000000      1.00000000      1.00000000      1.00000000      1.00000000      1.00000000      1.00000000      1.00000000      1.00000000      1.00000000      1.00000000      1.00000000      1.00000000      1.00000000
      1.00000000      1.00000000      1.00000000      1.00000000      1.00000000      1.00000000      1.00000000      1.00000000      1.00000000      1.00000000      1.00000000      1.00000000      1.00000000      1.00000000      1.00000000      1.00000000      1.00000000      1.00000000      1.00000000      1.00000000
      1.00000000      1.00000000      1.00000000      1.00000000      1.00000000      1.00000000      1.00000000      1.00000000      1.00000000      1.00000000      1.00000000      1.00000000      1.00000000      1.00000000      1.00000000      1.00000000      1.00000000      1.00000000      1.00000000      1.00000000
      1.00000000      1.00000000      1.00000000      1.00000000      1.00000000      1.00000000      1.00000000      1.00000000      1.00000000      1.00000000      1.00000000      1.00000000      1.00000000      1.00000000      1.00000000      1.00000000      1.00000000      1.00000000      1.00000000      1.00000000
      1.00000000      1.00000000      1.00000000      1.00000000      1.00000000      1.00000000      1.00000000      1.00000000      1.00000000      1.00000000      1.00000000      1.00000000      1.00000000      1.00000000      1.00000000      1.00000000      1.00000000      1.00000000      1.00000000      1.00000000
      1.00000000      1.00000000      1.00000000      1.00000000      1.00000000      1.00000000      1.00000000      1.00000000      1.00000000      1.00000000      1.00000000      1.00000000      1.00000000      1.00000000      1.00000000      1.00000000      1.00000000      1.00000000      1.00000000      1.00000000
      1.00000000      1.00000000      1.00000000      1.00000000      1.00000000      1.00000000      1.00000000      1.00000000</v>
    <i name="NUPDOWN">     -1.00000000</i>
    <i type="logical" name="LSORBIT"> F  </i>
    <v name="SAXIS">      0.00000000      0.00000000      1.00000000</v>
    <i type="logical" name="LSPIRAL"> F  </i>
    <v name="QSPIRAL">      0.00000000      0.00000000      0.00000000</v>
    <i type="logical" name="LZEROZ"> F  </i>
   </separator>
   <separator name="electronic exchange-correlation" >
    <i type="logical" name="LASPH"> F  </i>
    <i type="logical" name="LMETAGGA"> F  </i>
   </separator>
   <separator name="electronic convergence" >
    <i type="int" name="NELM">   100</i>
    <i type="int" name="NELMDL">     0</i>
    <i type="int" name="NELMIN">     4</i>
    <i name="ENINI">    450.00000000</i>
    <separator name="electronic convergence detail" >
     <i type="logical" name="LDIAG"> T  </i>
     <i type="logical" name="LSUBROT"> F  </i>
     <i name="WEIMIN">      0.00100000</i>
     <i name="EBREAK">      0.00000000</i>
     <i name="DEPER">      0.30000000</i>
     <i type="int" name="NRMM">     4</i>
     <i name="TIME">      0.40000000</i>
    </separator>
   </separator>
   <separator name="electronic mixer" >
    <i name="AMIX">      0.40000000</i>
    <i name="BMIX">      1.00000000</i>
    <i name="AMIN">      0.10000000</i>
    <i name="AMIX_MAG">      1.60000000</i>
    <i name="BMIX_MAG">      1.00000000</i>
    <separator name="electronic mixer details" >
     <i type="int" name="IMIX">     4</i>
     <i type="logical" name="MIXFIRST"> F  </i>
     <i type="int" name="MAXMIX">   -45</i>
     <i name="WC">    100.00000000</i>
     <i type="int" name="INIMIX">     1</i>
     <i type="int" name="MIXPRE">     1</i>
     <i type="int" name="MREMOVE">     5</i>
    </separator>
   </separator>
   <separator name="electronic dipolcorrection" >
    <i type="logical" name="LDIPOL"> F  </i>
    <i type="logical" name="LMONO"> F  </i>
    <i type="int" name="IDIPOL">     0</i>
    <i name="EPSILON">      1.00000000</i>
    <v name="DIPOL">   -100.00000000   -100.00000000   -100.00000000</v>
    <i name="EFIELD">      0.00000000</i>
   </separator>
  </separator>
  <separator name="grids" >
   <i type="int" name="NGX">    70</i>
   <i type="int" name="NGY">    60</i>
   <i type="int" name="NGZ">   320</i>
   <i type="int" name="NGXF">   140</i>
   <i type="int" name="NGYF">   120</i>
   <i type="int" name="NGZF">   640</i>
   <i type="logical" name="ADDGRID"> F  </i>
  </separator>
  <separator name="ionic" >
   <i type="int" name="NSW">     5</i>
   <i type="int" name="IBRION">     2</i>
   <i type="int" name="MDALGO">     0</i>
   <i type="int" name="ISIF">     2</i>
   <i name="PSTRESS">      0.00000000</i>
   <i name="EDIFFG">      0.00001000</i>
   <i type="int" name="NFREE">     1</i>
   <i name="POTIM">      0.25000000</i>
   <i name="SMASS">     -3.00000000</i>
   <i name="SCALEE">      1.00000000</i>
  </separator>
  <separator name="ionic md" >
   <i name="TEBEG">      0.00010000</i>
   <i name="TEEND">      0.00010000</i>
   <i type="int" name="NBLOCK">     1</i>
   <i type="int" name="KBLOCK">     5</i>
   <i type="int" name="NPACO">   256</i>
   <i name="APACO">     16.00000000</i>
  </separator>
  <separator name="symmetry" >
   <i type="int" name="ISYM">     2</i>
   <i name="SYMPREC">      0.00001000</i>
  </separator>
  <separator name="dos" >
   <i type="int" name="LORBIT">     0</i>
   <v name="RWIGS">     -1.00000000     -1.00000000</v>
   <i type="int" name="NEDOS">   301</i>
   <i name="EMIN">     10.00000000</i>
   <i name="EMAX">    -10.00000000</i>
   <i name="EFERMI">      0.00000000</i>
  </separator>
  <separator name="writing" >
   <i type="int" name="NWRITE">     2</i>
   <i type="logical" name="LWAVE"> F  </i>
   <i type="logical" name="LDOWNSAMPLE"> F  </i>
   <i type="logical" name="LCHARG"> F  </i>
   <i type="logical" name="LPARD"> F  </i>
   <i type="logical" name="LVTOT"> F  </i>
   <i type="logical" name="LVHAR"> F  </i>
   <i type="logical" name="LELF"> F  </i>
   <i type="logical" name="LOPTICS"> F  </i>
   <v name="STM">      0.00000000      0.00000000      0.00000000      0.00000000      0.00000000      0.00000000      0.00000000</v>
  </separator>
  <separator name="performance" >
   <i type="int" name="NPAR">    14</i>
   <i type="int" name="NSIM">     4</i>
   <i type="int" name="NBLK">    -1</i>
   <i type="logical" name="LPLANE"> T  </i>
   <i type="logical" name="LSCALAPACK"> T  </i>
   <i type="logical" name="LSCAAWARE"> T  </i>
   <i type="logical" name="LSCALU"> F  </i>
   <i type="logical" name="LASYNC"> F  </i>
   <i type="logical" name="LORBITALREAL"> F  </i>
  </separator>
  <separator name="miscellaneous" >
   <i type="int" name="IDIOT">     3</i>
   <i type="int" name="ISPECIAL">     0</i>
   <i type="logical" name="LMUSIC"> F  </i>
   <v name="POMASS">     55.84700000     54.93800000</v>
   <v name="DARWINR">      0.00000000      0.00000000</v>
   <v name="DARWINV">      1.00000000      1.00000000</v>
   <i type="logical" name="LCORR"> T  </i>
  </separator>
  <i type="logical" name="GGA_COMPAT"> T  </i>
  <i type="logical" name="LBERRY"> F  </i>
  <i type="int" name="ICORELEVEL">     0</i>
  <i type="logical" name="LDAU"> F  </i>
  <i type="int" name="I_CONSTRAINED_M">     0</i>
  <separator name="electronic exchange-correlation" >
   <i type="string" name="GGA">--</i>
   <i type="int" name="VOSKOWN">     0</i>
   <i type="logical" name="LHFCALC"> F  </i>
   <i type="string" name="PRECFOCK"></i>
   <i type="logical" name="LSYMGRAD"> F  </i>
   <i type="logical" name="LHFONE"> F  </i>
   <i type="logical" name="LRHFCALC"> F  </i>
   <i type="logical" name="LTHOMAS"> F  </i>
   <i type="logical" name="LMODELHF"> F  </i>
   <i name="ENCUT4O">     -1.00000000</i>
   <i type="int" name="EXXOEP">     0</i>
   <i type="int" name="FOURORBIT">     0</i>
   <i name="AEXX">      0.00000000</i>
   <i name="HFALPHA">      0.00000000</i>
   <i name="MCALPHA">      0.00000000</i>
   <i name="ALDAX">      1.00000000</i>
   <i name="AGGAX">      1.00000000</i>
   <i name="ALDAC">      1.00000000</i>
   <i name="AGGAC">      1.00000000</i>
   <i type="int" name="NKREDX">     1</i>
   <i type="int" name="NKREDY">     1</i>
   <i type="int" name="NKREDZ">     1</i>
   <i type="logical" name="SHIFTRED"> F  </i>
   <i type="logical" name="ODDONLY"> F  </i>
   <i type="logical" name="EVENONLY"> F  </i>
   <i type="int" name="LMAXFOCK">     0</i>
   <i type="int" name="NMAXFOCKAE">     0</i>
   <i type="logical" name="LFOCKAEDFT"> F  </i>
   <i name="HFSCREEN">      0.00000000</i>
   <i name="HFSCREENC">      0.00000000</i>
   <i type="int" name="NBANDSGWLOW">     0</i>
  </separator>
  <separator name="vdW DFT" >
   <i type="logical" name="LUSE_VDW"> F  </i>
   <i name="Zab_VDW">     -0.84910000</i>
   <i name="PARAM1">      0.12340000</i>
   <i name="PARAM2">      1.00000000</i>
   <i name="PARAM3">      0.00000000</i>
  </separator>
  <separator name="model GW" >
   <i type="int" name="MODEL_GW">     0</i>
   <i name="MODEL_EPS0">      7.68123389</i>
   <i name="MODEL_ALPHA">      1.00000000</i>
  </separator>
  <separator name="linear response parameters" >
   <i type="logical" name="LEPSILON"> F  </i>
   <i type="logical" name="LRPA"> F  </i>
   <i type="logical" name="LNABLA"> F  </i>
   <i type="logical" name="LVEL"> F  </i>
   <i type="int" name="KINTER">     0</i>
   <i name="CSHIFT">      0.10000000</i>
   <i name="OMEGAMAX">     -1.00000000</i>
   <i name="DEG_THRESHOLD">      0.00200000</i>
   <i name="RTIME">     -0.10000000</i>
   <i name="WPLASMAI">      0.00000000</i>
   <v name="DFIELD">      0.00000000      0.00000000      0.00000000</v>
   <v name="WPLASMA">      0.00000000      0.00000000      0.00000000      0.00000000      0.00000000      0.00000000      0.00000000      0.00000000      0.00000000</v>
  </separator>
  <separator name="orbital magnetization" >
   <i type="logical" name="NUCIND"> F  </i>
   <v name="MAGPOS">      0.00000000      0.00000000      0.00000000</v>
   <i type="logical" name="LNICSALL"> T  </i>
   <i type="logical" name="ORBITALMAG"> F  </i>
   <i type="logical" name="LMAGBLOCH"> F  </i>
   <i type="logical" name="LCHIMAG"> F  </i>
   <i type="logical" name="LGAUGE"> T  </i>
   <i type="int" name="MAGATOM">     0</i>
   <v name="MAGDIPOL">      0.00000000      0.00000000      0.00000000</v>
   <v name="AVECCONST">      0.00000000      0.00000000      0.00000000</v>
  </separator>
  <separator name="response functions" >
   <i type="logical" name="LADDER"> F  </i>
   <i type="logical" name="LRPAFORCE"> F  </i>
   <i type="logical" name="LFXC"> F  </i>
   <i type="logical" name="LHARTREE"> T  </i>
   <i type="int" name="IBSE">     0</i>
   <v type="int" name="KPOINT">    -1     0     0     0</v>
   <i type="logical" name="LTCTE"> F  </i>
   <i type="logical" name="LTETE"> F  </i>
   <i type="logical" name="LTRIPLET"> F  </i>
   <i type="logical" name="LFXCEPS"> F  </i>
   <i type="logical" name="LFXHEG"> F  </i>
   <i type="int" name="NATURALO">     2</i>
   <i type="logical" name="L2ORDER"> F  </i>
   <i type="logical" name="LMP2LT"> F  </i>
   <i type="logical" name="LUSEW"> F  </i>
   <i name="ENCUTGW">     -2.00000000</i>
   <i name="ENCUTGWSOFT">     -2.00000000</i>
   <i name="ENCUTLF">     -1.00000000</i>
   <i type="int" name="LMAXMP2">    -1</i>
   <i name="SCISSOR">      0.00000000</i>
   <i type="int" name="NOMEGA">     0</i>
   <i type="int" name="NOMEGAR">     0</i>
   <i type="int" name="NBANDSGW">    -1</i>
   <i type="int" name="NBANDSO">    -1</i>
   <i type="int" name="NBANDSV">    -1</i>
   <i type="int" name="NELM">   100</i>
   <i type="int" name="NELMHF">     1</i>
   <i type="int" name="DIM">     3</i>
   <i type="int" name="ANTIRES">     0</i>
   <i name="OMEGAMAX">    -30.00000000</i>
   <i name="OMEGAMIN">    -30.00000000</i>
   <i name="OMEGATL">   -200.00000000</i>
   <i type="int" name="OMEGAGRID">   140</i>
   <i name="CSHIFT">     -0.10000000</i>
   <i type="logical" name="SELFENERGY"> F  </i>
   <i type="logical" name="LSPECTRAL"> F  </i>
   <i type="logical" name="LSPECTRALGW"> F  </i>
   <i type="logical" name="LSINGLES"> F  </i>
   <i type="logical" name="LFERMIGW"> F  </i>
   <i type="logical" name="ODDONLYGW"> F  </i>
   <i type="logical" name="EVENONLYGW"> F  </i>
   <i type="int" name="NKREDLFX">     1</i>
   <i type="int" name="NKREDLFY">     1</i>
   <i type="int" name="NKREDLFZ">     1</i>
   <i type="int" name="MAXMEM">  2800</i>
   <i type="int" name="TELESCOPE">     0</i>
   <i type="int" name="TAUPAR">     1</i>
   <i type="int" name="OMEGAPAR">    -1</i>
   <i name="LAMBDA">      1.00000000</i>
  </separator>
  <separator name="External order field" >
   <i name="OFIELD_KAPPA">      0.00000000</i>
   <v name="OFIELD_K">      0.00000000      0.00000000      0.00000000</v>
   <i name="OFIELD_Q6_NEAR">      0.00000000</i>
   <i name="OFIELD_Q6_FAR">      0.00000000</i>
   <i name="OFIELD_A">      0.00000000</i>
  </separator>
 </parameters>
 <atominfo>
  <atoms>     288 </atoms>
  <types>       2 </types>
  <array name="atoms" >
   <dimension dim="1">ion</dimension>
   <field type="string">element</field>
   <field type="int">atomtype</field>
   <set>
    <rc><c>Fe</c><c>   1</c></rc>
    <rc><c>Fe</c><c>   1</c></rc>
    <rc><c>Fe</c><c>   1</c></rc>
    <rc><c>Fe</c><c>   1</c></rc>
    <rc><c>Fe</c><c>   1</c></rc>
    <rc><c>Fe</c><c>   1</c></rc>
    <rc><c>Fe</c><c>   1</c></rc>
    <rc><c>Fe</c><c>   1</c></rc>
    <rc><c>Fe</c><c>   1</c></rc>
    <rc><c>Fe</c><c>   1</c></rc>
    <rc><c>Fe</c><c>   1</c></rc>
    <rc><c>Fe</c><c>   1</c></rc>
    <rc><c>Fe</c><c>   1</c></rc>
    <rc><c>Fe</c><c>   1</c></rc>
    <rc><c>Fe</c><c>   1</c></rc>
    <rc><c>Fe</c><c>   1</c></rc>
    <rc><c>Fe</c><c>   1</c></rc>
    <rc><c>Fe</c><c>   1</c></rc>
    <rc><c>Fe</c><c>   1</c></rc>
    <rc><c>Fe</c><c>   1</c></rc>
    <rc><c>Fe</c><c>   1</c></rc>
    <rc><c>Fe</c><c>   1</c></rc>
    <rc><c>Fe</c><c>   1</c></rc>
    <rc><c>Fe</c><c>   1</c></rc>
    <rc><c>Fe</c><c>   1</c></rc>
    <rc><c>Fe</c><c>   1</c></rc>
    <rc><c>Fe</c><c>   1</c></rc>
    <rc><c>Fe</c><c>   1</c></rc>
    <rc><c>Fe</c><c>   1</c></rc>
    <rc><c>Fe</c><c>   1</c></rc>
    <rc><c>Fe</c><c>   1</c></rc>
    <rc><c>Fe</c><c>   1</c></rc>
    <rc><c>Fe</c><c>   1</c></rc>
    <rc><c>Fe</c><c>   1</c></rc>
    <rc><c>Fe</c><c>   1</c></rc>
    <rc><c>Fe</c><c>   1</c></rc>
    <rc><c>Fe</c><c>   1</c></rc>
    <rc><c>Fe</c><c>   1</c></rc>
    <rc><c>Fe</c><c>   1</c></rc>
    <rc><c>Fe</c><c>   1</c></rc>
    <rc><c>Fe</c><c>   1</c></rc>
    <rc><c>Fe</c><c>   1</c></rc>
    <rc><c>Fe</c><c>   1</c></rc>
    <rc><c>Fe</c><c>   1</c></rc>
    <rc><c>Fe</c><c>   1</c></rc>
    <rc><c>Fe</c><c>   1</c></rc>
    <rc><c>Fe</c><c>   1</c></rc>
    <rc><c>Fe</c><c>   1</c></rc>
    <rc><c>Fe</c><c>   1</c></rc>
    <rc><c>Fe</c><c>   1</c></rc>
    <rc><c>Fe</c><c>   1</c></rc>
    <rc><c>Fe</c><c>   1</c></rc>
    <rc><c>Fe</c><c>   1</c></rc>
    <rc><c>Fe</c><c>   1</c></rc>
    <rc><c>Fe</c><c>   1</c></rc>
    <rc><c>Fe</c><c>   1</c></rc>
    <rc><c>Fe</c><c>   1</c></rc>
    <rc><c>Fe</c><c>   1</c></rc>
    <rc><c>Fe</c><c>   1</c></rc>
    <rc><c>Fe</c><c>   1</c></rc>
    <rc><c>Fe</c><c>   1</c></rc>
    <rc><c>Fe</c><c>   1</c></rc>
    <rc><c>Fe</c><c>   1</c></rc>
    <rc><c>Fe</c><c>   1</c></rc>
    <rc><c>Fe</c><c>   1</c></rc>
    <rc><c>Fe</c><c>   1</c></rc>
    <rc><c>Fe</c><c>   1</c></rc>
    <rc><c>Fe</c><c>   1</c></rc>
    <rc><c>Fe</c><c>   1</c></rc>
    <rc><c>Fe</c><c>   1</c></rc>
    <rc><c>Fe</c><c>   1</c></rc>
    <rc><c>Fe</c><c>   1</c></rc>
    <rc><c>Fe</c><c>   1</c></rc>
    <rc><c>Fe</c><c>   1</c></rc>
    <rc><c>Fe</c><c>   1</c></rc>
    <rc><c>Fe</c><c>   1</c></rc>
    <rc><c>Fe</c><c>   1</c></rc>
    <rc><c>Fe</c><c>   1</c></rc>
    <rc><c>Fe</c><c>   1</c></rc>
    <rc><c>Fe</c><c>   1</c></rc>
    <rc><c>Fe</c><c>   1</c></rc>
    <rc><c>Fe</c><c>   1</c></rc>
    <rc><c>Fe</c><c>   1</c></rc>
    <rc><c>Fe</c><c>   1</c></rc>
    <rc><c>Fe</c><c>   1</c></rc>
    <rc><c>Fe</c><c>   1</c></rc>
    <rc><c>Fe</c><c>   1</c></rc>
    <rc><c>Fe</c><c>   1</c></rc>
    <rc><c>Fe</c><c>   1</c></rc>
    <rc><c>Fe</c><c>   1</c></rc>
    <rc><c>Fe</c><c>   1</c></rc>
    <rc><c>Fe</c><c>   1</c></rc>
    <rc><c>Fe</c><c>   1</c></rc>
    <rc><c>Fe</c><c>   1</c></rc>
    <rc><c>Fe</c><c>   1</c></rc>
    <rc><c>Fe</c><c>   1</c></rc>
    <rc><c>Fe</c><c>   1</c></rc>
    <rc><c>Fe</c><c>   1</c></rc>
    <rc><c>Fe</c><c>   1</c></rc>
    <rc><c>Fe</c><c>   1</c></rc>
    <rc><c>Fe</c><c>   1</c></rc>
    <rc><c>Fe</c><c>   1</c></rc>
    <rc><c>Fe</c><c>   1</c></rc>
    <rc><c>Fe</c><c>   1</c></rc>
    <rc><c>Fe</c><c>   1</c></rc>
    <rc><c>Fe</c><c>   1</c></rc>
    <rc><c>Fe</c><c>   1</c></rc>
    <rc><c>Fe</c><c>   1</c></rc>
    <rc><c>Fe</c><c>   1</c></rc>
    <rc><c>Fe</c><c>   1</c></rc>
    <rc><c>Fe</c><c>   1</c></rc>
    <rc><c>Fe</c><c>   1</c></rc>
    <rc><c>Fe</c><c>   1</c></rc>
    <rc><c>Fe</c><c>   1</c></rc>
    <rc><c>Fe</c><c>   1</c></rc>
    <rc><c>Fe</c><c>   1</c></rc>
    <rc><c>Fe</c><c>   1</c></rc>
    <rc><c>Fe</c><c>   1</c></rc>
    <rc><c>Fe</c><c>   1</c></rc>
    <rc><c>Fe</c><c>   1</c></rc>
    <rc><c>Fe</c><c>   1</c></rc>
    <rc><c>Fe</c><c>   1</c></rc>
    <rc><c>Fe</c><c>   1</c></rc>
    <rc><c>Fe</c><c>   1</c></rc>
    <rc><c>Fe</c><c>   1</c></rc>
    <rc><c>Fe</c><c>   1</c></rc>
    <rc><c>Fe</c><c>   1</c></rc>
    <rc><c>Fe</c><c>   1</c></rc>
    <rc><c>Fe</c><c>   1</c></rc>
    <rc><c>Fe</c><c>   1</c></rc>
    <rc><c>Fe</c><c>   1</c></rc>
    <rc><c>Fe</c><c>   1</c></rc>
    <rc><c>Fe</c><c>   1</c></rc>
    <rc><c>Fe</c><c>   1</c></rc>
    <rc><c>Fe</c><c>   1</c></rc>
    <rc><c>Fe</c><c>   1</c></rc>
    <rc><c>Fe</c><c>   1</c></rc>
    <rc><c>Fe</c><c>   1</c></rc>
    <rc><c>Fe</c><c>   1</c></rc>
    <rc><c>Fe</c><c>   1</c></rc>
    <rc><c>Fe</c><c>   1</c></rc>
    <rc><c>Fe</c><c>   1</c></rc>
    <rc><c>Fe</c><c>   1</c></rc>
    <rc><c>Fe</c><c>   1</c></rc>
    <rc><c>Fe</c><c>   1</c></rc>
    <rc><c>Fe</c><c>   1</c></rc>
    <rc><c>Fe</c><c>   1</c></rc>
    <rc><c>Fe</c><c>   1</c></rc>
    <rc><c>Fe</c><c>   1</c></rc>
    <rc><c>Fe</c><c>   1</c></rc>
    <rc><c>Fe</c><c>   1</c></rc>
    <rc><c>Fe</c><c>   1</c></rc>
    <rc><c>Fe</c><c>   1</c></rc>
    <rc><c>Fe</c><c>   1</c></rc>
    <rc><c>Fe</c><c>   1</c></rc>
    <rc><c>Fe</c><c>   1</c></rc>
    <rc><c>Fe</c><c>   1</c></rc>
    <rc><c>Fe</c><c>   1</c></rc>
    <rc><c>Fe</c><c>   1</c></rc>
    <rc><c>Fe</c><c>   1</c></rc>
    <rc><c>Fe</c><c>   1</c></rc>
    <rc><c>Fe</c><c>   1</c></rc>
    <rc><c>Fe</c><c>   1</c></rc>
    <rc><c>Fe</c><c>   1</c></rc>
    <rc><c>Fe</c><c>   1</c></rc>
    <rc><c>Fe</c><c>   1</c></rc>
    <rc><c>Fe</c><c>   1</c></rc>
    <rc><c>Fe</c><c>   1</c></rc>
    <rc><c>Fe</c><c>   1</c></rc>
    <rc><c>Fe</c><c>   1</c></rc>
    <rc><c>Fe</c><c>   1</c></rc>
    <rc><c>Fe</c><c>   1</c></rc>
    <rc><c>Fe</c><c>   1</c></rc>
    <rc><c>Fe</c><c>   1</c></rc>
    <rc><c>Fe</c><c>   1</c></rc>
    <rc><c>Fe</c><c>   1</c></rc>
    <rc><c>Fe</c><c>   1</c></rc>
    <rc><c>Fe</c><c>   1</c></rc>
    <rc><c>Fe</c><c>   1</c></rc>
    <rc><c>Fe</c><c>   1</c></rc>
    <rc><c>Fe</c><c>   1</c></rc>
    <rc><c>Fe</c><c>   1</c></rc>
    <rc><c>Fe</c><c>   1</c></rc>
    <rc><c>Fe</c><c>   1</c></rc>
    <rc><c>Fe</c><c>   1</c></rc>
    <rc><c>Fe</c><c>   1</c></rc>
    <rc><c>Fe</c><c>   1</c></rc>
    <rc><c>Fe</c><c>   1</c></rc>
    <rc><c>Fe</c><c>   1</c></rc>
    <rc><c>Fe</c><c>   1</c></rc>
    <rc><c>Fe</c><c>   1</c></rc>
    <rc><c>Fe</c><c>   1</c></rc>
    <rc><c>Fe</c><c>   1</c></rc>
    <rc><c>Fe</c><c>   1</c></rc>
    <rc><c>Fe</c><c>   1</c></rc>
    <rc><c>Fe</c><c>   1</c></rc>
    <rc><c>Fe</c><c>   1</c></rc>
    <rc><c>Fe</c><c>   1</c></rc>
    <rc><c>Fe</c><c>   1</c></rc>
    <rc><c>Fe</c><c>   1</c></rc>
    <rc><c>Fe</c><c>   1</c></rc>
    <rc><c>Fe</c><c>   1</c></rc>
    <rc><c>Fe</c><c>   1</c></rc>
    <rc><c>Fe</c><c>   1</c></rc>
    <rc><c>Fe</c><c>   1</c></rc>
    <rc><c>Fe</c><c>   1</c></rc>
    <rc><c>Fe</c><c>   1</c></rc>
    <rc><c>Fe</c><c>   1</c></rc>
    <rc><c>Fe</c><c>   1</c></rc>
    <rc><c>Fe</c><c>   1</c></rc>
    <rc><c>Fe</c><c>   1</c></rc>
    <rc><c>Fe</c><c>   1</c></rc>
    <rc><c>Fe</c><c>   1</c></rc>
    <rc><c>Fe</c><c>   1</c></rc>
    <rc><c>Fe</c><c>   1</c></rc>
    <rc><c>Fe</c><c>   1</c></rc>
    <rc><c>Fe</c><c>   1</c></rc>
    <rc><c>Fe</c><c>   1</c></rc>
    <rc><c>Fe</c><c>   1</c></rc>
    <rc><c>Fe</c><c>   1</c></rc>
    <rc><c>Fe</c><c>   1</c></rc>
    <rc><c>Fe</c><c>   1</c></rc>
    <rc><c>Fe</c><c>   1</c></rc>
    <rc><c>Fe</c><c>   1</c></rc>
    <rc><c>Fe</c><c>   1</c></rc>
    <rc><c>Fe</c><c>   1</c></rc>
    <rc><c>Fe</c><c>   1</c></rc>
    <rc><c>Fe</c><c>   1</c></rc>
    <rc><c>Fe</c><c>   1</c></rc>
    <rc><c>Fe</c><c>   1</c></rc>
    <rc><c>Fe</c><c>   1</c></rc>
    <rc><c>Fe</c><c>   1</c></rc>
    <rc><c>Fe</c><c>   1</c></rc>
    <rc><c>Fe</c><c>   1</c></rc>
    <rc><c>Fe</c><c>   1</c></rc>
    <rc><c>Fe</c><c>   1</c></rc>
    <rc><c>Fe</c><c>   1</c></rc>
    <rc><c>Fe</c><c>   1</c></rc>
    <rc><c>Fe</c><c>   1</c></rc>
    <rc><c>Fe</c><c>   1</c></rc>
    <rc><c>Fe</c><c>   1</c></rc>
    <rc><c>Fe</c><c>   1</c></rc>
    <rc><c>Fe</c><c>   1</c></rc>
    <rc><c>Fe</c><c>   1</c></rc>
    <rc><c>Fe</c><c>   1</c></rc>
    <rc><c>Fe</c><c>   1</c></rc>
    <rc><c>Fe</c><c>   1</c></rc>
    <rc><c>Fe</c><c>   1</c></rc>
    <rc><c>Fe</c><c>   1</c></rc>
    <rc><c>Fe</c><c>   1</c></rc>
    <rc><c>Fe</c><c>   1</c></rc>
    <rc><c>Fe</c><c>   1</c></rc>
    <rc><c>Fe</c><c>   1</c></rc>
    <rc><c>Fe</c><c>   1</c></rc>
    <rc><c>Fe</c><c>   1</c></rc>
    <rc><c>Fe</c><c>   1</c></rc>
    <rc><c>Fe</c><c>   1</c></rc>
    <rc><c>Fe</c><c>   1</c></rc>
    <rc><c>Fe</c><c>   1</c></rc>
    <rc><c>Fe</c><c>   1</c></rc>
    <rc><c>Fe</c><c>   1</c></rc>
    <rc><c>Fe</c><c>   1</c></rc>
    <rc><c>Fe</c><c>   1</c></rc>
    <rc><c>Fe</c><c>   1</c></rc>
    <rc><c>Fe</c><c>   1</c></rc>
    <rc><c>Fe</c><c>   1</c></rc>
    <rc><c>Fe</c><c>   1</c></rc>
    <rc><c>Fe</c><c>   1</c></rc>
    <rc><c>Fe</c><c>   1</c></rc>
    <rc><c>Fe</c><c>   1</c></rc>
    <rc><c>Fe</c><c>   1</c></rc>
    <rc><c>Fe</c><c>   1</c></rc>
    <rc><c>Fe</c><c>   1</c></rc>
    <rc><c>Fe</c><c>   1</c></rc>
    <rc><c>Mn</c><c>   2</c></rc>
    <rc><c>Mn</c><c>   2</c></rc>
    <rc><c>Mn</c><c>   2</c></rc>
    <rc><c>Mn</c><c>   2</c></rc>
    <rc><c>Mn</c><c>   2</c></rc>
    <rc><c>Mn</c><c>   2</c></rc>
    <rc><c>Mn</c><c>   2</c></rc>
    <rc><c>Mn</c><c>   2</c></rc>
    <rc><c>Mn</c><c>   2</c></rc>
    <rc><c>Mn</c><c>   2</c></rc>
    <rc><c>Mn</c><c>   2</c></rc>
    <rc><c>Mn</c><c>   2</c></rc>
    <rc><c>Mn</c><c>   2</c></rc>
    <rc><c>Mn</c><c>   2</c></rc>
   </set>
  </array>
  <array name="atomtypes" >
   <dimension dim="1">type</dimension>
   <field type="int">atomspertype</field>
   <field type="string">element</field>
   <field>mass</field>
   <field>valence</field>
   <field type="string">pseudopotential</field>
   <set>
    <rc><c> 274</c><c>Fe</c><c>     55.84700000</c><c>      8.00000000</c><c>  PAW_PBE Fe_GW 31Mar2010               </c></rc>
    <rc><c>  14</c><c>Mn</c><c>     54.93800000</c><c>      7.00000000</c><c>  PAW_PBE Mn_GW 31Mar2010               </c></rc>
   </set>
  </array>
 </atominfo>
 <structure name="initialpos" >
  <crystal>
   <varray name="basis" >
    <v>       9.72667804       0.00000000       0.00000000 </v>
    <v>       0.00000000       8.42355028       0.00000000 </v>
    <v>       0.00000000       0.00000000      45.00000000 </v>
   </varray>
   <i name="volume">   3686.99226691 </i>
   <varray name="rec_basis" >
    <v>       0.10281002       0.00000000       0.00000000 </v>
    <v>       0.00000000       0.11871479       0.00000000 </v>
    <v>       0.00000000       0.00000000       0.02222222 </v>
   </varray>
  </crystal>
  <varray name="positions" >
   <v>       0.06337974       0.03069467       0.12408631 </v>
   <v>       0.31624247       0.87444020       0.65500173 </v>
   <v>       0.18367015       0.12307553       0.78864509 </v>
   <v>       0.44141921       0.28743627       0.38909732 </v>
   <v>       0.31805986       0.71384063       0.83319911 </v>
   <v>       0.81815723       0.21506220       0.83361900 </v>
   <v>       0.19156666       0.96327533       0.83358897 </v>
   <v>       0.56206463       0.20702237       0.56553484 </v>
   <v>       0.06558573       0.04029491       0.74416113 </v>
   <v>       0.81161208       0.87145759       0.52137612 </v>
   <v>       0.19055264       0.29112680       0.74437106 </v>
   <v>       0.93371391       0.45239009       0.34480944 </v>
   <v>       0.94095200       0.28655550       0.38893336 </v>
   <v>       0.81278421       0.04076530       0.87580232 </v>
   <v>       0.18379992       0.78797507       0.61092980 </v>
   <v>       0.56647121       0.03781788       0.38904536 </v>
   <v>       0.94255481       0.96498908       0.83390401 </v>
   <v>       0.31330631       0.54059067       0.87605839 </v>
   <v>       0.69010899       0.29154179       0.74424859 </v>
   <v>       0.18353098       0.61345071       0.16671518 </v>
   <v>       0.81220365       0.20585596       0.47868765 </v>
   <v>       0.80907964       0.53844260       0.61105400 </v>
   <v>       0.31188655       0.87066139       0.43445439 </v>
   <v>       0.80980084       0.03784218       0.25602801 </v>
   <v>       0.68304032       0.95206828       0.34472759 </v>
   <v>       0.93050703       0.11539226       0.16670598 </v>
   <v>       0.06179609       0.87193112       0.52139779 </v>
   <v>       0.55780452       0.53766612       0.25552490 </v>
   <v>       0.68470194       0.79777461       0.87595147 </v>
   <v>       0.55604221       0.36517043       0.16659413 </v>
   <v>       0.43954224       0.79201872       0.74442718 </v>
   <v>       0.81125578       0.70648691       0.56547711 </v>
   <v>       0.55904381       0.87356913       0.78859688 </v>
   <v>       0.68668937       0.12189511       0.52140524 </v>
   <v>       0.81612610       0.37486478       0.65502470 </v>
   <v>       0.94224547       0.46423521       0.83375695 </v>
   <v>       0.06048889       0.20760351       0.69972849 </v>
   <v>       0.43528663       0.95749908       0.69972314 </v>
   <v>       0.31693027       0.21282012       0.83344093 </v>
   <v>       0.44116553       0.62475415       0.65498388 </v>
   <v>       0.30900775       0.53829250       0.61099696 </v>
   <v>       0.93643686       0.45641493       0.56561363 </v>
   <v>       0.69016403       0.79170712       0.74427895 </v>
   <v>       0.93458954       0.78771391       0.12447451 </v>
   <v>       0.69166864       0.78773557       0.38900302 </v>
   <v>       0.94044106       0.79100238       0.74451713 </v>
   <v>       0.05866714       0.20280358       0.34494541 </v>
   <v>       0.68371508       0.45239905       0.34497264 </v>
   <v>       0.43371859       0.12291991       0.78898753 </v>
   <v>       0.06444632       0.20388441       0.21118678 </v>
   <v>       0.05554537       0.36489551       0.16646370 </v>
   <v>       0.93367146       0.78749465       0.25546841 </v>
   <v>       0.56033855       0.20696509       0.69980825 </v>
   <v>       0.68512840       0.95702432       0.69979238 </v>
   <v>       0.80877192       0.87382370       0.78836870 </v>
   <v>       0.43668029       0.95717794       0.56541428 </v>
   <v>       0.80893723       0.37484278       0.78850035 </v>
   <v>       0.68375556       0.28716110       0.25594485 </v>
   <v>       0.18727325       0.45702152       0.56550677 </v>
   <v>       0.05710433       0.86341283       0.16666788 </v>
   <v>       0.18411959       0.28853878       0.61104671 </v>
   <v>       0.06215400       0.20697062       0.56537967 </v>
   <v>       0.31049942       0.20704634       0.69982423 </v>
   <v>       0.56241175       0.54078105       0.87598521 </v>
   <v>       0.06179761       0.70664099       0.56553721 </v>
   <v>       0.68291605       0.62263797       0.78857474 </v>
   <v>       0.31601892       0.53822392       0.38891064 </v>
   <v>       0.18688805       0.62164159       0.52146556 </v>
   <v>       0.56267512       0.87040405       0.43443251 </v>
   <v>       0.43658759       0.45688237       0.56557514 </v>
   <v>       0.43979204       0.29176178       0.74431106 </v>
   <v>       0.82102043       0.87327093       0.30021897 </v>
   <v>       0.80848301       0.70255506       0.34493056 </v>
   <v>       0.44232790       0.46283132       0.83337651 </v>
   <v>       0.68735279       0.95598636       0.47866913 </v>
   <v>       0.68458231       0.45751500       0.69980562 </v>
   <v>       0.56193685       0.87223310       0.52145965 </v>
   <v>       0.56598041       0.37431969       0.65497892 </v>
   <v>       0.81605884       0.87488304       0.65506676 </v>
   <v>       0.81166031       0.37144739       0.43420736 </v>
   <v>       0.80861060       0.53719293       0.25586312 </v>
   <v>       0.69205389       0.46223141       0.83329783 </v>
   <v>       0.18613664       0.78839845       0.12384425 </v>
   <v>       0.69125091       0.28740910       0.38898431 </v>
   <v>       0.31583108       0.37388226       0.65499491 </v>
   <v>       0.30901192       0.20261144       0.34470378 </v>
   <v>       0.81562425       0.54030154       0.74420786 </v>
   <v>       0.69159530       0.96238667       0.83350426 </v>
   <v>       0.56594708       0.87404134       0.65497700 </v>
   <v>       0.31126137       0.70698632       0.56552873 </v>
   <v>       0.31397513       0.53148451       0.12414008 </v>
   <v>       0.68999413       0.95375572       0.21143859 </v>
   <v>       0.31131887       0.20651820       0.56550836 </v>
   <v>       0.18736831       0.95595051       0.47866365 </v>
   <v>       0.68728666       0.95687697       0.56550734 </v>
   <v>       0.43407255       0.78835582       0.61095983 </v>
   <v>       0.68204442       0.61363569       0.16674211 </v>
   <v>       0.32009396       0.87257825       0.30008782 </v>
   <v>       0.31220512       0.70580769       0.47864296 </v>
   <v>       0.93366483       0.28785460       0.61087869 </v>
   <v>       0.44608676       0.62377913       0.30015130 </v>
   <v>       0.80694265       0.86340433       0.16671412 </v>
   <v>       0.56595282       0.20357823       0.21124722 </v>
   <v>       0.93288154       0.61219114       0.16648360 </v>
   <v>       0.43728016       0.95585886       0.47866649 </v>
   <v>       0.55898006       0.37324339       0.78872063 </v>
   <v>       0.06155798       0.37245606       0.52138556 </v>
   <v>       0.30723341       0.36364675       0.16677908 </v>
   <v>       0.69549683       0.12328577       0.30022897 </v>
   <v>       0.44279260       0.96306614       0.83332187 </v>
   <v>       0.18590188       0.28579492       0.12438772 </v>
   <v>       0.18358858       0.28747285       0.25585047 </v>
   <v>       0.31247240       0.37040230       0.43445575 </v>
   <v>       0.56287669       0.03137336       0.12416350 </v>
   <v>       0.43403070       0.28838817       0.61098034 </v>
   <v>       0.18373527       0.45261027       0.34491666 </v>
   <v>       0.43575905       0.28742315       0.12406882 </v>
   <v>       0.68379056       0.78741333       0.25579449 </v>
   <v>       0.43681847       0.12170563       0.52147522 </v>
   <v>       0.18846646       0.29669517       0.87617238 </v>
   <v>       0.19113196       0.12494442       0.65517384 </v>
   <v>       0.94107276       0.12484478       0.65498676 </v>
   <v>       0.81608138       0.53772826       0.38900591 </v>
   <v>       0.06665692       0.03800852       0.38907599 </v>
   <v>       0.18227300       0.11267632       0.16639315 </v>
   <v>       0.05864536       0.53805734       0.61098277 </v>
   <v>       0.93433174       0.28796173       0.25592604 </v>
   <v>       0.55874034       0.53826194       0.61097278 </v>
   <v>       0.93668703       0.95729466       0.56552872 </v>
   <v>       0.69469570       0.62440822       0.30007847 </v>
   <v>       0.93752812       0.62050499       0.43446208 </v>
   <v>       0.93309363       0.62447226       0.78834009 </v>
   <v>       0.56045399       0.70718804       0.69976105 </v>
   <v>       0.06608808       0.71680848       0.83392552 </v>
   <v>       0.94491096       0.12262323       0.30003221 </v>
   <v>       0.93370011       0.78757611       0.61090541 </v>
   <v>       0.43294170       0.78734980       0.25564774 </v>
   <v>       0.30890686       0.37361164       0.78874753 </v>
   <v>       0.44004943       0.45369460       0.21143899 </v>
   <v>       0.18689155       0.12188515       0.52136842 </v>
   <v>       0.81009511       0.70716574       0.69974407 </v>
   <v>       0.05871492       0.03794135       0.61088768 </v>
   <v>       0.56604843       0.21355529       0.83323697 </v>
   <v>       0.31176639       0.87185326       0.52139193 </v>
   <v>       0.68530074       0.28620037       0.12418905 </v>
   <v>       0.19016982       0.95431771       0.21184473 </v>
   <v>       0.68389702       0.28852512       0.61103386 </v>
   <v>       0.30890292       0.03834676       0.61103496 </v>
   <v>       0.93397903       0.12456612       0.78862261 </v>
   <v>       0.43642706       0.79782428       0.87619896 </v>
   <v>       0.81556260       0.04075064       0.74422365 </v>
   <v>       0.93518319       0.45798408       0.69963383 </v>
   <v>       0.19109851       0.62506156       0.65505845 </v>
   <v>       0.31033191       0.70692419       0.69975699 </v>
   <v>       0.56313848       0.53035254       0.12417715 </v>
   <v>       0.43742223       0.45603310       0.47855205 </v>
   <v>       0.06231716       0.70598532       0.47857447 </v>
   <v>       0.93686844       0.11997108       0.43451372 </v>
   <v>       0.44440237       0.12333031       0.30039464 </v>
   <v>       0.18693948       0.12080117       0.43428478 </v>
   <v>       0.56274912       0.04064667       0.87605275 </v>
   <v>       0.18679869       0.95706942       0.56550224 </v>
   <v>       0.68491126       0.78822736       0.12420912 </v>
   <v>       0.55885201       0.70217300       0.34490787 </v>
   <v>       0.31627240       0.03697890       0.38882464 </v>
   <v>       0.68290251       0.11484628       0.16674584 </v>
   <v>       0.81640871       0.20339110       0.21116853 </v>
   <v>       0.05864822       0.53733610       0.25578027 </v>
   <v>       0.56242633       0.70574687       0.47868795 </v>
   <v>       0.43410726       0.78614179       0.12427367 </v>
   <v>       0.56973401       0.37172817       0.30007446 </v>
   <v>       0.43357740       0.95245939       0.34487467 </v>
   <v>       0.18504613       0.95740684       0.69978978 </v>
   <v>       0.43015919       0.61592729       0.16653971 </v>
   <v>       0.94026022       0.45286893       0.21162042 </v>
   <v>       0.06132416       0.53166912       0.12425806 </v>
   <v>       0.81182381       0.37213316       0.52136929 </v>
   <v>       0.94488863       0.62409087       0.29988790 </v>
   <v>       0.30943344       0.03704696       0.25559843 </v>
   <v>       0.68390949       0.78813502       0.61094978 </v>
   <v>       0.19159358       0.46322897       0.83350153 </v>
   <v>       0.43208016       0.11248048       0.16666212 </v>
   <v>       0.31157650       0.37203154       0.52139004 </v>
   <v>       0.43301786       0.62299588       0.78894240 </v>
   <v>       0.05887383       0.03747865       0.25579475 </v>
   <v>       0.56225075       0.70701480       0.56554453 </v>
   <v>       0.93986310       0.29044191       0.74449497 </v>
   <v>       0.68236885       0.12279182       0.78857482 </v>
   <v>       0.19108069       0.45364791       0.21126012 </v>
   <v>       0.94123424       0.78760878       0.38888140 </v>
   <v>       0.68547825       0.29905355       0.87601857 </v>
   <v>       0.55706985       0.86325397       0.16668850 </v>
   <v>       0.43543594       0.45742616       0.69973788 </v>
   <v>       0.93373068       0.95140053       0.34482648 </v>
   <v>       0.68655784       0.62147423       0.52133112 </v>
   <v>       0.06623850       0.87456641       0.65494708 </v>
   <v>       0.05904950       0.87395104       0.78846381 </v>
   <v>       0.06625900       0.37447159       0.65496820 </v>
   <v>       0.68719798       0.45582184       0.47864990 </v>
   <v>       0.18348599       0.78742295       0.25553856 </v>
   <v>       0.43688606       0.12089594       0.43430535 </v>
   <v>       0.81189195       0.03117114       0.12409250 </v>
   <v>       0.93672583       0.62201631       0.52143297 </v>
   <v>       0.44138487       0.12441659       0.65492754 </v>
   <v>       0.81436865       0.52973991       0.12380519 </v>
   <v>       0.43399728       0.45261479       0.34500122 </v>
   <v>       0.80874554       0.20248470       0.34496024 </v>
   <v>       0.30892718       0.70180855       0.34483196 </v>
   <v>       0.69112941       0.12481972       0.65500679 </v>
   <v>       0.57067315       0.87302460       0.30025950 </v>
   <v>       0.06534828       0.54098433       0.74435320 </v>
   <v>       0.94123041       0.95340037       0.21128523 </v>
   <v>       0.81515073       0.70355781       0.21136785 </v>
   <v>       0.07081320       0.87277991       0.30011289 </v>
   <v>       0.19472333       0.12364585       0.30008865 </v>
   <v>       0.05841771       0.70181708       0.34482283 </v>
   <v>       0.80906154       0.03838424       0.61100098 </v>
   <v>       0.06296196       0.37177289       0.43426995 </v>
   <v>       0.55887248       0.20265625       0.34478715 </v>
   <v>       0.82037352       0.37282163       0.30005318 </v>
   <v>       0.56060811       0.03714672       0.25559768 </v>
   <v>       0.56634095       0.53765440       0.38905963 </v>
   <v>       0.06250366       0.20581385       0.47864436 </v>
   <v>       0.31022382       0.87315009       0.78844398 </v>
   <v>       0.93525250       0.95808981       0.69965876 </v>
   <v>       0.06994577       0.37333168       0.30011369 </v>
   <v>       0.69103032       0.62499168       0.65521202 </v>
   <v>       0.68659240       0.45696587       0.56538392 </v>
   <v>       0.44189746       0.95537247       0.21189791 </v>
   <v>       0.31243727       0.20581527       0.47873213 </v>
   <v>       0.81216764       0.54030795       0.87584818 </v>
   <v>       0.68798109       0.62059453       0.43445627 </v>
   <v>       0.81066262       0.20742797       0.69981551 </v>
   <v>       0.81248936       0.70576721       0.47864510 </v>
   <v>       0.81151177       0.87106237       0.43422704 </v>
   <v>       0.93738793       0.95543172       0.47870756 </v>
   <v>       0.56207848       0.20564238       0.47868791 </v>
   <v>       0.18703754       0.62013488       0.43447888 </v>
   <v>       0.31504602       0.04159326       0.74409900 </v>
   <v>       0.94124113       0.62500475       0.65490086 </v>
   <v>       0.56625120       0.71356734       0.83332730 </v>
   <v>       0.32025856       0.37203182       0.30014217 </v>
   <v>       0.31531644       0.54155665       0.74428826 </v>
   <v>       0.18733778       0.45583921       0.47868143 </v>
   <v>       0.31435466       0.04098497       0.87587270 </v>
   <v>       0.18513793       0.45773532       0.69967780 </v>
   <v>       0.56166514       0.37196591       0.52142420 </v>
   <v>       0.19108501       0.28755570       0.38897213 </v>
   <v>       0.31580545       0.20534366       0.21133471 </v>
   <v>       0.06813932       0.70343396       0.21147499 </v>
   <v>       0.56206648       0.37103700       0.43441901 </v>
   <v>       0.43657776       0.62213558       0.52136853 </v>
   <v>       0.81711559       0.71535578       0.83336340 </v>
   <v>       0.05887732       0.37488255       0.78844248 </v>
   <v>       0.43664393       0.29812268       0.87635019 </v>
   <v>       0.31137389       0.03001386       0.12406679 </v>
   <v>       0.68748113       0.12014008       0.43431567 </v>
   <v>       0.18356633       0.95240554       0.34493365 </v>
   <v>       0.06676711       0.21512424       0.83400538 </v>
   <v>       0.55918967       0.03855971       0.61110910 </v>
   <v>       0.68959196       0.45392712       0.21185003 </v>
   <v>       0.18965391       0.79161999       0.74440562 </v>
   <v>       0.19496557       0.62309338       0.30036535 </v>
   <v>       0.44148866       0.78768928       0.38911318 </v>
   <v>       0.43380865       0.28740713       0.25576073 </v>
   <v>       0.06330836       0.54070562       0.87585823 </v>
   <v>       0.56539951       0.04138297       0.74423885 </v>
   <v>       0.18773883       0.79732251       0.87605356 </v>
   <v>       0.93732581       0.45574579       0.47865600 </v>
   <v>       0.56515453       0.54142662       0.74408955 </v>
   <v>       0.81124664       0.20705343       0.56545548 </v>
   <v>       0.18438375       0.62273164       0.78849200 </v>
   <v>       0.06731277       0.53855086       0.38907905 </v>
   <v>       0.06069447       0.70751571       0.69969514 </v>
   <v>       0.30844497       0.53714208       0.25552475 </v>
   <v>       0.31411548       0.70287601       0.21220274 </v>
   <v>       0.30510411       0.86467841       0.16571068 </v>
   <v>       0.43656592       0.62128770       0.43436416 </v>
   <v>       0.81800764       0.03926733       0.38906804 </v>
   <v>       0.93482451       0.29783714       0.87557273 </v>
   <v>       0.93700403       0.79542985       0.87555896 </v>
   <v>       0.06532879       0.03897480       0.87576031 </v>
   <v>       0.93550698       0.28825907       0.12413627 </v>
   <v>       0.80674255       0.36372222       0.16596894 </v>
   <v>       0.06211345       0.87101864       0.43443922 </v>
   <v>       0.93642560       0.12180339       0.52154540 </v>
   <v>       0.19311312       0.78750375       0.38889255 </v>
   <v>       0.56889143       0.70397703       0.21183145 </v>
  </varray>
 </structure>
 <calculation>
  <scstep>
   <time name="dav">   54.29   54.30</time>
   <time name="total">   54.44   54.49</time>
   <energy>
    <i name="alphaZ">  16293.21160653 </i>
    <i name="ewald"> 728816.89000608 </i>
    <i name="hartreedc">-919331.86302894 </i>
    <i name="XCdc">  -6512.67569163 </i>
    <i name="pawpsdc"> 162273.92519768 </i>
    <i name="pawaedc">-159623.75899949 </i>
    <i name="eentropy">     -1.07929097 </i>
    <i name="bandstr">  38488.47347539 </i>
    <i name="atom"> 168671.76673737 </i>
    <i name="e_fr_energy">  29074.89001201 </i>
    <i name="e_wo_entrp">  29075.96930298 </i>
    <i name="e_0_energy">  29075.42965749 </i>
   </energy>
  </scstep>
  <scstep>
   <time name="dav">   53.66   53.69</time>
   <time name="total">   53.66   53.70</time>
   <energy>
    <i name="e_fr_energy">   1187.96382232 </i>
    <i name="e_wo_entrp">   1189.46221354 </i>
    <i name="e_0_energy">   1188.71301793 </i>
   </energy>
  </scstep>
  <scstep>
   <time name="dav">   70.43   70.46</time>
   <time name="total">   70.44   70.47</time>
   <energy>
    <i name="e_fr_energy">  -1949.51495254 </i>
    <i name="e_wo_entrp">  -1945.95736359 </i>
    <i name="e_0_energy">  -1947.73615807 </i>
   </energy>
  </scstep>
  <scstep>
   <time name="dav">   89.38   90.78</time>
   <time name="total">   89.39   90.79</time>
   <energy>
    <i name="e_fr_energy">  -2618.92916779 </i>
    <i name="e_wo_entrp">  -2615.39462891 </i>
    <i name="e_0_energy">  -2617.16189835 </i>
   </energy>
  </scstep>
  <scstep>
   <time name="dav">   85.04   85.60</time>
   <time name="total">   87.07   87.63</time>
   <energy>
    <i name="e_fr_energy">  -2738.53064392 </i>
    <i name="e_wo_entrp">  -2734.86919994 </i>
    <i name="e_0_energy">  -2736.69992193 </i>
   </energy>
  </scstep>
  <scstep>
   <time name="diag">    8.27    8.27</time>
   <time name="diis">   37.05   37.05</time>
   <time name="orth">    2.32    2.32</time>
   <time name="total">   49.77   49.80</time>
   <energy>
    <i name="e_fr_energy">  -5573.18778055 </i>
    <i name="e_wo_entrp">  -5570.64104786 </i>
    <i name="e_0_energy">  -5571.91441421 </i>
   </energy>
  </scstep>
  <scstep>
   <time name="diag">    8.28    8.28</time>
   <time name="diis">   22.85   22.85</time>
   <time name="orth">    2.29    2.29</time>
   <time name="total">   35.58   35.97</time>
[...]
       <r>     5.8492     0.0000  2772.0000 </r>
       <r>     5.8920     0.0000  2772.0000 </r>
       <r>     5.9347     0.0000  2772.0000 </r>
       <r>     5.9774     0.0000  2772.0000 </r>
       <r>     6.0201     0.0000  2772.0000 </r>
       <r>     6.0628     0.0000  2772.0000 </r>
       <r>     6.1056     0.0000  2772.0000 </r>
       <r>     6.1483     0.0000  2772.0000 </r>
       <r>     6.1910     0.0000  2772.0000 </r>
       <r>     6.2337     0.0000  2772.0000 </r>
       <r>     6.2764     0.0000  2772.0000 </r>
       <r>     6.3192     0.0000  2772.0000 </r>
       <r>     6.3619     0.0000  2772.0000 </r>
       <r>     6.4046     0.0000  2772.0000 </r>
       <r>     6.4473     0.0000  2772.0000 </r>
       <r>     6.4900     0.0000  2772.0000 </r>
       <r>     6.5328     0.0000  2772.0000 </r>
       <r>     6.5755     0.0000  2772.0000 </r>
       <r>     6.6182     0.0000  2772.0000 </r>
       <r>     6.6609     0.0000  2772.0000 </r>
       <r>     6.7036     0.0000  2772.0000 </r>
       <r>     6.7464     0.0000  2772.0000 </r>
       <r>     6.7891     0.0000  2772.0000 </r>
      </set>
     </set>
    </array>
   </total>
  </dos>
 </calculation>
 <structure name="finalpos" >
  <crystal>
   <varray name="basis" >
    <v>       9.72667804       0.00000000       0.00000000 </v>
    <v>       0.00000000       8.42355028       0.00000000 </v>
    <v>       0.00000000       0.00000000      45.00000000 </v>
   </varray>
   <i name="volume">   3686.99226691 </i>
   <varray name="rec_basis" >
    <v>       0.10281002       0.00000000       0.00000000 </v>
    <v>       0.00000000       0.11871479       0.00000000 </v>
    <v>       0.00000000       0.00000000       0.02222222 </v>
   </varray>
  </crystal>
  <varray name="positions" >
   <v>       0.06267186       0.03074601       0.12456886 </v>
   <v>       0.31519157       0.87390867       0.65530635 </v>
   <v>       0.18456454       0.12354458       0.78863454 </v>
   <v>       0.44113112       0.28788963       0.38907062 </v>
   <v>       0.31684289       0.71322223       0.83363971 </v>
   <v>       0.81723992       0.21442816       0.83399637 </v>
   <v>       0.19108643       0.96256028       0.83386114 </v>
   <v>       0.56219249       0.20683369       0.56548709 </v>
   <v>       0.06477850       0.04023797       0.74407308 </v>
   <v>       0.81135459       0.87200732       0.52145798 </v>
   <v>       0.18967288       0.29143127       0.74424997 </v>
   <v>       0.93463574       0.45283649       0.34452063 </v>
   <v>       0.94023821       0.28750972       0.38888574 </v>
   <v>       0.81230503       0.04286427       0.87576941 </v>
   <v>       0.18398940       0.78830233       0.61103541 </v>
   <v>       0.56598548       0.03808636       0.38906261 </v>
   <v>       0.94181999       0.96341074       0.83406534 </v>
   <v>       0.31390731       0.54270467       0.87600486 </v>
   <v>       0.68970032       0.29161477       0.74423466 </v>
   <v>       0.18376114       0.61405382       0.16678060 </v>
   <v>       0.81205309       0.20560694       0.47903673 </v>
   <v>       0.80985693       0.53857887       0.61114264 </v>
   <v>       0.31200958       0.87063675       0.43476107 </v>
   <v>       0.81092894       0.03758531       0.25546256 </v>
   <v>       0.68455945       0.95285656       0.34447789 </v>
   <v>       0.93170519       0.11449071       0.16658831 </v>
   <v>       0.06202354       0.87214583       0.52142248 </v>
   <v>       0.55918798       0.53702401       0.25517377 </v>
   <v>       0.68543566       0.79586683       0.87591966 </v>
   <v>       0.55752515       0.36557567       0.16651828 </v>
   <v>       0.43933699       0.79188603       0.74433287 </v>
   <v>       0.81163276       0.70641130       0.56548140 </v>
   <v>       0.55982709       0.87328951       0.78856492 </v>
   <v>       0.68658879       0.12192586       0.52143039 </v>
   <v>       0.81532312       0.37489767       0.65518365 </v>
   <v>       0.94146136       0.46372395       0.83412135 </v>
   <v>       0.06090141       0.20750105       0.69977279 </v>
   <v>       0.43575287       0.95684315       0.69977462 </v>
   <v>       0.31610810       0.21241051       0.83394619 </v>
   <v>       0.44035674       0.62433786       0.65529205 </v>
   <v>       0.30936084       0.53850790       0.61110875 </v>
   <v>       0.93651361       0.45614169       0.56560578 </v>
   <v>       0.68969967       0.79145015       0.74421627 </v>
   <v>       0.93329731       0.78629222       0.12494250 </v>
   <v>       0.69117788       0.78735666       0.38903224 </v>
   <v>       0.93960300       0.79084852       0.74429957 </v>
   <v>       0.05961215       0.20356210       0.34457650 </v>
   <v>       0.68523620       0.45265066       0.34463450 </v>
   <v>       0.43473342       0.12341822       0.78887527 </v>
   <v>       0.06357617       0.20333655       0.21101668 </v>
   <v>       0.05640705       0.36558942       0.16654734 </v>
   <v>       0.93515845       0.78756277       0.25498435 </v>
   <v>       0.56075082       0.20700058       0.69980464 </v>
   <v>       0.68558183       0.95670006       0.69986724 </v>
   <v>       0.80917345       0.87371649       0.78841854 </v>
   <v>       0.43670678       0.95684861       0.56540745 </v>
   <v>       0.80922651       0.37484344       0.78852297 </v>
   <v>       0.68519553       0.28689983       0.25535135 </v>
   <v>       0.18676761       0.45649539       0.56552593 </v>
   <v>       0.05710712       0.86396949       0.16675411 </v>
   <v>       0.18431652       0.28880764       0.61110216 </v>
   <v>       0.06210090       0.20687179       0.56549709 </v>
   <v>       0.31100575       0.20707330       0.69981338 </v>
   <v>       0.56281954       0.54297351       0.87598988 </v>
   <v>       0.06151671       0.70644572       0.56554624 </v>
   <v>       0.68372417       0.62391208       0.78856674 </v>
   <v>       0.31561660       0.53761188       0.38900511 </v>
   <v>       0.18661409       0.62205699       0.52151003 </v>
   <v>       0.56252859       0.87062088       0.43465891 </v>
   <v>       0.43672420       0.45651411       0.56558008 </v>
   <v>       0.43948638       0.29200097       0.74425282 </v>
   <v>       0.81962074       0.87315428       0.29962803 </v>
   <v>       0.80965943       0.70234515       0.34468418 </v>
   <v>       0.44179861       0.46243452       0.83392632 </v>
   <v>       0.68785838       0.95587373       0.47905818 </v>
   <v>       0.68524731       0.45783309       0.69979995 </v>
   <v>       0.56225389       0.87253988       0.52145950 </v>
   <v>       0.56539647       0.37456659       0.65522708 </v>
   <v>       0.81545157       0.87416122       0.65525629 </v>
   <v>       0.81196126       0.37137788       0.43444967 </v>
   <v>       0.81028108       0.53684016       0.25530557 </v>
   <v>       0.69161776       0.46220166       0.83381101 </v>
   <v>       0.18565708       0.78661409       0.12424270 </v>
   <v>       0.69061304       0.28775101       0.38891982 </v>
   <v>       0.31497260       0.37428584       0.65521120 </v>
   <v>       0.31011226       0.20318985       0.34444291 </v>
   <v>       0.81489032       0.54107227       0.74410512 </v>
   <v>       0.69122211       0.96188525       0.83391150 </v>
   <v>       0.56536472       0.87368563       0.65530445 </v>
   <v>       0.31125337       0.70675693       0.56551363 </v>
   <v>       0.31326238       0.53174585       0.12449052 </v>
   <v>       0.68962328       0.95322908       0.21099086 </v>
   <v>       0.31129291       0.20658952       0.56548551 </v>
   <v>       0.18697974       0.95565647       0.47900075 </v>
   <v>       0.68755669       0.95671687       0.56546424 </v>
   <v>       0.43456186       0.78830704       0.61106330 </v>
   <v>       0.68255851       0.61526943       0.16671195 </v>
   <v>       0.31826531       0.87233208       0.29956658 </v>
   <v>       0.31214957       0.70568770       0.47884997 </v>
   <v>       0.93447574       0.28832793       0.61094175 </v>
   <v>       0.44407197       0.62270356       0.29969919 </v>
   <v>       0.80733439       0.86384347       0.16667854 </v>
   <v>       0.56559691       0.20349361       0.21086083 </v>
   <v>       0.93303839       0.61443956       0.16657539 </v>
   <v>       0.43731887       0.95540679       0.47896433 </v>
   <v>       0.55977560       0.37357782       0.78869823 </v>
   <v>       0.06144839       0.37274389       0.52142700 </v>
   <v>       0.30822535       0.36441196       0.16673538 </v>
   <v>       0.69408996       0.12298122       0.29967670 </v>
   <v>       0.44219978       0.96208533       0.83386386 </v>
   <v>       0.18698524       0.28488435       0.12491754 </v>
   <v>       0.18416554       0.28697136       0.25526775 </v>
   <v>       0.31240520       0.37114792       0.43469156 </v>
   <v>       0.56250361       0.03173141       0.12439624 </v>
   <v>       0.43452909       0.28893701       0.61102687 </v>
   <v>       0.18477437       0.45317514       0.34457163 </v>
   <v>       0.43623839       0.28610984       0.12459990 </v>
   <v>       0.68528750       0.78766890       0.25522635 </v>
   <v>       0.43679655       0.12233667       0.52143379 </v>
   <v>       0.18854871       0.29568741       0.87612819 </v>
   <v>       0.19006758       0.12456033       0.65532683 </v>
   <v>       0.94035182       0.12451533       0.65513279 </v>
   <v>       0.81555223       0.53753770       0.38899957 </v>
   <v>       0.06596472       0.03791257       0.38909749 </v>
   <v>       0.18275025       0.11424493       0.16651646 </v>
   <v>       0.05918990       0.53832864       0.61108091 </v>
   <v>       0.93525375       0.28748440       0.25527193 </v>
   <v>       0.55970310       0.53855013       0.61107883 </v>
   <v>       0.93671866       0.95645575       0.56561926 </v>
   <v>       0.69346355       0.62282530       0.29965702 </v>
   <v>       0.93773509       0.62124235       0.43462553 </v>
   <v>       0.93370740       0.62527980       0.78842266 </v>
   <v>       0.56083230       0.70706529       0.69977977 </v>
   <v>       0.06529813       0.71564115       0.83413262 </v>
   <v>       0.94361125       0.12274973       0.29944319 </v>
   <v>       0.93447646       0.78811081       0.61103183 </v>
   <v>       0.43394975       0.78749259       0.25519382 </v>
   <v>       0.30994232       0.37396233       0.78866530 </v>
   <v>       0.43960472       0.45382058       0.21101773 </v>
   <v>       0.18692883       0.12205534       0.52144021 </v>
   <v>       0.81058833       0.70728376       0.69980365 </v>
   <v>       0.05915750       0.03848335       0.61093777 </v>
   <v>       0.56590124       0.21286386       0.83367355 </v>
   <v>       0.31147139       0.87232987       0.52147305 </v>
   <v>       0.68350461       0.28434548       0.12450871 </v>
   <v>       0.18923232       0.95415493       0.21157188 </v>
   <v>       0.68493676       0.28899726       0.61109207 </v>
   <v>       0.30897896       0.03870111       0.61107377 </v>
   <v>       0.93440184       0.12480687       0.78864522 </v>
   <v>       0.43725759       0.79586359       0.87613396 </v>
   <v>       0.81477254       0.04060181       0.74412790 </v>
   <v>       0.93563518       0.45817000       0.69970757 </v>
   <v>       0.19009575       0.62467605       0.65527912 </v>
   <v>       0.31088998       0.70703216       0.69980078 </v>
   <v>       0.56321521       0.53114534       0.12445088 </v>
   <v>       0.43740407       0.45566888       0.47889666 </v>
   <v>       0.06224292       0.70573349       0.47888785 </v>
   <v>       0.93709905       0.12026607       0.43494542 </v>
   <v>       0.44333508       0.12260300       0.29971833 </v>
   <v>       0.18718123       0.12053724       0.43455215 </v>
   <v>       0.56301057       0.04258784       0.87605024 </v>
   <v>       0.18633496       0.95689161       0.56549665 </v>
   <v>       0.68501398       0.78705749       0.12474466 </v>
   <v>       0.56023606       0.70219735       0.34462588 </v>
   <v>       0.31589478       0.03747543       0.38895485 </v>
   <v>       0.68310778       0.11469016       0.16660035 </v>
   <v>       0.81590400       0.20287412       0.21110239 </v>
   <v>       0.05940008       0.53719778       0.25526693 </v>
   <v>       0.56234578       0.70554159       0.47896513 </v>
   <v>       0.43587409       0.78519413       0.12466383 </v>
   <v>       0.56842153       0.37186199       0.29967470 </v>
   <v>       0.43483261       0.95287493       0.34455709 </v>
   <v>       0.18567471       0.95695483       0.69982852 </v>
   <v>       0.43288103       0.61577845       0.16660357 </v>
   <v>       0.94006394       0.45342049       0.21139393 </v>
   <v>       0.06035588       0.53284195       0.12465403 </v>
   <v>       0.81193131       0.37252471       0.52142255 </v>
   <v>       0.94369559       0.62302849       0.29939206 </v>
   <v>       0.30984255       0.03711812       0.25520577 </v>
   <v>       0.68506427       0.78818742       0.61104671 </v>
   <v>       0.19103237       0.46329186       0.83398990 </v>
   <v>       0.43402333       0.11439285       0.16655917 </v>
   <v>       0.31139306       0.37210214       0.52146005 </v>
   <v>       0.43426131       0.62392708       0.78886237 </v>
   <v>       0.05951115       0.03752757       0.25529017 </v>
   <v>       0.56226329       0.70665497       0.56553275 </v>
   <v>       0.93931796       0.29096838       0.74429771 </v>
   <v>       0.68342257       0.12363087       0.78858361 </v>
   <v>       0.19027815       0.45357279       0.21107774 </v>
   <v>       0.94046090       0.78702747       0.38902059 </v>
   <v>       0.68601843       0.29721402       0.87599363 </v>
   <v>       0.55842375       0.86431862       0.16675810 </v>
   <v>       0.43588759       0.45761125       0.69974896 </v>
   <v>       0.93510332       0.95222731       0.34448726 </v>
   <v>       0.68680751       0.62193548       0.52141148 </v>
   <v>       0.06515266       0.87404369       0.65516537 </v>
   <v>       0.05993338       0.87387800       0.78851498 </v>
   <v>       0.06522342       0.37465440       0.65514101 </v>
   <v>       0.68734041       0.45518212       0.47894863 </v>
   <v>       0.18419023       0.78777314       0.25517461 </v>
   <v>       0.43713879       0.12070978       0.43460382 </v>
   <v>       0.80990355       0.03085199       0.12448409 </v>
   <v>       0.93665301       0.62201420       0.52148411 </v>
   <v>       0.44046362       0.12436896       0.65526045 </v>
   <v>       0.81273628       0.53258578       0.12415598 </v>
   <v>       0.43545370       0.45313970       0.34463866 </v>
   <v>       0.80988343       0.20341271       0.34460870 </v>
   <v>       0.31021648       0.70213289       0.34445903 </v>
   <v>       0.69045567       0.12469604       0.65524198 </v>
   <v>       0.56903483       0.87267493       0.29973329 </v>
   <v>       0.06451386       0.54130062       0.74417243 </v>
   <v>       0.94022744       0.95267006       0.21109806 </v>
   <v>       0.81461688       0.70288248       0.21088306 </v>
   <v>       0.06897352       0.87255421       0.29956100 </v>
   <v>       0.19319247       0.12292082       0.29947188 </v>
   <v>       0.05962428       0.70226597       0.34450820 </v>
   <v>       0.81014337       0.03865948       0.61103295 </v>
   <v>       0.06272178       0.37192600       0.43451411 </v>
   <v>       0.56042834       0.20332996       0.34454068 </v>
   <v>       0.81883933       0.37269814       0.29954942 </v>
   <v>       0.56132254       0.03758005       0.25526481 </v>
   <v>       0.56586106       0.53740189       0.38905026 </v>
   <v>       0.06236625       0.20556437       0.47899075 </v>
   <v>       0.31078661       0.87311401       0.78844507 </v>
   <v>       0.93571572       0.95734683       0.69972269 </v>
   <v>       0.06835095       0.37297258       0.29958850 </v>
   <v>       0.69035568       0.62456644       0.65540292 </v>
   <v>       0.68687358       0.45658414       0.56542929 </v>
   <v>       0.44119620       0.95457547       0.21141204 </v>
   <v>       0.31230401       0.20543692       0.47905286 </v>
   <v>       0.81241974       0.54243417       0.87578837 </v>
   <v>       0.68796842       0.62084870       0.43461839 </v>
   <v>       0.81086225       0.20741167       0.69984004 </v>
   <v>       0.81273289       0.70577771       0.47893914 </v>
   <v>       0.81208317       0.87075066       0.43456407 </v>
   <v>       0.93733661       0.95502306       0.47897263 </v>
   <v>       0.56256036       0.20529185       0.47903561 </v>
   <v>       0.18707124       0.62083455       0.43471500 </v>
   <v>       0.31449930       0.04115056       0.74408732 </v>
   <v>       0.94031886       0.62482494       0.65513116 </v>
   <v>       0.56596611       0.71283313       0.83370493 </v>
   <v>       0.31879549       0.37214137       0.29963473 </v>
   <v>       0.31460181       0.54181957       0.74421941 </v>
   <v>       0.18732343       0.45547476       0.47897366 </v>
   <v>       0.31557456       0.04317160       0.87588844 </v>
   <v>       0.18567420       0.45802059       0.69974535 </v>
   <v>       0.56201512       0.37200192       0.52145764 </v>
   <v>       0.19033435       0.28787932       0.38900602 </v>
   <v>       0.31462556       0.20402969       0.21102098 </v>
   <v>       0.06621451       0.70284741       0.21105390 </v>
   <v>       0.56225454       0.37132929       0.43464816 </v>
   <v>       0.43675145       0.62229602       0.52137888 </v>
   <v>       0.81647738       0.71443415       0.83373242 </v>
   <v>       0.05971424       0.37502516       0.78850666 </v>
   <v>       0.43728277       0.29647335       0.87627136 </v>
   <v>       0.31180598       0.03221094       0.12426407 </v>
   <v>       0.68736713       0.12075449       0.43460137 </v>
   <v>       0.18470140       0.95269082       0.34450457 </v>
   <v>       0.06567449       0.21447283       0.83415844 </v>
   <v>       0.56013490       0.03884977       0.61111423 </v>
   <v>       0.68883437       0.45431023       0.21142912 </v>
   <v>       0.18915006       0.79136431       0.74424755 </v>
   <v>       0.19337825       0.62254659       0.29969175 </v>
   <v>       0.44128112       0.78734217       0.38915024 </v>
   <v>       0.43485004       0.28686728       0.25527002 </v>
   <v>       0.06340457       0.54253797       0.87586122 </v>
   <v>       0.56498356       0.04101039       0.74420642 </v>
   <v>       0.18802641       0.79497086       0.87599223 </v>
   <v>       0.93728595       0.45521162       0.47900274 </v>
   <v>       0.56479031       0.54193621       0.74408336 </v>
   <v>       0.81119578       0.20703909       0.56554824 </v>
   <v>       0.18517094       0.62405103       0.78851651 </v>
   <v>       0.06610677       0.53842349       0.38914100 </v>
   <v>       0.06096317       0.70758163       0.69973960 </v>
   <v>       0.30889122       0.53700016       0.25503367 </v>
   <v>       0.31347273       0.70201396       0.21167795 </v>
   <v>       0.30676687       0.86529578       0.16561949 </v>
   <v>       0.43650521       0.62139670       0.43462282 </v>
   <v>       0.81673713       0.03875596       0.38901726 </v>
   <v>       0.93492588       0.29693925       0.87587720 </v>
   <v>       0.93635452       0.79299680       0.87580305 </v>
   <v>       0.06491226       0.04147973       0.87593358 </v>
   <v>       0.93497248       0.28705590       0.12516078 </v>
   <v>       0.80687687       0.36499008       0.16582780 </v>
   <v>       0.06189708       0.87050436       0.43471906 </v>
   <v>       0.93650815       0.12215696       0.52137221 </v>
   <v>       0.19165756       0.78681886       0.38899456 </v>
   <v>       0.56799680       0.70388992       0.21105576 </v>
  </varray>
 </structure>
</modeling>
