 288 288   0   0
  0.1280206E+02  0.9726678E-09  0.8423550E-09  0.4500000E-08  0.2500000E-15
  1.000000000000000E-004
  CAR 
 unknown system                          
      6.78534521     -6.06786271  301      4.31338296      1.00000000
     -6.068  0.0000E+00  0.0000E+00
     -6.025  0.0000E+00  0.0000E+00
     -5.982  0.0000E+00  0.0000E+00
     -5.939  0.0000E+00  0.0000E+00
     -5.896  0.0000E+00  0.0000E+00
     -5.854  0.0000E+00  0.0000E+00
     -5.811  0.0000E+00  0.0000E+00
     -5.768  0.0000E+00  0.0000E+00
     -5.725  0.0000E+00  0.0000E+00
     -5.682  0.0000E+00  0.0000E+00
     -5.639  0.0000E+00  0.0000E+00
     -5.597  0.0000E+00  0.0000E+00
     -5.554  0.0000E+00  0.0000E+00
     -5.511  0.0000E+00  0.0000E+00
     -5.468  0.0000E+00  0.0000E+00
     -5.425  0.1943E-15  0.8327E-17
     -5.382  0.4470E-14  0.1998E-15
     -5.340  0.9633E-13  0.4327E-14
     -5.297  0.1757E-11  0.7961E-13
     -5.254  0.2728E-10  0.1248E-11
     -5.211  0.3604E-09  0.1669E-10
     -5.168  0.4054E-08  0.1904E-09
     -5.125  0.3881E-07  0.1853E-08
     -5.082  0.3165E-06  0.1542E-07
     -5.040  0.2200E-05  0.1097E-06
     -4.997  0.1304E-04  0.6684E-06
     -4.954  0.6602E-04  0.3497E-05
     -4.911  0.2860E-03  0.1575E-04
     -4.868  0.1064E-02  0.6132E-04
     -4.825  0.3410E-02  0.2074E-03
     -4.783  0.9490E-02  0.6140E-03
     -4.740  0.2313E-01  0.1605E-02
     -4.697  0.4999E-01  0.3747E-02
     -4.654  0.9705E-01  0.7905E-02
     -4.611  0.1716E+00  0.1526E-01
     -4.568  0.2798E+00  0.2725E-01
     -4.525  0.4240E+00  0.4541E-01
     -4.483  0.6010E+00  0.7116E-01
     -4.440  0.8014E+00  0.1055E+00
     -4.397  0.1011E+01  0.1488E+00
     -4.354  0.1212E+01  0.2007E+00
     -4.311  0.1390E+01  0.2603E+00
     -4.268  0.1536E+01  0.3261E+00
     -4.226  0.1652E+01  0.3969E+00
     -4.183  0.1752E+01  0.4719E+00
     -4.140  0.1852E+01  0.5513E+00
     -4.097  0.1973E+01  0.6358E+00
     -4.054  0.2126E+01  0.7269E+00
     -4.011  0.2312E+01  0.8259E+00
     -3.969  0.2516E+01  0.9337E+00
     -3.926  0.2715E+01  0.1050E+01
     -3.883  0.2885E+01  0.1174E+01
     -3.840  0.3008E+01  0.1303E+01
     -3.797  0.3077E+01  0.1434E+01
     -3.754  0.3101E+01  0.1567E+01
     -3.711  0.3103E+01  0.1700E+01
     -3.669  0.3113E+01  0.1834E+01
     -3.626  0.3154E+01  0.1969E+01
     -3.583  0.3240E+01  0.2108E+01
     -3.540  0.3372E+01  0.2252E+01
     -3.497  0.3540E+01  0.2404E+01
     -3.454  0.3725E+01  0.2563E+01
     -3.412  0.3904E+01  0.2731E+01
     -3.369  0.4053E+01  0.2904E+01
     -3.326  0.4153E+01  0.3082E+01
     -3.283  0.4200E+01  0.3262E+01
     -3.240  0.4205E+01  0.3442E+01
     -3.197  0.4204E+01  0.3622E+01
     -3.154  0.4239E+01  0.3804E+01
     -3.112  0.4344E+01  0.3990E+01
     -3.069  0.4529E+01  0.4184E+01
     -3.026  0.4774E+01  0.4389E+01
     -2.983  0.5032E+01  0.4604E+01
     -2.940  0.5246E+01  0.4829E+01
     -2.897  0.5366E+01  0.5059E+01
     -2.855  0.5382E+01  0.5289E+01
     -2.812  0.5333E+01  0.5518E+01
     -2.769  0.5291E+01  0.5745E+01
     -2.726  0.5319E+01  0.5973E+01
     -2.683  0.5433E+01  0.6205E+01
     -2.640  0.5586E+01  0.6445E+01
     -2.597  0.5704E+01  0.6689E+01
     -2.555  0.5738E+01  0.6935E+01
     -2.512  0.5704E+01  0.7179E+01
     -2.469  0.5680E+01  0.7423E+01
     -2.426  0.5767E+01  0.7670E+01
     -2.383  0.6039E+01  0.7928E+01
     -2.340  0.6482E+01  0.8206E+01
     -2.298  0.6983E+01  0.8505E+01
     -2.255  0.7366E+01  0.8821E+01
     -2.212  0.7498E+01  0.9142E+01
     -2.169  0.7370E+01  0.9458E+01
     -2.126  0.7113E+01  0.9763E+01
     -2.083  0.6922E+01  0.1006E+02
     -2.041  0.6958E+01  0.1036E+02
     -1.998  0.7268E+01  0.1067E+02
     -1.955  0.7772E+01  0.1100E+02
     -1.912  0.8304E+01  0.1136E+02
     -1.869  0.8693E+01  0.1173E+02
     -1.826  0.8852E+01  0.1211E+02
     -1.783  0.8821E+01  0.1249E+02
     -1.741  0.8729E+01  0.1286E+02
     -1.698  0.8700E+01  0.1323E+02
     -1.655  0.8790E+01  0.1361E+02
     -1.612  0.8981E+01  0.1400E+02
     -1.569  0.9226E+01  0.1439E+02
     -1.526  0.9495E+01  0.1480E+02
     -1.484  0.9780E+01  0.1522E+02
     -1.441  0.1007E+02  0.1565E+02
     -1.398  0.1036E+02  0.1609E+02
     -1.355  0.1059E+02  0.1655E+02
     -1.312  0.1078E+02  0.1701E+02
     -1.269  0.1101E+02  0.1748E+02
     -1.226  0.1144E+02  0.1797E+02
     -1.184  0.1218E+02  0.1849E+02
     -1.141  0.1318E+02  0.1905E+02
     -1.098  0.1423E+02  0.1966E+02
     -1.055  0.1504E+02  0.2031E+02
     -1.012  0.1547E+02  0.2097E+02
     -0.969  0.1561E+02  0.2164E+02
     -0.927  0.1581E+02  0.2232E+02
     -0.884  0.1645E+02  0.2302E+02
     -0.841  0.1772E+02  0.2378E+02
     -0.798  0.1962E+02  0.2462E+02
     -0.755  0.2201E+02  0.2556E+02
     -0.712  0.2483E+02  0.2663E+02
     -0.670  0.2815E+02  0.2783E+02
     -0.627  0.3202E+02  0.2921E+02
     -0.584  0.3633E+02  0.3076E+02
     -0.541  0.4072E+02  0.3251E+02
     -0.498  0.4473E+02  0.3442E+02
     -0.455  0.4801E+02  0.3648E+02
     -0.412  0.5049E+02  0.3864E+02
     -0.370  0.5235E+02  0.4089E+02
     -0.327  0.5386E+02  0.4320E+02
     -0.284  0.5519E+02  0.4556E+02
     -0.241  0.5633E+02  0.4797E+02
     -0.198  0.5716E+02  0.5042E+02
     -0.155  0.5758E+02  0.5289E+02
     -0.113  0.5767E+02  0.5536E+02
     -0.070  0.5769E+02  0.5783E+02
     -0.027  0.5792E+02  0.6031E+02
      0.016  0.5861E+02  0.6282E+02
      0.059  0.5993E+02  0.6539E+02
      0.102  0.6201E+02  0.6805E+02
      0.145  0.6481E+02  0.7083E+02
      0.187  0.6814E+02  0.7374E+02
      0.230  0.7166E+02  0.7681E+02
      0.273  0.7498E+02  0.8003E+02
      0.316  0.7791E+02  0.8337E+02
      0.359  0.8036E+02  0.8681E+02
      0.402  0.8239E+02  0.9034E+02
      0.444  0.8403E+02  0.9394E+02
      0.487  0.8527E+02  0.9759E+02
      0.530  0.8604E+02  0.1013E+03
      0.573  0.8629E+02  0.1050E+03
      0.616  0.8608E+02  0.1087E+03
      0.659  0.8545E+02  0.1123E+03
      0.701  0.8445E+02  0.1159E+03
      0.744  0.8307E+02  0.1195E+03
      0.787  0.8137E+02  0.1230E+03
      0.830  0.7955E+02  0.1264E+03
      0.873  0.7795E+02  0.1297E+03
      0.916  0.7683E+02  0.1330E+03
      0.959  0.7623E+02  0.1363E+03
      1.001  0.7596E+02  0.1395E+03
      1.044  0.7565E+02  0.1428E+03
      1.087  0.7504E+02  0.1460E+03
      1.130  0.7408E+02  0.1492E+03
      1.173  0.7307E+02  0.1523E+03
      1.216  0.7247E+02  0.1554E+03
      1.258  0.7255E+02  0.1585E+03
      1.301  0.7312E+02  0.1617E+03
      1.344  0.7358E+02  0.1648E+03
      1.387  0.7330E+02  0.1679E+03
      1.430  0.7209E+02  0.1710E+03
      1.473  0.7029E+02  0.1740E+03
      1.516  0.6860E+02  0.1770E+03
      1.558  0.6764E+02  0.1799E+03
      1.601  0.6773E+02  0.1828E+03
      1.644  0.6886E+02  0.1857E+03
      1.687  0.7076E+02  0.1888E+03
      1.730  0.7309E+02  0.1919E+03
      1.773  0.7555E+02  0.1951E+03
      1.815  0.7793E+02  0.1985E+03
      1.858  0.8010E+02  0.2019E+03
      1.901  0.8199E+02  0.2054E+03
      1.944  0.8366E+02  0.2090E+03
      1.987  0.8519E+02  0.2127E+03
      2.030  0.8673E+02  0.2164E+03
      2.073  0.8832E+02  0.2202E+03
      2.115  0.8997E+02  0.2240E+03
      2.158  0.9165E+02  0.2279E+03
      2.201  0.9332E+02  0.2319E+03
      2.244  0.9506E+02  0.2360E+03
      2.287  0.9705E+02  0.2402E+03
      2.330  0.9957E+02  0.2444E+03
      2.372  0.1028E+03  0.2488E+03
      2.415  0.1068E+03  0.2534E+03
      2.458  0.1113E+03  0.2582E+03
      2.501  0.1158E+03  0.2631E+03
      2.544  0.1199E+03  0.2683E+03
      2.587  0.1233E+03  0.2736E+03
      2.629  0.1258E+03  0.2790E+03
      2.672  0.1275E+03  0.2844E+03
      2.715  0.1284E+03  0.2899E+03
      2.758  0.1292E+03  0.2955E+03
      2.801  0.1304E+03  0.3010E+03
      2.844  0.1324E+03  0.3067E+03
      2.887  0.1356E+03  0.3125E+03
      2.929  0.1392E+03  0.3185E+03
      2.972  0.1419E+03  0.3246E+03
      3.015  0.1420E+03  0.3306E+03
      3.058  0.1383E+03  0.3366E+03
      3.101  0.1311E+03  0.3422E+03
      3.144  0.1216E+03  0.3474E+03
      3.186  0.1119E+03  0.3522E+03
      3.229  0.1034E+03  0.3566E+03
      3.272  0.9701E+02  0.3608E+03
      3.315  0.9292E+02  0.3648E+03
      3.358  0.9076E+02  0.3686E+03
      3.401  0.8996E+02  0.3725E+03
      3.444  0.8980E+02  0.3763E+03
      3.486  0.8952E+02  0.3802E+03
      3.529  0.8856E+02  0.3840E+03
      3.572  0.8685E+02  0.3877E+03
      3.615  0.8494E+02  0.3913E+03
      3.658  0.8366E+02  0.3949E+03
      3.701  0.8370E+02  0.3985E+03
      3.743  0.8518E+02  0.4022E+03
      3.786  0.8767E+02  0.4059E+03
      3.829  0.9050E+02  0.4098E+03
      3.872  0.9319E+02  0.4138E+03
      3.915  0.9556E+02  0.4179E+03
      3.958  0.9764E+02  0.4221E+03
      4.000  0.9949E+02  0.4263E+03
      4.043  0.1011E+03  0.4307E+03
      4.086  0.1022E+03  0.4350E+03
      4.129  0.1027E+03  0.4394E+03
      4.172  0.1025E+03  0.4438E+03
      4.215  0.1016E+03  0.4482E+03
      4.258  0.1003E+03  0.4525E+03
      4.300  0.9908E+02  0.4567E+03
      4.343  0.9825E+02  0.4609E+03
      4.386  0.9804E+02  0.4651E+03
      4.429  0.9839E+02  0.4693E+03
      4.472  0.9901E+02  0.4736E+03
      4.515  0.9950E+02  0.4779E+03
      4.557  0.9953E+02  0.4821E+03
      4.600  0.9904E+02  0.4864E+03
      4.643  0.9829E+02  0.4906E+03
      4.686  0.9777E+02  0.4948E+03
      4.729  0.9800E+02  0.4990E+03
      4.772  0.9925E+02  0.5032E+03
      4.815  0.1015E+03  0.5076E+03
      4.857  0.1044E+03  0.5120E+03
      4.900  0.1075E+03  0.5166E+03
      4.943  0.1105E+03  0.5214E+03
      4.986  0.1128E+03  0.5262E+03
      5.029  0.1134E+03  0.5311E+03
      5.072  0.1112E+03  0.5358E+03
      5.114  0.1049E+03  0.5403E+03
      5.157  0.9384E+02  0.5443E+03
      5.200  0.7836E+02  0.5477E+03
      5.243  0.6025E+02  0.5503E+03
      5.286  0.4214E+02  0.5521E+03
      5.329  0.2653E+02  0.5532E+03
      5.371  0.1491E+02  0.5539E+03
      5.414  0.7433E+01  0.5542E+03
      5.457  0.3267E+01  0.5543E+03
      5.500  0.1261E+01  0.5544E+03
      5.543  0.4256E+00  0.5544E+03
      5.586  0.1254E+00  0.5544E+03
      5.629  0.3213E-01  0.5544E+03
      5.671  0.7151E-02  0.5544E+03
      5.714  0.1380E-02  0.5544E+03
      5.757  0.2303E-03  0.5544E+03
      5.800  0.3322E-04  0.5544E+03
      5.843  0.4134E-05  0.5544E+03
      5.886  0.4433E-06  0.5544E+03
      5.928  0.4092E-07  0.5544E+03
      5.971  0.3247E-08  0.5544E+03
      6.014  0.2213E-09  0.5544E+03
      6.057  0.1294E-10  0.5544E+03
      6.100  0.6483E-12  0.5544E+03
      6.143  0.2643E-13  0.5544E+03
      6.186  0.7126E-15  0.5544E+03
      6.228  0.0000E+00  0.5544E+03
      6.271  0.0000E+00  0.5544E+03
      6.314  0.0000E+00  0.5544E+03
      6.357  0.0000E+00  0.5544E+03
      6.400  0.0000E+00  0.5544E+03
      6.443  0.0000E+00  0.5544E+03
      6.485  0.0000E+00  0.5544E+03
      6.528  0.0000E+00  0.5544E+03
      6.571  0.0000E+00  0.5544E+03
      6.614  0.0000E+00  0.5544E+03
      6.657  0.0000E+00  0.5544E+03
      6.700  0.0000E+00  0.5544E+03
      6.743  0.0000E+00  0.5544E+03
      6.785  0.0000E+00  0.5544E+03
