unknown system                          
           1
     9.726678    0.000000    0.000000
     0.000000    8.423550    0.000000
     0.000000    0.000000   45.000000
   Fe   Mn
 274  14
Direct configuration=     1
   0.06310561  0.03488743  0.12558643
   0.31343505  0.87112920  0.65396634
   0.18731352  0.11698374  0.78717507
   0.43762690  0.29112125  0.38987708
   0.31409355  0.70664452  0.83133183
   0.81371712  0.20899166  0.83262166
   0.18860290  0.95812280  0.83202339
   0.56290152  0.20756674  0.56513352
   0.06185459  0.03519706  0.74246469
   0.81210178  0.87084650  0.52107915
   0.18899079  0.28639701  0.74232767
   0.93680644  0.45620691  0.34631575
   0.93694503  0.29063955  0.38987416
   0.81257904  0.03513794  0.87419755
   0.18659808  0.78726771  0.60986396
   0.56228385  0.04082418  0.38986476
   0.93912755  0.95885883  0.83265134
   0.31377449  0.53508705  0.87450797
   0.68804463  0.28797202  0.74227774
   0.18880842  0.61990854  0.16798289
   0.81239487  0.20595629  0.47866974
   0.81355356  0.53646201  0.60992944
   0.31232435  0.87332084  0.43467362
   0.81271781  0.04051315  0.25767362
   0.68708141  0.95608261  0.34619633
   0.93637437  0.12052938  0.16865308
   0.93793825  0.12159482  0.52115683
   0.56143899  0.54072573  0.25746737
   0.68610828  0.79143300  0.87440893
   0.56346097  0.37055643  0.16814253
   0.43742808  0.78782413  0.74276891
   0.81245685  0.70699107  0.56500274
   0.56284158  0.86799053  0.78700013
   0.68729970  0.12107155  0.52109945
   0.81368404  0.37075590  0.65391530
   0.93731641  0.45794323  0.83235137
   0.06236573  0.20513789  0.69833865
   0.43714230  0.95522834  0.69824875
   0.31288019  0.20541572  0.83184653
   0.43813746  0.62130361  0.65381855
   0.31146298  0.53650481  0.60991671
   0.93754499  0.45733533  0.56501530
   0.68813920  0.78728179  0.74272451
   0.93707210  0.79108573  0.12579950
   0.68725948  0.79029446  0.38978181
   0.93761277  0.78687753  0.74281852
   0.06315696  0.20647912  0.34628548
   0.81152223  0.04124689  0.39005965
   0.43773562  0.11710606  0.78727073
   0.06202171  0.20734882  0.21296074
   0.06152452  0.37046281  0.16815724
   0.93625614  0.79122268  0.25744758
   0.56266942  0.20556068  0.69854793
   0.68710664  0.95549069  0.69835126
   0.43668406  0.79078540  0.12544184
   0.43698316  0.95693574  0.56477536
   0.81251842  0.36838259  0.78685646
   0.68579964  0.29102945  0.25756793
   0.18781666  0.45735168  0.56495308
   0.06325544  0.87068685  0.16834237
   0.18824620  0.28727079  0.61005515
   0.56384204  0.70662890  0.34634354
   0.31207960  0.20485463  0.69841728
   0.56137532  0.53492114  0.87442559
   0.06266835  0.70712920  0.56487621
   0.68783176  0.61701252  0.78697818
   0.31100174  0.54094289  0.38990165
   0.18746188  0.62084085  0.52114362
   0.56314981  0.87406933  0.43493667
   0.43743451  0.45733827  0.56496205
   0.43760555  0.28836799  0.74238543
   0.81236741  0.87703595  0.30165873
   0.81215213  0.70707517  0.34645106
   0.43809944  0.45537418  0.83154101
   0.68747334  0.95601529  0.47865910
   0.68680208  0.45541579  0.69827000
   0.56302943  0.87079996  0.52112118
   0.56321375  0.37093545  0.65378039
   0.81202504  0.86968030  0.65365535
   0.81291314  0.37429453  0.43481574
   0.81276608  0.54039451  0.25750508
   0.68946670  0.45532135  0.83186205
   0.18841317  0.79070265  0.12540789
   0.68717831  0.29103911  0.38977170
   0.31259523  0.37056389  0.65357828
   0.31280320  0.20688670  0.34623017
   0.56268272  0.37121648  0.52121968
   0.68755545  0.95568871  0.83201088
   0.56228268  0.87114168  0.65376682
   0.31225812  0.70726645  0.56511757
   0.31188437  0.53561016  0.12550297
   0.68713747  0.95801498  0.21306166
   0.31236936  0.20712854  0.56501570
   0.18742532  0.95604392  0.47878002
   0.68797247  0.95703476  0.56493074
   0.43689155  0.78713161  0.60985744
   0.68758962  0.61854626  0.16826137
   0.31258629  0.87502549  0.30143315
   0.31252047  0.70595668  0.47876699
   0.93623022  0.28753266  0.61013126
   0.43830842  0.62617060  0.30186283
   0.81240574  0.86988998  0.16852877
   0.56310316  0.20731332  0.21290875
   0.93738231  0.61873294  0.16832443
   0.93868192  0.78955891  0.87443925
   0.56213966  0.36742770  0.78695414
   0.06241544  0.37069277  0.52114096
   0.31244158  0.36957138  0.16847908
   0.68798946  0.12568735  0.30178660
   0.43949722  0.95570272  0.83146492
   0.18731808  0.29090029  0.12575114
   0.18712585  0.29114408  0.25776994
   0.31235896  0.37393824  0.43490330
   0.56335900  0.03510990  0.12558134
   0.43658169  0.28707925  0.60990699
   0.18709698  0.45805025  0.34654416
   0.43755272  0.29101691  0.12578828
   0.68780455  0.79159655  0.25744410
   0.43746275  0.12147703  0.52103133
   0.18887198  0.29103967  0.87449600
   0.18734827  0.12214146  0.65378235
   0.93786366  0.12177848  0.65381641
   0.31259217  0.20810550  0.21306899
   0.06244886  0.04020436  0.38984318
   0.18749768  0.11731317  0.16764385
   0.06245776  0.53467851  0.61013319
   0.93839214  0.29080833  0.25755329
   0.56286202  0.53660631  0.61003832
   0.93726234  0.95752740  0.56499165
   0.68713745  0.62529749  0.30173237
   0.93700096  0.62420937  0.43487836
   0.93701907  0.61721032  0.78651010
   0.56191022  0.70426049  0.69819603
   0.06294029  0.71024875  0.83247862
   0.93777060  0.12523696  0.30179843
   0.93834345  0.78759335  0.61001641
   0.43648780  0.79153848  0.25739889
   0.31258810  0.36788222  0.78694767
   0.43765124  0.45809874  0.21295383
   0.18706837  0.12136074  0.52118463
   0.81203751  0.70521818  0.69843559
   0.06195452  0.03606153  0.60985938
   0.56214815  0.20596658  0.83153402
   0.31252674  0.87100624  0.52114149
   0.68812936  0.29094808  0.12554819
   0.18713056  0.95835948  0.21328177
   0.68635623  0.28683811  0.60990941
   0.31254368  0.03610087  0.61023928
   0.93750614  0.11681427  0.78715805
   0.43802038  0.79045501  0.87421518
   0.81246501  0.03625857  0.74282408
   0.93755386  0.45597091  0.69837507
   0.18739684  0.62270160  0.65384556
   0.31280959  0.70465615  0.69837369
   0.93676519  0.29089305  0.12557308
   0.43760393  0.45588037  0.47872691
   0.06244370  0.70568612  0.47875035
   0.93674160  0.12388690  0.43480089
   0.43698917  0.12536490  0.30182377
   0.18752898  0.12463940  0.43472007
   0.56206092  0.03395177  0.87452756
   0.18777903  0.95762248  0.56500191
   0.68853052  0.79143709  0.12573832
   0.56340813  0.53438484  0.12562231
   0.31216555  0.04016528  0.38985841
   0.68839727  0.12022986  0.16860393
   0.81255516  0.20835718  0.21282124
   0.06360629  0.54072445  0.25751334
   0.56227147  0.70570070  0.47865468
   0.06280469  0.20691990  0.56484668
   0.56237083  0.37651390  0.30169072
   0.43728411  0.95705569  0.34635700
   0.18754776  0.95628178  0.69846023
   0.43597562  0.62008799  0.16795304
   0.93760578  0.45820855  0.21334182
   0.06165241  0.53404668  0.12558517
   0.81234544  0.37062923  0.52111408
   0.93727527  0.62540530  0.30149694
   0.31361927  0.04096717  0.25731782
   0.68845845  0.78706148  0.60986971
   0.18837707  0.45694690  0.83197893
   0.43725770  0.11742724  0.16769363
   0.31263787  0.37096862  0.52109428
   0.43738920  0.61678645  0.78716694
   0.06141910  0.04144166  0.25752348
   0.56259521  0.70730337  0.56506141
   0.93662712  0.28525889  0.74250992
   0.68540202  0.11675876  0.78676093
   0.18746753  0.45795237  0.21296039
   0.93733179  0.79111457  0.38979455
   0.68624845  0.29298949  0.87446052
   0.56243801  0.87045706  0.16809083
   0.43738878  0.45595681  0.69843525
   0.93856228  0.95611801  0.34623969
   0.68787385  0.62100701  0.52110526
   0.06267294  0.87078547  0.65375791
   0.06249565  0.86842523  0.78699290
   0.06218274  0.36991238  0.65369735
   0.68749171  0.45582556  0.47867774
   0.18847246  0.79148567  0.25735035
   0.43728589  0.12443378  0.43505425
   0.81343759  0.03449687  0.12547808
   0.93749037  0.62082489  0.52114984
   0.06212753  0.87420569  0.43531782
   0.81220168  0.53417925  0.12542273
   0.43788752  0.45684211  0.34642116
   0.81267236  0.20712948  0.34641544
   0.31274349  0.70656978  0.34632652
   0.68723009  0.12042148  0.65348028
   0.56301591  0.87554923  0.30183983
   0.06391903  0.53595648  0.74250606
   0.93789340  0.95807817  0.21304364
   0.81243852  0.70780686  0.21291487
   0.06187684  0.87527349  0.30187491
   0.18769277  0.12590534  0.30186244
   0.06252709  0.70718553  0.34636302
   0.81168503  0.03648668  0.61002560
   0.06224431  0.37381282  0.43492814
   0.56258358  0.20728109  0.34634807
   0.81246458  0.37662760  0.30180425
   0.56367128  0.04143695  0.25742139
   0.56247830  0.54066168  0.38987920
   0.06254228  0.20600148  0.47865319
   0.31284176  0.86720580  0.78692301
   0.93731003  0.95599293  0.69829829
   0.06253194  0.37620079  0.30162098
   0.68685587  0.62089471  0.65374128
   0.68715823  0.45724640  0.56496089
   0.43809145  0.95842885  0.21334061
   0.31226781  0.20594685  0.47873697
   0.43781116  0.12057405  0.65346278
   0.68723270  0.62380953  0.43491608
   0.81292372  0.20528426  0.69839868
   0.81250343  0.70599025  0.47872026
   0.81179773  0.87440593  0.43499903
   0.93709214  0.95591519  0.47886823
   0.56246021  0.20616881  0.47861206
   0.18725443  0.62372410  0.43475517
   0.31126738  0.03683729  0.74225433
   0.93698376  0.62183954  0.65383323
   0.56244875  0.70655759  0.83173941
   0.31235140  0.37380208  0.30183237
   0.56235904  0.70808400  0.21292314
   0.18745642  0.45585308  0.47876497
   0.31423878  0.03584795  0.87426282
   0.18695897  0.45631055  0.69856473
   0.81111793  0.53367952  0.87459858
   0.18729969  0.29084336  0.38989708
   0.43699771  0.62438462  0.43501151
   0.06260798  0.70799701  0.21300083
   0.56189511  0.37442199  0.43487934
   0.43725425  0.62130215  0.52121247
   0.81304506  0.71045081  0.83157925
   0.06228240  0.36810518  0.78701068
   0.43722468  0.29215380  0.87479785
   0.31299474  0.03458024  0.12551970
   0.68749579  0.12337017  0.43478360
   0.18732635  0.95709689  0.34647869
   0.06305312  0.20910174  0.83264360
   0.56234764  0.03623301  0.61031745
   0.68755002  0.45788798  0.21318323
   0.18765617  0.78770571  0.74279991
   0.18739887  0.62646056  0.30184425
   0.43591338  0.79153553  0.39020985
   0.43559426  0.29171264  0.25749615
   0.06362836  0.53535117  0.87445884
   0.56325574  0.03642767  0.74254567
   0.18812582  0.79031590  0.87430619
   0.93753529  0.45569794  0.47875555
   0.81231087  0.54058862  0.38991870
   0.81231322  0.20692815  0.56488388
   0.18751294  0.61701475  0.78682966
   0.06278700  0.54083658  0.38985433
   0.06297352  0.70456989  0.69834469
   0.31250432  0.54203543  0.25691898
   0.31237678  0.70565327  0.21351870
   0.31241526  0.87029308  0.16712627
   0.56276881  0.53709189  0.74240295
   0.68733178  0.45530773  0.34629863
   0.93456835  0.29288931  0.87406318
   0.43732226  0.95655629  0.47882205
   0.06437750  0.03226697  0.87412867
   0.18694698  0.79195353  0.39008985
   0.81232674  0.37037805  0.16765428
   0.81217989  0.53673167  0.74320142
   0.06269820  0.87074187  0.52121023
   0.81187098  0.86834785  0.78655803
   0.31209171  0.53548315  0.74270114
Direct configuration=     2
   0.06301682  0.03529245  0.12566782
   0.31320465  0.87112431  0.65394256
   0.18732318  0.11740958  0.78712684
   0.43767920  0.29116127  0.38995677
   0.31383368  0.70643477  0.83141318
   0.81368888  0.20848979  0.83255576
   0.18830773  0.95784559  0.83204035
   0.56286107  0.20726487  0.56516087
   0.06190092  0.03549662  0.74252150
   0.81211903  0.87105998  0.52117580
   0.18867796  0.28636326  0.74240009
   0.93697827  0.45636328  0.34625990
   0.93691952  0.29064766  0.38996080
   0.81241459  0.03583276  0.87419363
   0.18679837  0.78733407  0.60983971
   0.56221957  0.04081503  0.38994944
   0.93914639  0.95854615  0.83258210
   0.31362754  0.53564791  0.87441276
   0.68799614  0.28776802  0.74234881
   0.18863381  0.62006996  0.16797077
   0.81233817  0.20592078  0.47860822
   0.81330270  0.53666659  0.60988170
   0.31230536  0.87339969  0.43468917
   0.81269927  0.04064280  0.25764100
   0.68711779  0.95629775  0.34616079
   0.93649471  0.12060536  0.16854961
   0.93777753  0.12179788  0.52121740
   0.56170048  0.54080705  0.25745636
   0.68631408  0.79080995  0.87434587
   0.56337687  0.37064135  0.16806642
   0.43745860  0.78778408  0.74276618
   0.81253237  0.70678469  0.56504098
   0.56273341  0.86805019  0.78696109
   0.68730042  0.12130822  0.52116929
   0.81344663  0.37078736  0.65390892
   0.93745901  0.45768579  0.83231350
   0.06236576  0.20499070  0.69834089
   0.43720453  0.95514139  0.69826718
   0.31286373  0.20539385  0.83193352
   0.43795849  0.62128765  0.65382673
   0.31167170  0.53673350  0.60986702
   0.93754011  0.45705204  0.56504598
   0.68803855  0.78728657  0.74272289
   0.93706248  0.79054931  0.12591281
   0.68730710  0.79030710  0.38986697
   0.93763534  0.78689049  0.74280542
   0.06304138  0.20663764  0.34624114
   0.81170963  0.04111654  0.39011940
   0.43763427  0.11753415  0.78719865
   0.06202939  0.20726054  0.21299666
   0.06162182  0.37057450  0.16808240
   0.93644164  0.79116336  0.25744668
   0.56260124  0.20536698  0.69851551
   0.68717089  0.95534725  0.69835311
   0.43683472  0.79022317  0.12549203
   0.43707908  0.95679022  0.56480806
   0.81253892  0.36839086  0.78686323
   0.68604778  0.29103720  0.25753868
   0.18771465  0.45707228  0.56499771
   0.06321914  0.87077827  0.16825688
   0.18802919  0.28724763  0.60999603
   0.56359594  0.70675847  0.34629805
   0.31218454  0.20479980  0.69839844
   0.56155088  0.53566331  0.87431157
   0.06264144  0.70679390  0.56492804
   0.68777938  0.61737477  0.78698266
   0.31123463  0.54092325  0.38998165
   0.18760211  0.62117980  0.52122173
   0.56294689  0.87397974  0.43490369
   0.43743183  0.45711745  0.56500256
   0.43760059  0.28810009  0.74244122
   0.81240997  0.87674329  0.30164448
   0.81221140  0.70708170  0.34638903
   0.43810464  0.45535140  0.83165683
   0.68755225  0.95611662  0.47859594
   0.68690836  0.45524017  0.69826332
   0.56291019  0.87111124  0.52118327
   0.56305830  0.37086314  0.65378637
   0.81216430  0.86997799  0.65370392
   0.81281045  0.37422157  0.43480815
   0.81270530  0.54045343  0.25749257
   0.68929315  0.45533440  0.83193005
   0.18828353  0.79017678  0.12547322
   0.68717426  0.29101066  0.38987469
   0.31261092  0.37074920  0.65362604
   0.31276391  0.20697228  0.34618360
   0.56260644  0.37143509  0.52127137
   0.68764668  0.95573024  0.83204549
   0.56238446  0.87115008  0.65377040
   0.31227960  0.70699125  0.56515214
   0.31197885  0.53612036  0.12557133
   0.68712232  0.95795977  0.21309563
   0.31238931  0.20688569  0.56505582
   0.18738567  0.95617911  0.47870577
   0.68794308  0.95688424  0.56498883
   0.43701127  0.78716087  0.60982486
   0.68751750  0.61873421  0.16820497
   0.31256299  0.87503007  0.30145201
   0.31246333  0.70583539  0.47868932
   0.93642586  0.28746167  0.61005896
   0.43819448  0.62593811  0.30181553
   0.81244254  0.87000062  0.16840442
   0.56306412  0.20722954  0.21294063
   0.93743394  0.61886799  0.16826355
   0.93849229  0.78898960  0.87442260
   0.56215351  0.36763986  0.78693037
   0.06244918  0.37103827  0.52120221
   0.31242074  0.36963402  0.16837388
   0.68792632  0.12568289  0.30175937
   0.43935622  0.95563581  0.83158192
   0.18738707  0.29044850  0.12584550
   0.18711966  0.29104420  0.25770353
   0.31239791  0.37389230  0.43488063
   0.56329785  0.03550601  0.12565539
   0.43673532  0.28714720  0.60986487
   0.18716497  0.45797681  0.34645261
   0.43749388  0.29057825  0.12587441
   0.68776370  0.79151338  0.25743491
   0.43747786  0.12172439  0.52111794
   0.18895084  0.29051568  0.87445848
   0.18735462  0.12196032  0.65380664
   0.93779063  0.12157472  0.65383029
   0.31258331  0.20794925  0.21306168
   0.06234506  0.04027305  0.38992977
   0.18743999  0.11784027  0.16769708
   0.06245585  0.53514492  0.61006434
   0.93818593  0.29079298  0.25752207
   0.56276809  0.53680454  0.60996260
   0.93726288  0.95730369  0.56503132
   0.68716253  0.62536199  0.30170179
   0.93706628  0.62414202  0.43484843
   0.93713582  0.61774565  0.78656717
   0.56197223  0.70423274  0.69821260
   0.06297346  0.70967904  0.83244898
   0.93770136  0.12529766  0.30177125
   0.93816474  0.78756624  0.60995534
   0.43668833  0.79151170  0.25740762
   0.31256775  0.36797083  0.78690322
   0.43774548  0.45789116  0.21297513
   0.18723665  0.12157568  0.52123737
   0.81210833  0.70514245  0.69843539
   0.06203632  0.03632605  0.60982169
   0.56220693  0.20584072  0.83161907
   0.31254393  0.87114907  0.52121968
   0.68805195  0.29039131  0.12563443
   0.18715591  0.95833750  0.21327828
   0.68657754  0.28699572  0.60987371
   0.31251484  0.03627261  0.61015392
   0.93754458  0.11728448  0.78715199
   0.43801060  0.78989224  0.87415910
   0.81255761  0.03643230  0.74279288
   0.93751661  0.45572928  0.69838043
   0.18741331  0.62242677  0.65386296
   0.31275083  0.70462379  0.69838604
   0.93686824  0.29032918  0.12565447
   0.43757596  0.45589830  0.47866830
   0.06246791  0.70554978  0.47869059
   0.93683454  0.12383984  0.43477577
   0.43712716  0.12526836  0.30178168
   0.18754119  0.12444649  0.43470262
   0.56216020  0.03473621  0.87441671
   0.18772767  0.95743262  0.56505771
   0.68851156  0.79088066  0.12584839
   0.56337534  0.53482633  0.12569161
   0.31224090  0.04027618  0.38995267
   0.68832907  0.12035573  0.16850068
   0.81255165  0.20809562  0.21288223
   0.06333644  0.54078548  0.25749945
   0.56229083  0.70561931  0.47861088
   0.06271867  0.20666390  0.56491369
   0.56228415  0.37625456  0.30166161
   0.43727244  0.95702873  0.34630621
   0.18749927  0.95598373  0.69844913
   0.43616925  0.62025043  0.16793709
   0.93765802  0.45804421  0.21334011
   0.06165306  0.53453465  0.12566817
   0.81233163  0.37099672  0.52118770
   0.93733548  0.62539737  0.30149734
   0.31339837  0.04085465  0.25733497
   0.68819570  0.78709603  0.60982419
   0.18821867  0.45688296  0.83203319
   0.43736892  0.11793379  0.16775043
   0.31270486  0.37123692  0.52118180
   0.43743905  0.61713544  0.78712420
   0.06162343  0.04129298  0.25750145
   0.56255023  0.70699121  0.56510091
   0.93684653  0.28546313  0.74255001
   0.68563904  0.11717676  0.78676157
   0.18735456  0.45777784  0.21298107
   0.93724684  0.79108213  0.38990030
   0.68628802  0.29217333  0.87442996
   0.56236834  0.87059634  0.16804229
   0.43738098  0.45561608  0.69840014
   0.93844269  0.95632096  0.34619864
   0.68778297  0.62124516  0.52118086
   0.06260590  0.87088341  0.65378013
   0.06261191  0.86856348  0.78699018
   0.06228031  0.37014809  0.65371912
   0.68756495  0.45578173  0.47861163
   0.18822470  0.79152919  0.25737389
   0.43731714  0.12431868  0.43499079
   0.81334640  0.03512833  0.12561400
   0.93735903  0.62111623  0.52122731
   0.06217172  0.87408981  0.43526610
   0.81225704  0.53481116  0.12548587
   0.43769092  0.45693611  0.34636075
   0.81272573  0.20712544  0.34635309
   0.31270575  0.70677592  0.34628596
   0.68731764  0.12057541  0.65355092
   0.56293150  0.87552265  0.30180969
   0.06363496  0.53596413  0.74254110
   0.93796153  0.95800431  0.21307390
   0.81243663  0.70755763  0.21295224
   0.06194194  0.87522666  0.30182837
   0.18765897  0.12573097  0.30180966
   0.06252790  0.70726975  0.34631935
   0.81182038  0.03663892  0.60997474
   0.06225916  0.37379079  0.43489302
   0.56251657  0.20724003  0.34629021
   0.81246310  0.37629655  0.30175660
   0.56348042  0.04140136  0.25742550
   0.56242281  0.54065085  0.38997128
   0.06253419  0.20586150  0.47859181
   0.31283128  0.86738610  0.78687788
   0.93728309  0.95573475  0.69830202
   0.06254873  0.37607823  0.30162035
   0.68702604  0.62091754  0.65375449
   0.68726779  0.45702039  0.56500056
   0.43804940  0.95835218  0.21332119
   0.31214607  0.20586802  0.47865380
   0.43775664  0.12078879  0.65353618
   0.68727050  0.62378544  0.43488512
   0.81283411  0.20520141  0.69838020
   0.81248226  0.70590883  0.47865270
   0.81192535  0.87421521  0.43494530
   0.93711137  0.95594875  0.47879914
   0.56259972  0.20615007  0.47856407
   0.18723883  0.62370362  0.43475481
   0.31140844  0.03693129  0.74234346
   0.93711609  0.62168220  0.65385119
   0.56257278  0.70640348  0.83182627
   0.31236868  0.37405087  0.30181290
   0.56238288  0.70790285  0.21294351
   0.18735258  0.45583215  0.47869136
   0.31426447  0.03655319  0.87418451
   0.18706070  0.45593025  0.69851275
   0.81118749  0.53451285  0.87451411
   0.18730400  0.29082571  0.38998068
   0.43701495  0.62435513  0.43497717
   0.06257509  0.70785046  0.21301207
   0.56196950  0.37430710  0.43486079
   0.43730554  0.62153537  0.52126036
   0.81306768  0.70979269  0.83162004
   0.06237487  0.36835520  0.78698343
   0.43714376  0.29145993  0.87467010
   0.31296156  0.03514423  0.12550838
   0.68739937  0.12334470  0.43478485
   0.18734233  0.95706650  0.34639568
   0.06296908  0.20855294  0.83254973
   0.56232433  0.03639160  0.61019991
   0.68747826  0.45779999  0.21320211
   0.18763494  0.78763102  0.74279010
   0.18742434  0.62617446  0.30182085
   0.43623291  0.79143448  0.39023805
   0.43595303  0.29155695  0.25746149
   0.06372358  0.53601965  0.87438475
   0.56316211  0.03659316  0.74258463
   0.18809533  0.78967648  0.87426403
   0.93749990  0.45566645  0.47867241
   0.81230653  0.54057394  0.38999061
   0.81232102  0.20671078  0.56492549
   0.18743936  0.61742855  0.78685068
   0.06266367  0.54082366  0.38995628
   0.06288306  0.70453930  0.69834456
   0.31250216  0.54184681  0.25699334
   0.31238490  0.70587914  0.21347182
   0.31242935  0.87039612  0.16715224
   0.56277259  0.53719209  0.74243365
   0.68736772  0.45562230  0.34626275
   0.93477338  0.29222886  0.87411652
   0.43734308  0.95631187  0.47875820
   0.06435167  0.03303904  0.87412957
   0.18695067  0.79173455  0.39011503
   0.81235541  0.37053860  0.16760726
   0.81236060  0.53670816  0.74314822
   0.06264762  0.87097608  0.52125481
   0.81194397  0.86829578  0.78657547
   0.31205701  0.53569981  0.74271948
Direct configuration=     3
   0.06280563  0.03625582  0.12586139
   0.31265664  0.87111266  0.65388602
   0.18734616  0.11842244  0.78701213
   0.43780361  0.29125646  0.39014632
   0.31321557  0.70593585  0.83160667
   0.81362170  0.20729607  0.83239901
   0.18760568  0.95718623  0.83208069
   0.56276487  0.20654684  0.56522593
   0.06201113  0.03620914  0.74265663
   0.81216006  0.87156774  0.52140567
   0.18793388  0.28628300  0.74257234
   0.93738697  0.45673521  0.34612705
   0.93685884  0.29066694  0.39016688
   0.81202345  0.03748541  0.87418430
   0.18727475  0.78749192  0.60978204
   0.56206666  0.04079329  0.39015083
   0.93919121  0.95780243  0.83241739
   0.31327802  0.53698192  0.87418632
   0.68788080  0.28728281  0.74251787
   0.18821849  0.62045388  0.16794195
   0.81220331  0.20583631  0.47846191
   0.81270604  0.53715320  0.60976817
   0.31226018  0.87358722  0.43472615
   0.81265517  0.04095119  0.25756340
   0.68720432  0.95680949  0.34607624
   0.93678096  0.12078608  0.16830350
   0.93739525  0.12228087  0.52136147
   0.56232245  0.54100046  0.25743018
   0.68680358  0.78932799  0.87419589
   0.56317682  0.37084334  0.16788538
   0.43753122  0.78768881  0.74275968
   0.81271200  0.70629380  0.56513191
   0.56247613  0.86819209  0.78686823
   0.68730213  0.12187116  0.52133540
   0.81288195  0.37086218  0.65389375
   0.93779820  0.45707346  0.83222344
   0.06236584  0.20464061  0.69834623
   0.43735256  0.95493457  0.69831103
   0.31282455  0.20534184  0.83214043
   0.43753278  0.62124969  0.65384617
   0.31216817  0.53727743  0.60974883
   0.93752850  0.45637822  0.56511897
   0.68779914  0.78729795  0.74271906
   0.93703961  0.78927341  0.12618233
   0.68742035  0.79033714  0.39006953
   0.93768901  0.78692132  0.74277425
   0.06276647  0.20701467  0.34613568
   0.81215537  0.04080649  0.39026150
   0.43739320  0.11855236  0.78702719
   0.06204764  0.20705058  0.21308210
   0.06185324  0.37084018  0.16790439
   0.93688287  0.79102227  0.25744454
   0.56243908  0.20490625  0.69843841
   0.68732373  0.95500605  0.69835752
   0.43719308  0.78888589  0.12561142
   0.43730721  0.95644409  0.56488584
   0.81258769  0.36841053  0.78687935
   0.68663799  0.29105561  0.25746912
   0.18747202  0.45640772  0.56510385
   0.06313279  0.87099572  0.16805353
   0.18751301  0.28719252  0.60985539
   0.56301058  0.70706667  0.34618985
   0.31243416  0.20466938  0.69835365
   0.56196845  0.53742861  0.87404036
   0.06257743  0.70599636  0.56505133
   0.68765481  0.61823638  0.78699331
   0.31178854  0.54087653  0.39017193
   0.18793565  0.62198600  0.52140751
   0.56246422  0.87376664  0.43482524
   0.43742544  0.45659221  0.56509890
   0.43758877  0.28746289  0.74257391
   0.81251120  0.87604717  0.30161058
   0.81235239  0.70709722  0.34624149
   0.43811701  0.45529723  0.83193230
   0.68773994  0.95635765  0.47844573
   0.68716115  0.45482244  0.69824742
   0.56262658  0.87185164  0.52133097
   0.56268855  0.37069115  0.65380061
   0.81249554  0.87068606  0.65381943
   0.81256621  0.37404803  0.43479008
   0.81256075  0.54059357  0.25746279
   0.68888037  0.45536546  0.83209178
   0.18797518  0.78892600  0.12562860
   0.68716461  0.29094300  0.39011965
   0.31264825  0.37118997  0.65373966
   0.31267045  0.20717582  0.34607284
   0.56242500  0.37195508  0.52139432
   0.68786370  0.95582901  0.83212782
   0.56262654  0.87117006  0.65377893
   0.31233069  0.70633667  0.56523435
   0.31220356  0.53733389  0.12573392
   0.68708631  0.95782844  0.21317644
   0.31243675  0.20630807  0.56515127
   0.18729138  0.95650066  0.47852915
   0.68787318  0.95652623  0.56512698
   0.43729604  0.78723046  0.60974736
   0.68734596  0.61918126  0.16807082
   0.31250758  0.87504097  0.30149687
   0.31232742  0.70554690  0.47850457
   0.93689120  0.28729280  0.60988699
   0.43792349  0.62538512  0.30170303
   0.81253006  0.87026377  0.16810866
   0.56297125  0.20703029  0.21301646
   0.93755676  0.61918921  0.16811873
   0.93804124  0.78763549  0.87438300
   0.56218645  0.36814449  0.78687382
   0.06252943  0.37186005  0.52134789
   0.31237117  0.36978303  0.16812364
   0.68777614  0.12567228  0.30169459
   0.43902084  0.95547664  0.83186020
   0.18755116  0.28937388  0.12606995
   0.18710495  0.29080662  0.25754556
   0.31249056  0.37378303  0.43482670
   0.56315239  0.03644817  0.12583153
   0.43710073  0.28730884  0.60976467
   0.18732670  0.45780214  0.34623487
   0.43735391  0.28953488  0.12607925
   0.68766655  0.79131557  0.25741305
   0.43751382  0.12231277  0.52132396
   0.18913841  0.28926935  0.87436923
   0.18736972  0.12152948  0.65386442
   0.93761693  0.12109008  0.65386331
   0.31256225  0.20757762  0.21304428
   0.06209815  0.04043643  0.39013572
   0.18730277  0.11909398  0.16782368
   0.06245129  0.53625430  0.60990057
   0.93769546  0.29075645  0.25744782
   0.56254466  0.53727605  0.60978248
   0.93726417  0.95677158  0.56512569
   0.68722218  0.62551540  0.30162907
   0.93722166  0.62398182  0.43477723
   0.93741354  0.61901896  0.78670293
   0.56211973  0.70416673  0.69825200
   0.06305234  0.70832395  0.83237848
   0.93753667  0.12544202  0.30170660
   0.93773966  0.78750177  0.60981010
   0.43716529  0.79144801  0.25742836
   0.31251937  0.36818161  0.78679748
   0.43796963  0.45739741  0.21302579
   0.18763693  0.12208691  0.52136284
   0.81227678  0.70496232  0.69843493
   0.06223089  0.03695522  0.60973204
   0.56234674  0.20554137  0.83182136
   0.31258482  0.87148881  0.52140565
   0.68786785  0.28906703  0.12583955
   0.18721620  0.95828521  0.21326998
   0.68710394  0.28737060  0.60978880
   0.31244625  0.03668108  0.60995088
   0.93763602  0.11840288  0.78713759
   0.43798733  0.78855368  0.87402572
   0.81277788  0.03684552  0.74271867
   0.93742802  0.45515456  0.69839318
   0.18745248  0.62177310  0.65390435
   0.31261106  0.70454684  0.69841541
   0.93711334  0.28898798  0.12584807
   0.43750941  0.45594095  0.47852890
   0.06252549  0.70522550  0.47854846
   0.93705561  0.12372790  0.43471604
   0.43745540  0.12503874  0.30168157
   0.18757024  0.12398763  0.43466109
   0.56239635  0.03660203  0.87415304
   0.18760551  0.95698103  0.56519043
   0.68846648  0.78955719  0.12611019
   0.56329732  0.53587643  0.12585643
   0.31242013  0.04053996  0.39017687
   0.68816687  0.12065512  0.16825508
   0.81254331  0.20747350  0.21302728
   0.06269458  0.54093066  0.25746643
   0.56233688  0.70542572  0.47850670
   0.06251406  0.20605498  0.56507310
   0.56207798  0.37563771  0.30159236
   0.43724469  0.95696461  0.34618540
   0.18738394  0.95527481  0.69842274
   0.43662980  0.62063681  0.16789917
   0.93778228  0.45765332  0.21333603
   0.06165459  0.53569528  0.12586560
   0.81229880  0.37187082  0.52136283
   0.93747870  0.62537851  0.30149828
   0.31287296  0.04058703  0.25737576
   0.68757074  0.78717820  0.60971595
   0.18784189  0.45673088  0.83216226
   0.43763345  0.11913865  0.16788553
   0.31286421  0.37187508  0.52138997
   0.43755761  0.61796552  0.78702256
   0.06210943  0.04093936  0.25744905
   0.56244324  0.70624874  0.56519487
   0.93736839  0.28594890  0.74264537
   0.68620281  0.11817098  0.78676309
   0.18708586  0.45736272  0.21303027
   0.93704479  0.79100499  0.39015182
   0.68638215  0.29023205  0.87435725
   0.56220263  0.87092762  0.16792684
   0.43736242  0.45480564  0.69831663
   0.93815825  0.95680370  0.34610102
   0.68756681  0.62181161  0.52136070
   0.06244646  0.87111636  0.65383298
   0.06288844  0.86889233  0.78698371
   0.06251237  0.37070876  0.65377089
   0.68773917  0.45567749  0.47845437
   0.18763540  0.79163271  0.25742988
   0.43739148  0.12404492  0.43483986
   0.81312949  0.03663028  0.12593730
   0.93704663  0.62180921  0.52141159
   0.06227684  0.87381418  0.43514308
   0.81238871  0.53631418  0.12563603
   0.43722328  0.45715969  0.34621707