 288 288   0   0
  0.1280206E+02  0.9726678E-09  0.8423550E-09  0.4500000E-08  0.2500000E-15
  1.000000000000000E-004
  CAR 
 unknown system                          
      6.75291655     -6.05498164  301      4.30338825      1.00000000
     -6.055  0.0000E+00  0.0000E+00
     -6.012  0.0000E+00  0.0000E+00
     -5.970  0.0000E+00  0.0000E+00
     -5.927  0.0000E+00  0.0000E+00
     -5.884  0.0000E+00  0.0000E+00
     -5.842  0.0000E+00  0.0000E+00
     -5.799  0.0000E+00  0.0000E+00
     -5.756  0.0000E+00  0.0000E+00
     -5.713  0.0000E+00  0.0000E+00
     -5.671  0.0000E+00  0.0000E+00
     -5.628  0.0000E+00  0.0000E+00
     -5.585  0.0000E+00  0.0000E+00
     -5.543  0.0000E+00  0.0000E+00
     -5.500  0.0000E+00  0.0000E+00
     -5.457  0.0000E+00  0.0000E+00
     -5.415  0.1625E-15  0.6939E-17
     -5.372  0.3771E-14  0.1679E-15
     -5.329  0.8074E-13  0.3615E-14
     -5.287  0.1473E-11  0.6650E-13
     -5.244  0.2289E-10  0.1044E-11
     -5.201  0.3030E-09  0.1398E-10
     -5.158  0.3418E-08  0.1599E-09
     -5.116  0.3287E-07  0.1563E-08
     -5.073  0.2695E-06  0.1307E-07
     -5.030  0.1886E-05  0.9357E-07
     -4.988  0.1127E-04  0.5746E-06
     -4.945  0.5757E-04  0.3032E-05
     -4.902  0.2521E-03  0.1379E-04
     -4.860  0.9487E-03  0.5430E-04
     -4.817  0.3083E-02  0.1859E-03
     -4.774  0.8711E-02  0.5578E-03
     -4.731  0.2158E-01  0.1479E-02
     -4.689  0.4745E-01  0.3505E-02
     -4.646  0.9375E-01  0.7507E-02
     -4.603  0.1687E+00  0.1471E-01
     -4.561  0.2796E+00  0.2665E-01
     -4.518  0.4305E+00  0.4503E-01
     -4.475  0.6191E+00  0.7146E-01
     -4.433  0.8358E+00  0.1071E+00
     -4.390  0.1064E+01  0.1526E+00
     -4.347  0.1284E+01  0.2074E+00
     -4.305  0.1474E+01  0.2703E+00
     -4.262  0.1622E+01  0.3396E+00
     -4.219  0.1728E+01  0.4133E+00
     -4.176  0.1804E+01  0.4904E+00
     -4.134  0.1877E+01  0.5705E+00
     -4.091  0.1973E+01  0.6547E+00
     -4.048  0.2114E+01  0.7449E+00
     -4.006  0.2305E+01  0.8434E+00
     -3.963  0.2534E+01  0.9515E+00
     -3.920  0.2767E+01  0.1070E+01
     -3.878  0.2968E+01  0.1196E+01
     -3.835  0.3102E+01  0.1329E+01
     -3.792  0.3157E+01  0.1464E+01
     -3.750  0.3144E+01  0.1598E+01
     -3.707  0.3100E+01  0.1730E+01
     -3.664  0.3073E+01  0.1861E+01
     -3.621  0.3103E+01  0.1994E+01
     -3.579  0.3210E+01  0.2131E+01
     -3.536  0.3389E+01  0.2276E+01
     -3.493  0.3610E+01  0.2430E+01
     -3.451  0.3832E+01  0.2593E+01
     -3.408  0.4014E+01  0.2765E+01
     -3.365  0.4133E+01  0.2941E+01
     -3.323  0.4184E+01  0.3120E+01
     -3.280  0.4186E+01  0.3299E+01
     -3.237  0.4174E+01  0.3477E+01
     -3.195  0.4190E+01  0.3656E+01
     -3.152  0.4268E+01  0.3838E+01
     -3.109  0.4419E+01  0.4027E+01
     -3.066  0.4629E+01  0.4224E+01
     -3.024  0.4863E+01  0.4432E+01
     -2.981  0.5079E+01  0.4649E+01
     -2.938  0.5240E+01  0.4872E+01
     -2.896  0.5326E+01  0.5100E+01
     -2.853  0.5352E+01  0.5328E+01
     -2.810  0.5358E+01  0.5557E+01
     -2.768  0.5394E+01  0.5787E+01
     -2.725  0.5483E+01  0.6021E+01
     -2.682  0.5603E+01  0.6261E+01
     -2.640  0.5692E+01  0.6504E+01
     -2.597  0.5693E+01  0.6747E+01
     -2.554  0.5605E+01  0.6986E+01
     -2.511  0.5501E+01  0.7221E+01
     -2.469  0.5500E+01  0.7456E+01
     -2.426  0.5705E+01  0.7699E+01
     -2.383  0.6142E+01  0.7961E+01
     -2.341  0.6724E+01  0.8248E+01
     -2.298  0.7272E+01  0.8559E+01
     -2.255  0.7595E+01  0.8883E+01
     -2.213  0.7589E+01  0.9207E+01
     -2.170  0.7313E+01  0.9519E+01
     -2.127  0.6965E+01  0.9817E+01
     -2.085  0.6773E+01  0.1011E+02
     -2.042  0.6887E+01  0.1040E+02
     -1.999  0.7304E+01  0.1071E+02
     -1.956  0.7891E+01  0.1105E+02
     -1.914  0.8449E+01  0.1141E+02
     -1.871  0.8810E+01  0.1179E+02
     -1.828  0.8911E+01  0.1217E+02
     -1.786  0.8825E+01  0.1254E+02
     -1.743  0.8702E+01  0.1291E+02
     -1.700  0.8673E+01  0.1328E+02
     -1.658  0.8782E+01  0.1366E+02
     -1.615  0.9001E+01  0.1404E+02
     -1.572  0.9272E+01  0.1444E+02
     -1.530  0.9556E+01  0.1485E+02
     -1.487  0.9839E+01  0.1527E+02
     -1.444  0.1011E+02  0.1570E+02
     -1.401  0.1034E+02  0.1614E+02
     -1.359  0.1050E+02  0.1659E+02
     -1.316  0.1064E+02  0.1704E+02
     -1.273  0.1086E+02  0.1751E+02
     -1.231  0.1136E+02  0.1799E+02
     -1.188  0.1222E+02  0.1851E+02
     -1.145  0.1333E+02  0.1908E+02
     -1.103  0.1443E+02  0.1970E+02
     -1.060  0.1519E+02  0.2035E+02
     -1.017  0.1548E+02  0.2101E+02
     -0.975  0.1546E+02  0.2167E+02
     -0.932  0.1552E+02  0.2233E+02
     -0.889  0.1605E+02  0.2302E+02
     -0.846  0.1724E+02  0.2375E+02
     -0.804  0.1900E+02  0.2456E+02
     -0.761  0.2120E+02  0.2547E+02
     -0.718  0.2380E+02  0.2648E+02
     -0.676  0.2697E+02  0.2764E+02
     -0.633  0.3087E+02  0.2895E+02
     -0.590  0.3538E+02  0.3046E+02
     -0.548  0.4006E+02  0.3217E+02
     -0.505  0.4430E+02  0.3407E+02
     -0.462  0.4772E+02  0.3610E+02
     -0.420  0.5028E+02  0.3825E+02
     -0.377  0.5223E+02  0.4048E+02
     -0.334  0.5384E+02  0.4278E+02
     -0.291  0.5524E+02  0.4514E+02
     -0.249  0.5638E+02  0.4754E+02
     -0.206  0.5717E+02  0.4998E+02
     -0.163  0.5755E+02  0.5244E+02
     -0.121  0.5766E+02  0.5490E+02
     -0.078  0.5772E+02  0.5737E+02
     -0.035  0.5794E+02  0.5984E+02
      0.007  0.5851E+02  0.6234E+02
      0.050  0.5962E+02  0.6488E+02
      0.093  0.6146E+02  0.6751E+02
      0.136  0.6410E+02  0.7024E+02
      0.178  0.6742E+02  0.7312E+02
      0.221  0.7106E+02  0.7616E+02
      0.264  0.7462E+02  0.7934E+02
      0.306  0.7781E+02  0.8266E+02
      0.349  0.8050E+02  0.8610E+02
      0.392  0.8272E+02  0.8963E+02
      0.434  0.8447E+02  0.9324E+02
      0.477  0.8573E+02  0.9690E+02
      0.520  0.8646E+02  0.1006E+03
      0.562  0.8663E+02  0.1043E+03
      0.605  0.8634E+02  0.1080E+03
      0.648  0.8573E+02  0.1116E+03
      0.691  0.8484E+02  0.1153E+03
      0.733  0.8360E+02  0.1188E+03
      0.776  0.8197E+02  0.1223E+03
      0.819  0.8010E+02  0.1257E+03
      0.861  0.7836E+02  0.1291E+03
      0.904  0.7714E+02  0.1324E+03
      0.947  0.7657E+02  0.1357E+03
      0.989  0.7642E+02  0.1389E+03
      1.032  0.7630E+02  0.1422E+03
      1.075  0.7584E+02  0.1454E+03
      1.117  0.7498E+02  0.1486E+03
      1.160  0.7399E+02  0.1518E+03
      1.203  0.7330E+02  0.1549E+03
      1.246  0.7323E+02  0.1580E+03
      1.288  0.7363E+02  0.1612E+03
      1.331  0.7396E+02  0.1643E+03
      1.374  0.7361E+02  0.1675E+03
      1.416  0.7234E+02  0.1706E+03
      1.459  0.7050E+02  0.1736E+03
      1.502  0.6876E+02  0.1765E+03
      1.544  0.6774E+02  0.1794E+03
      1.587  0.6778E+02  0.1823E+03
      1.630  0.6884E+02  0.1852E+03
      1.672  0.7069E+02  0.1882E+03
      1.715  0.7300E+02  0.1914E+03
      1.758  0.7549E+02  0.1946E+03
      1.801  0.7795E+02  0.1979E+03
      1.843  0.8023E+02  0.2013E+03
      1.886  0.8228E+02  0.2049E+03
      1.929  0.8411E+02  0.2084E+03
      1.971  0.8578E+02  0.2121E+03
      2.014  0.8737E+02  0.2158E+03
      2.057  0.8896E+02  0.2196E+03
      2.099  0.9056E+02  0.2235E+03
      2.142  0.9218E+02  0.2274E+03
      2.185  0.9383E+02  0.2314E+03
      2.227  0.9558E+02  0.2355E+03
      2.270  0.9761E+02  0.2397E+03
      2.313  0.1002E+03  0.2440E+03
      2.356  0.1035E+03  0.2484E+03
      2.398  0.1076E+03  0.2530E+03
      2.441  0.1120E+03  0.2578E+03
      2.484  0.1165E+03  0.2627E+03
      2.526  0.1206E+03  0.2679E+03
      2.569  0.1241E+03  0.2732E+03
      2.612  0.1267E+03  0.2786E+03
      2.654  0.1285E+03  0.2841E+03
      2.697  0.1294E+03  0.2896E+03
      2.740  0.1301E+03  0.2952E+03
      2.782  0.1310E+03  0.3007E+03
      2.825  0.1328E+03  0.3064E+03
      2.868  0.1357E+03  0.3122E+03
      2.911  0.1393E+03  0.3181E+03
      2.953  0.1422E+03  0.3242E+03
      2.996  0.1426E+03  0.3303E+03
      3.039  0.1394E+03  0.3363E+03
      3.081  0.1325E+03  0.3419E+03
      3.124  0.1232E+03  0.3472E+03
      3.167  0.1133E+03  0.3520E+03
      3.209  0.1047E+03  0.3565E+03
      3.252  0.9809E+02  0.3607E+03
      3.295  0.9385E+02  0.3647E+03
      3.337  0.9157E+02  0.3686E+03
      3.380  0.9063E+02  0.3725E+03
      3.423  0.9025E+02  0.3763E+03
      3.466  0.8967E+02  0.3801E+03
      3.508  0.8839E+02  0.3839E+03
      3.551  0.8643E+02  0.3876E+03
      3.594  0.8438E+02  0.3912E+03
      3.636  0.8312E+02  0.3948E+03
      3.679  0.8331E+02  0.3983E+03
      3.722  0.8507E+02  0.4019E+03
      3.764  0.8794E+02  0.4057E+03
      3.807  0.9120E+02  0.4096E+03
      3.850  0.9428E+02  0.4136E+03
      3.892  0.9689E+02  0.4177E+03
      3.935  0.9905E+02  0.4220E+03
      3.978  0.1008E+03  0.4263E+03
      4.021  0.1021E+03  0.4306E+03
      4.063  0.1030E+03  0.4350E+03
      4.106  0.1032E+03  0.4394E+03
      4.149  0.1028E+03  0.4438E+03
      4.191  0.1019E+03  0.4482E+03
      4.234  0.1008E+03  0.4525E+03
      4.277  0.9979E+02  0.4568E+03
      4.319  0.9924E+02  0.4610E+03
      4.362  0.9934E+02  0.4652E+03
      4.405  0.1000E+03  0.4695E+03
      4.447  0.1009E+03  0.4738E+03
      4.490  0.1014E+03  0.4781E+03
      4.533  0.1013E+03  0.4825E+03
      4.576  0.1005E+03  0.4868E+03
      4.618  0.9935E+02  0.4910E+03
      4.661  0.9855E+02  0.4952E+03
      4.704  0.9869E+02  0.4994E+03
      4.746  0.1001E+03  0.5037E+03
      4.789  0.1025E+03  0.5081E+03
      4.832  0.1057E+03  0.5126E+03
      4.874  0.1089E+03  0.5172E+03
      4.917  0.1116E+03  0.5220E+03
      4.960  0.1133E+03  0.5268E+03
      5.003  0.1131E+03  0.5317E+03
      5.045  0.1099E+03  0.5363E+03
      5.088  0.1029E+03  0.5407E+03
      5.131  0.9143E+02  0.5446E+03
      5.173  0.7607E+02  0.5479E+03
      5.216  0.5845E+02  0.5504E+03
      5.259  0.4095E+02  0.5521E+03
      5.301  0.2589E+02  0.5532E+03
      5.344  0.1464E+02  0.5539E+03
      5.387  0.7351E+01  0.5542E+03
      5.429  0.3259E+01  0.5543E+03
      5.472  0.1270E+01  0.5544E+03
      5.515  0.4332E+00  0.5544E+03
      5.558  0.1290E+00  0.5544E+03
      5.600  0.3347E-01  0.5544E+03
      5.643  0.7542E-02  0.5544E+03
      5.686  0.1474E-02  0.5544E+03
      5.728  0.2494E-03  0.5544E+03
      5.771  0.3647E-04  0.5544E+03
      5.814  0.4602E-05  0.5544E+03
      5.856  0.5006E-06  0.5544E+03
      5.899  0.4688E-07  0.5544E+03
      5.942  0.3774E-08  0.5544E+03
      5.984  0.2610E-09  0.5544E+03
      6.027  0.1549E-10  0.5544E+03
      6.070  0.7872E-12  0.5544E+03
      6.113  0.3270E-13  0.5544E+03
      6.155  0.1105E-14  0.5544E+03
      6.198  0.0000E+00  0.5544E+03
      6.241  0.0000E+00  0.5544E+03
      6.283  0.0000E+00  0.5544E+03
      6.326  0.0000E+00  0.5544E+03
      6.369  0.0000E+00  0.5544E+03
      6.411  0.0000E+00  0.5544E+03
      6.454  0.0000E+00  0.5544E+03
      6.497  0.0000E+00  0.5544E+03
      6.539  0.0000E+00  0.5544E+03
      6.582  0.0000E+00  0.5544E+03
      6.625  0.0000E+00  0.5544E+03
      6.668  0.0000E+00  0.5544E+03
      6.710  0.0000E+00  0.5544E+03
      6.753  0.0000E+00  0.5544E+03
