 288 288   0   0
  0.1280206E+02  0.9726678E-09  0.8423550E-09  0.4500000E-08  0.2500000E-15
  1.000000000000000E-004
  CAR 
 unknown system                          
    200.76347584   -165.50353494  301    -37.38434262      1.00000000
   -165.504  0.0000E+00  0.0000E+00
   -164.283  0.0000E+00  0.0000E+00
   -163.062  0.0000E+00  0.0000E+00
   -161.841  0.0000E+00  0.0000E+00
   -160.620  0.0000E+00  0.0000E+00
   -159.399  0.0000E+00  0.0000E+00
   -158.178  0.0000E+00  0.0000E+00
   -156.957  0.0000E+00  0.0000E+00
   -155.736  0.0000E+00  0.0000E+00
   -154.516  0.0000E+00  0.0000E+00
   -153.295  0.0000E+00  0.0000E+00
   -152.074  0.0000E+00  0.0000E+00
   -150.853  0.0000E+00  0.0000E+00
   -149.632  0.1041E-13  0.1271E-13
   -148.411  0.1953E+01  0.2385E+01
   -147.190  0.7634E+01  0.1210E+02
   -145.969  0.3027E+01  0.1587E+02
   -144.748  0.1402E+01  0.1772E+02
   -143.528  0.8482E+00  0.1884E+02
   -142.307  0.7791E+00  0.1984E+02
   -141.086  0.5263E+00  0.2051E+02
   -139.865  0.6058E+00  0.2130E+02
   -138.644  0.4081E+00  0.2181E+02
   -137.423  0.3343E+00  0.2223E+02
   -136.202  0.1326E+01  0.2385E+02
   -134.981  0.2440E+01  0.2700E+02
   -133.760  0.2363E+01  0.2999E+02
   -132.540  0.1335E+01  0.3171E+02
   -131.319  0.1783E+01  0.3401E+02
   -130.098  0.2833E+01  0.3758E+02
   -128.877  0.1855E+01  0.4000E+02
   -127.656  0.1227E+01  0.4154E+02
   -126.435  0.8322E+00  0.4261E+02
   -125.214  0.6873E+00  0.4348E+02
   -123.993  0.1067E+01  0.4486E+02
   -122.772  0.1317E+01  0.4654E+02
   -121.551  0.1268E+01  0.4814E+02
   -120.331  0.2548E+01  0.5129E+02
   -119.110  0.4204E+01  0.5672E+02
   -117.889  0.4942E+01  0.6295E+02
   -116.668  0.4610E+01  0.6888E+02
   -115.447  0.5384E+01  0.7571E+02
   -114.226  0.5670E+01  0.8292E+02
   -113.005  0.6379E+01  0.9096E+02
   -111.784  0.6922E+01  0.9973E+02
   -110.563  0.8141E+01  0.1102E+03
   -109.343  0.1298E+02  0.1265E+03
   -108.122  0.1544E+02  0.1461E+03
   -106.901  0.1885E+02  0.1702E+03
   -105.680  0.2043E+02  0.1964E+03
   -104.459  0.1853E+02  0.2199E+03
   -103.238  0.1244E+02  0.2360E+03
   -102.017  0.6487E+01  0.2444E+03
   -100.796  0.3647E+01  0.2490E+03
    -99.575  0.1632E+01  0.2510E+03
    -98.355  0.1049E+01  0.2524E+03
    -97.134  0.1032E+01  0.2537E+03
    -95.913  0.1137E+01  0.2551E+03
    -94.692  0.1627E+01  0.2571E+03
    -93.471  0.2193E+01  0.2598E+03
    -92.250  0.2499E+01  0.2631E+03
    -91.029  0.3109E+01  0.2670E+03
    -89.808  0.3005E+01  0.2708E+03
    -88.587  0.3216E+01  0.2749E+03
    -87.367  0.3608E+01  0.2795E+03
    -86.146  0.3930E+01  0.2846E+03
    -84.925  0.4575E+01  0.2904E+03
    -83.704  0.4409E+01  0.2961E+03
    -82.483  0.4443E+01  0.3018E+03
    -81.262  0.6682E+01  0.3102E+03
    -80.041  0.5929E+01  0.3180E+03
    -78.820  0.4135E+01  0.3232E+03
    -77.599  0.3374E+01  0.3275E+03
    -76.379  0.3086E+01  0.3314E+03
    -75.158  0.3241E+01  0.3355E+03
    -73.937  0.3247E+01  0.3397E+03
    -72.716  0.2825E+01  0.3433E+03
    -71.495  0.2905E+01  0.3470E+03
    -70.274  0.2115E+01  0.3497E+03
    -69.053  0.2602E+01  0.3530E+03
    -67.832  0.2149E+01  0.3558E+03
    -66.611  0.2094E+01  0.3585E+03
    -65.391  0.2279E+01  0.3613E+03
    -64.170  0.2335E+01  0.3644E+03
    -62.949  0.2770E+01  0.3678E+03
    -61.728  0.2575E+01  0.3711E+03
    -60.507  0.2733E+01  0.3746E+03
    -59.286  0.2892E+01  0.3782E+03
    -58.065  0.2265E+01  0.3810E+03
    -56.844  0.2717E+01  0.3845E+03
    -55.623  0.2423E+01  0.3876E+03
    -54.403  0.2863E+01  0.3912E+03
    -53.182  0.3080E+01  0.3951E+03
    -51.961  0.3294E+01  0.3993E+03
    -50.740  0.3494E+01  0.4037E+03
    -49.519  0.3276E+01  0.4079E+03
    -48.298  0.3645E+01  0.4125E+03
    -47.077  0.3857E+01  0.4176E+03
    -45.856  0.3533E+01  0.4221E+03
    -44.635  0.4211E+01  0.4274E+03
    -43.415  0.4008E+01  0.4325E+03
    -42.194  0.3793E+01  0.4374E+03
    -40.973  0.4422E+01  0.4431E+03
    -39.752  0.4127E+01  0.4484E+03
    -38.531  0.4480E+01  0.4542E+03
    -37.310  0.4390E+01  0.4597E+03
    -36.089  0.4266E+01  0.4651E+03
    -34.868  0.3343E+01  0.4694E+03
    -33.647  0.2290E+01  0.4724E+03
    -32.427  0.7346E+00  0.4733E+03
    -31.206  0.3496E+00  0.4738E+03
    -29.985  0.9880E-01  0.4739E+03
    -28.764  0.5084E-10  0.4739E+03
    -27.543  0.3690E-01  0.4739E+03
    -26.322  0.9851E-04  0.4740E+03
    -25.101  0.8556E-01  0.4741E+03
    -23.880  0.9416E-01  0.4742E+03
    -22.659  0.7668E-01  0.4743E+03
    -21.439  0.8191E-01  0.4744E+03
    -20.218  0.1200E+00  0.4745E+03
    -18.997  0.5129E-01  0.4746E+03
    -17.776  0.2047E-01  0.4746E+03
    -16.555  0.0000E+00  0.4747E+03
    -15.334  0.2192E-02  0.4747E+03
    -14.113  0.1207E+00  0.4748E+03
    -12.892  0.8283E-01  0.4749E+03
    -11.671  0.1938E-01  0.4749E+03
    -10.451  0.5982E-09  0.4750E+03
     -9.230  0.4095E-01  0.4750E+03
     -8.009  0.1131E+00  0.4751E+03
     -6.788  0.1121E+00  0.4753E+03
     -5.567  0.6033E-01  0.4753E+03
     -4.346  0.6143E-01  0.4754E+03
     -3.125  0.4523E-10  0.4754E+03
     -1.904  0.9868E-01  0.4755E+03
     -0.683  0.3753E-01  0.4756E+03
      0.538  0.0000E+00  0.4756E+03
      1.758  0.8374E-07  0.4756E+03
      2.979  0.1066E+00  0.4757E+03
      4.200  0.5332E-01  0.4758E+03
      5.421  0.1913E-01  0.4758E+03
      6.642  0.3720E-01  0.4759E+03
      7.863  0.2409E-07  0.4759E+03
      9.084  0.4095E-01  0.4759E+03
     10.305  0.4095E-01  0.4760E+03
     11.526  0.0000E+00  0.4760E+03
     12.746  0.1103E-02  0.4760E+03
     13.967  0.8080E-01  0.4761E+03
     15.188  0.3174E-10  0.4761E+03
     16.409  0.1131E+00  0.4762E+03
     17.630  0.9469E-01  0.4763E+03
     18.851  0.8043E-01  0.4764E+03
     20.072  0.8147E-01  0.4765E+03
     21.293  0.1024E+00  0.4767E+03
     22.514  0.6311E-01  0.4768E+03
     23.734  0.2390E-01  0.4768E+03
     24.955  0.9081E-01  0.4769E+03
     26.176  0.6199E-01  0.4770E+03
     27.397  0.1396E-01  0.4770E+03
     28.618  0.1499E+00  0.4772E+03
     29.839  0.1449E-01  0.4772E+03
     31.060  0.9624E-01  0.4774E+03
     32.281  0.1024E+00  0.4775E+03
     33.502  0.9499E-02  0.4775E+03
     34.722  0.2048E-01  0.4776E+03
     35.943  0.8191E-01  0.4777E+03
     37.164  0.6315E-01  0.4777E+03
     38.385  0.1416E+00  0.4779E+03
     39.606  0.4063E-01  0.4779E+03
     40.827  0.4009E-01  0.4780E+03
     42.048  0.5976E-03  0.4780E+03
     43.269  0.8117E-01  0.4781E+03
     44.490  0.7048E-01  0.4782E+03
     45.710  0.7286E-01  0.4783E+03
     46.931  0.4098E-01  0.4783E+03
     48.152  0.8341E-01  0.4784E+03
     49.373  0.1238E+00  0.4786E+03
     50.594  0.1838E+00  0.4788E+03
     51.815  0.2317E+00  0.4791E+03
     53.036  0.1218E+00  0.4792E+03
     54.257  0.1462E+00  0.4794E+03
     55.478  0.1277E+00  0.4796E+03
     56.698  0.3019E+00  0.4800E+03
     57.919  0.1214E+00  0.4801E+03
     59.140  0.1398E+00  0.4803E+03
     60.361  0.7358E-01  0.4804E+03
     61.582  0.2302E+00  0.4807E+03
     62.803  0.2469E+00  0.4810E+03
     64.024  0.2165E+00  0.4813E+03
     65.245  0.2838E+00  0.4817E+03
     66.466  0.4057E+00  0.4822E+03
     67.686  0.2704E+00  0.4826E+03
     68.907  0.1538E+00  0.4827E+03
     70.128  0.1154E+00  0.4829E+03
     71.349  0.1287E+00  0.4830E+03
     72.570  0.1693E+00  0.4833E+03
     73.791  0.1290E+00  0.4834E+03
     75.012  0.2355E+00  0.4837E+03
     76.233  0.1608E+00  0.4839E+03
     77.454  0.2196E+00  0.4842E+03
     78.674  0.2738E+00  0.4846E+03
     79.895  0.1032E+00  0.4847E+03
     81.116  0.1575E+00  0.4849E+03
     82.337  0.1814E+00  0.4851E+03
     83.558  0.1256E+00  0.4853E+03
     84.779  0.2995E+00  0.4857E+03
     86.000  0.2357E+00  0.4860E+03
     87.221  0.1760E+00  0.4862E+03
     88.442  0.1110E+00  0.4864E+03
     89.662  0.2093E+00  0.4866E+03
     90.883  0.3455E+00  0.4871E+03
     92.104  0.2766E+00  0.4874E+03
     93.325  0.1811E+00  0.4876E+03
     94.546  0.2232E+00  0.4879E+03
     95.767  0.1951E+00  0.4881E+03
     96.988  0.4287E+00  0.4887E+03
     98.209  0.1397E+00  0.4889E+03
     99.430  0.1665E+00  0.4891E+03
    100.650  0.1375E+00  0.4892E+03
    101.871  0.1750E+00  0.4895E+03
    103.092  0.1742E+00  0.4897E+03
    104.313  0.1275E+00  0.4899E+03
    105.534  0.1242E+00  0.4900E+03
    106.755  0.3222E+00  0.4904E+03
    107.976  0.3094E+00  0.4908E+03
    109.197  0.1699E+00  0.4910E+03
    110.418  0.4026E+00  0.4915E+03
    111.639  0.1638E+00  0.4917E+03
    112.859  0.2048E+00  0.4920E+03
    114.080  0.2247E+00  0.4922E+03
    115.301  0.2846E+00  0.4926E+03
    116.522  0.2026E+00  0.4929E+03
    117.743  0.3280E+00  0.4933E+03
    118.964  0.1613E+00  0.4935E+03
    120.185  0.2524E+00  0.4938E+03
    121.406  0.8227E-01  0.4939E+03
    122.627  0.2198E+00  0.4942E+03
    123.847  0.1341E+00  0.4944E+03
    125.068  0.2060E+00  0.4946E+03
    126.289  0.2242E+00  0.4949E+03
    127.510  0.2449E+00  0.4952E+03
    128.731  0.2224E+00  0.4955E+03
    129.952  0.2048E+00  0.4958E+03
    131.173  0.3573E+00  0.4962E+03
    132.394  0.2140E+00  0.4965E+03
    133.615  0.1929E+00  0.4968E+03
    134.835  0.3785E+00  0.4972E+03
    136.056  0.1641E+00  0.4975E+03
    137.277  0.3792E+00  0.4979E+03
    138.498  0.1492E+00  0.4981E+03
    139.719  0.2373E+00  0.4984E+03
    140.940  0.3108E+00  0.4988E+03
    142.161  0.2932E+00  0.4992E+03
    143.382  0.1305E+00  0.4994E+03
    144.603  0.4917E+00  0.5000E+03
    145.823  0.3278E+00  0.5004E+03
    147.044  0.3576E+00  0.5009E+03
    148.265  0.2829E+00  0.5012E+03
    149.486  0.2369E+00  0.5015E+03
    150.707  0.3757E+00  0.5020E+03
    151.928  0.3563E+00  0.5024E+03
    153.149  0.5355E+00  0.5031E+03
    154.370  0.5621E+00  0.5038E+03
    155.591  0.4816E+00  0.5044E+03
    156.811  0.7091E+00  0.5053E+03
    158.032  0.7505E+00  0.5063E+03
    159.253  0.4168E+00  0.5068E+03
    160.474  0.6500E+00  0.5076E+03
    161.695  0.8565E+00  0.5087E+03
    162.916  0.1123E+01  0.5101E+03
    164.137  0.8534E+00  0.5112E+03
    165.358  0.9339E+00  0.5124E+03
    166.579  0.1294E+01  0.5141E+03
    167.799  0.1209E+01  0.5157E+03
    169.020  0.1958E+01  0.5182E+03
    170.241  0.1828E+01  0.5206E+03
    171.462  0.2365E+01  0.5236E+03
    172.683  0.3299E+01  0.5278E+03
    173.904  0.4120E+01  0.5329E+03
    175.125  0.4089E+01  0.5381E+03
    176.346  0.4351E+01  0.5439E+03
    177.567  0.3900E+01  0.5488E+03
    178.787  0.2224E+01  0.5517E+03
    180.008  0.1181E+01  0.5533E+03
    181.229  0.5602E+00  0.5540E+03
    182.450  0.2649E+00  0.5543E+03
    183.671  0.1541E-01  0.5543E+03
    184.892  0.5919E-01  0.5544E+03
    186.113  0.0000E+00  0.5544E+03
    187.334  0.0000E+00  0.5544E+03
    188.555  0.0000E+00  0.5544E+03
    189.775  0.0000E+00  0.5544E+03
    190.996  0.0000E+00  0.5544E+03
    192.217  0.0000E+00  0.5544E+03
    193.438  0.0000E+00  0.5544E+03
    194.659  0.0000E+00  0.5544E+03
    195.880  0.0000E+00  0.5544E+03
    197.101  0.0000E+00  0.5544E+03
    198.322  0.0000E+00  0.5544E+03
    199.543  0.0000E+00  0.5544E+03
    200.763  0.0000E+00  0.5544E+03
