  288  288    5    1
  0.1280206E+02  0.9726678E-09  0.8423550E-09  0.4500000E-08  0.2500000E-15
  1.000000000000000E-004
  CAR 
 unknown system                          
   2297     10   1386
 
  0.0000000E+00  0.0000000E+00  0.0000000E+00  0.6250000E-01
    1     -148.852959   1.000000
    2     -148.741243   1.000000
    3     -148.687193   1.000000
    4     -148.585642   1.000000
    5     -148.525531   1.000000
    6     -148.509265   1.000000
    7     -148.483382   1.000000
    8     -148.440360   1.000000
    9     -148.345448   1.000000
   10     -148.268564   1.000000
   11     -148.189778   1.000000
   12     -148.152002   1.000000
   13     -148.128213   1.000000
   14     -148.066575   1.000000
   15     -148.011943   1.000000
   16     -147.977853   1.000000
   17     -147.954233   1.000000
   18     -147.921699   1.000000
   19     -147.893421   1.000000
   20     -147.820839   1.000000
   21     -147.844506   1.000000
   22     -147.729850   1.000000
   23     -147.667048   1.000000
   24     -147.665881   1.000000
   25     -147.632658   1.000000
   26     -147.559307   1.000000
   27     -147.500276   1.000000
   28     -147.562167   1.000000
   29     -147.486725   1.000000
   30     -147.393905   1.000000
   31     -147.342406   1.000000
   32     -147.145233   1.000000
   33     -147.076362   1.000000
   34     -146.791432   1.000000
   35     -146.650107   1.000000
   36     -146.606346   1.000000
   37     -146.522289   1.000000
   38     -146.406718   1.000000
   39     -146.356213   1.000000
   40     -146.255599   1.000000
   41     -146.114357   1.000000
   42     -146.090042   1.000000
   43     -145.996631   1.000000
   44     -145.682232   1.000000
   45     -145.653927   1.000000
   46     -145.407400   1.000000
   47     -145.163323   1.000000
   48     -144.898536   1.000000
   49     -144.442146   1.000000
   50     -143.544462   1.000000
   51     -143.071752   1.000000
   52     -142.452068   1.000000
   53     -142.133441   1.000000
   54     -141.120585   1.000000
   55     -140.003402   1.000000
   56     -140.690721   1.000000
   57     -139.079611   1.000000
   58     -137.388789   1.000000
   59     -137.205887   1.000000
   60     -135.512954   1.000000
   61     -133.789010   1.000000
   62     -134.678225   1.000000
   63     -131.979506   1.000000
   64     -130.386891   1.000000
   65     -129.554331   1.000000
   66     -130.979181   1.000000
   67     -127.732311   1.000000
   68     -130.300639   1.000000
   69     -130.388960   1.000000
   70     -127.984822   1.000000
   71     -125.244607   1.000000
   72     -122.376074   1.000000
   73     -128.961179   1.000000
   74     -122.375766   1.000000
   75     -127.669895   1.000000
   76     -119.576882   1.000000
   77     -125.445273   1.000000
   78     -122.701850   1.000000
   79     -120.228012   1.000000
   80     -122.460264   1.000000
   81     -120.576040   1.000000
   82     -118.989849   1.000000
   83     -123.027078   1.000000
   84     -122.549789   1.000000
   85     -123.272618   1.000000
   86     -124.522499   1.000000
   87     -117.886282   1.000000
   88     -121.023628   1.000000
   89     -118.434517   1.000000
   90     -119.567005   1.000000
   91     -136.788868   1.000000
   92     -137.335371   1.000000
   93     -137.038486   1.000000
   94     -136.047255   1.000000
   95     -136.205910   1.000000
   96     -136.130918   1.000000
   97     -136.149936   1.000000
   98     -135.326923   1.000000
   99     -135.371026   1.000000
  100     -135.142440   1.000000
  101     -134.714811   1.000000
  102     -134.471860   1.000000
  103     -133.466530   1.000000
  104     -133.812857   1.000000
  105     -134.661565   1.000000
  106     -133.896614   1.000000
  107     -135.156264   1.000000
  108     -134.884956   1.000000
  109     -134.178785   1.000000
  110     -133.952968   1.000000
  111     -109.384185   1.000000
  112     -133.954135   1.000000
  113     -112.491806   1.000000
  114     -132.745214   1.000000
  115     -132.778525   1.000000
  116     -131.170800   1.000000
  117     -132.602137   1.000000
  118     -105.355285   1.000000
  119     -132.932938   1.000000
  120     -120.835259   1.000000
  121     -130.938815   1.000000
  122     -113.716892   1.000000
  123     -119.135661   1.000000
  124     -116.906243   1.000000
  125     -115.981390   1.000000
  126     -132.277718   1.000000
  127     -131.111576   1.000000
  128     -130.360923   1.000000
  129     -130.819045   1.000000
  130     -119.695779   1.000000
  131     -116.392858   1.000000
  132     -119.541268   1.000000
  133     -130.202375   1.000000
  134     -118.070996   1.000000
  135     -119.186132   1.000000
  136     -129.920988   1.000000
  137     -120.038632   1.000000
  138     -130.599150   1.000000
  139     -120.278571   1.000000
  140     -117.215043   1.000000
  141     -120.907752   1.000000
  142     -119.841564   1.000000
  143     -129.634739   1.000000
  144     -120.704276   1.000000
  145     -120.703373   1.000000
  146     -120.355507   1.000000
  147     -128.337769   1.000000
  148     -119.203341   1.000000
  149     -128.291557   1.000000
  150     -128.316873   1.000000
  151     -118.605693   1.000000
  152     -119.235644   1.000000
  153     -119.308023   1.000000
  154     -118.226858   1.000000
  155     -119.381741   1.000000
  156     -118.013070   1.000000
  157     -118.193530   1.000000
  158     -118.700728   1.000000
  159     -119.456215   1.000000
  160     -118.920194   1.000000
  161     -118.143793   1.000000
  162     -119.048935   1.000000
  163     -118.374202   1.000000
  164     -118.181421   1.000000
  165     -119.030626   1.000000
  166     -118.175238   1.000000
  167     -117.977127   1.000000
  168     -117.616171   1.000000
  169     -117.649262   1.000000
  170     -117.959113   1.000000
  171     -117.478879   1.000000
  172     -117.374130   1.000000
  173     -117.707719   1.000000
  174     -117.699366   1.000000
  175     -117.514794   1.000000
  176     -117.511042   1.000000
  177     -117.221139   1.000000
  178     -117.120813   1.000000
  179     -117.428596   1.000000
  180     -116.301773   1.000000
  181     -116.227831   1.000000
  182     -117.008716   1.000000
  183     -115.408275   1.000000
  184     -116.001554   1.000000
  185     -116.433599   1.000000
  186     -115.585873   1.000000
  187     -114.996540   1.000000
  188     -115.743974   1.000000
  189     -116.303853   1.000000
  190     -115.238411   1.000000
  191     -115.513249   1.000000
  192     -115.169342   1.000000
  193     -115.748311   1.000000
  194     -115.639639   1.000000
  195     -115.892035   1.000000
  196     -115.988098   1.000000
  197     -114.658836   1.000000
  198     -114.579297   1.000000
  199     -115.202818   1.000000
  200     -113.849737   1.000000
  201     -114.075247   1.000000
  202     -114.411175   1.000000
  203     -113.841623   1.000000
  204     -114.420649   1.000000
  205     -114.693701   1.000000
  206     -114.476455   1.000000
  207     -113.818034   1.000000
  208     -114.863253   1.000000
  209     -114.267237   1.000000
  210     -113.760145   1.000000
  211     -113.867243   1.000000
  212     -112.489755   1.000000
  213     -113.155757   1.000000
  214     -113.495610   1.000000
  215     -113.293735   1.000000
  216     -113.631855   1.000000
  217     -113.412862   1.000000
  218     -113.604597   1.000000
  219     -113.868763   1.000000
  220     -112.496611   1.000000
  221     -112.545452   1.000000
  222     -112.116369   1.000000
  223     -112.874488   1.000000
  224     -112.705037   1.000000
  225     -112.721634   1.000000
  226     -112.556851   1.000000
  227     -113.753125   1.000000
  228     -112.110376   1.000000
  229     -111.636693   1.000000
  230     -112.334508   1.000000
  231     -112.682369   1.000000
  232     -111.625025   1.000000
  233     -111.931699   1.000000
  234     -111.216534   1.000000
  235     -111.919526   1.000000
  236     -111.808983   1.000000
  237     -111.933634   1.000000
  238     -113.230446   1.000000
  239     -111.475868   1.000000
  240     -111.809598   1.000000
  241     -112.389738   1.000000
  242     -111.946452   1.000000
  243     -112.243918   1.000000
  244     -111.857115   1.000000
  245     -111.817126   1.000000
  246     -111.268262   1.000000
  247     -111.065666   1.000000
  248     -111.077285   1.000000
  249     -110.323983   1.000000
  250     -111.333142   1.000000
  251     -111.130837   1.000000
  252     -111.630045   1.000000
  253     -109.960182   1.000000
  254     -112.005563   1.000000
  255     -110.168219   1.000000
  256     -111.388855   1.000000
  257     -109.419821   1.000000
  258     -110.699108   1.000000
  259     -109.794137   1.000000
  260     -110.489743   1.000000
  261     -109.601989   1.000000
  262     -110.864856   1.000000
  263     -108.760879   1.000000
  264     -110.906220   1.000000
  265     -109.759330   1.000000
  266     -110.083675   1.000000
  267     -110.221299   1.000000
  268     -110.527213   1.000000
  269     -109.913451   1.000000
  270     -109.737290   1.000000
  271     -109.473051   1.000000
  272     -109.767567   1.000000
  273     -109.726776   1.000000
  274     -109.655229   1.000000
  275     -109.648087   1.000000
  276     -108.352635   1.000000
  277     -109.578775   1.000000
  278     -109.159394   1.000000
  279     -108.739810   1.000000
  280     -108.504237   1.000000
  281     -109.074609   1.000000
  282     -108.541635   1.000000
  283     -109.673099   1.000000
  284     -109.401738   1.000000
  285     -108.966132   1.000000
  286     -107.810375   1.000000
  287     -108.740124   1.000000
  288     -108.145335   1.000000
  289     -108.635234   1.000000
  290     -108.576212   1.000000
  291     -108.569264   1.000000
  292     -107.922494   1.000000
  293     -108.686623   1.000000
  294     -108.134413   1.000000
  295     -107.149748   1.000000
  296     -107.383503   1.000000
  297     -108.284069   1.000000
  298     -108.343278   1.000000
  299     -107.710517   1.000000
  300     -107.822939   1.000000
  301     -109.255616   1.000000
  302     -108.107271   1.000000
  303     -108.689950   1.000000
  304     -107.910530   1.000000
  305     -106.611046   1.000000
  306     -107.471538   1.000000
  307     -108.805646   1.000000
  308     -107.043742   1.000000
  309     -108.038781   1.000000
  310     -106.512895   1.000000
  311     -107.679635   1.000000
  312     -106.784716   1.000000
  313     -107.436671   1.000000
  314     -106.980471   1.000000
  315     -107.653446   1.000000
  316     -107.496482   1.000000
  317     -106.859044   1.000000
  318     -106.460447   1.000000
  319     -106.668634   1.000000
  320     -106.242359   1.000000
  321     -107.279327   1.000000
  322     -106.796571   1.000000
  323     -106.415416   1.000000
  324     -106.169885   1.000000
  325     -107.440004   1.000000
  326     -106.196603   1.000000
  327     -106.560709   1.000000
  328     -106.351275   1.000000
  329     -105.410299   1.000000
  330     -106.674727   1.000000
  331     -106.871594   1.000000
  332     -105.659393   1.000000
  333     -107.661432   1.000000
  334     -106.540153   1.000000
  335     -106.330628   1.000000
  336     -105.869001   1.000000
  337     -106.277846   1.000000
  338     -106.888284   1.000000
  339     -106.621124   1.000000
  340     -106.167924   1.000000
  341     -106.404126   1.000000
  342     -105.576360   1.000000
  343     -105.595304   1.000000
  344     -106.021513   1.000000
  345     -105.886089   1.000000
  346     -106.168530   1.000000
  347     -105.384217   1.000000
  348     -106.595473   1.000000
  349     -106.569575   1.000000
  350     -105.857018   1.000000
  351     -107.154719   1.000000
  352     -105.826429   1.000000
  353     -105.006385   1.000000
  354     -105.621322   1.000000
  355     -106.442089   1.000000
  356     -106.302279   1.000000
  357     -105.084628   1.000000
  358     -104.756491   1.000000
  359     -106.039273   1.000000
  360     -104.972852   1.000000
  361     -105.570225   1.000000
  362     -104.607775   1.000000
  363     -105.366380   1.000000
  364     -104.612000   1.000000
  365     -104.822317   1.000000
  366     -104.745424   1.000000
  367     -104.835752   1.000000
  368     -105.339016   1.000000
  369     -105.419350   1.000000
  370     -105.020252   1.000000
  371     -105.175605   1.000000
  372     -103.807539   1.000000
  373     -104.625136   1.000000
  374     -104.906674   1.000000
  375     -104.636033   1.000000
  376     -105.251458   1.000000
  377     -104.329564   1.000000
  378     -103.791950   1.000000
  379     -104.610929   1.000000
  380     -104.801430   1.000000
  381     -104.542144   1.000000
  382     -104.476676   1.000000
  383     -104.476405   1.000000
  384     -104.255395   1.000000
  385     -104.043508   1.000000
  386     -105.063588   1.000000
  387     -104.020277   1.000000
  388     -105.024006   1.000000
  389     -105.314134   1.000000
  390     -103.979162   1.000000
  391     -105.014393   1.000000
  392     -104.547189   1.000000
  393     -102.798663   1.000000
  394     -104.350898   1.000000
  395     -104.141625   1.000000
  396     -104.209853   1.000000
  397     -104.071746   1.000000
  398     -104.057696   1.000000
  399     -103.957515   1.000000
  400     -103.749310   1.000000
  401     -104.134996   1.000000
  402     -103.219968   1.000000
  403     -103.912078   1.000000
  404     -104.388251   1.000000
  405     -104.189330   1.000000
  406     -103.887063   1.000000
  407     -103.636882   1.000000
  408     -104.378846   1.000000
  409     -102.771386   1.000000
  410     -104.287814   1.000000
  411     -111.945744   1.000000
  412     -102.874759   1.000000
  413     -104.572569   1.000000
  414     -103.825714   1.000000
  415     -103.813581   1.000000
  416     -103.508690   1.000000
  417     -103.984120   1.000000
  418     -103.324399   1.000000
  419     -103.493109   1.000000
  420     -103.506200   1.000000
  421     -103.763900   1.000000
  422     -103.892383   1.000000
  423     -103.965601   1.000000
  424     -103.799659   1.000000
  425     -103.828638   1.000000
  426     -103.743047   1.000000
  427     -103.018499   1.000000
  428     -111.772271   1.000000
  429     -111.793648   1.000000
  430     -103.321983   1.000000
  431     -102.291830   1.000000
  432     -110.539266   1.000000
  433     -103.448714   1.000000
  434     -102.796336   1.000000
  435     -103.559105   1.000000
  436     -102.741306   1.000000
  437     -103.478580   1.000000
  438     -110.348467   1.000000
  439     -103.322853   1.000000
  440     -102.661372   1.000000
  441     -103.168220   1.000000
  442     -102.982898   1.000000
  443     -109.308737   1.000000
  444     -110.250990   1.000000
  445     -103.139468   1.000000
  446     -110.343603   1.000000
  447     -108.914411   1.000000
  448     -110.455511   1.000000
  449     -102.492744   1.000000
  450     -110.649782   1.000000
  451     -102.667227   1.000000
  452     -109.946344   1.000000
  453     -109.365106   1.000000
  454     -109.792875   1.000000
  455     -101.591005   1.000000
  456     -101.870285   1.000000
  457     -109.884741   1.000000
  458     -109.730995   1.000000
  459     -101.971788   1.000000
  460     -109.950762   1.000000
  461     -109.883508   1.000000
  462     -102.657856   1.000000
  463     -101.450903   1.000000
  464     -108.847404   1.000000
  465     -108.811133   1.000000
  466     -109.146032   1.000000
  467     -101.678237   1.000000
  468     -101.312123   1.000000
  469     -109.535157   1.000000
  470     -101.862974   1.000000
  471     -110.549684   1.000000
  472     -109.962795   1.000000
  473     -107.302955   1.000000
  474     -109.026522   1.000000
  475     -109.565459   1.000000
  476     -101.033245   1.000000
  477     -108.768304   1.000000
  478     -108.764239   1.000000
  479     -109.573922   1.000000
  480     -109.543826   1.000000
  481     -109.774351   1.000000
  482     -109.354295   1.000000
  483     -107.753710   1.000000
  484     -109.841893   1.000000
  485     -110.106230   1.000000
  486     -100.776509   1.000000
  487     -108.659245   1.000000
  488     -109.120666   1.000000
  489     -108.432091   1.000000
  490     -109.108716   1.000000
  491     -109.804973   1.000000
  492     -110.410732   1.000000
  493     -110.122317   1.000000
  494     -109.101432   1.000000
  495     -109.082696   1.000000
  496     -107.294054   1.000000
  497     -109.082791   1.000000
  498     -108.070023   1.000000
  499     -108.770570   1.000000
  500     -109.149814   1.000000
  501     -100.440917   1.000000
  502     -107.201663   1.000000
  503     -108.662642   1.000000
  504     -109.827602   1.000000
  505     -108.973754   1.000000
  506     -108.195826   1.000000
  507     -108.778706   1.000000
  508     -107.746211   1.000000
  509     -107.306387   1.000000
  510     -107.667857   1.000000
  511     -107.493538   1.000000
  512     -107.838090   1.000000
  513     -108.475127   1.000000
  514     -108.692960   1.000000
  515     -107.528280   1.000000
  516     -106.813096   1.000000
  517     -108.616597   1.000000
  518     -107.558188   1.000000
  519     -108.318364   1.000000
  520     -107.927249   1.000000
  521     -107.682634   1.000000
  522     -106.517771   1.000000
  523     -106.854608   1.000000
  524     -106.439063   1.000000
  525     -106.515311   1.000000
  526     -108.134312   1.000000
  527     -106.362601   1.000000
  528     -107.511174   1.000000
  529     -107.252425   1.000000
  530     -107.898046   1.000000
  531     -106.393911   1.000000
  532     -106.994201   1.000000
  533     -106.335767   1.000000
  534     -107.093594   1.000000
  535     -107.295948   1.000000
  536     -107.216461   1.000000
  537     -106.432239   1.000000
  538     -106.682139   1.000000
  539     -107.154418   1.000000
  540     -106.797051   1.000000
  541     -108.014132   1.000000
  542     -106.487923   1.000000
  543     -106.093798   1.000000
  544     -107.202547   1.000000
  545     -107.735541   1.000000
  546     -107.191476   1.000000
  547     -106.079268   1.000000
  548     -106.954148   1.000000
  549     -107.043062   1.000000
  550     -105.703628   1.000000
  551     -106.023924   1.000000
  552     -107.529043   1.000000
  553     -107.255754   1.000000
  554     -106.229468   1.000000
  555     -106.525164   1.000000
  556     -106.723086   1.000000
  557     -107.533781   1.000000
  558     -106.255699   1.000000
  559     -106.149969   1.000000
  560     -106.515017   1.000000
  561     -105.578028   1.000000
  562     -106.100045   1.000000
  563     -106.782144   1.000000
  564     -106.636367   1.000000
  565     -106.695170   1.000000
  566     -105.547272   1.000000
  567     -105.486027   1.000000
  568     -106.315501   1.000000
  569     -105.188773   1.000000
  570     -105.670294   1.000000
  571     -107.212451   1.000000
  572     -105.604325   1.000000
  573     -106.740872   1.000000
  574     -106.929736   1.000000
  575     -105.965422   1.000000
  576     -106.187101   1.000000
  577     -106.299384   1.000000
  578     -106.009358   1.000000
  579     -105.065608   1.000000
  580     -105.130287   1.000000
  581     -105.016195   1.000000
  582     -104.793231   1.000000
  583     -105.749125   1.000000
  584     -105.601424   1.000000
  585     -105.865959   1.000000
  586     -106.974147   1.000000
  587     -105.895802   1.000000
  588     -104.013728   1.000000
  589     -106.492625   1.000000
  590     -105.374238   1.000000
  591     -104.660411   1.000000
  592     -105.438738   1.000000
  593     -106.203696   1.000000
  594     -106.021700   1.000000
  595     -106.505631   1.000000
  596     -105.162490   1.000000
  597     -105.630432   1.000000
  598     -105.154076   1.000000
  599     -104.813423   1.000000
  600     -105.550224   1.000000
  601     -105.618449   1.000000
  602     -104.834333   1.000000
  603     -105.210297   1.000000
  604     -104.161687   1.000000
  605     -104.800843   1.000000
  606     -106.071198   1.000000
  607     -103.523610   1.000000
  608     -105.811392   1.000000
  609     -104.738792   1.000000
  610     -105.933560   1.000000
  611     -104.824290   1.000000
  612     -103.967449   1.000000
  613     -105.219235   1.000000
  614     -104.140779   1.000000
  615     -104.922924   1.000000
  616     -104.347056   1.000000
  617     -104.182973   1.000000
  618     -104.920251   1.000000
  619      -96.667232   1.000000
  620     -103.773968   1.000000
  621     -103.718922   1.000000
  622     -103.054301   1.000000
  623      -95.257415   1.000000
  624     -104.158658   1.000000
  625      -96.809944   1.000000
  626     -104.989154   1.000000
  627      -96.194677   1.000000
  628      -94.970026   1.000000
  629     -104.998494   1.000000
  630     -104.241289   1.000000
  631     -104.377397   1.000000
  632     -102.553934   1.000000
  633     -103.672875   1.000000
  634      -95.064478   1.000000
  635      -96.379553   1.000000
  636      -95.505084   1.000000
  637     -104.687321   1.000000
  638     -102.970873   1.000000
  639     -102.444295   1.000000
  640      -94.064206   1.000000
  641     -104.684432   1.000000
  642      -92.880142   1.000000
  643     -102.257734   1.000000
  644      -96.748090   1.000000
  645      -95.815439   1.000000
  646     -102.482258   1.000000
  647      -92.970376   1.000000
  648     -103.079247   1.000000
  649     -103.479586   1.000000
  650      -91.252255   1.000000
  651      -93.472438   1.000000
  652      -91.950998   1.000000
  653      -94.950933   1.000000
  654      -91.757892   1.000000
  655      -93.595080   1.000000
  656      -95.264673   1.000000
  657      -93.078015   1.000000
  658      -91.606028   1.000000
  659      -93.597174   1.000000
  660      -91.020126   1.000000
  661      -94.259589   1.000000
  662      -94.365649   1.000000
  663      -92.202017   1.000000
  664      -90.167416   1.000000
  665      -91.896029   1.000000
  666      -90.945205   1.000000
  667      -91.381892   1.000000
  668      -90.097630   1.000000
  669      -91.601681   1.000000
  670      -92.285286   1.000000
  671      -89.784189   1.000000
  672      -92.082436   1.000000
  673      -88.505218   1.000000
  674      -92.643846   1.000000
  675      -93.276399   1.000000
  676      -89.270915   1.000000
  677      -88.958864   1.000000
  678      -89.020899   1.000000
  679      -89.145651   1.000000
  680      -93.076693   1.000000
  681      -89.937841   1.000000
  682      -89.479703   1.000000
  683      -89.105105   1.000000
  684      -88.809032   1.000000
  685      -89.475220   1.000000
  686      -90.748775   1.000000
  687      -86.679358   1.000000
  688      -87.416654   1.000000
  689      -88.408525   1.000000
  690      -87.164231   1.000000
  691      -88.331924   1.000000
  692      -85.341319   1.000000
  693      -89.190548   1.000000
  694      -88.462586   1.000000
  695      -86.169738   1.000000
  696      -85.660525   1.000000
  697      -88.281739   1.000000
  698      -87.153078   1.000000
  699      -88.857962   1.000000
  700      -88.349125   1.000000
  701      -89.777281   1.000000
  702      -87.359844   1.000000
  703      -86.639051   1.000000
  704      -85.263806   1.000000
  705      -87.867311   1.000000
  706      -85.172137   1.000000
  707      -86.782484   1.000000
  708      -86.540944   1.000000
  709      -86.790694   1.000000
  710      -87.813647   1.000000
  711      -84.673829   1.000000
  712      -86.827345   1.000000
  713      -85.402907   1.000000
  714      -85.715511   1.000000
  715      -87.368661   1.000000
  716      -85.630282   1.000000
  717      -87.184466   1.000000
  718      -88.864721   1.000000
  719      -84.119065   1.000000
  720      -85.363928   1.000000
  721      -87.357146   1.000000
  722      -84.753298   1.000000
  723      -85.621294   1.000000
  724      -85.827843   1.000000
  725      -84.128286   1.000000
  726      -84.118515   1.000000
  727      -84.058574   1.000000
  728      -83.230825   1.000000
  729      -82.930873   1.000000
  730      -83.579692   1.000000
  731      -84.546686   1.000000
  732      -84.377634   1.000000
  733      -83.248561   1.000000
  734      -85.672780   1.000000
  735      -83.006208   1.000000
  736      -83.294616   1.000000
  737      -85.794394   1.000000
  738      -82.774516   1.000000
  739      -82.622076   1.000000
  740      -82.982182   1.000000
  741      -85.147628   1.000000
  742      -82.515100   1.000000
  743      -82.930627   1.000000
  744      -85.191004   1.000000
  745      -81.614938   1.000000
  746      -81.412583   1.000000
  747      -81.666935   1.000000
  748      -83.935896   1.000000
  749      -82.144281   1.000000
  750      -82.543383   1.000000
  751      -83.115058   1.000000
  752      -82.255979   1.000000
  753      -81.619208   1.000000
  754      -81.598734   1.000000
  755      -85.044067   1.000000
  756      -82.216795   1.000000
  757      -80.883771   1.000000
  758      -81.797478   1.000000
  759      -82.719056   1.000000
  760      -83.002948   1.000000
  761      -82.453220   1.000000
  762      -82.021413   1.000000
  763      -82.462070   1.000000
  764      -80.843423   1.000000
  765      -79.728288   1.000000
  766      -82.244625   1.000000
  767      -81.462130   1.000000
  768      -83.420321   1.000000
  769      -81.614400   1.000000
  770      -80.955416   1.000000
  771      -79.605037   1.000000
  772      -80.229075   1.000000
  773      -84.341316   1.000000
  774      -81.426199   1.000000
  775      -78.348047   1.000000
  776      -78.595658   1.000000
  777      -80.444043   1.000000
  778      -77.382531   1.000000
  779      -78.743212   1.000000
  780      -82.129986   1.000000
  781      -82.453170   1.000000
  782      -80.532637   1.000000
  783      -79.104012   1.000000
  784      -78.375640   1.000000
  785      -80.703439   1.000000
  786      -78.268385   1.000000
  787      -77.603476   1.000000
  788      -78.566259   1.000000
  789      -76.429949   1.000000
  790      -77.874757   1.000000
  791      -79.193516   1.000000
  792      -78.794965   1.000000
  793      -75.733308   1.000000
  794      -78.551524   1.000000
  795      -79.151057   1.000000
  796      -76.699816   1.000000
  797      -78.356770   1.000000
  798      -79.554553   1.000000
  799      -82.428425   1.000000
  800      -76.734096   1.000000
  801      -77.134194   1.000000
  802      -77.669982   1.000000
  803      -77.851923   1.000000
  804      -75.011356   1.000000
  805      -75.347611   1.000000
  806      -77.710699   1.000000
  807      -74.689407   1.000000
  808      -77.386935   1.000000
  809      -79.840769   1.000000
  810      -73.777363   1.000000
  811      -78.775857   1.000000
  812      -79.937749   1.000000
  813      -77.260055   1.000000
  814      -74.373918   1.000000
  815      -74.541553   1.000000
  816      -75.314128   1.000000
  817      -77.773676   1.000000
  818      -74.693615   1.000000
  819      -73.368448   1.000000
  820      -76.012902   1.000000
  821      -72.344363   1.000000
  822      -76.299049   1.000000
  823      -73.650619   1.000000
  824      -75.826683   1.000000
  825      -74.690863   1.000000
  826      -78.518913   1.000000
  827      -75.798027   1.000000
  828      -75.132688   1.000000
  829      -72.180039   1.000000
  830      -75.065132   1.000000
  831      -72.167355   1.000000
  832      -71.276716   1.000000
  833      -72.908627   1.000000
  834      -73.685598   1.000000
  835      -74.920033   1.000000
  836      -73.288829   1.000000
  837      -71.553017   1.000000
  838      -71.179904   1.000000
  839      -70.215597   1.000000
  840      -69.844785   1.000000
  841      -72.389017   1.000000
  842      -72.820756   1.000000
  843      -73.125462   1.000000
  844      -73.985385   1.000000
  845      -73.922788   1.000000
  846      -69.858294   1.000000
  847      -70.609310   1.000000
  848      -73.447433   1.000000
  849      -68.366493   1.000000
  850      -70.351768   1.000000
  851      -71.140581   1.000000
  852      -70.103759   1.000000
  853      -75.357953   1.000000
  854      -73.818629   1.000000
  855      -72.219528   1.000000
  856      -70.162814   1.000000
  857      -68.303431   1.000000
  858      -68.649417   1.000000
  859      -69.607472   1.000000
  860      -65.076783   1.000000
  861      -68.634782   1.000000
  862      -67.893404   1.000000
  863      -69.112262   1.000000
  864      -67.570533   1.000000
  865      -75.006392   1.000000
  866      -68.351170   1.000000
  867      -72.140442   1.000000
  868      -66.119683   1.000000
  869      -67.025642   1.000000
  870      -70.656792   1.000000
  871      -67.738675   1.000000
  872      -66.746496   1.000000
  873      -66.143276   1.000000
  874      -65.051398   1.000000
  875      -64.141389   1.000000
  876      -60.491000   1.000000
  877      -61.260057   1.000000
  878      -67.937643   1.000000
  879      -66.237336   1.000000
  880      -65.434221   1.000000
  881      -63.564180   1.000000
  882      -67.070502   1.000000
  883      -69.494814   1.000000
  884      -63.224003   1.000000
  885      -70.930844   1.000000
  886      -65.219716   1.000000
  887      -67.970906   1.000000
  888      -62.652237   1.000000
  889      -63.722135   1.000000
  890      -63.535716   1.000000
  891      -64.607667   1.000000
  892      -63.455232   1.000000
  893      -65.516700   1.000000
  894      -62.475340   1.000000
  895      -63.178315   1.000000
  896      -62.994861   1.000000
  897      -59.672392   1.000000
  898      -59.171374   1.000000
  899      -60.026101   1.000000
  900      -61.979542   1.000000
  901      -62.810158   1.000000