<?xml version="1.0" encoding="ISO-8859-1"?>
<modeling>
 <generator>
  <i name="program" type="string">vasp </i>
  <i name="version" type="string">5.4.4.18Apr17-6-g9f103f2a35  </i>
  <i name="subversion" type="string">(build Sep 27 2018 12:46:37) complex + VL-xray_ parallel </i>
  <i name="platform" type="string">LLNL_Quartz_ifc </i>
  <i name="date" type="string">2021 09 26 </i>
  <i name="time" type="string">21:05:36 </i>
 </generator>
 <incar>
  <i type="int" name="ISTART">     2</i>
  <i type="string" name="PREC">accurate</i>
  <i type="string" name="ALGO"> Fast</i>
  <i type="int" name="ICHARG">     2</i>
  <i type="int" name="INIWAV">     1</i>
  <i type="int" name="NELM">   100</i>
  <i type="int" name="NELMIN">     4</i>
  <i type="int" name="IBRION">     2</i>
  <i name="EDIFF">      0.00000100</i>
  <i type="int" name="NSW">     5</i>
  <i type="int" name="ISIF">     2</i>
  <i type="int" name="ISYM">     2</i>
  <i name="ENCUT">    450.00000000</i>
  <i name="POTIM">      0.25000000</i>
  <i type="string" name="LREAL"> Auto</i>
  <i type="int" name="ISMEAR">     0</i>
  <i name="SIGMA">      0.15000000</i>
  <i type="logical" name="LWAVE"> F  </i>
  <i type="logical" name="LCHARG"> F  </i>
  <i type="int" name="ICORELEVEL">     0</i>
  <i type="int" name="CLNT">     1</i>
  <i type="int" name="CLN">     1</i>
  <i type="int" name="INCAR     ">     0</i>
  <i name="CLZ">      0.00000000</i>
  <v type="int" name="KPOINT_BSE">    -1     0     0     0</v>
  <i type="int" name="NELM">   100</i>
 </incar>
 <structure name="primitive_cell" >
  <crystal>
   <varray name="basis" >
    <v>       9.72667804       0.00000000       0.00000000 </v>
    <v>       0.00000000       8.42355028       0.00000000 </v>
    <v>       0.00000000       0.00000000      45.00000000 </v>
   </varray>
   <i name="volume">   3686.99226691 </i>
   <varray name="rec_basis" >
    <v>       0.10281002       0.00000000       0.00000000 </v>
    <v>       0.00000000       0.11871479       0.00000000 </v>
    <v>       0.00000000       0.00000000       0.02222222 </v>
   </varray>
  </crystal>
  <varray name="positions" >
   <v>       0.06269338       0.03237908       0.12445291 </v>
   <v>      -0.05785442       0.11253729       0.16683834 </v>
   <v>       0.19328407       0.11177854       0.16620967 </v>
   <v>       0.06794924      -0.13721588       0.16680912 </v>
   <v>       0.31131293       0.03244682       0.12432473 </v>
   <v>       0.18688392      -0.21757512       0.12442524 </v>
   <v>       0.18752978       0.28250071       0.12456342 </v>
   <v>      -0.06306496      -0.21762533       0.12452806 </v>
   <v>      -0.06310590       0.28295424       0.12452121 </v>
   <v>      -0.18888841       0.03202803       0.12446622 </v>
   <v>       0.06749329       0.36160154       0.16684377 </v>
   <v>      -0.18317640      -0.13769041       0.16682999 </v>
   <v>       0.31668386      -0.13763074       0.16687318 </v>
   <v>      -0.30735173       0.11171112       0.16696754 </v>
   <v>      -0.18250919       0.36256708       0.16701938 </v>
   <v>       0.18071491      -0.04765653       0.21163521 </v>
   <v>       0.31768770       0.36137564       0.16683360 </v>
   <v>      -0.05809729      -0.38755691       0.16682946 </v>
   <v>       0.05501469       0.20299294       0.21186076 </v>
   <v>      -0.06917130      -0.04699531       0.21182777 </v>
   <v>       0.44227372       0.11280102       0.16678865 </v>
   <v>       0.43737717      -0.21794770       0.12444350 </v>
   <v>       0.06153035      -0.46748681       0.12449111 </v>
   <v>       0.43767363       0.28248676       0.12452083 </v>
   <v>       0.19208685      -0.38790379       0.16681832 </v>
   <v>      -0.31276653      -0.21753330       0.12443190 </v>
   <v>      -0.31272781       0.28250666       0.12446791 </v>
   <v>       0.05554259      -0.29779885       0.21156126 </v>
   <v>       0.30560901       0.20298535       0.21192518 </v>
   <v>       0.31258116      -0.46725198       0.12448037 </v>
   <v>      -0.43722296       0.03284175       0.12447283 </v>
   <v>      -0.19421701       0.20253651       0.21161890 </v>
   <v>      -0.18886148      -0.46808320       0.12438482 </v>
   <v>       0.43025054      -0.04718879       0.21173846 </v>
   <v>       0.30562487      -0.29761210       0.21169171 </v>
   <v>      -0.43230866      -0.13793000       0.16689980 </v>
   <v>      -0.30793157      -0.38781338       0.16694743 </v>
   <v>       0.18048745       0.45261273       0.21164418 </v>
   <v>      -0.19442847      -0.29753110       0.21168975 </v>
   <v>      -0.06973276       0.45277356       0.21180109 </v>
   <v>      -0.31973645      -0.04696679       0.21184624 </v>
   <v>       0.44258314      -0.38790422       0.16673713 </v>
   <v>      -0.43268094       0.36257758       0.16695646 </v>
   <v>       0.06555549       0.03530420       0.25600955 </v>
   <v>      -0.44443909       0.20216070       0.21152443 </v>
   <v>       0.43059360       0.45248899       0.21163854 </v>
   <v>      -0.05947372      -0.21458630       0.25597755 </v>
   <v>      -0.18460961       0.03518064       0.25598021 </v>
   <v>       0.19053238      -0.21470704       0.25600213 </v>
   <v>      -0.05951120       0.28530227       0.25597404 </v>
   <v>       0.31523513       0.03548841       0.25598981 </v>
   <v>       0.19039751       0.28521512       0.25598188 </v>
   <v>      -0.43726967      -0.46781596       0.12436257 </v>
   <v>      -0.31937944       0.45248982       0.21165282 </v>
   <v>      -0.44425992      -0.29766932       0.21164222 </v>
   <v>      -0.30986137      -0.21444004       0.25598461 </v>
   <v>       0.06560969      -0.46468640       0.25597102 </v>
   <v>      -0.30954652       0.28524081       0.25599811 </v>
   <v>       0.44061393      -0.21457978       0.25594502 </v>
   <v>       0.44055121       0.28537798       0.25598186 </v>
   <v>      -0.18440415      -0.46447521       0.25594309 </v>
   <v>      -0.43433983       0.03548814       0.25598995 </v>
   <v>       0.31557124      -0.46461963       0.25597053 </v>
   <v>       0.05378080      -0.12685795       0.30011429 </v>
   <v>       0.17926906       0.12269594       0.30028513 </v>
   <v>      -0.07116559       0.12223664       0.30025728 </v>
   <v>       0.30373776      -0.12788382       0.30031221 </v>
   <v>      -0.19600870      -0.12789362       0.30018928 </v>
   <v>       0.05404641       0.37257255       0.30021761 </v>
   <v>       0.17878859      -0.37790409       0.30030732 </v>
   <v>       0.42866930       0.12196331       0.30032984 </v>
   <v>      -0.43451524      -0.46476104       0.25600890 </v>
   <v>      -0.07130111      -0.37776487       0.30030720 </v>
   <v>       0.30399717       0.37244951       0.30021550 </v>
   <v>      -0.32070760       0.12186316       0.30025251 </v>
   <v>      -0.19644344       0.37200697       0.30035309 </v>
   <v>       0.42873881      -0.37788162       0.30033154 </v>
   <v>      -0.44626748      -0.12797613       0.30032296 </v>
   <v>      -0.32082751      -0.37819508       0.30011792 </v>
   <v>      -0.44625468       0.37212519       0.30032468 </v>
   <v>      -0.05761198      -0.04769844       0.34500571 </v>
   <v>       0.19137561      -0.04808099       0.34498583 </v>
   <v>       0.06577124       0.20251582       0.34505501 </v>
   <v>       0.06645412      -0.29814867       0.34496010 </v>
   <v>      -0.18353170       0.20189656       0.34496805 </v>
   <v>       0.31629882       0.20207827       0.34491988 </v>
   <v>      -0.30852342      -0.04820070       0.34494961 </v>
   <v>      -0.18320972      -0.29754949       0.34505825 </v>
   <v>       0.31611637      -0.29838207       0.34490676 </v>
   <v>      -0.05861315       0.45203681       0.34489837 </v>
   <v>       0.44190070      -0.04776480       0.34490576 </v>
   <v>       0.19187248       0.45199353       0.34499140 </v>
   <v>      -0.43369720       0.20192329       0.34495930 </v>
   <v>      -0.30881737       0.45196653       0.34489931 </v>
   <v>       0.44144192       0.45191403       0.34498912 </v>
   <v>       0.06398343       0.04364836      -0.12456372 </v>
   <v>      -0.43394582      -0.29837566       0.34489491 </v>
   <v>       0.19279925      -0.20396337      -0.12415748 </v>
   <v>      -0.06105379      -0.20623013      -0.12445766 </v>
   <v>       0.31508410       0.04121492      -0.12418364 </v>
   <v>      -0.18489630       0.04245135      -0.12454939 </v>
   <v>      -0.05840763       0.29626622      -0.12417998 </v>
   <v>       0.19054789       0.29665815      -0.12413484 </v>
   <v>       0.05850346       0.03738023       0.38905639 </v>
   <v>      -0.30683819      -0.20398663      -0.12434147 </v>
   <v>       0.06470486      -0.45824098      -0.12432573 </v>
   <v>       0.44054178      -0.20327506      -0.12432494 </v>
   <v>      -0.30799546       0.29636114      -0.12415121 </v>
   <v>       0.44204508       0.29636865      -0.12412027 </v>
   <v>       0.18348456      -0.21243299       0.38908112 </v>
   <v>       0.30869441       0.03727432       0.38902456 </v>
   <v>      -0.06603145      -0.21301987       0.38895859 </v>
   <v>       0.18338869       0.28855753       0.38907937 </v>
   <v>      -0.06629317       0.28744478       0.38893841 </v>
   <v>      -0.19149174       0.03736963       0.38907399 </v>
   <v>      -0.18559961      -0.45737961      -0.12436374 </v>
   <v>       0.31417123      -0.45771631      -0.12448291 </v>
   <v>      -0.43601666       0.04383679      -0.12441835 </v>
   <v>       0.05799142      -0.46229137       0.38897287 </v>
   <v>       0.43372408      -0.21241823       0.38908516 </v>
   <v>       0.43363821       0.28754206       0.38905961 </v>
   <v>      -0.31634683      -0.21223789       0.38905582 </v>
   <v>      -0.31630531       0.28752646       0.38907286 </v>
   <v>      -0.44129434       0.03756469       0.38886827 </v>
   <v>       0.30857392      -0.46240022       0.38907804 </v>
   <v>      -0.19124186      -0.46245999       0.38907131 </v>
   <v>      -0.43533600      -0.45822175      -0.12438125 </v>
   <v>       0.18393637      -0.03698314      -0.16684708 </v>
   <v>      -0.06677593      -0.03552862      -0.16670243 </v>
   <v>       0.05821866       0.21289474      -0.16672459 </v>
   <v>       0.05908732      -0.28714379      -0.16688568 </v>
   <v>       0.30893970       0.21379711      -0.16676080 </v>
   <v>      -0.19138500       0.21295843      -0.16657319 </v>
   <v>      -0.44159796      -0.46256492       0.38904462 </v>
   <v>       0.30765900      -0.28560153      -0.16604551 </v>
   <v>       0.43247056      -0.03680903      -0.16675088 </v>
   <v>      -0.19142609      -0.28584468      -0.16675762 </v>
   <v>      -0.31593355      -0.03599822      -0.16668961 </v>
   <v>       0.18407978       0.46425864      -0.16671056 </v>
   <v>      -0.06645764       0.46352740      -0.16699521 </v>
   <v>       0.06256987      -0.12922068       0.43443470 </v>
   <v>      -0.06137620       0.11965531       0.43436033 </v>
   <v>       0.18807804       0.12013594       0.43449857 </v>
   <v>      -0.44081192       0.21329382      -0.16667047 </v>
   <v>       0.43358613       0.46305604      -0.16684327 </v>
   <v>      -0.31654187       0.46355895      -0.16688197 </v>
   <v>      -0.18690429      -0.12878548       0.43447369 </v>
   <v>       0.31317789      -0.12925195       0.43444270 </v>
   <v>      -0.44145890      -0.28679772      -0.16692942 </v>
   <v>       0.06318725       0.37082448       0.43442704 </v>
   <v>       0.18814976      -0.37970160       0.43438488 </v>
   <v>      -0.06248263      -0.38068425       0.43464354 </v>
   <v>      -0.31207747       0.12010574       0.43448369 </v>
   <v>       0.43817847       0.12006776       0.43444873 </v>
   <v>       0.31293034       0.37091143       0.43444401 </v>
   <v>      -0.18743977       0.37053267       0.43447501 </v>
   <v>       0.43836987      -0.37969416       0.43426911 </v>
   <v>      -0.31181023      -0.37969864       0.43442080 </v>
   <v>      -0.43738156      -0.12952787       0.43446398 </v>
   <v>      -0.43712695       0.37038551       0.43443010 </v>
   <v>      -0.05484721       0.12471808      -0.21147789 </v>
   <v>       0.07133762      -0.12617236      -0.21174713 </v>
   <v>       0.19595277       0.12470588      -0.21157707 </v>
   <v>      -0.17955281      -0.12538696      -0.21164654 </v>
   <v>       0.32050137      -0.12546809      -0.21162535 </v>
   <v>       0.07041099       0.37455201      -0.21158975 </v>
   <v>      -0.05411335      -0.37532649      -0.21158332 </v>
   <v>      -0.30416626       0.12453909      -0.21155236 </v>
   <v>       0.19529787      -0.37545909      -0.21165390 </v>
   <v>      -0.17969120       0.37523571      -0.21172051 </v>
   <v>       0.44514585       0.12490827      -0.21143201 </v>
   <v>       0.32034474       0.37421366      -0.21154274 </v>
   <v>      -0.30479657      -0.37574119      -0.21163194 </v>
   <v>      -0.43015822      -0.12602690      -0.21169562 </v>
   <v>       0.44622025      -0.37560849      -0.21167477 </v>
   <v>       0.18799609      -0.04402017       0.47860521 </v>
   <v>      -0.06219002      -0.04415420       0.47864524 </v>
   <v>       0.06280375       0.20580809       0.47863803 </v>
   <v>      -0.42908808       0.37462707      -0.21160115 </v>
   <v>       0.06290694      -0.29436708       0.47862256 </v>
   <v>      -0.18683174       0.20572913       0.47851421 </v>
   <v>       0.31289054       0.20586571       0.47857875 </v>
   <v>      -0.18712061      -0.29406832       0.47861483 </v>
   <v>       0.31282311      -0.29438949       0.47861832 </v>
   <v>       0.43791022      -0.04404970       0.47861636 </v>
   <v>      -0.31234100      -0.04412897       0.47863810 </v>
   <v>       0.18786012       0.45587390       0.47861569 </v>
   <v>      -0.06232868       0.45574288       0.47862826 </v>
   <v>      -0.43714680       0.20572870       0.47860631 </v>
   <v>       0.43790773       0.45593186       0.47860844 </v>
   <v>      -0.31220273       0.45573559       0.47863298 </v>
   <v>      -0.43720454      -0.29427548       0.47862485 </v>
   <v>       0.06039989       0.04218258      -0.25583733 </v>
   <v>       0.18597171      -0.20826698      -0.25583299 </v>
   <v>      -0.06437908      -0.20790973      -0.25581922 </v>
   <v>       0.31075467       0.04233553      -0.25591284 </v>
   <v>      -0.18934095       0.04200074      -0.25591315 </v>
   <v>       0.18564260       0.29202795      -0.25588751 </v>
   <v>      -0.06394530       0.29159499      -0.25584325 </v>
   <v>       0.06071302      -0.45787724      -0.25587405 </v>
   <v>       0.43603616      -0.20787843      -0.25575835 </v>
   <v>      -0.31415847      -0.20821644      -0.25583453 </v>
   <v>       0.43571686       0.29199207      -0.25585569 </v>
   <v>      -0.31460930       0.29132663      -0.25591152 </v>
   <v>       0.31079042      -0.45779893      -0.25583495 </v>
   <v>      -0.18917205      -0.45802926      -0.25577495 </v>
   <v>      -0.43957553       0.04224004      -0.25582418 </v>
   <v>       0.06335848      -0.12814129      -0.47875596 </v>
   <v>       0.18848999       0.12236112      -0.47870227 </v>
   <v>      -0.06142408       0.12212273      -0.47867165 </v>
   <v>      -0.18650395      -0.12788579      -0.47872057 </v>
   <v>       0.31364654      -0.12798924      -0.47872415 </v>
   <v>       0.06345672       0.37231787      -0.47864450 </v>
   <v>       0.18851596      -0.37778243      -0.47867690 </v>
   <v>      -0.06151860      -0.37770469      -0.47861675 </v>
   <v>      -0.31148040       0.12231671      -0.47865044 </v>
   <v>       0.43831401       0.12194439      -0.47865503 </v>
   <v>      -0.18652656       0.37227779      -0.47866659 </v>
   <v>       0.31346833       0.37230907      -0.47866373 </v>
   <v>      -0.43937918      -0.45785528      -0.25582171 </v>
   <v>       0.43846038      -0.37778790      -0.47868487 </v>
   <v>      -0.31167989      -0.37763607      -0.47858956 </v>
   <v>      -0.43677580      -0.12797910      -0.47866958 </v>
   <v>      -0.43649476       0.37212295      -0.47870394 </v>
   <v>      -0.05956238      -0.04156121      -0.30029693 </v>
   <v>       0.19052278      -0.04163484      -0.30029379 </v>
   <v>       0.06539284       0.20840310      -0.30030425 </v>
   <v>       0.06533430      -0.29167686      -0.30032675 </v>
   <v>      -0.18467580       0.20835405      -0.30032465 </v>
   <v>       0.31537063       0.20843468      -0.30031252 </v>
   <v>      -0.18467235      -0.29163725      -0.30032163 </v>
   <v>      -0.30949335      -0.04155971      -0.30030817 </v>
   <v>       0.31525753      -0.29185681      -0.30038255 </v>
   <v>       0.44034489      -0.04170423      -0.30030890 </v>
   <v>      -0.05952919       0.45844776      -0.30032319 </v>
   <v>       0.19041969       0.45836509      -0.30030452 </v>
   <v>      -0.43434321       0.20830294      -0.30028385 </v>
   <v>      -0.30948352       0.45850899      -0.30033317 </v>
   <v>       0.44038683       0.45832165      -0.30031614 </v>
   <v>       0.18869275      -0.04250199      -0.43469489 </v>
   <v>      -0.06105147      -0.04218803      -0.43447073 </v>
   <v>       0.06373467       0.20768836      -0.43453265 </v>
   <v>      -0.43467092      -0.29167883      -0.30032648 </v>
   <v>       0.06377040      -0.29230059      -0.43454971 </v>
   <v>      -0.18609046       0.20761894      -0.43459712 </v>
   <v>       0.31398362       0.20778541      -0.43445067 </v>
   <v>      -0.18603406      -0.29234212      -0.43456658 </v>
   <v>      -0.31133102      -0.04219471      -0.43454810 </v>
   <v>       0.31386543      -0.29257932      -0.43443150 </v>
   <v>       0.43893017      -0.04231533      -0.43457177 </v>
   <v>      -0.06107535       0.45765539      -0.43458143 </v>
   <v>       0.18879561       0.45773704      -0.43457014 </v>
   <v>      -0.43609280       0.20763136      -0.43457121 </v>
   <v>      -0.31123367       0.45770271      -0.43454134 </v>
   <v>       0.43881689       0.45774301      -0.43455574 </v>
   <v>      -0.43620304      -0.29231027      -0.43458065 </v>
   <v>       0.05893551      -0.12439359      -0.34508875 </v>
   <v>       0.18385889       0.12572394      -0.34508493 </v>
   <v>      -0.06598714       0.12603048      -0.34505154 </v>
   <v>       0.30887086      -0.12428199      -0.34507842 </v>
   <v>      -0.19114213      -0.12433472      -0.34509694 </v>
   <v>       0.05890343       0.37568672      -0.34507162 </v>
   <v>       0.18395261      -0.37416631      -0.34504762 </v>
   <v>      -0.06593444      -0.37392088      -0.34502239 </v>
   <v>       0.43387180       0.12577805      -0.34510544 </v>
   <v>       0.30885985       0.37569286      -0.34507902 </v>
   <v>      -0.31601400       0.12614357      -0.34503007 </v>
   <v>      -0.19112203       0.37555303      -0.34505540 </v>
   <v>       0.43405066      -0.37395182      -0.34502858 </v>
   <v>      -0.44109817      -0.12429578      -0.34508326 </v>
   <v>      -0.31592902      -0.37394655      -0.34502848 </v>
   <v>      -0.44110060       0.37567168      -0.34505462 </v>
   <v>       0.06271337       0.04180411      -0.38914878 </v>
   <v>      -0.18695316       0.04155611      -0.38932844 </v>
   <v>      -0.06228167      -0.20820310      -0.38916502 </v>
   <v>       0.18771146      -0.20803944      -0.38913719 </v>
   <v>       0.31266291       0.04185645      -0.38911621 </v>
   <v>      -0.06213856       0.29177924      -0.38919325 </v>
   <v>       0.18774625       0.29187170      -0.38918787 </v>
   <v>       0.06269871      -0.45817221      -0.38915068 </v>
   <v>       0.43765720      -0.20808023      -0.38914983 </v>
   <v>      -0.31225718      -0.20815298      -0.38913931 </v>
   <v>       0.43777398       0.29184382      -0.38917769 </v>
   <v>      -0.31239722       0.29199576      -0.38913508 </v>
   <v>       0.31271113      -0.45813876      -0.38915000 </v>
   <v>      -0.18737139      -0.45814675      -0.38914821 </v>
   <v>      -0.43714820       0.04175163      -0.38920905 </v>
   <v>      -0.43725825      -0.45817519      -0.38914695 </v>
  </varray>
 </structure>
 <varray name="primitive_index" >
  <v type="int" >        1 </v>
  <v type="int" >       26 </v>
  <v type="int" >      282 </v>
  <v type="int" >       60 </v>
  <v type="int" >      256 </v>
  <v type="int" >       83 </v>
  <v type="int" >      111 </v>
  <v type="int" >      212 </v>
  <v type="int" >      155 </v>
  <v type="int" >      202 </v>
  <v type="int" >       51 </v>
  <v type="int" >      102 </v>
  <v type="int" >      192 </v>
  <v type="int" >      166 </v>
  <v type="int" >      252 </v>
  <v type="int" >      146 </v>
  <v type="int" >        5 </v>
  <v type="int" >      104 </v>
  <v type="int" >       50 </v>
  <v type="int" >      273 </v>
  <v type="int" >      182 </v>
  <v type="int" >       48 </v>
  <v type="int" >      176 </v>
  <v type="int" >      117 </v>
  <v type="int" >       20 </v>
  <v type="int" >      163 </v>
  <v type="int" >      145 </v>
  <v type="int" >      250 </v>
  <v type="int" >      123 </v>
  <v type="int" >       91 </v>
  <v type="int" >      251 </v>
  <v type="int" >      167 </v>
  <v type="int" >      205 </v>
  <v type="int" >      229 </v>
  <v type="int" >      276 </v>
  <v type="int" >      277 </v>
  <v type="int" >       97 </v>
  <v type="int" >      189 </v>
  <v type="int" >      213 </v>
  <v type="int" >      175 </v>
  <v type="int" >       92 </v>
  <v type="int" >      174 </v>
  <v type="int" >       30 </v>
  <v type="int" >      185 </v>
  <v type="int" >      103 </v>
  <v type="int" >      139 </v>
  <v type="int" >       52 </v>
  <v type="int" >       24 </v>
  <v type="int" >      200 </v>
  <v type="int" >      127 </v>
  <v type="int" >      179 </v>
  <v type="int" >       35 </v>
  <v type="int" >      164 </v>
  <v type="int" >      261 </v>
  <v type="int" >      243 </v>
  <v type="int" >      118 </v>
  <v type="int" >      168 </v>
  <v type="int" >       58 </v>
  <v type="int" >      137 </v>
  <v type="int" >      265 </v>
  <v type="int" >       81 </v>
  <v type="int" >      281 </v>
  <v type="int" >      275 </v>
  <v type="int" >      214 </v>
  <v type="int" >      215 </v>
  <v type="int" >      135 </v>
  <v type="int" >       98 </v>
  <v type="int" >       72 </v>
  <v type="int" >      226 </v>
  <v type="int" >      263 </v>
  <v type="int" >      159 </v>
  <v type="int" >       28 </v>
  <v type="int" >      178 </v>
  <v type="int" >      242 </v>
  <v type="int" >      109 </v>
  <v type="int" >      220 </v>
  <v type="int" >      101 </v>
  <v type="int" >      210 </v>
  <v type="int" >      130 </v>
  <v type="int" >      171 </v>
  <v type="int" >      287 </v>
  <v type="int" >      258 </v>
  <v type="int" >       47 </v>
  <v type="int" >      216 </v>
  <v type="int" >      207 </v>
  <v type="int" >       86 </v>
  <v type="int" >       25 </v>
  <v type="int" >       73 </v>
  <v type="int" >      208 </v>
  <v type="int" >       12 </v>
  <v type="int" >      172 </v>
  <v type="int" >      116 </v>
  <v type="int" >      219 </v>
  <v type="int" >      279 </v>
  <v type="int" >      206 </v>
  <v type="int" >       84 </v>
  <v type="int" >       62 </v>
  <v type="int" >      268 </v>
  <v type="int" >      105 </v>
  <v type="int" >      245 </v>
  <v type="int" >      284 </v>
  <v type="int" >      280 </v>
  <v type="int" >      120 </v>
  <v type="int" >      124 </v>
  <v type="int" >       29 </v>
  <v type="int" >      266 </v>
  <v type="int" >      150 </v>
  <v type="int" >      191 </v>
  <v type="int" >      255 </v>
  <v type="int" >        7 </v>
  <v type="int" >      165 </v>
  <v type="int" >      190 </v>
  <v type="int" >      248 </v>
  <v type="int" >       13 </v>
  <v type="int" >       38 </v>
  <v type="int" >      247 </v>
  <v type="int" >       18 </v>
  <v type="int" >      161 </v>
  <v type="int" >      286 </v>
  <v type="int" >      264 </v>
  <v type="int" >        4 </v>
  <v type="int" >       45 </v>
  <v type="int" >       55 </v>
  <v type="int" >       16 </v>
  <v type="int" >       67 </v>
  <v type="int" >      270 </v>
  <v type="int" >       64 </v>
  <v type="int" >      173 </v>
  <v type="int" >       17 </v>
  <v type="int" >      259 </v>
  <v type="int" >      134 </v>
  <v type="int" >       39 </v>
  <v type="int" >        6 </v>
  <v type="int" >      222 </v>
  <v type="int" >      283 </v>
  <v type="int" >      110 </v>
  <v type="int" >      253 </v>
  <v type="int" >       88 </v>
  <v type="int" >      181 </v>
  <v type="int" >       36 </v>
  <v type="int" >      204 </v>
  <v type="int" >      158 </v>
  <v type="int" >      160 </v>
  <v type="int" >      143 </v>
  <v type="int" >       74 </v>
  <v type="int" >       82 </v>
  <v type="int" >      285 </v>
  <v type="int" >       23 </v>
  <v type="int" >      241 </v>
  <v type="int" >      218 </v>
  <v type="int" >      238 </v>
  <v type="int" >      131 </v>
  <v type="int" >      257 </v>
  <v type="int" >      201 </v>
  <v type="int" >      113 </v>
  <v type="int" >       80 </v>
  <v type="int" >      249 </v>
  <v type="int" >      232 </v>
  <v type="int" >       69 </v>
  <v type="int" >      235 </v>
  <v type="int" >      149 </v>
  <v type="int" >      197 </v>
  <v type="int" >        3 </v>
  <v type="int" >      112 </v>
  <v type="int" >      224 </v>
  <v type="int" >      254 </v>
  <v type="int" >      132 </v>
  <v type="int" >      188 </v>
  <v type="int" >      272 </v>
  <v type="int" >       57 </v>
  <v type="int" >       49 </v>
  <v type="int" >      138 </v>
  <v type="int" >       66 </v>
  <v type="int" >       33 </v>
  <v type="int" >      184 </v>
  <v type="int" >      288 </v>
  <v type="int" >      236 </v>
  <v type="int" >      223 </v>
  <v type="int" >      106 </v>
  <v type="int" >      157 </v>
  <v type="int" >       21 </v>
  <v type="int" >      230 </v>
  <v type="int" >      234 </v>
  <v type="int" >       99 </v>
  <v type="int" >      221 </v>
  <v type="int" >       75 </v>
  <v type="int" >      244 </v>
  <v type="int" >      269 </v>
  <v type="int" >      237 </v>
  <v type="int" >      156 </v>
  <v type="int" >      199 </v>
  <v type="int" >      169 </v>
  <v type="int" >        9 </v>
  <v type="int" >      262 </v>
  <v type="int" >       46 </v>
  <v type="int" >      239 </v>
  <v type="int" >      151 </v>
  <v type="int" >       11 </v>
  <v type="int" >      187 </v>
  <v type="int" >      211 </v>
  <v type="int" >       31 </v>
  <v type="int" >       43 </v>
  <v type="int" >       71 </v>
  <v type="int" >       19 </v>
  <v type="int" >       94 </v>
  <v type="int" >       87 </v>
  <v type="int" >      267 </v>
  <v type="int" >        2 </v>
  <v type="int" >      140 </v>
  <v type="int" >       27 </v>
  <v type="int" >       10 </v>
  <v type="int" >      144 </v>
  <v type="int" >      107 </v>
  <v type="int" >       68 </v>
  <v type="int" >      203 </v>
  <v type="int" >       34 </v>
  <v type="int" >      152 </v>
  <v type="int" >      177 </v>
  <v type="int" >      183 </v>
  <v type="int" >      278 </v>
  <v type="int" >       14 </v>
  <v type="int" >      195 </v>
  <v type="int" >       77 </v>
  <v type="int" >      108 </v>
  <v type="int" >      225 </v>
  <v type="int" >      119 </v>
  <v type="int" >       37 </v>
  <v type="int" >      274 </v>
  <v type="int" >      233 </v>
  <v type="int" >       63 </v>
  <v type="int" >      141 </v>
  <v type="int" >       54 </v>
  <v type="int" >      154 </v>
  <v type="int" >      125 </v>
  <v type="int" >      136 </v>
  <v type="int" >      246 </v>
  <v type="int" >       53 </v>
  <v type="int" >       76 </v>
  <v type="int" >      193 </v>
  <v type="int" >      162 </v>
  <v type="int" >      129 </v>
  <v type="int" >      170 </v>
  <v type="int" >      133 </v>
  <v type="int" >       65 </v>
  <v type="int" >      271 </v>
  <v type="int" >       93 </v>
  <v type="int" >       32 </v>
  <v type="int" >       95 </v>
  <v type="int" >       90 </v>
  <v type="int" >       56 </v>
  <v type="int" >       42 </v>
  <v type="int" >       59 </v>
  <v type="int" >        8 </v>
  <v type="int" >      228 </v>
  <v type="int" >       70 </v>
  <v type="int" >      186 </v>
  <v type="int" >      196 </v>
  <v type="int" >      121 </v>
  <v type="int" >      122 </v>
  <v type="int" >       44 </v>
  <v type="int" >       79 </v>
  <v type="int" >      198 </v>
  <v type="int" >      153 </v>
  <v type="int" >      240 </v>
  <v type="int" >      231 </v>
  <v type="int" >       85 </v>
  <v type="int" >      209 </v>
  <v type="int" >      194 </v>
  <v type="int" >       40 </v>
  <v type="int" >       89 </v>
  <v type="int" >      227 </v>
  <v type="int" >       78 </v>
  <v type="int" >      142 </v>
  <v type="int" >      217 </v>
  <v type="int" >      114 </v>
  <v type="int" >       15 </v>
  <v type="int" >      148 </v>
  <v type="int" >      100 </v>
  <v type="int" >       61 </v>
  <v type="int" >      126 </v>
  <v type="int" >       96 </v>
  <v type="int" >      180 </v>
  <v type="int" >      115 </v>
  <v type="int" >      147 </v>
  <v type="int" >       41 </v>
  <v type="int" >       22 </v>
  <v type="int" >      260 </v>
  <v type="int" >      128 </v>
 </varray>
 <kpoints>
  <generation param="Gamma">
   <v type="int" name="divisions">       4        4        1 </v>
   <v name="usershift">      0.00000000       0.00000000       0.00000000 </v>
   <v name="genvec1">      0.25000000       0.00000000       0.00000000 </v>
   <v name="genvec2">      0.00000000       0.25000000       0.00000000 </v>
   <v name="genvec3">      0.00000000       0.00000000       1.00000000 </v>
   <v name="shift">      0.00000000       0.00000000       0.00000000 </v>
  </generation>
  <varray name="kpointlist" >
   <v>       0.00000000       0.00000000       0.00000000 </v>
   <v>       0.25000000       0.00000000       0.00000000 </v>
   <v>       0.50000000       0.00000000       0.00000000 </v>
   <v>       0.00000000       0.25000000       0.00000000 </v>
   <v>       0.25000000       0.25000000       0.00000000 </v>
   <v>       0.50000000       0.25000000       0.00000000 </v>
   <v>      -0.25000000       0.25000000       0.00000000 </v>
   <v>       0.00000000       0.50000000       0.00000000 </v>
   <v>       0.25000000       0.50000000       0.00000000 </v>
   <v>       0.50000000       0.50000000       0.00000000 </v>
  </varray>
  <varray name="weights" >
   <v>       0.06250000 </v>
   <v>       0.12500000 </v>
   <v>       0.06250000 </v>
   <v>       0.12500000 </v>
   <v>       0.12500000 </v>
   <v>       0.12500000 </v>
   <v>       0.12500000 </v>
   <v>       0.06250000 </v>
   <v>       0.12500000 </v>
   <v>       0.06250000 </v>
  </varray>
 </kpoints>
 <parameters>
  <separator name="general" >
   <i type="string" name="SYSTEM">unknown system</i>
   <i type="logical" name="LCOMPAT"> F  </i>
  </separator>
  <separator name="electronic" >
   <i type="string" name="PREC">accura</i>
   <i name="ENMAX">    450.00000000</i>
   <i name="ENAUG">    838.43500000</i>
   <i name="EDIFF">      0.00000100</i>
   <i type="int" name="IALGO">    68</i>
   <i type="int" name="IWAVPR">    11</i>
   <i type="int" name="NBANDS">  1386</i>
   <i name="NELECT">   2297.00000000</i>
   <i type="int" name="TURBO">     0</i>
   <i type="int" name="IRESTART">     0</i>
   <i type="int" name="NREBOOT">     0</i>
   <i type="int" name="NMIN">     0</i>
   <i name="EREF">      0.00000000</i>
   <separator name="electronic smearing" >
    <i type="int" name="ISMEAR">     0</i>
    <i name="SIGMA">      0.15000000</i>
    <i name="KSPACING">      0.50000000</i>
    <i type="logical" name="KGAMMA"> T  </i>
   </separator>
   <separator name="electronic projectors" >
    <i type="logical" name="LREAL"> T  </i>
    <v name="ROPT">     -0.00025000     -0.00025000</v>
    <i type="int" name="LMAXPAW">  -100</i>
    <i type="int" name="LMAXMIX">     2</i>
    <i type="logical" name="NLSPLINE"> F  </i>
   </separator>
   <separator name="electronic startup" >
    <i type="int" name="ISTART">     0</i>
    <i type="int" name="ICHARG">     2</i>
    <i type="int" name="INIWAV">     1</i>
   </separator>
   <separator name="electronic spin" >
    <i type="int" name="ISPIN">     1</i>
    <i type="logical" name="LNONCOLLINEAR"> F  </i>
    <v name="MAGMOM">      1.00000000      1.00000000      1.00000000      1.00000000      1.00000000      1.00000000      1.00000000      1.00000000      1.00000000      1.00000000      1.00000000      1.00000000      1.00000000      1.00000000      1.00000000      1.00000000      1.00000000      1.00000000      1.00000000      1.00000000
      1.00000000      1.00000000      1.00000000      1.00000000      1.00000000      1.00000000      1.00000000      1.00000000      1.00000000      1.00000000      1.00000000      1.00000000      1.00000000      1.00000000      1.00000000      1.00000000      1.00000000      1.00000000      1.00000000      1.00000000
      1.00000000      1.00000000      1.00000000      1.00000000      1.00000000      1.00000000      1.00000000      1.00000000      1.00000000      1.00000000      1.00000000      1.00000000      1.00000000      1.00000000      1.00000000      1.00000000      1.00000000      1.00000000      1.00000000      1.00000000
      1.00000000      1.00000000      1.00000000      1.00000000      1.00000000      1.00000000      1.00000000      1.00000000      1.00000000      1.00000000      1.00000000      1.00000000      1.00000000      1.00000000      1.00000000      1.00000000      1.00000000      1.00000000      1.00000000      1.00000000
      1.00000000      1.00000000      1.00000000      1.00000000      1.00000000      1.00000000      1.00000000      1.00000000      1.00000000      1.00000000      1.00000000      1.00000000      1.00000000      1.00000000      1.00000000      1.00000000      1.00000000      1.00000000      1.00000000      1.00000000
      1.00000000      1.00000000      1.00000000      1.00000000      1.00000000      1.00000000      1.00000000      1.00000000      1.00000000      1.00000000      1.00000000      1.00000000      1.00000000      1.00000000      1.00000000      1.00000000      1.00000000      1.00000000      1.00000000      1.00000000
      1.00000000      1.00000000      1.00000000      1.00000000      1.00000000      1.00000000      1.00000000      1.00000000      1.00000000      1.00000000      1.00000000      1.00000000      1.00000000      1.00000000      1.00000000      1.00000000      1.00000000      1.00000000      1.00000000      1.00000000
      1.00000000      1.00000000      1.00000000      1.00000000      1.00000000      1.00000000      1.00000000      1.00000000      1.00000000      1.00000000      1.00000000      1.00000000      1.00000000      1.00000000      1.00000000      1.00000000      1.00000000      1.00000000      1.00000000      1.00000000
      1.00000000      1.00000000      1.00000000      1.00000000      1.00000000      1.00000000      1.00000000      1.00000000      1.00000000      1.00000000      1.00000000      1.00000000      1.00000000      1.00000000      1.00000000      1.00000000      1.00000000      1.00000000      1.00000000      1.00000000
      1.00000000      1.00000000      1.00000000      1.00000000      1.00000000      1.00000000      1.00000000      1.00000000      1.00000000      1.00000000      1.00000000      1.00000000      1.00000000      1.00000000      1.00000000      1.00000000      1.00000000      1.00000000      1.00000000      1.00000000
      1.00000000      1.00000000      1.00000000      1.00000000      1.00000000      1.00000000      1.00000000      1.00000000      1.00000000      1.00000000      1.00000000      1.00000000      1.00000000      1.00000000      1.00000000      1.00000000      1.00000000      1.00000000      1.00000000      1.00000000
      1.00000000      1.00000000      1.00000000      1.00000000      1.00000000      1.00000000      1.00000000      1.00000000      1.00000000      1.00000000      1.00000000      1.00000000      1.00000000      1.00000000      1.00000000      1.00000000      1.00000000      1.00000000      1.00000000      1.00000000
      1.00000000      1.00000000      1.00000000      1.00000000      1.00000000      1.00000000      1.00000000      1.00000000      1.00000000      1.00000000      1.00000000      1.00000000      1.00000000      1.00000000      1.00000000      1.00000000      1.00000000      1.00000000      1.00000000      1.00000000
      1.00000000      1.00000000      1.00000000      1.00000000      1.00000000      1.00000000      1.00000000      1.00000000      1.00000000      1.00000000      1.00000000      1.00000000      1.00000000      1.00000000      1.00000000      1.00000000      1.00000000      1.00000000      1.00000000      1.00000000
      1.00000000      1.00000000      1.00000000      1.00000000      1.00000000      1.00000000      1.00000000      1.00000000</v>
    <i name="NUPDOWN">     -1.00000000</i>
    <i type="logical" name="LSORBIT"> F  </i>
    <v name="SAXIS">      0.00000000      0.00000000      1.00000000</v>
    <i type="logical" name="LSPIRAL"> F  </i>
    <v name="QSPIRAL">      0.00000000      0.00000000      0.00000000</v>
    <i type="logical" name="LZEROZ"> F  </i>
   </separator>
   <separator name="electronic exchange-correlation" >
    <i type="logical" name="LASPH"> F  </i>
    <i type="logical" name="LMETAGGA"> F  </i>
   </separator>
   <separator name="electronic convergence" >
    <i type="int" name="NELM">   100</i>
    <i type="int" name="NELMDL">     0</i>
    <i type="int" name="NELMIN">     4</i>
    <i name="ENINI">    450.00000000</i>
    <separator name="electronic convergence detail" >
     <i type="logical" name="LDIAG"> T  </i>
     <i type="logical" name="LSUBROT"> F  </i>
     <i name="WEIMIN">      0.00100000</i>
     <i name="EBREAK">      0.00000000</i>
     <i name="DEPER">      0.30000000</i>
     <i type="int" name="NRMM">     4</i>
     <i name="TIME">      0.40000000</i>
    </separator>
   </separator>
   <separator name="electronic mixer" >
    <i name="AMIX">      0.40000000</i>
    <i name="BMIX">      1.00000000</i>
    <i name="AMIN">      0.10000000</i>
    <i name="AMIX_MAG">      1.60000000</i>
    <i name="BMIX_MAG">      1.00000000</i>
    <separator name="electronic mixer details" >
     <i type="int" name="IMIX">     4</i>
     <i type="logical" name="MIXFIRST"> F  </i>
     <i type="int" name="MAXMIX">   -45</i>
     <i name="WC">    100.00000000</i>
     <i type="int" name="INIMIX">     1</i>
     <i type="int" name="MIXPRE">     1</i>
     <i type="int" name="MREMOVE">     5</i>
    </separator>
   </separator>
   <separator name="electronic dipolcorrection" >
    <i type="logical" name="LDIPOL"> F  </i>
    <i type="logical" name="LMONO"> F  </i>
    <i type="int" name="IDIPOL">     0</i>
    <i name="EPSILON">      1.00000000</i>
    <v name="DIPOL">   -100.00000000   -100.00000000   -100.00000000</v>
    <i name="EFIELD">      0.00000000</i>
   </separator>
  </separator>
  <separator name="grids" >
   <i type="int" name="NGX">    70</i>
   <i type="int" name="NGY">    60</i>
   <i type="int" name="NGZ">   320</i>
   <i type="int" name="NGXF">   140</i>
   <i type="int" name="NGYF">   120</i>
   <i type="int" name="NGZF">   640</i>
   <i type="logical" name="ADDGRID"> F  </i>
  </separator>
  <separator name="ionic" >
   <i type="int" name="NSW">     5</i>
   <i type="int" name="IBRION">     2</i>
   <i type="int" name="MDALGO">     0</i>
   <i type="int" name="ISIF">     2</i>
   <i name="PSTRESS">      0.00000000</i>
   <i name="EDIFFG">      0.00001000</i>
   <i type="int" name="NFREE">     1</i>
   <i name="POTIM">      0.25000000</i>
   <i name="SMASS">     -3.00000000</i>
   <i name="SCALEE">      1.00000000</i>
  </separator>
  <separator name="ionic md" >
   <i name="TEBEG">      0.00010000</i>
   <i name="TEEND">      0.00010000</i>
   <i type="int" name="NBLOCK">     1</i>
   <i type="int" name="KBLOCK">     5</i>
   <i type="int" name="NPACO">   256</i>
   <i name="APACO">     16.00000000</i>
  </separator>
  <separator name="symmetry" >
   <i type="int" name="ISYM">     2</i>
   <i name="SYMPREC">      0.00001000</i>
  </separator>
  <separator name="dos" >
   <i type="int" name="LORBIT">     0</i>
   <v name="RWIGS">     -1.00000000     -1.00000000</v>
   <i type="int" name="NEDOS">   301</i>
   <i name="EMIN">     10.00000000</i>
   <i name="EMAX">    -10.00000000</i>
   <i name="EFERMI">      0.00000000</i>
  </separator>
  <separator name="writing" >
   <i type="int" name="NWRITE">     2</i>
   <i type="logical" name="LWAVE"> F  </i>
   <i type="logical" name="LDOWNSAMPLE"> F  </i>
   <i type="logical" name="LCHARG"> F  </i>
   <i type="logical" name="LPARD"> F  </i>
   <i type="logical" name="LVTOT"> F  </i>
   <i type="logical" name="LVHAR"> F  </i>
   <i type="logical" name="LELF"> F  </i>
   <i type="logical" name="LOPTICS"> F  </i>
   <v name="STM">      0.00000000      0.00000000      0.00000000      0.00000000      0.00000000      0.00000000      0.00000000</v>
  </separator>
  <separator name="performance" >
   <i type="int" name="NPAR">    14</i>
   <i type="int" name="NSIM">     4</i>
   <i type="int" name="NBLK">    -1</i>
   <i type="logical" name="LPLANE"> T  </i>
   <i type="logical" name="LSCALAPACK"> T  </i>
   <i type="logical" name="LSCAAWARE"> T  </i>
   <i type="logical" name="LSCALU"> F  </i>
   <i type="logical" name="LASYNC"> F  </i>
   <i type="logical" name="LORBITALREAL"> F  </i>
  </separator>
  <separator name="miscellaneous" >
   <i type="int" name="IDIOT">     3</i>
   <i type="int" name="ISPECIAL">     0</i>
   <i type="logical" name="LMUSIC"> F  </i>
   <v name="POMASS">     55.84700000     54.93800000</v>
   <v name="DARWINR">      0.00000000      0.00000000</v>
   <v name="DARWINV">      1.00000000      1.00000000</v>
   <i type="logical" name="LCORR"> T  </i>
  </separator>
  <i type="logical" name="GGA_COMPAT"> T  </i>
  <i type="logical" name="LBERRY"> F  </i>
  <i type="int" name="ICORELEVEL">     0</i>
  <i type="logical" name="LDAU"> F  </i>
  <i type="int" name="I_CONSTRAINED_M">     0</i>
  <separator name="electronic exchange-correlation" >
   <i type="string" name="GGA">--</i>
   <i type="int" name="VOSKOWN">     0</i>
   <i type="logical" name="LHFCALC"> F  </i>
   <i type="string" name="PRECFOCK"></i>
   <i type="logical" name="LSYMGRAD"> F  </i>
   <i type="logical" name="LHFONE"> F  </i>
   <i type="logical" name="LRHFCALC"> F  </i>
   <i type="logical" name="LTHOMAS"> F  </i>
   <i type="logical" name="LMODELHF"> F  </i>
   <i name="ENCUT4O">     -1.00000000</i>
   <i type="int" name="EXXOEP">     0</i>
   <i type="int" name="FOURORBIT">     0</i>
   <i name="AEXX">      0.00000000</i>
   <i name="HFALPHA">      0.00000000</i>
   <i name="MCALPHA">      0.00000000</i>
   <i name="ALDAX">      1.00000000</i>
   <i name="AGGAX">      1.00000000</i>
   <i name="ALDAC">      1.00000000</i>
   <i name="AGGAC">      1.00000000</i>
   <i type="int" name="NKREDX">     1</i>
   <i type="int" name="NKREDY">     1</i>
   <i type="int" name="NKREDZ">     1</i>
   <i type="logical" name="SHIFTRED"> F  </i>
   <i type="logical" name="ODDONLY"> F  </i>
   <i type="logical" name="EVENONLY"> F  </i>
   <i type="int" name="LMAXFOCK">     0</i>
   <i type="int" name="NMAXFOCKAE">     0</i>
   <i type="logical" name="LFOCKAEDFT"> F  </i>
   <i name="HFSCREEN">      0.00000000</i>
   <i name="HFSCREENC">      0.00000000</i>
   <i type="int" name="NBANDSGWLOW">     0</i>
  </separator>
  <separator name="vdW DFT" >
   <i type="logical" name="LUSE_VDW"> F  </i>
   <i name="Zab_VDW">     -0.84910000</i>
   <i name="PARAM1">      0.12340000</i>
   <i name="PARAM2">      1.00000000</i>
   <i name="PARAM3">      0.00000000</i>
  </separator>
  <separator name="model GW" >
   <i type="int" name="MODEL_GW">     0</i>
   <i name="MODEL_EPS0">      7.68123389</i>
   <i name="MODEL_ALPHA">      1.00000000</i>
  </separator>
  <separator name="linear response parameters" >
   <i type="logical" name="LEPSILON"> F  </i>
   <i type="logical" name="LRPA"> F  </i>
   <i type="logical" name="LNABLA"> F  </i>
   <i type="logical" name="LVEL"> F  </i>
   <i type="int" name="KINTER">     0</i>
   <i name="CSHIFT">      0.10000000</i>
   <i name="OMEGAMAX">     -1.00000000</i>
   <i name="DEG_THRESHOLD">      0.00200000</i>
   <i name="RTIME">     -0.10000000</i>
   <i name="WPLASMAI">      0.00000000</i>
   <v name="DFIELD">      0.00000000      0.00000000      0.00000000</v>
   <v name="WPLASMA">      0.00000000      0.00000000      0.00000000      0.00000000      0.00000000      0.00000000      0.00000000      0.00000000      0.00000000</v>
  </separator>
  <separator name="orbital magnetization" >
   <i type="logical" name="NUCIND"> F  </i>
   <v name="MAGPOS">      0.00000000      0.00000000      0.00000000</v>
   <i type="logical" name="LNICSALL"> T  </i>
   <i type="logical" name="ORBITALMAG"> F  </i>
   <i type="logical" name="LMAGBLOCH"> F  </i>
   <i type="logical" name="LCHIMAG"> F  </i>
   <i type="logical" name="LGAUGE"> T  </i>
   <i type="int" name="MAGATOM">     0</i>
   <v name="MAGDIPOL">      0.00000000      0.00000000      0.00000000</v>
   <v name="AVECCONST">      0.00000000      0.00000000      0.00000000</v>
  </separator>
  <separator name="response functions" >
   <i type="logical" name="LADDER"> F  </i>
   <i type="logical" name="LRPAFORCE"> F  </i>
   <i type="logical" name="LFXC"> F  </i>
   <i type="logical" name="LHARTREE"> T  </i>
   <i type="int" name="IBSE">     0</i>
   <v type="int" name="KPOINT">    -1     0     0     0</v>
   <i type="logical" name="LTCTE"> F  </i>
   <i type="logical" name="LTETE"> F  </i>
   <i type="logical" name="LTRIPLET"> F  </i>
   <i type="logical" name="LFXCEPS"> F  </i>
   <i type="logical" name="LFXHEG"> F  </i>
   <i type="int" name="NATURALO">     2</i>
   <i type="logical" name="L2ORDER"> F  </i>
   <i type="logical" name="LMP2LT"> F  </i>
   <i type="logical" name="LUSEW"> F  </i>
   <i name="ENCUTGW">     -2.00000000</i>
   <i name="ENCUTGWSOFT">     -2.00000000</i>
   <i name="ENCUTLF">     -1.00000000</i>
   <i type="int" name="LMAXMP2">    -1</i>
   <i name="SCISSOR">      0.00000000</i>
   <i type="int" name="NOMEGA">     0</i>
   <i type="int" name="NOMEGAR">     0</i>
   <i type="int" name="NBANDSGW">    -1</i>
   <i type="int" name="NBANDSO">    -1</i>
   <i type="int" name="NBANDSV">    -1</i>
   <i type="int" name="NELM">   100</i>
   <i type="int" name="NELMHF">     1</i>
   <i type="int" name="DIM">     3</i>
   <i type="int" name="ANTIRES">     0</i>
   <i name="OMEGAMAX">    -30.00000000</i>
   <i name="OMEGAMIN">    -30.00000000</i>
   <i name="OMEGATL">   -200.00000000</i>
   <i type="int" name="OMEGAGRID">   140</i>
   <i name="CSHIFT">     -0.10000000</i>
   <i type="logical" name="SELFENERGY"> F  </i>
   <i type="logical" name="LSPECTRAL"> F  </i>
   <i type="logical" name="LSPECTRALGW"> F  </i>
   <i type="logical" name="LSINGLES"> F  </i>
   <i type="logical" name="LFERMIGW"> F  </i>
   <i type="logical" name="ODDONLYGW"> F  </i>
   <i type="logical" name="EVENONLYGW"> F  </i>
   <i type="int" name="NKREDLFX">     1</i>
   <i type="int" name="NKREDLFY">     1</i>
   <i type="int" name="NKREDLFZ">     1</i>
   <i type="int" name="MAXMEM">  2800</i>
   <i type="int" name="TELESCOPE">     0</i>
   <i type="int" name="TAUPAR">     1</i>
   <i type="int" name="OMEGAPAR">    -1</i>
   <i name="LAMBDA">      1.00000000</i>
  </separator>
  <separator name="External order field" >
   <i name="OFIELD_KAPPA">      0.00000000</i>
   <v name="OFIELD_K">      0.00000000      0.00000000      0.00000000</v>
   <i name="OFIELD_Q6_NEAR">      0.00000000</i>
   <i name="OFIELD_Q6_FAR">      0.00000000</i>
   <i name="OFIELD_A">      0.00000000</i>
  </separator>
 </parameters>
 <atominfo>
  <atoms>     288 </atoms>
  <types>       2 </types>
  <array name="atoms" >
   <dimension dim="1">ion</dimension>
   <field type="string">element</field>
   <field type="int">atomtype</field>
   <set>
    <rc><c>Fe</c><c>   1</c></rc>
    <rc><c>Fe</c><c>   1</c></rc>
    <rc><c>Fe</c><c>   1</c></rc>
    <rc><c>Fe</c><c>   1</c></rc>
    <rc><c>Fe</c><c>   1</c></rc>
    <rc><c>Fe</c><c>   1</c></rc>
    <rc><c>Fe</c><c>   1</c></rc>
    <rc><c>Fe</c><c>   1</c></rc>
    <rc><c>Fe</c><c>   1</c></rc>
    <rc><c>Fe</c><c>   1</c></rc>
    <rc><c>Fe</c><c>   1</c></rc>
    <rc><c>Fe</c><c>   1</c></rc>
    <rc><c>Fe</c><c>   1</c></rc>
    <rc><c>Fe</c><c>   1</c></rc>
    <rc><c>Fe</c><c>   1</c></rc>
    <rc><c>Fe</c><c>   1</c></rc>
    <rc><c>Fe</c><c>   1</c></rc>
    <rc><c>Fe</c><c>   1</c></rc>
    <rc><c>Fe</c><c>   1</c></rc>
    <rc><c>Fe</c><c>   1</c></rc>
    <rc><c>Fe</c><c>   1</c></rc>
    <rc><c>Fe</c><c>   1</c></rc>
    <rc><c>Fe</c><c>   1</c></rc>
    <rc><c>Fe</c><c>   1</c></rc>
    <rc><c>Fe</c><c>   1</c></rc>
    <rc><c>Fe</c><c>   1</c></rc>
    <rc><c>Fe</c><c>   1</c></rc>
    <rc><c>Fe</c><c>   1</c></rc>
    <rc><c>Fe</c><c>   1</c></rc>
    <rc><c>Fe</c><c>   1</c></rc>
    <rc><c>Fe</c><c>   1</c></rc>
    <rc><c>Fe</c><c>   1</c></rc>
    <rc><c>Fe</c><c>   1</c></rc>
    <rc><c>Fe</c><c>   1</c></rc>
    <rc><c>Fe</c><c>   1</c></rc>
    <rc><c>Fe</c><c>   1</c></rc>
    <rc><c>Fe</c><c>   1</c></rc>
    <rc><c>Fe</c><c>   1</c></rc>
    <rc><c>Fe</c><c>   1</c></rc>
    <rc><c>Fe</c><c>   1</c></rc>
    <rc><c>Fe</c><c>   1</c></rc>
    <rc><c>Fe</c><c>   1</c></rc>
    <rc><c>Fe</c><c>   1</c></rc>
    <rc><c>Fe</c><c>   1</c></rc>
    <rc><c>Fe</c><c>   1</c></rc>
    <rc><c>Fe</c><c>   1</c></rc>
    <rc><c>Fe</c><c>   1</c></rc>
    <rc><c>Fe</c><c>   1</c></rc>
    <rc><c>Fe</c><c>   1</c></rc>
    <rc><c>Fe</c><c>   1</c></rc>
    <rc><c>Fe</c><c>   1</c></rc>
    <rc><c>Fe</c><c>   1</c></rc>
    <rc><c>Fe</c><c>   1</c></rc>
    <rc><c>Fe</c><c>   1</c></rc>
    <rc><c>Fe</c><c>   1</c></rc>
    <rc><c>Fe</c><c>   1</c></rc>
    <rc><c>Fe</c><c>   1</c></rc>
    <rc><c>Fe</c><c>   1</c></rc>
    <rc><c>Fe</c><c>   1</c></rc>
    <rc><c>Fe</c><c>   1</c></rc>
    <rc><c>Fe</c><c>   1</c></rc>
    <rc><c>Fe</c><c>   1</c></rc>
    <rc><c>Fe</c><c>   1</c></rc>
    <rc><c>Fe</c><c>   1</c></rc>
    <rc><c>Fe</c><c>   1</c></rc>
    <rc><c>Fe</c><c>   1</c></rc>
    <rc><c>Fe</c><c>   1</c></rc>
    <rc><c>Fe</c><c>   1</c></rc>
    <rc><c>Fe</c><c>   1</c></rc>
    <rc><c>Fe</c><c>   1</c></rc>
    <rc><c>Fe</c><c>   1</c></rc>
    <rc><c>Fe</c><c>   1</c></rc>
    <rc><c>Fe</c><c>   1</c></rc>
    <rc><c>Fe</c><c>   1</c></rc>
    <rc><c>Fe</c><c>   1</c></rc>
    <rc><c>Fe</c><c>   1</c></rc>
    <rc><c>Fe</c><c>   1</c></rc>
    <rc><c>Fe</c><c>   1</c></rc>
    <rc><c>Fe</c><c>   1</c></rc>
    <rc><c>Fe</c><c>   1</c></rc>
    <rc><c>Fe</c><c>   1</c></rc>
    <rc><c>Fe</c><c>   1</c></rc>
    <rc><c>Fe</c><c>   1</c></rc>
    <rc><c>Fe</c><c>   1</c></rc>
    <rc><c>Fe</c><c>   1</c></rc>
    <rc><c>Fe</c><c>   1</c></rc>
    <rc><c>Fe</c><c>   1</c></rc>
    <rc><c>Fe</c><c>   1</c></rc>
    <rc><c>Fe</c><c>   1</c></rc>
    <rc><c>Fe</c><c>   1</c></rc>
    <rc><c>Fe</c><c>   1</c></rc>
    <rc><c>Fe</c><c>   1</c></rc>
    <rc><c>Fe</c><c>   1</c></rc>
    <rc><c>Fe</c><c>   1</c></rc>
    <rc><c>Fe</c><c>   1</c></rc>
    <rc><c>Fe</c><c>   1</c></rc>
    <rc><c>Fe</c><c>   1</c></rc>
    <rc><c>Fe</c><c>   1</c></rc>
    <rc><c>Fe</c><c>   1</c></rc>
    <rc><c>Fe</c><c>   1</c></rc>
    <rc><c>Fe</c><c>   1</c></rc>
    <rc><c>Fe</c><c>   1</c></rc>
    <rc><c>Fe</c><c>   1</c></rc>
    <rc><c>Fe</c><c>   1</c></rc>
    <rc><c>Fe</c><c>   1</c></rc>
    <rc><c>Fe</c><c>   1</c></rc>
    <rc><c>Fe</c><c>   1</c></rc>
    <rc><c>Fe</c><c>   1</c></rc>
    <rc><c>Fe</c><c>   1</c></rc>
    <rc><c>Fe</c><c>   1</c></rc>
    <rc><c>Fe</c><c>   1</c></rc>
    <rc><c>Fe</c><c>   1</c></rc>
    <rc><c>Fe</c><c>   1</c></rc>
    <rc><c>Fe</c><c>   1</c></rc>
    <rc><c>Fe</c><c>   1</c></rc>
    <rc><c>Fe</c><c>   1</c></rc>
    <rc><c>Fe</c><c>   1</c></rc>
    <rc><c>Fe</c><c>   1</c></rc>
    <rc><c>Fe</c><c>   1</c></rc>
    <rc><c>Fe</c><c>   1</c></rc>
    <rc><c>Fe</c><c>   1</c></rc>
    <rc><c>Fe</c><c>   1</c></rc>
    <rc><c>Fe</c><c>   1</c></rc>
    <rc><c>Fe</c><c>   1</c></rc>
    <rc><c>Fe</c><c>   1</c></rc>
    <rc><c>Fe</c><c>   1</c></rc>
    <rc><c>Fe</c><c>   1</c></rc>
    <rc><c>Fe</c><c>   1</c></rc>
    <rc><c>Fe</c><c>   1</c></rc>
    <rc><c>Fe</c><c>   1</c></rc>
    <rc><c>Fe</c><c>   1</c></rc>
    <rc><c>Fe</c><c>   1</c></rc>
    <rc><c>Fe</c><c>   1</c></rc>
    <rc><c>Fe</c><c>   1</c></rc>
    <rc><c>Fe</c><c>   1</c></rc>
    <rc><c>Fe</c><c>   1</c></rc>
    <rc><c>Fe</c><c>   1</c></rc>
    <rc><c>Fe</c><c>   1</c></rc>
    <rc><c>Fe</c><c>   1</c></rc>
    <rc><c>Fe</c><c>   1</c></rc>
    <rc><c>Fe</c><c>   1</c></rc>
    <rc><c>Fe</c><c>   1</c></rc>
    <rc><c>Fe</c><c>   1</c></rc>
    <rc><c>Fe</c><c>   1</c></rc>
    <rc><c>Fe</c><c>   1</c></rc>
    <rc><c>Fe</c><c>   1</c></rc>
    <rc><c>Fe</c><c>   1</c></rc>
    <rc><c>Fe</c><c>   1</c></rc>
    <rc><c>Fe</c><c>   1</c></rc>
    <rc><c>Fe</c><c>   1</c></rc>
    <rc><c>Fe</c><c>   1</c></rc>
    <rc><c>Fe</c><c>   1</c></rc>
    <rc><c>Fe</c><c>   1</c></rc>
    <rc><c>Fe</c><c>   1</c></rc>
    <rc><c>Fe</c><c>   1</c></rc>
    <rc><c>Fe</c><c>   1</c></rc>
    <rc><c>Fe</c><c>   1</c></rc>
    <rc><c>Fe</c><c>   1</c></rc>
    <rc><c>Fe</c><c>   1</c></rc>
    <rc><c>Fe</c><c>   1</c></rc>
    <rc><c>Fe</c><c>   1</c></rc>
    <rc><c>Fe</c><c>   1</c></rc>
    <rc><c>Fe</c><c>   1</c></rc>
    <rc><c>Fe</c><c>   1</c></rc>
    <rc><c>Fe</c><c>   1</c></rc>
    <rc><c>Fe</c><c>   1</c></rc>
    <rc><c>Fe</c><c>   1</c></rc>
    <rc><c>Fe</c><c>   1</c></rc>
    <rc><c>Fe</c><c>   1</c></rc>
    <rc><c>Fe</c><c>   1</c></rc>
    <rc><c>Fe</c><c>   1</c></rc>
    <rc><c>Fe</c><c>   1</c></rc>
    <rc><c>Fe</c><c>   1</c></rc>
    <rc><c>Fe</c><c>   1</c></rc>
    <rc><c>Fe</c><c>   1</c></rc>
    <rc><c>Fe</c><c>   1</c></rc>
    <rc><c>Fe</c><c>   1</c></rc>
    <rc><c>Fe</c><c>   1</c></rc>
    <rc><c>Fe</c><c>   1</c></rc>
    <rc><c>Fe</c><c>   1</c></rc>
    <rc><c>Fe</c><c>   1</c></rc>
    <rc><c>Fe</c><c>   1</c></rc>
    <rc><c>Fe</c><c>   1</c></rc>
    <rc><c>Fe</c><c>   1</c></rc>
    <rc><c>Fe</c><c>   1</c></rc>
    <rc><c>Fe</c><c>   1</c></rc>
    <rc><c>Fe</c><c>   1</c></rc>
    <rc><c>Fe</c><c>   1</c></rc>
    <rc><c>Fe</c><c>   1</c></rc>
    <rc><c>Fe</c><c>   1</c></rc>
    <rc><c>Fe</c><c>   1</c></rc>
    <rc><c>Fe</c><c>   1</c></rc>
    <rc><c>Fe</c><c>   1</c></rc>
    <rc><c>Fe</c><c>   1</c></rc>
    <rc><c>Fe</c><c>   1</c></rc>
    <rc><c>Fe</c><c>   1</c></rc>
    <rc><c>Fe</c><c>   1</c></rc>
    <rc><c>Fe</c><c>   1</c></rc>
    <rc><c>Fe</c><c>   1</c></rc>
    <rc><c>Fe</c><c>   1</c></rc>
    <rc><c>Fe</c><c>   1</c></rc>
    <rc><c>Fe</c><c>   1</c></rc>
    <rc><c>Fe</c><c>   1</c></rc>
    <rc><c>Fe</c><c>   1</c></rc>
    <rc><c>Fe</c><c>   1</c></rc>
    <rc><c>Fe</c><c>   1</c></rc>
    <rc><c>Fe</c><c>   1</c></rc>
    <rc><c>Fe</c><c>   1</c></rc>
    <rc><c>Fe</c><c>   1</c></rc>
    <rc><c>Fe</c><c>   1</c></rc>
    <rc><c>Fe</c><c>   1</c></rc>
    <rc><c>Fe</c><c>   1</c></rc>
    <rc><c>Fe</c><c>   1</c></rc>
    <rc><c>Fe</c><c>   1</c></rc>
    <rc><c>Fe</c><c>   1</c></rc>
    <rc><c>Fe</c><c>   1</c></rc>
    <rc><c>Fe</c><c>   1</c></rc>
    <rc><c>Fe</c><c>   1</c></rc>
    <rc><c>Fe</c><c>   1</c></rc>
    <rc><c>Fe</c><c>   1</c></rc>
    <rc><c>Fe</c><c>   1</c></rc>
    <rc><c>Fe</c><c>   1</c></rc>
    <rc><c>Fe</c><c>   1</c></rc>
    <rc><c>Fe</c><c>   1</c></rc>
    <rc><c>Fe</c><c>   1</c></rc>
    <rc><c>Fe</c><c>   1</c></rc>
    <rc><c>Fe</c><c>   1</c></rc>
    <rc><c>Fe</c><c>   1</c></rc>
    <rc><c>Fe</c><c>   1</c></rc>
    <rc><c>Fe</c><c>   1</c></rc>
    <rc><c>Fe</c><c>   1</c></rc>
    <rc><c>Fe</c><c>   1</c></rc>
    <rc><c>Fe</c><c>   1</c></rc>
    <rc><c>Fe</c><c>   1</c></rc>
    <rc><c>Fe</c><c>   1</c></rc>
    <rc><c>Fe</c><c>   1</c></rc>
    <rc><c>Fe</c><c>   1</c></rc>
    <rc><c>Fe</c><c>   1</c></rc>
    <rc><c>Fe</c><c>   1</c></rc>
    <rc><c>Fe</c><c>   1</c></rc>
    <rc><c>Fe</c><c>   1</c></rc>
    <rc><c>Fe</c><c>   1</c></rc>
    <rc><c>Fe</c><c>   1</c></rc>
    <rc><c>Fe</c><c>   1</c></rc>
    <rc><c>Fe</c><c>   1</c></rc>
    <rc><c>Fe</c><c>   1</c></rc>
    <rc><c>Fe</c><c>   1</c></rc>
    <rc><c>Fe</c><c>   1</c></rc>
    <rc><c>Fe</c><c>   1</c></rc>
    <rc><c>Fe</c><c>   1</c></rc>
    <rc><c>Fe</c><c>   1</c></rc>
    <rc><c>Fe</c><c>   1</c></rc>
    <rc><c>Fe</c><c>   1</c></rc>
    <rc><c>Fe</c><c>   1</c></rc>
    <rc><c>Fe</c><c>   1</c></rc>
    <rc><c>Fe</c><c>   1</c></rc>
    <rc><c>Fe</c><c>   1</c></rc>
    <rc><c>Fe</c><c>   1</c></rc>
    <rc><c>Fe</c><c>   1</c></rc>
    <rc><c>Fe</c><c>   1</c></rc>
    <rc><c>Fe</c><c>   1</c></rc>
    <rc><c>Fe</c><c>   1</c></rc>
    <rc><c>Fe</c><c>   1</c></rc>
    <rc><c>Fe</c><c>   1</c></rc>
    <rc><c>Fe</c><c>   1</c></rc>
    <rc><c>Fe</c><c>   1</c></rc>
    <rc><c>Fe</c><c>   1</c></rc>
    <rc><c>Fe</c><c>   1</c></rc>
    <rc><c>Fe</c><c>   1</c></rc>
    <rc><c>Fe</c><c>   1</c></rc>
    <rc><c>Fe</c><c>   1</c></rc>
    <rc><c>Fe</c><c>   1</c></rc>
    <rc><c>Fe</c><c>   1</c></rc>
    <rc><c>Fe</c><c>   1</c></rc>
    <rc><c>Fe</c><c>   1</c></rc>
    <rc><c>Fe</c><c>   1</c></rc>
    <rc><c>Fe</c><c>   1</c></rc>
    <rc><c>Fe</c><c>   1</c></rc>
    <rc><c>Fe</c><c>   1</c></rc>
    <rc><c>Fe</c><c>   1</c></rc>
    <rc><c>Fe</c><c>   1</c></rc>
    <rc><c>Mn</c><c>   2</c></rc>
    <rc><c>Mn</c><c>   2</c></rc>
    <rc><c>Mn</c><c>   2</c></rc>
    <rc><c>Mn</c><c>   2</c></rc>
    <rc><c>Mn</c><c>   2</c></rc>
    <rc><c>Mn</c><c>   2</c></rc>
    <rc><c>Mn</c><c>   2</c></rc>
   </set>
  </array>
  <array name="atomtypes" >
   <dimension dim="1">type</dimension>
   <field type="int">atomspertype</field>
   <field type="string">element</field>
   <field>mass</field>
   <field>valence</field>
   <field type="string">pseudopotential</field>
   <set>
    <rc><c> 281</c><c>Fe</c><c>     55.84700000</c><c>      8.00000000</c><c>  PAW_PBE Fe_GW 31Mar2010               </c></rc>
    <rc><c>   7</c><c>Mn</c><c>     54.93800000</c><c>      7.00000000</c><c>  PAW_PBE Mn_GW 31Mar2010               </c></rc>
   </set>
  </array>
 </atominfo>
 <structure name="initialpos" >
  <crystal>
   <varray name="basis" >
    <v>       9.72667804       0.00000000       0.00000000 </v>
    <v>       0.00000000       8.42355028       0.00000000 </v>
    <v>       0.00000000       0.00000000      45.00000000 </v>
   </varray>
   <i name="volume">   3686.99226691 </i>
   <varray name="rec_basis" >
    <v>       0.10281002       0.00000000       0.00000000 </v>
    <v>       0.00000000       0.11871479       0.00000000 </v>
    <v>       0.00000000       0.00000000       0.02222222 </v>
   </varray>
  </crystal>
  <varray name="positions" >
   <v>       0.06269338       0.03237908       0.12445291 </v>
   <v>       0.06335848       0.87185871       0.52124404 </v>
   <v>       0.19595277       0.12470588       0.78842293 </v>
   <v>       0.43363821       0.28754206       0.38905961 </v>
   <v>       0.31768770       0.36137564       0.16683360 </v>
   <v>       0.80861500       0.21295843       0.83342681 </v>
   <v>       0.18348456       0.78756701       0.38908112 </v>
   <v>       0.56390720       0.20763136       0.56542879 </v>
   <v>       0.06039989       0.04218258       0.74416267 </v>
   <v>       0.81349605       0.87211421       0.52127943 </v>
   <v>       0.18564260       0.29202795       0.74411249 </v>
   <v>       0.94138685       0.45203681       0.34489837 </v>
   <v>       0.93370683       0.28744478       0.38893841 </v>
   <v>       0.43846038       0.62221210       0.52131513 </v>
   <v>       0.18771146       0.79196056       0.61086281 </v>
   <v>       0.55870566       0.03756469       0.38886827 </v>
   <v>       0.93322407       0.96447138       0.83329757 </v>
   <v>       0.31417123       0.54228369       0.87551709 </v>
   <v>       0.68539070       0.29132663       0.74408848 </v>
   <v>       0.19208685       0.61209621       0.16681832 </v>
   <v>       0.81316826       0.20572913       0.47851421 </v>
   <v>       0.81262861       0.54185325       0.61085179 </v>
   <v>       0.31317789       0.87074805       0.43444270 </v>
   <v>       0.81539039       0.03518064       0.25598021 </v>
   <v>       0.69147658       0.95179930       0.34494961 </v>
   <v>       0.94214558       0.11253729       0.16683834 </v>
   <v>       0.93857592       0.12212273       0.52132835 </v>
   <v>       0.56548476       0.53523896       0.25600890 </v>
   <v>       0.69316181       0.79601337       0.87565853 </v>
   <v>       0.56731906       0.36257758       0.16695646 </v>
   <v>       0.43603616       0.79212157       0.74424165 </v>
   <v>       0.81396594       0.70765788       0.56543342 </v>
   <v>       0.56984178       0.87397310       0.78830438 </v>
   <v>       0.68851960       0.12231671       0.52134956 </v>
   <v>       0.19039751       0.28521512       0.25598188 </v>
   <v>       0.93354236       0.46352740       0.83300479 </v>
   <v>       0.06539284       0.20840310       0.69969575 </v>
   <v>       0.80850826       0.03736963       0.38907399 </v>
   <v>       0.30893970       0.21379711       0.83323920 </v>
   <v>       0.43405066       0.62604818       0.65497142 </v>
   <v>       0.31271113       0.54186124       0.61085000 </v>
   <v>       0.93892465       0.45765539       0.56541857 </v>
   <v>       0.68584153       0.79178356       0.74416547 </v>
   <v>       0.30887086       0.87571801       0.65492158 </v>
   <v>       0.68365317       0.78776211       0.38905582 </v>
   <v>       0.93562092       0.79209027       0.74418078 </v>
   <v>       0.06577124       0.20251582       0.34505501 </v>
   <v>       0.43737717       0.78205230       0.12444350 </v>
   <v>       0.44514585       0.12490827       0.78856799 </v>
   <v>       0.05501469       0.20299294       0.21186076 </v>
   <v>       0.06749329       0.36160154       0.16684377 </v>
   <v>       0.94052628       0.78541370       0.25597755 </v>
   <v>       0.56565679       0.20830294       0.69971615 </v>
   <v>       0.69050665       0.95844029       0.69969183 </v>
   <v>       0.68369469       0.28752646       0.38907286 </v>
   <v>       0.43893017       0.95768467       0.56542823 </v>
   <v>       0.82030880       0.37523571       0.78827949 </v>
   <v>       0.69045348       0.28524081       0.25599811 </v>
   <v>       0.18879561       0.45773704       0.56542986 </v>
   <v>       0.06794924       0.86278412       0.16680912 </v>
   <v>       0.18774625       0.29187170       0.61081213 </v>
   <v>       0.56605418       0.70162434       0.34489491 </v>
   <v>       0.31537063       0.20843468       0.69968748 </v>
   <v>       0.56466400       0.54177825       0.87561875 </v>
   <v>       0.06377040       0.70769941       0.56545029 </v>
   <v>       0.69520343       0.62425881       0.78836806 </v>
   <v>       0.30857392       0.53759978       0.38907804 </v>
   <v>       0.18851596       0.62221757       0.52132310 </v>
   <v>       0.56261844       0.87047213       0.43446398 </v>
   <v>       0.43881689       0.45774301       0.56544426 </v>
   <v>       0.43571686       0.29199207       0.74414431 </v>
   <v>       0.80399130       0.87210638       0.30018928 </v>
   <v>       0.81679028       0.70245051       0.34505825 </v>
   <v>       0.43358613       0.46305604       0.83315673 </v>
   <v>       0.68765900       0.95587103       0.47863810 </v>
   <v>       0.69051648       0.45850899       0.69966683 </v>
   <v>       0.56322420       0.87202090       0.52133042 </v>
   <v>       0.55889940       0.37567168       0.65494538 </v>
   <v>       0.80885787       0.87566528       0.65490306 </v>
   <v>       0.81256023       0.37053267       0.43447501 </v>
   <v>       0.81559585       0.53552479       0.25594309 </v>
   <v>       0.68345813       0.46355895       0.83311803 </v>
   <v>       0.18688392       0.78242488       0.12442524 </v>
   <v>       0.06398343       0.04364836       0.87543628 </v>
   <v>       0.30885985       0.37569286       0.65492098 </v>
   <v>       0.31629882       0.20207827       0.34491988 </v>
   <v>       0.81082795       0.54197074       0.74422505 </v>
   <v>       0.68406645       0.96400178       0.83331039 </v>
   <v>       0.55890183       0.87570422       0.65491674 </v>
   <v>       0.31386543       0.70742068       0.56556850 </v>
   <v>       0.31258116       0.53274802       0.12448037 </v>
   <v>       0.68026355       0.95303321       0.21184624 </v>
   <v>       0.31398362       0.20778541       0.56554933 </v>
   <v>       0.31079042       0.54220107       0.74416505 </v>
   <v>       0.68866898       0.95780529       0.56545190 </v>
   <v>       0.43765720       0.79191977       0.61085017 </v>
   <v>       0.69206843       0.61218662       0.16694743 </v>
   <v>       0.30373776       0.87211618       0.30031221 </v>
   <v>       0.31282311       0.70561051       0.47861832 </v>
   <v>       0.93786144       0.29177924       0.61080675 </v>
   <v>       0.42873881       0.62211838       0.30033154 </v>
   <v>       0.81682360       0.86230959       0.16682999 </v>
   <v>       0.55556091       0.20216070       0.21152443 </v>
   <v>       0.94190271       0.61244309       0.16682946 </v>
   <v>       0.93894621       0.79376987       0.87554234 </v>
   <v>       0.57091192       0.37462707       0.78839885 </v>
   <v>       0.06345672       0.37231787       0.52135550 </v>
   <v>       0.56350524       0.37212295       0.52129606 </v>
   <v>       0.67929240       0.12186316       0.30025251 </v>
   <v>       0.43247056       0.96319097       0.83324912 </v>
   <v>       0.18752978       0.28250071       0.12456342 </v>
   <v>       0.82044719       0.87461304       0.78835346 </v>
   <v>       0.31293034       0.37091143       0.43444401 </v>
   <v>       0.93771833       0.79179690       0.61083498 </v>
   <v>       0.43777398       0.29184382       0.61082231 </v>
   <v>       0.19187248       0.45199353       0.34499140 </v>
   <v>       0.43767363       0.28248676       0.12452083 </v>
   <v>       0.69013863       0.78555996       0.25598461 </v>
   <v>       0.19052278       0.95836516       0.69970621 </v>
   <v>       0.19054789       0.29665815       0.87586516 </v>
   <v>       0.18385889       0.12572394       0.65491507 </v>
   <v>       0.93401286       0.12603048       0.65494846 </v>
   <v>       0.30560901       0.20298535       0.21192518 </v>
   <v>       0.05850346       0.03738023       0.38905639 </v>
   <v>       0.44034489       0.95829577       0.69969110 </v>
   <v>       0.06269871       0.54182779       0.61084932 </v>
   <v>       0.94048880       0.28530227       0.25597404 </v>
   <v>       0.56274175       0.54182481       0.61085305 </v>
   <v>       0.93894853       0.95781197       0.56552927 </v>
   <v>       0.67917249       0.62180492       0.30011792 </v>
   <v>       0.93751737       0.61931575       0.43464354 </v>
   <v>       0.94588665       0.62467351       0.78841668 </v>
   <v>       0.56532908       0.70832117       0.69967352 </v>
   <v>       0.05908732       0.71285621       0.83311432 </v>
   <v>       0.92883441       0.12223664       0.30025728 </v>
   <v>       0.94047081       0.45844776       0.69967681 </v>
   <v>       0.44061393       0.78542022       0.25594502 </v>
   <v>       0.32034474       0.37421366       0.78845726 </v>
   <v>       0.43059360       0.45248899       0.21163854 </v>
   <v>       0.18848999       0.12236112       0.52129773 </v>
   <v>       0.81532765       0.70836275       0.69967837 </v>
   <v>       0.06271337       0.04180411       0.61085122 </v>
   <v>       0.55918808       0.21329382       0.83332953 </v>
   <v>       0.31364654       0.87201076       0.52127585 </v>
   <v>       0.68727219       0.28250666       0.12446791 </v>
   <v>       0.18071491       0.95234347       0.21163521 </v>
   <v>       0.68760278       0.29199576       0.61086492 </v>
   <v>       0.31266291       0.04185645       0.61088379 </v>
   <v>       0.94515279       0.12471808       0.78852211 </v>
   <v>       0.44054178       0.79672494       0.87567506 </v>
   <v>       0.81065905       0.04200074       0.74408685 </v>
   <v>       0.43831401       0.12194439       0.52134497 </v>
   <v>       0.18395261       0.62583369       0.65495238 </v>
   <v>       0.31525753       0.70814319       0.69961745 </v>
   <v>       0.93689410       0.28295424       0.12452121 </v>
   <v>       0.43790773       0.45593186       0.47860844 </v>
   <v>       0.06290694       0.70563292       0.47862256 </v>
   <v>       0.93862380       0.11965531       0.43436033 </v>
   <v>       0.42866930       0.12196331       0.30032984 </v>
   <v>       0.18807804       0.12013594       0.43449857 </v>
   <v>       0.56398334       0.04383679       0.87558165 </v>
   <v>       0.18869275       0.95749801       0.56530511 </v>
   <v>       0.68723347       0.78246670       0.12443190 </v>
   <v>       0.56273033       0.53218404       0.12436257 </v>
   <v>       0.30869441       0.03727432       0.38902456 </v>
   <v>       0.69264827       0.11171112       0.16696754 </v>
   <v>       0.80578299       0.20253651       0.21161890 </v>
   <v>       0.06560969       0.53531360       0.25597102 </v>
   <v>       0.56279546       0.70572452       0.47862485 </v>
   <v>       0.06373467       0.20768836       0.56546735 </v>
   <v>       0.55374532       0.37212519       0.30032468 </v>
   <v>       0.44190070       0.95223520       0.34490576 </v>
   <v>       0.18393637       0.96301686       0.83315292 </v>
   <v>       0.44258314       0.61209578       0.16673713 </v>
   <v>       0.93026724       0.45277356       0.21180109 </v>
   <v>       0.06153035       0.53251319       0.12449111 </v>
   <v>       0.81347344       0.37227779       0.52133341 </v>
   <v>       0.92869889       0.62223513       0.30030720 </v>
   <v>       0.31523513       0.03548841       0.25598981 </v>
   <v>       0.68774282       0.79184702       0.61086069 </v>
   <v>       0.18407978       0.46425864       0.83328944 </v>
   <v>       0.44227372       0.11280102       0.16678865 </v>
   <v>       0.31346833       0.37230907       0.52133627 </v>
   <v>       0.44622025       0.62439151       0.78832523 </v>
   <v>       0.06555549       0.03530420       0.25600955 </v>
   <v>       0.56379696       0.70768973       0.56541935 </v>
   <v>       0.93605470       0.29159499       0.74415675 </v>
   <v>       0.69583374       0.12453909       0.78844764 </v>
   <v>       0.18048745       0.45261273       0.21164418 </v>
   <v>       0.93396855       0.78698013       0.38895859 </v>
   <v>       0.69200454       0.29636114       0.87584879 </v>
   <v>       0.31668386       0.86236926       0.16687318 </v>
   <v>       0.44038683       0.45832165       0.69968386 </v>
   <v>       0.80887797       0.37555303       0.65494460 </v>
   <v>       0.68832011       0.62236393       0.52141044 </v>
   <v>       0.05893551       0.87560641       0.65491125 </v>
   <v>       0.07133762       0.87382764       0.78825287 </v>
   <v>       0.05890343       0.37568672       0.65492838 </v>
   <v>       0.68779727       0.45573559       0.47863298 </v>
   <v>       0.19053238       0.78529296       0.25600213 </v>
   <v>       0.43817847       0.12006776       0.43444873 </v>
   <v>       0.81111159       0.03202803       0.12446622 </v>
   <v>       0.93848140       0.62229531       0.52138325 </v>
   <v>       0.06256987       0.87077932       0.43443470 </v>
   <v>       0.81113852       0.53191680       0.12438482 </v>
   <v>       0.44144192       0.45191403       0.34498912 </v>
   <v>       0.81646830       0.20189656       0.34496805 </v>
   <v>       0.31611637       0.70161793       0.34490676 </v>
   <v>       0.68398600       0.12614357       0.65496993 </v>
   <v>       0.55373252       0.87202387       0.30032296 </v>
   <v>       0.06071302       0.54212276       0.74412595 </v>
   <v>       0.93693504       0.78237467       0.12452806 </v>
   <v>       0.80557153       0.70246890       0.21168975 </v>
   <v>       0.05378080       0.87314205       0.30011429 </v>
   <v>       0.17926906       0.12269594       0.30028513 </v>
   <v>       0.06645412       0.70185133       0.34496010 </v>
   <v>       0.81304684       0.04155611       0.61067156 </v>
   <v>       0.06318725       0.37082448       0.43442704 </v>
   <v>       0.56630280       0.20192329       0.34495930 </v>
   <v>       0.80355656       0.37200697       0.30035309 </v>
   <v>       0.43791022       0.95595030       0.47861636 </v>
   <v>       0.55840204       0.53743508       0.38904462 </v>
   <v>       0.06280375       0.20580809       0.47863803 </v>
   <v>       0.32050137       0.87453191       0.78837465 </v>
   <v>       0.94043762       0.95843879       0.69970307 </v>
   <v>       0.05404641       0.37257255       0.30021761 </v>
   <v>       0.68407098       0.62605345       0.65497152 </v>
   <v>       0.68876633       0.45770271       0.56545866 </v>
   <v>       0.43025054       0.95281121       0.21173846 </v>
   <v>       0.31289054       0.20586571       0.47857875 </v>
   <v>       0.43387180       0.12577805       0.65489456 </v>
   <v>       0.68818977       0.62030136       0.43442080 </v>
   <v>       0.81532420       0.20835405       0.69967535 </v>
   <v>       0.81287939       0.70593168       0.47861483 </v>
   <v>       0.56287305       0.37038551       0.43443010 </v>
   <v>       0.93780998       0.95584580       0.47864524 </v>
   <v>       0.56285320       0.20572870       0.47860631 </v>
   <v>       0.18814976       0.62029840       0.43438488 </v>
   <v>       0.31075467       0.04233553       0.74408716 </v>
   <v>       0.93406556       0.62607912       0.65497761 </v>
   <v>       0.55854110       0.71320228       0.83307058 </v>
   <v>       0.30399717       0.37244951       0.30021550 </v>
   <v>       0.55574008       0.70233068       0.21164222 </v>
   <v>       0.18786012       0.45587390       0.47861569 </v>
   <v>       0.31508410       0.04121492       0.87581636 </v>
   <v>       0.19041969       0.45836509       0.69969548 </v>
   <v>       0.81440039       0.54262039       0.87563626 </v>
   <v>       0.18338869       0.28855753       0.38907937 </v>
   <v>       0.43836987       0.62030584       0.43426911 </v>
   <v>       0.05554259       0.70220115       0.21156126 </v>
   <v>       0.56277704       0.03284175       0.12447283 </v>
   <v>       0.81749081       0.36256708       0.16701938 </v>
   <v>       0.80857391       0.71415532       0.83324238 </v>
   <v>       0.07041099       0.37455201       0.78841025 </v>
   <v>       0.44204508       0.29636865       0.87587973 </v>
   <v>       0.31131293       0.03244682       0.12432473 </v>
   <v>       0.68792253       0.12010574       0.43448369 </v>
   <v>       0.19137561       0.95191901       0.34498583 </v>
   <v>       0.05821866       0.21289474       0.83327541 </v>
   <v>       0.56285180       0.04175163       0.61079095 </v>
   <v>       0.68062056       0.45248982       0.21165282 </v>
   <v>       0.18597171       0.79173302       0.74416701 </v>
   <v>       0.17878859       0.62209591       0.30030732 </v>
   <v>       0.43372408       0.78758177       0.38908516 </v>
   <v>       0.44055121       0.28537798       0.25598186 </v>
   <v>       0.06470486       0.54175902       0.87567427 </v>
   <v>       0.56042447       0.04224004       0.74417582 </v>
   <v>       0.19279925       0.79603663       0.87584252 </v>
   <v>       0.93767132       0.45574288       0.47862826 </v>
   <v>       0.80875814       0.53754001       0.38907131 </v>
   <v>       0.81390954       0.20761894       0.56540288 </v>
   <v>       0.19529787       0.62454091       0.78834610 </v>
   <v>       0.93082870       0.95300469       0.21182777 </v>
   <v>       0.06533430       0.70832314       0.69967325 </v>
   <v>       0.31557124       0.53538037       0.25597053 </v>
   <v>       0.30562487       0.70238790       0.21169171 </v>
   <v>       0.56769134       0.86207000       0.16689980 </v>
   <v>       0.56062082       0.54214472       0.74417829 </v>
   <v>       0.69118263       0.45196653       0.34489931 </v>
   <v>       0.94159237       0.29626622       0.87582002 </v>
   <v>       0.56566017       0.03548814       0.25598995 </v>
   <v>       0.19328407       0.11177854       0.16620967 </v>
   <v>       0.30765900       0.71439847       0.83395449 </v>
   <v>       0.81510370       0.04245135       0.87545061 </v>
   <v>       0.81309571       0.87121452       0.43447369 </v>
   <v>       0.05799142       0.53770863       0.38897287 </v>
   <v>       0.94238802       0.95230156       0.34500571 </v>
   <v>       0.18799609       0.95597983       0.47860521 </v>
  </varray>
 </structure>
 <calculation>
  <scstep>
   <time name="dav">   55.18   55.19</time>
   <time name="total">   55.33   55.37</time>
   <energy>
    <i name="alphaZ">  16403.00255340 </i>
    <i name="ewald"> 730497.59993816 </i>
    <i name="hartreedc">-922147.47366832 </i>
    <i name="XCdc">  -6388.71212287 </i>
    <i name="pawpsdc"> 163151.95320885 </i>
    <i name="pawaedc">-160818.84594568 </i>
    <i name="eentropy">     -1.04504045 </i>
    <i name="bandstr">  38624.00441180 </i>
    <i name="atom"> 169914.59583762 </i>
    <i name="e_fr_energy">  29235.07917252 </i>
    <i name="e_wo_entrp">  29236.12421297 </i>
    <i name="e_0_energy">  29235.60169274 </i>
   </energy>
  </scstep>
  <scstep>
   <time name="dav">   54.64   54.67</time>
   <time name="total">   54.65   54.67</time>
   <energy>
    <i name="e_fr_energy">   1197.74328739 </i>
    <i name="e_wo_entrp">   1199.20450109 </i>
    <i name="e_0_energy">   1198.47389424 </i>
   </energy>
  </scstep>
  <scstep>
   <time name="dav">   72.16   72.19</time>
   <time name="total">   72.16   72.20</time>
   <energy>
    <i name="e_fr_energy">  -1940.48204635 </i>
    <i name="e_wo_entrp">  -1936.89680050 </i>
    <i name="e_0_energy">  -1938.68942342 </i>
   </energy>
  </scstep>
  <scstep>
   <time name="dav">   89.84   89.89</time>
   <time name="total">   89.85   89.89</time>
   <energy>
    <i name="e_fr_energy">  -2610.48416516 </i>
    <i name="e_wo_entrp">  -2606.92881299 </i>
    <i name="e_0_energy">  -2608.70648907 </i>
   </energy>
  </scstep>
  <scstep>
   <time name="dav">   85.91   85.95</time>
   <time name="total">   87.96   88.01</time>
   <energy>
    <i name="e_fr_energy">  -2730.81750563 </i>
    <i name="e_wo_entrp">  -2727.14036680 </i>
    <i name="e_0_energy">  -2728.97893621 </i>
   </energy>
  </scstep>
  <scstep>
   <time name="diag">    8.28    8.28</time>
   <time name="diis">   37.64   37.64</time>
   <time name="orth">    2.27    2.27</time>
   <time name="total">   50.47   50.51</time>
   <energy>
    <i name="e_fr_energy">  -5922.04529661 </i>
    <i name="e_wo_entrp">  -5918.52590264 </i>
    <i name="e_0_energy">  -5920.28559963 </i>
   </energy>
  </scstep>
  <scstep>
   <time name="diag">    8.34    8.34</time>
   <time name="diis">   32.23   32.23</time>
   <time name="orth">    2.26    2.26</time>
   <time name="total">   45.04   45.08</time>
[...]
       <r>   173.9039    20.6010  2664.7095 </r>
       <r>   175.1248    20.4430  2690.6807 </r>
       <r>   176.3457    21.7542  2719.2807 </r>
       <r>   177.5666    19.5018  2743.9503 </r>
       <r>   178.7875    11.1185  2758.7330 </r>
       <r>   180.0083     5.9056  2766.4124 </r>
       <r>   181.2292     2.8010  2769.8864 </r>
       <r>   182.4501     1.3247  2771.5289 </r>
       <r>   183.6710     0.0770  2771.6387 </r>
       <r>   184.8919     0.2960  2772.0000 </r>
       <r>   186.1128     0.0000  2772.0000 </r>
       <r>   187.3337     0.0000  2772.0000 </r>
       <r>   188.5546     0.0000  2772.0000 </r>
       <r>   189.7755     0.0000  2772.0000 </r>
       <r>   190.9964     0.0000  2772.0000 </r>
       <r>   192.2172     0.0000  2772.0000 </r>
       <r>   193.4381     0.0000  2772.0000 </r>
       <r>   194.6590     0.0000  2772.0000 </r>
       <r>   195.8799     0.0000  2772.0000 </r>
       <r>   197.1008     0.0000  2772.0000 </r>
       <r>   198.3217     0.0000  2772.0000 </r>
       <r>   199.5426     0.0000  2772.0000 </r>
       <r>   200.7635     0.0000  2772.0000 </r>
      </set>
     </set>
    </array>
   </total>
  </dos>
 </calculation>
 <structure name="finalpos" >
  <crystal>
   <varray name="basis" >
    <v>       9.72667804       0.00000000       0.00000000 </v>
    <v>       0.00000000       8.42355028       0.00000000 </v>
    <v>       0.00000000       0.00000000      45.00000000 </v>
   </varray>
   <i name="volume">   3686.99226691 </i>
   <varray name="rec_basis" >
    <v>       0.10281002       0.00000000       0.00000000 </v>
    <v>       0.00000000       0.11871479       0.00000000 </v>
    <v>       0.00000000       0.00000000       0.02222222 </v>
   </varray>
  </crystal>
  <varray name="positions" >
   <v>       0.06071677       0.03191834       0.12324622 </v>
   <v>       0.06317934       0.87093094       0.52092755 </v>
   <v>       0.19589812       0.12527926       0.78851269 </v>
   <v>       0.43491092       0.28974388       0.39008345 </v>
   <v>       0.31739732       0.36338856       0.16748526 </v>
   <v>       0.80752398       0.21238980       0.83355529 </v>
   <v>       0.18428038       0.78723555       0.38964017 </v>
   <v>       0.56478324       0.20789798       0.56552912 </v>
   <v>       0.05916700       0.04381696       0.74384291 </v>
   <v>       0.81310514       0.87169546       0.52085447 </v>
   <v>       0.18583522       0.29214998       0.74376184 </v>
   <v>       0.94061535       0.45157292       0.34465406 </v>
   <v>       0.93213978       0.28646514       0.38977217 </v>
   <v>       0.43826510       0.62120570       0.52083226 </v>
   <v>       0.18702003       0.79135288       0.61007545 </v>
   <v>       0.55942237       0.03923845       0.38990706 </v>
   <v>       0.93286076       0.96325811       0.83348568 </v>
   <v>       0.31659470       0.54395747       0.87573329 </v>
   <v>       0.68594946       0.29191225       0.74374821 </v>
   <v>       0.19167621       0.61244220       0.16719504 </v>
   <v>       0.81224742       0.20731208       0.47823912 </v>
   <v>       0.81136170       0.54136994       0.61012818 </v>
   <v>       0.31408605       0.86963249       0.43502695 </v>
   <v>       0.81588826       0.03614263       0.25703284 </v>
   <v>       0.69061179       0.95224114       0.34524108 </v>
   <v>       0.94145907       0.11176288       0.16677422 </v>
   <v>       0.93819645       0.12285969       0.52079864 </v>
   <v>       0.56686020       0.53456117       0.25628853 </v>
   <v>       0.69212944       0.79543839       0.87565475 </v>
   <v>       0.56722850       0.36237307       0.16764942 </v>
   <v>       0.43920715       0.79272619       0.74409550 </v>
   <v>       0.81375783       0.70725490       0.56569360 </v>
   <v>       0.57034870       0.87487835       0.78836969 </v>
   <v>       0.68812418       0.12321490       0.52072416 </v>
   <v>       0.18793308       0.28704878       0.25700330 </v>
   <v>       0.93280083       0.46464958       0.83314605 </v>
   <v>       0.06428948       0.20925440       0.69927663 </v>
   <v>       0.80735515       0.03886038       0.39003102 </v>
   <v>       0.31063041       0.21268975       0.83327440 </v>
   <v>       0.43560239       0.62444696       0.65424921 </v>
   <v>       0.31385616       0.54197941       0.61006675 </v>
   <v>       0.93819384       0.45775692       0.56554569 </v>
   <v>       0.68696440       0.79168103       0.74387088 </v>
   <v>       0.30852585       0.87469021       0.65421185 </v>
   <v>       0.68330079       0.78622611       0.38994983 </v>
   <v>       0.93372412       0.79131073       0.74391972 </v>
   <v>       0.06602262       0.20383561       0.34508724 </v>
   <v>       0.43596374       0.78199908       0.12317776 </v>
   <v>       0.44615872       0.12587407       0.78862657 </v>
   <v>       0.05469205       0.20412667       0.21213788 </v>
   <v>       0.06716799       0.36325123       0.16704807 </v>
   <v>       0.93924339       0.78475700       0.25696999 </v>
   <v>       0.56591998       0.21029104       0.69954245 </v>
   <v>       0.69104888       0.95818462       0.69943612 </v>
   <v>       0.68264402       0.28865787       0.39019742 </v>
   <v>       0.43940696       0.95694421       0.56536494 </v>
   <v>       0.81839044       0.37561029       0.78795879 </v>
   <v>       0.69254211       0.28589798       0.25677571 </v>
   <v>       0.18855855       0.45830453       0.56518674 </v>
   <v>       0.06639350       0.86122785       0.16678292 </v>
   <v>       0.18700796       0.29264873       0.61010670 </v>
   <v>       0.56534385       0.70031982       0.34567848 </v>
   <v>       0.31582385       0.21006373       0.69944007 </v>
   <v>       0.56475110       0.54141383       0.87625980 </v>
   <v>       0.06326706       0.70743147       0.56535440 </v>
   <v>       0.69526035       0.62444596       0.78830586 </v>
   <v>       0.31190661       0.53553651       0.38996292 </v>
   <v>       0.18893729       0.62172307       0.52082949 </v>
   <v>       0.56344566       0.87038826       0.43504097 </v>
   <v>       0.43916265       0.45832905       0.56541700 </v>
   <v>       0.43742426       0.29184612       0.74386562 </v>
   <v>       0.80617764       0.87278621       0.30026712 </v>
   <v>       0.81632755       0.70170496       0.34537122 </v>
   <v>       0.43471353       0.46227587       0.83346907 </v>
   <v>       0.68732835       0.95763285       0.47857049 </v>
   <v>       0.69031854       0.45861678       0.69912925 </v>
   <v>       0.56327848       0.87201652       0.52093085 </v>
   <v>       0.56086814       0.37734044       0.65427788 </v>
   <v>       0.80984505       0.87479763       0.65402843 </v>
   <v>       0.81033414       0.37050214       0.43532691 </v>
   <v>       0.81588607       0.53448927       0.25691449 </v>
   <v>       0.68365037       0.46322822       0.83349239 </v>
   <v>       0.18441610       0.78216355       0.12340305 </v>
   <v>       0.06409757       0.04163602       0.87541424 </v>
   <v>       0.30963058       0.37673546       0.65443566 </v>
   <v>       0.31562200       0.20409728       0.34550824 </v>
   <v>       0.81064146       0.54108694       0.74379224 </v>
   <v>       0.68379375       0.96382152       0.83354435 </v>
   <v>       0.56071232       0.87427711       0.65416108 </v>
   <v>       0.31372866       0.70712472       0.56537394 </v>
   <v>       0.31041113       0.53236452       0.12337562 </v>
   <v>       0.68129041       0.95249449       0.21185734 </v>
   <v>       0.31401996       0.20820668       0.56530325 </v>
   <v>       0.31199714       0.53908075       0.74393272 </v>
   <v>       0.68924199       0.95748041       0.56572324 </v>
   <v>       0.43933843       0.79095456       0.60992715 </v>
   <v>       0.69237076       0.61258522       0.16756231 </v>
   <v>       0.30179285       0.87162413       0.30115418 </v>
   <v>       0.31291764       0.70250724       0.47877027 </v>
   <v>       0.93485982       0.29185923       0.61005247 </v>
   <v>       0.42765793       0.62162378       0.30099963 </v>
   <v>       0.81763584       0.86306296       0.16712108 </v>
   <v>       0.55686947       0.20271553       0.21158947 </v>
   <v>       0.94280093       0.61343030       0.16693232 </v>
   <v>       0.93862438       0.79299331       0.87558248 </v>
   <v>       0.57029572       0.37403291       0.78829151 </v>
   <v>       0.06381330       0.37289800       0.52073588 </v>
   <v>       0.56324054       0.37240053       0.52051957 </v>
   <v>       0.68337364       0.12167764       0.30059585 </v>
   <v>       0.43384006       0.96337830       0.83348615 </v>
   <v>       0.18560025       0.28315901       0.12320449 </v>
   <v>       0.81870750       0.87385005       0.78838205 </v>
   <v>       0.31479146       0.37183244       0.43505698 </v>
   <v>       0.93527505       0.79168709       0.61012613 </v>
   <v>       0.44024120       0.29303267       0.61007269 </v>
   <v>       0.19270475       0.45173353       0.34501632 </v>
   <v>       0.43698979       0.28303869       0.12324915 </v>
   <v>       0.69232312       0.78515810       0.25664527 </v>
   <v>       0.18964382       0.95978207       0.69900770 </v>
   <v>       0.19211945       0.29622887       0.87580176 </v>
   <v>       0.18295625       0.12590459       0.65438781 </v>
   <v>       0.93332385       0.12603010       0.65414326 </v>
   <v>       0.30646179       0.20524991       0.21181658 </v>
   <v>       0.05854208       0.03795606       0.38987774 </v>
   <v>       0.44130573       0.95940665       0.69934453 </v>
   <v>       0.06062634       0.54163967       0.61012223 </v>
   <v>       0.93897913       0.28573869       0.25716598 </v>
   <v>       0.56475115       0.54132932       0.61014962 </v>
   <v>       0.93833169       0.95756530       0.56567241 </v>
   <v>       0.68289730       0.62209949       0.30036450 </v>
   <v>       0.93642144       0.61781386       0.43562798 </v>
   <v>       0.94367037       0.62535282       0.78829873 </v>
   <v>       0.56725920       0.70617051       0.69915141 </v>
   <v>       0.05883144       0.71371022       0.83350351 </v>
   <v>       0.92900772       0.12352819       0.30040889 </v>
   <v>       0.93851027       0.45838945       0.69917964 </v>
   <v>       0.44114005       0.78390983       0.25641268 </v>
   <v>       0.32144393       0.37353064       0.78846306 </v>
   <v>       0.43104948       0.45311020       0.21168377 </v>
   <v>       0.18894761       0.12375062       0.52080301 </v>
   <v>       0.81416349       0.70752194       0.69908450 </v>
   <v>       0.06023611       0.04169546       0.61007873 </v>
   <v>       0.56012039       0.21255406       0.83355492 </v>
   <v>       0.31409852       0.87141446       0.52103403 </v>
   <v>       0.68912240       0.28256561       0.12330439 </v>
   <v>       0.18001470       0.95115631       0.21153788 </v>
   <v>       0.68872253       0.29231824       0.61008706 </v>
   <v>       0.31333323       0.04165384       0.61001459 </v>
   <v>       0.94339879       0.12506011       0.78837011 </v>
   <v>       0.44115774       0.79617621       0.87581992 </v>
   <v>       0.81016319       0.04267206       0.74376873 </v>
   <v>       0.43854590       0.12317420       0.52068133 </v>
   <v>       0.18328056       0.62522563       0.65420543 </v>
   <v>       0.31603805       0.70683740       0.69877173 </v>
   <v>       0.93725922       0.28217333       0.12338084 </v>
   <v>       0.43834500       0.45392899       0.47838717 </v>
   <v>       0.06218567       0.70293673       0.47869058 </v>
   <v>       0.93722353       0.12169415       0.43526277 </v>
   <v>       0.42883807       0.12194759       0.30106225 </v>
   <v>       0.18769200       0.12285409       0.43520545 </v>
   <v>       0.56406835       0.04517110       0.87587393 </v>
   <v>       0.18811940       0.95689539       0.56513829 </v>
   <v>       0.68985519       0.78269739       0.12323749 </v>
   <v>       0.56318772       0.53127624       0.12311775 </v>
   <v>       0.30992163       0.03924173       0.38958374 </v>
   <v>       0.69338508       0.11162161       0.16757889 </v>
   <v>       0.80539217       0.20227504       0.21206360 </v>
   <v>       0.06345190       0.53446971       0.25694726 </v>
   <v>       0.56376231       0.70401369       0.47847634 </v>
   <v>       0.06287093       0.20784262       0.56541295 </v>
   <v>       0.55578871       0.37087144       0.30068664 </v>
   <v>       0.44083704       0.95224047       0.34535533 </v>
   <v>       0.18518623       0.96256224       0.83340625 </v>
   <v>       0.44134431       0.61181399       0.16769387 </v>
   <v>       0.93076473       0.45303876       0.21222412 </v>
   <v>       0.06091501       0.53298688       0.12345539 </v>
   <v>       0.81291861       0.37259823       0.52068246 </v>
   <v>       0.93029997       0.62192996       0.30043554 </v>
   <v>       0.31325381       0.03696630       0.25683436 </v>
   <v>       0.68892073       0.79157602       0.60998264 </v>
   <v>       0.18522928       0.46420279       0.83338982 </v>
   <v>       0.44295295       0.11266233       0.16756806 </v>
   <v>       0.31389246       0.37297871       0.52048545 </v>
   <v>       0.44701802       0.62320749       0.78846891 </v>
   <v>       0.06207332       0.03605629       0.25720669 </v>
   <v>       0.56445137       0.70730475       0.56559344 </v>
   <v>       0.93515266       0.29236685       0.74370892 </v>
   <v>       0.69430174       0.12515605       0.78832331 </v>
   <v>       0.18094117       0.45372054       0.21173953 </v>
   <v>       0.93279911       0.78649172       0.38980481 </v>
   <v>       0.68903363       0.29660327       0.87618551 </v>
   <v>       0.31634913       0.86047275       0.16743356 </v>
   <v>       0.44223844       0.45683738       0.69913927 </v>
   <v>       0.80883794       0.37666600       0.65416962 </v>
   <v>       0.68812152       0.62154104       0.52090845 </v>
   <v>       0.05763321       0.87510303       0.65419326 </v>
   <v>       0.06942139       0.87421368       0.78849033 </v>
   <v>       0.05746670       0.37632688       0.65428790 </v>
   <v>       0.68759300       0.45407766       0.47819693 </v>
   <v>       0.18733924       0.78368807       0.25695236 </v>
   <v>       0.44006664       0.12336358       0.43491655 </v>
   <v>       0.81398481       0.03233667       0.12338821 </v>
   <v>       0.93839547       0.62188935       0.52084097 </v>
   <v>       0.06193426       0.87000248       0.43513948 </v>
   <v>       0.81323028       0.53207748       0.12324715 </v>
   <v>       0.43987308       0.45157856       0.34604523 </v>
   <v>       0.81545284       0.20318968       0.34506810 </v>
   <v>       0.31457869       0.70086646       0.34543189 </v>
   <v>       0.68591353       0.12712791       0.65415583 </v>
   <v>       0.55619947       0.87271349       0.30090640 </v>
   <v>       0.05869334       0.54028289       0.74382320 </v>
   <v>       0.93786919       0.78297458       0.12352772 </v>
   <v>       0.80623078       0.70253790       0.21201331 </v>
   <v>       0.05392019       0.87230656       0.30040259 </v>
   <v>       0.17756976       0.12302399       0.30089189 </v>
   <v>       0.06704138       0.70204799       0.34469481 </v>
   <v>       0.81180298       0.04206953       0.60983131 </v>
   <v>       0.06338331       0.37077077       0.43555533 </v>
   <v>       0.56563538       0.20287994       0.34577992 </v>
   <v>       0.80692980       0.37037594       0.30044600 </v>
   <v>       0.43958765       0.95697538       0.47874468 </v>
   <v>       0.55854421       0.53524242       0.39010409 </v>
   <v>       0.06206345       0.20843687       0.47857026 </v>
   <v>       0.32140090       0.87577445       0.78880617 </v>
   <v>       0.93894868       0.95861021       0.69906622 </v>
   <v>       0.05391128       0.37213804       0.30045394 </v>
   <v>       0.68554381       0.62447831       0.65422889 </v>
   <v>       0.68919439       0.45785060       0.56568615 </v>
   <v>       0.43223284       0.95212387       0.21119552 </v>
   <v>       0.31343918       0.20958954       0.47864389 </v>
   <v>       0.43476910       0.12705466       0.65432206 </v>
   <v>       0.68681732       0.61742648       0.43497982 </v>
   <v>       0.81470058       0.20976750       0.69934761 </v>
   <v>       0.81261732       0.70375482       0.47865940 </v>
   <v>       0.56278105       0.37068620       0.43500008 </v>
   <v>       0.93714696       0.95648477       0.47875540 </v>
   <v>       0.56399773       0.20827077       0.47831493 </v>
   <v>       0.18883008       0.61787409       0.43526433 </v>
   <v>       0.31216213       0.04503396       0.74385611 </v>
   <v>       0.93289236       0.62547660       0.65422303 </v>
   <v>       0.55977651       0.71321791       0.83342414 </v>
   <v>       0.30170496       0.37199090       0.30081915 </v>
   <v>       0.55664085       0.70180541       0.21155623 </v>
   <v>       0.18809702       0.45467999       0.47846103 </v>
   <v>       0.31679024       0.04052665       0.87568984 </v>
   <v>       0.18980918       0.45690001       0.69909749 </v>
   <v>       0.81150745       0.54380007       0.87565551 </v>
   <v>       0.18609948       0.28888808       0.38968833 </v>
   <v>       0.43958005       0.61724969       0.43474560 </v>
   <v>       0.05560125       0.70100624       0.21169734 </v>
   <v>       0.56357287       0.03375782       0.12318808 </v>
   <v>       0.81783965       0.36249689       0.16725715 </v>
   <v>       0.80896518       0.71426457       0.83340220 </v>
   <v>       0.06963533       0.37466281       0.78807769 </v>
   <v>       0.44462408       0.29683591       0.87607593 </v>
   <v>       0.30966291       0.03246349       0.12288897 </v>
   <v>       0.68696163       0.12316304       0.43523917 </v>
   <v>       0.19136532       0.95207727       0.34507591 </v>
   <v>       0.05864132       0.21192183       0.83326218 </v>
   <v>       0.56544333       0.04214445       0.60980339 </v>
   <v>       0.68094538       0.45213804       0.21203925 </v>
   <v>       0.18488720       0.79191865       0.74398723 </v>
   <v>       0.17703420       0.62108423       0.30087561 </v>
   <v>       0.43551147       0.78549899       0.38979861 </v>
   <v>       0.44023191       0.28748352       0.25640216 </v>
   <v>       0.06464819       0.54512882       0.87572119 </v>
   <v>       0.56220668       0.04364854       0.74396402 </v>
   <v>       0.19244422       0.79518483       0.87606279 </v>
   <v>       0.93729832       0.45479917       0.47842666 </v>
   <v>       0.80588079       0.53701937       0.39019366 </v>
   <v>       0.81365536       0.20788625       0.56578155 </v>
   <v>       0.19438282       0.62386697       0.78857004 </v>
   <v>       0.92995122       0.95190412       0.21200131 </v>
   <v>       0.06291482       0.70751685       0.69890357 </v>
   <v>       0.31381567       0.53359711       0.25654570 </v>
   <v>       0.30561684       0.70042514       0.21139584 </v>
   <v>       0.56798069       0.86219680       0.16794040 </v>
   <v>       0.56294540       0.54035325       0.74377990 </v>
   <v>       0.69047820       0.45172068       0.34563210 </v>
   <v>       0.93913439       0.29588402       0.87580863 </v>
   <v>       0.56869502       0.03720775       0.25664029 </v>
   <v>       0.19180922       0.11175748       0.16666617 </v>
   <v>       0.30827641       0.71531223       0.83441040 </v>
   <v>       0.81214302       0.04234465       0.87555324 </v>
   <v>       0.81163277       0.87115135       0.43519499 </v>
   <v>       0.05870801       0.53787726       0.38989304 </v>
   <v>       0.94243226       0.95295115       0.34493620 </v>
   <v>       0.18758201       0.95627886       0.47898490 </v>
  </varray>
 </structure>
</modeling>
