unknown system                          
           1
     9.726678    0.000000    0.000000
     0.000000    8.423550    0.000000
     0.000000    0.000000   45.000000
   Fe   Mn
 281   7
Direct configuration=     1
   0.06269338  0.03237908  0.12445291
   0.06335848  0.87185871  0.52124404
   0.19595277  0.12470588  0.78842293
   0.43363821  0.28754206  0.38905961
   0.31768770  0.36137564  0.16683360
   0.80861500  0.21295843  0.83342681
   0.18348456  0.78756701  0.38908112
   0.56390720  0.20763136  0.56542879
   0.06039989  0.04218258  0.74416267
   0.81349605  0.87211421  0.52127943
   0.18564260  0.29202795  0.74411249
   0.94138685  0.45203681  0.34489837
   0.93370683  0.28744478  0.38893841
   0.43846038  0.62221210  0.52131513
   0.18771146  0.79196056  0.61086281
   0.55870566  0.03756469  0.38886827
   0.93322407  0.96447138  0.83329757
   0.31417123  0.54228369  0.87551709
   0.68539070  0.29132663  0.74408848
   0.19208685  0.61209621  0.16681832
   0.81316826  0.20572913  0.47851421
   0.81262861  0.54185325  0.61085179
   0.31317789  0.87074805  0.43444270
   0.81539039  0.03518064  0.25598021
   0.69147658  0.95179930  0.34494961
   0.94214558  0.11253729  0.16683834
   0.93857592  0.12212273  0.52132835
   0.56548476  0.53523896  0.25600890
   0.69316181  0.79601337  0.87565853
   0.56731906  0.36257758  0.16695646
   0.43603616  0.79212157  0.74424165
   0.81396594  0.70765788  0.56543342
   0.56984178  0.87397310  0.78830438
   0.68851960  0.12231671  0.52134956
   0.19039751  0.28521512  0.25598188
   0.93354236  0.46352740  0.83300479
   0.06539284  0.20840310  0.69969575
   0.80850826  0.03736963  0.38907399
   0.30893970  0.21379711  0.83323920
   0.43405066  0.62604818  0.65497142
   0.31271113  0.54186124  0.61085000
   0.93892465  0.45765539  0.56541857
   0.68584153  0.79178356  0.74416547
   0.30887086  0.87571801  0.65492158
   0.68365317  0.78776211  0.38905582
   0.93562092  0.79209027  0.74418078
   0.06577124  0.20251582  0.34505501
   0.43737717  0.78205230  0.12444350
   0.44514585  0.12490827  0.78856799
   0.05501469  0.20299294  0.21186076
   0.06749329  0.36160154  0.16684377
   0.94052628  0.78541370  0.25597755
   0.56565679  0.20830294  0.69971615
   0.69050665  0.95844029  0.69969183
   0.68369469  0.28752646  0.38907286
   0.43893017  0.95768467  0.56542823
   0.82030880  0.37523571  0.78827949
   0.69045348  0.28524081  0.25599811
   0.18879561  0.45773704  0.56542986
   0.06794924  0.86278412  0.16680912
   0.18774625  0.29187170  0.61081213
   0.56605418  0.70162434  0.34489491
   0.31537063  0.20843468  0.69968748
   0.56466400  0.54177825  0.87561875
   0.06377040  0.70769941  0.56545029
   0.69520343  0.62425881  0.78836806
   0.30857392  0.53759978  0.38907804
   0.18851596  0.62221757  0.52132310
   0.56261844  0.87047213  0.43446398
   0.43881689  0.45774301  0.56544426
   0.43571686  0.29199207  0.74414431
   0.80399130  0.87210638  0.30018928
   0.81679028  0.70245051  0.34505825
   0.43358613  0.46305604  0.83315673
   0.68765900  0.95587103  0.47863810
   0.69051648  0.45850899  0.69966683
   0.56322420  0.87202090  0.52133042
   0.55889940  0.37567168  0.65494538
   0.80885787  0.87566528  0.65490306
   0.81256023  0.37053267  0.43447501
   0.81559585  0.53552479  0.25594309
   0.68345813  0.46355895  0.83311803
   0.18688392  0.78242488  0.12442524
   0.06398343  0.04364836  0.87543628
   0.30885985  0.37569286  0.65492098
   0.31629882  0.20207827  0.34491988
   0.81082795  0.54197074  0.74422505
   0.68406645  0.96400178  0.83331039
   0.55890183  0.87570422  0.65491674
   0.31386543  0.70742068  0.56556850
   0.31258116  0.53274802  0.12448037
   0.68026355  0.95303321  0.21184624
   0.31398362  0.20778541  0.56554933
   0.31079042  0.54220107  0.74416505
   0.68866898  0.95780529  0.56545190
   0.43765720  0.79191977  0.61085017
   0.69206843  0.61218662  0.16694743
   0.30373776  0.87211618  0.30031221
   0.31282311  0.70561051  0.47861832
   0.93786144  0.29177924  0.61080675
   0.42873881  0.62211838  0.30033154
   0.81682360  0.86230959  0.16682999
   0.55556091  0.20216070  0.21152443
   0.94190271  0.61244309  0.16682946
   0.93894621  0.79376987  0.87554234
   0.57091192  0.37462707  0.78839885
   0.06345672  0.37231787  0.52135550
   0.56350524  0.37212295  0.52129606
   0.67929240  0.12186316  0.30025251
   0.43247056  0.96319097  0.83324912
   0.18752978  0.28250071  0.12456342
   0.82044719  0.87461304  0.78835346
   0.31293034  0.37091143  0.43444401
   0.93771833  0.79179690  0.61083498
   0.43777398  0.29184382  0.61082231
   0.19187248  0.45199353  0.34499140
   0.43767363  0.28248676  0.12452083
   0.69013863  0.78555996  0.25598461
   0.19052278  0.95836516  0.69970621
   0.19054789  0.29665815  0.87586516
   0.18385889  0.12572394  0.65491507
   0.93401286  0.12603048  0.65494846
   0.30560901  0.20298535  0.21192518
   0.05850346  0.03738023  0.38905639
   0.44034489  0.95829577  0.69969110
   0.06269871  0.54182779  0.61084932
   0.94048880  0.28530227  0.25597404
   0.56274175  0.54182481  0.61085305
   0.93894853  0.95781197  0.56552927
   0.67917249  0.62180492  0.30011792
   0.93751737  0.61931575  0.43464354
   0.94588665  0.62467351  0.78841668
   0.56532908  0.70832117  0.69967352
   0.05908732  0.71285621  0.83311432
   0.92883441  0.12223664  0.30025728
   0.94047081  0.45844776  0.69967681
   0.44061393  0.78542022  0.25594502
   0.32034474  0.37421366  0.78845726
   0.43059360  0.45248899  0.21163854
   0.18848999  0.12236112  0.52129773
   0.81532765  0.70836275  0.69967837
   0.06271337  0.04180411  0.61085122
   0.55918808  0.21329382  0.83332953
   0.31364654  0.87201076  0.52127585
   0.68727219  0.28250666  0.12446791
   0.18071491  0.95234347  0.21163521
   0.68760278  0.29199576  0.61086492
   0.31266291  0.04185645  0.61088379
   0.94515279  0.12471808  0.78852211
   0.44054178  0.79672494  0.87567506
   0.81065905  0.04200074  0.74408685
   0.43831401  0.12194439  0.52134497
   0.18395261  0.62583369  0.65495238
   0.31525753  0.70814319  0.69961745
   0.93689410  0.28295424  0.12452121
   0.43790773  0.45593186  0.47860844
   0.06290694  0.70563292  0.47862256
   0.93862380  0.11965531  0.43436033
   0.42866930  0.12196331  0.30032984
   0.18807804  0.12013594  0.43449857
   0.56398334  0.04383679  0.87558165
   0.18869275  0.95749801  0.56530511
   0.68723347  0.78246670  0.12443190
   0.56273033  0.53218404  0.12436257
   0.30869441  0.03727432  0.38902456
   0.69264827  0.11171112  0.16696754
   0.80578299  0.20253651  0.21161890
   0.06560969  0.53531360  0.25597102
   0.56279546  0.70572452  0.47862485
   0.06373467  0.20768836  0.56546735
   0.55374532  0.37212519  0.30032468
   0.44190070  0.95223520  0.34490576
   0.18393637  0.96301686  0.83315292
   0.44258314  0.61209578  0.16673713
   0.93026724  0.45277356  0.21180109
   0.06153035  0.53251319  0.12449111
   0.81347344  0.37227779  0.52133341
   0.92869889  0.62223513  0.30030720
   0.31523513  0.03548841  0.25598981
   0.68774282  0.79184702  0.61086069
   0.18407978  0.46425864  0.83328944
   0.44227372  0.11280102  0.16678865
   0.31346833  0.37230907  0.52133627
   0.44622025  0.62439151  0.78832523
   0.06555549  0.03530420  0.25600955
   0.56379696  0.70768973  0.56541935
   0.93605470  0.29159499  0.74415675
   0.69583374  0.12453909  0.78844764
   0.18048745  0.45261273  0.21164418
   0.93396855  0.78698013  0.38895859
   0.69200454  0.29636114  0.87584879
   0.31668386  0.86236926  0.16687318
   0.44038683  0.45832165  0.69968386
   0.80887797  0.37555303  0.65494460
   0.68832011  0.62236393  0.52141044
   0.05893551  0.87560641  0.65491125
   0.07133762  0.87382764  0.78825287
   0.05890343  0.37568672  0.65492838
   0.68779727  0.45573559  0.47863298
   0.19053238  0.78529296  0.25600213
   0.43817847  0.12006776  0.43444873
   0.81111159  0.03202803  0.12446622
   0.93848140  0.62229531  0.52138325
   0.06256987  0.87077932  0.43443470
   0.81113852  0.53191680  0.12438482
   0.44144192  0.45191403  0.34498912
   0.81646830  0.20189656  0.34496805
   0.31611637  0.70161793  0.34490676
   0.68398600  0.12614357  0.65496993
   0.55373252  0.87202387  0.30032296
   0.06071302  0.54212276  0.74412595
   0.93693504  0.78237467  0.12452806
   0.80557153  0.70246890  0.21168975
   0.05378080  0.87314205  0.30011429
   0.17926906  0.12269594  0.30028513
   0.06645412  0.70185133  0.34496010
   0.81304684  0.04155611  0.61067156
   0.06318725  0.37082448  0.43442704
   0.56630280  0.20192329  0.34495930
   0.80355656  0.37200697  0.30035309
   0.43791022  0.95595030  0.47861636
   0.55840204  0.53743508  0.38904462
   0.06280375  0.20580809  0.47863803
   0.32050137  0.87453191  0.78837465
   0.94043762  0.95843879  0.69970307
   0.05404641  0.37257255  0.30021761
   0.68407098  0.62605345  0.65497152
   0.68876633  0.45770271  0.56545866
   0.43025054  0.95281121  0.21173846
   0.31289054  0.20586571  0.47857875
   0.43387180  0.12577805  0.65489456
   0.68818977  0.62030136  0.43442080
   0.81532420  0.20835405  0.69967535
   0.81287939  0.70593168  0.47861483
   0.56287305  0.37038551  0.43443010
   0.93780998  0.95584580  0.47864524
   0.56285320  0.20572870  0.47860631
   0.18814976  0.62029840  0.43438488
   0.31075467  0.04233553  0.74408716
   0.93406556  0.62607912  0.65497761
   0.55854110  0.71320228  0.83307058
   0.30399717  0.37244951  0.30021550
   0.55574008  0.70233068  0.21164222
   0.18786012  0.45587390  0.47861569
   0.31508410  0.04121492  0.87581636
   0.19041969  0.45836509  0.69969548
   0.81440039  0.54262039  0.87563626
   0.18338869  0.28855753  0.38907937
   0.43836987  0.62030584  0.43426911
   0.05554259  0.70220115  0.21156126
   0.56277704  0.03284175  0.12447283
   0.81749081  0.36256708  0.16701938
   0.80857391  0.71415532  0.83324238
   0.07041099  0.37455201  0.78841025
   0.44204508  0.29636865  0.87587973
   0.31131293  0.03244682  0.12432473
   0.68792253  0.12010574  0.43448369
   0.19137561  0.95191901  0.34498583
   0.05821866  0.21289474  0.83327541
   0.56285180  0.04175163  0.61079095
   0.68062056  0.45248982  0.21165282
   0.18597171  0.79173302  0.74416701
   0.17878859  0.62209591  0.30030732
   0.43372408  0.78758177  0.38908516
   0.44055121  0.28537798  0.25598186
   0.06470486  0.54175902  0.87567427
   0.56042447  0.04224004  0.74417582
   0.19279925  0.79603663  0.87584252
   0.93767132  0.45574288  0.47862826
   0.80875814  0.53754001  0.38907131
   0.81390954  0.20761894  0.56540288
   0.19529787  0.62454091  0.78834610
   0.93082870  0.95300469  0.21182777
   0.06533430  0.70832314  0.69967325
   0.31557124  0.53538037  0.25597053
   0.30562487  0.70238790  0.21169171
   0.56769134  0.86207000  0.16689980
   0.56062082  0.54214472  0.74417829
   0.69118263  0.45196653  0.34489931
   0.94159237  0.29626622  0.87582002
   0.56566017  0.03548814  0.25598995
   0.19328407  0.11177854  0.16620967
   0.30765900  0.71439847  0.83395449
   0.81510370  0.04245135  0.87545061
   0.81309571  0.87121452  0.43447369
   0.05799142  0.53770863  0.38897287
   0.94238802  0.95230156  0.34500571
   0.18799609  0.95597983  0.47860521
Direct configuration=     2
   0.06071327  0.03191752  0.12324408
   0.06317902  0.87092930  0.52092699
   0.19589802  0.12528027  0.78851285
   0.43491317  0.28974778  0.39008527
   0.31739681  0.36339212  0.16748641
   0.80752205  0.21238879  0.83355552
   0.18428178  0.78723496  0.38964116
   0.56478479  0.20789845  0.56552930
   0.05916482  0.04381985  0.74384234
   0.81310445  0.87169471  0.52085372
   0.18583556  0.29215019  0.74376122
   0.94061398  0.45157210  0.34465363
   0.93213700  0.28646341  0.38977365
   0.43826476  0.62120392  0.52083141
   0.18701881  0.79135180  0.61007405
   0.55942363  0.03924141  0.38990890
   0.93286012  0.96325596  0.83348601
   0.31659899  0.54396043  0.87573368
   0.68595045  0.29191328  0.74374761
   0.19167549  0.61244281  0.16719570
   0.81224579  0.20731488  0.47823864
   0.81135946  0.54136909  0.61012690
   0.31408766  0.86963052  0.43502798
   0.81588914  0.03614434  0.25703470
   0.69061027  0.95224192  0.34524159
   0.94145785  0.11176151  0.16677410
   0.93819578  0.12286100  0.52079770
   0.56686264  0.53455997  0.25628903
   0.69212761  0.79543737  0.87565474
   0.56722834  0.36237271  0.16765065
   0.43921276  0.79272726  0.74409524
   0.81375747  0.70725419  0.56569406
   0.57034960  0.87487995  0.78836980
   0.68812348  0.12321649  0.52072306
   0.18792872  0.28705203  0.25700511
   0.93279952  0.46465156  0.83314630
   0.06428753  0.20925590  0.69927589
   0.80735311  0.03886302  0.39003272
   0.31063340  0.21268779  0.83327446
   0.43560514  0.62444412  0.65424793
   0.31385818  0.54197962  0.61006536
   0.93819254  0.45775710  0.56554592
   0.68696638  0.79168085  0.74387036
   0.30852524  0.87468839  0.65421060
   0.68330017  0.78622339  0.38995141
   0.93372076  0.79130935  0.74391926
   0.06602306  0.20383794  0.34508730
   0.43596124  0.78199899  0.12317553
   0.44616051  0.12587578  0.78862668
   0.05469148  0.20412867  0.21213837
   0.06716742  0.36325415  0.16704843
   0.93924112  0.78475584  0.25697175
   0.56592044  0.21029455  0.69954214
   0.69104984  0.95818417  0.69943567
   0.68264216  0.28865987  0.39019940
   0.43940780  0.95694290  0.56536483
   0.81838705  0.37561095  0.78795822
   0.69254581  0.28589915  0.25677709
   0.18855813  0.45830553  0.56518631
   0.06639075  0.86122510  0.16678287
   0.18700666  0.29265010  0.61010545
   0.56534260  0.70031751  0.34567987
   0.31582465  0.21006661  0.69943963
   0.56475125  0.54141319  0.87626093
   0.06326617  0.70743100  0.56535423
   0.69526045  0.62444629  0.78830575
   0.31191250  0.53553286  0.38996448
   0.18893803  0.62172219  0.52082862
   0.56344712  0.87038811  0.43504199
   0.43916326  0.45833008  0.56541696
   0.43742727  0.29184586  0.74386513
   0.80618151  0.87278741  0.30026726
   0.81632673  0.70170364  0.34537177
   0.43471552  0.46227449  0.83346962
   0.68732777  0.95763596  0.47857037
   0.69031819  0.45861697  0.69912830
   0.56327857  0.87201652  0.52093014
   0.56087162  0.37734339  0.65427670
   0.80984679  0.87479610  0.65402689
   0.81033021  0.37050209  0.43532841
   0.81588659  0.53448743  0.25691621
   0.68365071  0.46322763  0.83349305
   0.18441174  0.78216309  0.12340124
   0.06409777  0.04163246  0.87541420
   0.30963195  0.37673730  0.65443480
   0.31562080  0.20410085  0.34550928
   0.81064113  0.54108537  0.74379147
   0.68379327  0.96382120  0.83354476
   0.56071552  0.87427459  0.65415974
   0.31372841  0.70712420  0.56537359
   0.31040729  0.53236384  0.12337367
   0.68129223  0.95249354  0.21185736
   0.31402002  0.20820743  0.56530281
   0.31199927  0.53907524  0.74393231
   0.68924301  0.95747983  0.56572372
   0.43934140  0.79095285  0.60992551
   0.69237129  0.61258593  0.16756340
   0.30178941  0.87162326  0.30115567
   0.31291780  0.70250175  0.47877054
   0.93485451  0.29185938  0.61005113
   0.42765602  0.62162291  0.30100081
   0.81763727  0.86306429  0.16712160
   0.55687179  0.20271651  0.21158959
   0.94280251  0.61343204  0.16693251
   0.93862381  0.79299193  0.87558255
   0.57029463  0.37403186  0.78829132
   0.06381393  0.37289903  0.52073478
   0.56324007  0.37240103  0.52051820
   0.68338085  0.12167731  0.30059645
   0.43384249  0.96337863  0.83348657
   0.18559684  0.28316017  0.12320208
   0.81870442  0.87384870  0.78838210
   0.31479475  0.37183407  0.43505806
   0.93527073  0.79168690  0.61012487
   0.44024556  0.29303477  0.61007136
   0.19270622  0.45173307  0.34501636
   0.43698858  0.28303966  0.12324690
   0.69232699  0.78515739  0.25664644
   0.18964226  0.95978458  0.69900647
   0.19212223  0.29622812  0.87580164
   0.18295465  0.12590491  0.65438688
   0.93332263  0.12603010  0.65414184
   0.30646330  0.20525392  0.21181638
   0.05854215  0.03795708  0.38987920
   0.44130743  0.95940861  0.69934391
   0.06062268  0.54163934  0.61012094
   0.93897646  0.28573946  0.25716809
   0.56475471  0.54132844  0.61014838
   0.93833060  0.95756486  0.56567267
   0.68290388  0.62210001  0.30036494
   0.93641950  0.61781121  0.43562972
   0.94366645  0.62535402  0.78829852
   0.56726262  0.70616670  0.69915049
   0.05883099  0.71371173  0.83350420
   0.92900803  0.12353047  0.30040916
   0.93850680  0.45838935  0.69917876
   0.44114098  0.78390716  0.25641350
   0.32144588  0.37352943  0.78846307
   0.43105028  0.45311130  0.21168385
   0.18894842  0.12375308  0.52080213
   0.81416144  0.70752045  0.69908345
   0.06023173  0.04169526  0.61007736
   0.56012203  0.21255275  0.83355532
   0.31409932  0.87141340  0.52103360
   0.68912568  0.28256572  0.12330233
   0.18001346  0.95115421  0.21153770
   0.68872451  0.29231881  0.61008569
   0.31333442  0.04165349  0.61001305
   0.94339569  0.12506071  0.78836984
   0.44115882  0.79617524  0.87582018
   0.81016232  0.04267325  0.74376816
   0.43854631  0.12317637  0.52068016
   0.18327938  0.62522455  0.65420411
   0.31603943  0.70683509  0.69877023
   0.93725987  0.28217195  0.12337882
   0.43834578  0.45392544  0.47838678
   0.06218439  0.70293196  0.47869070
   0.93722105  0.12169776  0.43526437
   0.42883836  0.12194756  0.30106354
   0.18769131  0.12285890  0.43520670
   0.56406850  0.04517346  0.87587444
   0.18811839  0.95689433  0.56513800
   0.68985983  0.78269780  0.12323538
   0.56318853  0.53127463  0.12311555
   0.30992380  0.03924521  0.38958473
   0.69338638  0.11162145  0.16757997
   0.80539148  0.20227458  0.21206438
   0.06344808  0.53446822  0.25694899
   0.56376402  0.70401066  0.47847608
   0.06286940  0.20784289  0.56541285
   0.55579232  0.37086922  0.30068728
   0.44083516  0.95224048  0.34535612
   0.18518844  0.96256143  0.83340670
   0.44134212  0.61181349  0.16769556
   0.93076561  0.45303923  0.21222487
   0.06091392  0.53298772  0.12345356
   0.81291762  0.37259880  0.52068131
   0.93030280  0.62192942  0.30043576
   0.31325031  0.03696891  0.25683585
   0.68892281  0.79157554  0.60998109
   0.18523132  0.46420269  0.83339000
   0.44295415  0.11266208  0.16756944
   0.31389321  0.37297989  0.52048394
   0.44701944  0.62320539  0.78846916
   0.06206716  0.03605762  0.25720881
   0.56445253  0.70730407  0.56559374
   0.93515107  0.29236822  0.74370813
   0.69429903  0.12515715  0.78832309
   0.18094198  0.45372250  0.21173970
   0.93279704  0.78649086  0.38980630
   0.68902838  0.29660370  0.87618610
   0.31634854  0.86046940  0.16743455
   0.44224171  0.45683475  0.69913831
   0.80883787  0.37666796  0.65416825
   0.68812117  0.62153958  0.52090757
   0.05763091  0.87510214  0.65419200
   0.06941800  0.87421436  0.78849075
   0.05746416  0.37632801  0.65428677
   0.68759264  0.45407472  0.47819615
   0.18733359  0.78368524  0.25695405
   0.44006998  0.12336941  0.43491738
   0.81398989  0.03233721  0.12338630
   0.93839532  0.62188863  0.52084001
   0.06193313  0.87000111  0.43514072
   0.81323398  0.53207776  0.12324514
   0.43987031  0.45157797  0.34604710
   0.81545105  0.20319196  0.34506828
   0.31457597  0.70086513  0.34543282
   0.68591694  0.12712965  0.65415439
   0.55620384  0.87271471  0.30090743
   0.05868977  0.54027964  0.74382266
   0.93787084  0.78297564  0.12352595
   0.80623194  0.70253802  0.21201388
   0.05392044  0.87230508  0.30040310
   0.17756675  0.12302457  0.30089296
   0.06704242  0.70204834  0.34469434
   0.81180078  0.04207044  0.60982982
   0.06338366  0.37077068  0.43555733
   0.56563420  0.20288164  0.34578137
   0.80693577  0.37037306  0.30044617
   0.43959062  0.95697719  0.47874490
   0.55854446  0.53523854  0.39010597
   0.06206214  0.20844152  0.47857014
   0.32140249  0.87577665  0.78880694
   0.93894605  0.95861051  0.69906509
   0.05391104  0.37213727  0.30045436
   0.68554641  0.62447552  0.65422758
   0.68919515  0.45785087  0.56568655
   0.43223635  0.95212266  0.21119456
   0.31344015  0.20959612  0.47864400
   0.43477069  0.12705692  0.65432105
   0.68681489  0.61742139  0.43498081
   0.81469948  0.20977000  0.69934704
   0.81261685  0.70375097  0.47865948
   0.56278089  0.37068673  0.43500109
   0.93714579  0.95648590  0.47875559
   0.56399976  0.20827527  0.47831442
   0.18883128  0.61786981  0.43526589
   0.31216462  0.04503873  0.74385570
   0.93289028  0.62547553  0.65422169
   0.55977870  0.71321794  0.83342477
   0.30170091  0.37199009  0.30082022
   0.55664244  0.70180448  0.21155608
   0.18809744  0.45467788  0.47846076
   0.31679326  0.04052543  0.87568962
   0.18980811  0.45689742  0.69909643
   0.81150233  0.54380216  0.87565554
   0.18610428  0.28888866  0.38968941
   0.43958219  0.61724429  0.43474644
   0.05560135  0.70100412  0.21169758
   0.56357427  0.03375944  0.12318581
   0.81784026  0.36249677  0.16725757
   0.80896587  0.71426477  0.83340248
   0.06963396  0.37466301  0.78807710
   0.44462864  0.29683673  0.87607628
   0.30966000  0.03246352  0.12288643
   0.68695993  0.12316845  0.43524050
   0.19136530  0.95207755  0.34507607
   0.05864207  0.21192011  0.83326215
   0.56544792  0.04214514  0.60980164
   0.68094596  0.45213742  0.21203994
   0.18488529  0.79191898  0.74398692
   0.17703110  0.62108244  0.30087661
   0.43551464  0.78549530  0.38979987
   0.44023135  0.28748724  0.25640290
   0.06464809  0.54513478  0.87572128
   0.56220984  0.04365103  0.74396365
   0.19244359  0.79518332  0.87606318
   0.93729766  0.45479750  0.47842631
   0.80587570  0.53701845  0.39019565
   0.81365491  0.20788672  0.56578222
   0.19438120  0.62386577  0.78857043
   0.92994967  0.95190218  0.21200161
   0.06291054  0.70751543  0.69890221
   0.31381256  0.53359396  0.25654672
   0.30561683  0.70042167  0.21139531
   0.56798120  0.86219703  0.16794224
   0.56294951  0.54035009  0.74377920
   0.69047695  0.45172024  0.34563339
   0.93913004  0.29588334  0.87580861
   0.56870039  0.03721079  0.25664144
   0.19180661  0.11175744  0.16666698
   0.30827750  0.71531385  0.83441121
   0.81213778  0.04234446  0.87555342
   0.81163018  0.87115124  0.43519627
   0.05870927  0.53787755  0.38989467
   0.94243234  0.95295230  0.34493607
   0.18758128  0.95627939  0.47898558
Direct configuration=     3
   0.06071696  0.03191838  0.12324633
   0.06317936  0.87093103  0.52092758
   0.19589813  0.12527921  0.78851268
   0.43491079  0.28974367  0.39008336
   0.31739735  0.36338837  0.16748520
   0.80752409  0.21238985  0.83355528
   0.18428030  0.78723558  0.38964012
   0.56478315  0.20789795  0.56552911
   0.05916712  0.04381680  0.74384294
   0.81310518  0.87169550  0.52085451
   0.18583520  0.29214996  0.74376187
   0.94061542  0.45157297  0.34465408
   0.93213993  0.28646524  0.38977209
   0.43826512  0.62120580  0.52083231
   0.18702010  0.79135294  0.61007552
   0.55942230  0.03923829  0.38990696
   0.93286080  0.96325823  0.83348566
   0.31659446  0.54395730  0.87573327
   0.68594941  0.29191219  0.74374825
   0.19167625  0.61244217  0.16719500
   0.81224751  0.20731192  0.47823915
   0.81136182  0.54136999  0.61012825
   0.31408596  0.86963260  0.43502689
   0.81588822  0.03614254  0.25703274
   0.69061188  0.95224109  0.34524105
   0.94145913  0.11176296  0.16677422
   0.93819649  0.12285962  0.52079869
   0.56686007  0.53456124  0.25628851
   0.69212954  0.79543844  0.87565475
   0.56722851  0.36237309  0.16764935
   0.43920685  0.79272613  0.74409552
   0.81375785  0.70725494  0.56569357
   0.57034865  0.87487826  0.78836968
   0.68812422  0.12321482  0.52072422
   0.18793332  0.28704860  0.25700320
   0.93280090  0.46464947  0.83314604
   0.06428959  0.20925431  0.69927667
   0.80735526  0.03886024  0.39003093
   0.31063025  0.21268986  0.83327440
   0.43560224  0.62444711  0.65424928
   0.31385605  0.54197940  0.61006682
   0.93819391  0.45775691  0.56554568
   0.68696429  0.79168104  0.74387091
   0.30852589  0.87469031  0.65421192
   0.68330082  0.78622626  0.38994974
   0.93372430  0.79131080  0.74391974
   0.06602259  0.20383548  0.34508724
   0.43596388  0.78199909  0.12317789
   0.44615862  0.12587398  0.78862657
   0.05469208  0.20412656  0.21213785
   0.06716803  0.36325107  0.16704805
   0.93924351  0.78475707  0.25696990
   0.56591995  0.21029084  0.69954247
   0.69104883  0.95818464  0.69943614
   0.68264412  0.28865776  0.39019731
   0.43940691  0.95694428  0.56536495
   0.81839063  0.37561025  0.78795882
   0.69254191  0.28589792  0.25677564
   0.18855857  0.45830447  0.56518676
   0.06639365  0.86122800  0.16678292
   0.18700803  0.29264865  0.61010676
   0.56534392  0.70031995  0.34567840
   0.31582381  0.21006357  0.69944009
   0.56475109  0.54141387  0.87625973
   0.06326710  0.70743150  0.56535441
   0.69526035  0.62444594  0.78830587
   0.31190628  0.53553671  0.38996283
   0.18893724  0.62172311  0.52082954
   0.56344558  0.87038827  0.43504091
   0.43916262  0.45832899  0.56541701
   0.43742409  0.29184613  0.74386565
   0.80617743  0.87278614  0.30026711
   0.81632759  0.70170503  0.34537119
   0.43471342  0.46227594  0.83346904
   0.68732839  0.95763267  0.47857049
   0.69031856  0.45861677  0.69912931
   0.56327847  0.87201652  0.52093088
   0.56086795  0.37734028  0.65427794
   0.80984495  0.87479772  0.65402852
   0.81033436  0.37050215  0.43532682
   0.81588605  0.53448937  0.25691440
   0.68365035  0.46322825  0.83349235
   0.18441634  0.78216358  0.12340315
   0.06409756  0.04163622  0.87541424
   0.30963051  0.37673536  0.65443571
   0.31562206  0.20409708  0.34550819
   0.81064148  0.54108702  0.74379228
   0.68379377  0.96382154  0.83354432
   0.56071214  0.87427725  0.65416115
   0.31372867  0.70712475  0.56537395
   0.31041134  0.53236456  0.12337573
   0.68129031  0.95249454  0.21185734
   0.31401996  0.20820664  0.56530327
   0.31199702  0.53908106  0.74393274
   0.68924194  0.95748044  0.56572321
   0.43933827  0.79095466  0.60992724
   0.69237073  0.61258518  0.16756225
   0.30179304  0.87162418  0.30115410
   0.31291763  0.70250754  0.47877026
   0.93486011  0.29185923  0.61005254
   0.42765804  0.62162383  0.30099957
   0.81763576  0.86306289  0.16712105
   0.55686935  0.20271547  0.21158947
   0.94280084  0.61343020  0.16693231
   0.93862441  0.79299338  0.87558248
   0.57029578  0.37403297  0.78829152
   0.06381326  0.37289795  0.52073594
   0.56324057  0.37240051  0.52051964
   0.68337324  0.12167765  0.30059581
   0.43383993  0.96337828  0.83348613
   0.18560044  0.28315894  0.12320462
   0.81870767  0.87385012  0.78838205
   0.31479128  0.37183235  0.43505692
   0.93527529  0.79168710  0.61012619
   0.44024096  0.29303255  0.61007276
   0.19270467  0.45173356  0.34501632
   0.43698986  0.28303863  0.12324927
   0.69232291  0.78515814  0.25664521
   0.18964390  0.95978193  0.69900777
   0.19211930  0.29622892  0.87580176
   0.18295634  0.12590457  0.65438786
   0.93332392  0.12603010  0.65414334
   0.30646171  0.20524969  0.21181659
   0.05854208  0.03795601  0.38987766
   0.44130564  0.95940654  0.69934456
   0.06062654  0.54163969  0.61012230
   0.93897928  0.28573865  0.25716586
   0.56475096  0.54132936  0.61014969
   0.93833175  0.95756532  0.56567240
   0.68289693  0.62209946  0.30036448
   0.93642155  0.61781401  0.43562788
   0.94367059  0.62535275  0.78829874
   0.56725902  0.70617071  0.69915146
   0.05883147  0.71371014  0.83350347
   0.92900771  0.12352806  0.30040888
   0.93851046  0.45838945  0.69917969
   0.44113999  0.78390998  0.25641263
   0.32144382  0.37353070  0.78846306
   0.43104943  0.45311014  0.21168377
   0.18894756  0.12375048  0.52080305
   0.81416361  0.70752202  0.69908456
   0.06023635  0.04169547  0.61007880
   0.56012029  0.21255413  0.83355490
   0.31409847  0.87141451  0.52103405
   0.68912222  0.28256561  0.12330451
   0.18001477  0.95115643  0.21153789
   0.68872242  0.29231821  0.61008714
   0.31333317  0.04165386  0.61001468
   0.94339897  0.12506007  0.78837013
   0.44115768  0.79617626  0.87581991
   0.81016324  0.04267200  0.74376876
   0.43854588  0.12317408  0.52068140
   0.18328063  0.62522569  0.65420550
   0.31603797  0.70683753  0.69877181
   0.93725919  0.28217341  0.12338095
   0.43834496  0.45392918  0.47838719
   0.06218574  0.70293699  0.47869057
   0.93722366  0.12169395  0.43526268
   0.42883805  0.12194759  0.30106217
   0.18769203  0.12285382  0.43520538
   0.56406834  0.04517097  0.87587390
   0.18811946  0.95689545  0.56513831
   0.68985493  0.78269737  0.12323761
   0.56318767  0.53127632  0.12311787
   0.30992151  0.03924153  0.38958368
   0.69338501  0.11162162  0.16757883
   0.80539221  0.20227506  0.21206355
   0.06345211  0.53446979  0.25694717
   0.56376221  0.70401385  0.47847636
   0.06287101  0.20784260  0.56541295
   0.55578851  0.37087156  0.30068660
   0.44083714  0.95224047  0.34535529
   0.18518611  0.96256228  0.83340623
   0.44134443  0.61181402  0.16769377
   0.93076468  0.45303874  0.21222408
   0.06091507  0.53298684  0.12345549
   0.81291866  0.37259820  0.52068253
   0.93029981  0.62192999  0.30043552
   0.31325401  0.03696616  0.25683427
   0.68892062  0.79157605  0.60998273
   0.18522917  0.46420280  0.83338981
   0.44295288  0.11266234  0.16756799
   0.31389242  0.37297864  0.52048553
   0.44701795  0.62320760  0.78846889
   0.06207366  0.03605621  0.25720658
   0.56445131  0.70730479  0.56559342
   0.93515275  0.29236678  0.74370897
   0.69430189  0.12515599  0.78832332
   0.18094113  0.45372043  0.21173952
   0.93279922  0.78649177  0.38980473
   0.68903392  0.29660325  0.87618547
   0.31634916  0.86047294  0.16743350
   0.44223826  0.45683752  0.69913933
   0.80883795  0.37666589  0.65416969
   0.68812154  0.62154112  0.52090850
   0.05763334  0.87510308  0.65419333
   0.06942157  0.87421364  0.78849031
   0.05746684  0.37632682  0.65428796
   0.68759302  0.45407782  0.47819697
   0.18733955  0.78368823  0.25695227
   0.44006646  0.12336326  0.43491650
   0.81398453  0.03233664  0.12338832
   0.93839548  0.62188939  0.52084102
   0.06193432  0.87000256  0.43513941
   0.81323007  0.53207746  0.12324726
   0.43987324  0.45157860  0.34604513