       N       E                     dE             d eps       ncg     rms          rms(c)
DAV:   1     0.303856828412E+05    0.30386E+05   -0.91686E+05 27770   0.213E+03
DAV:   2     0.152166145479E+04   -0.28864E+05   -0.28268E+05 27600   0.616E+02
DAV:   3    -0.189813564719E+04   -0.34198E+04   -0.29720E+04 38490   0.298E+02
DAV:   4    -0.260959606139E+04   -0.71146E+03   -0.64795E+03 50640   0.103E+02
DAV:   5    -0.273958173853E+04   -0.12999E+03   -0.12155E+03 48190   0.423E+01    0.206E+02
RMM:   6    -0.560247953758E+04   -0.28629E+04   -0.11516E+04 48235   0.247E+02    0.628E+02
RMM:   7    -0.358855066123E+04    0.20139E+04   -0.39511E+03 38100   0.106E+02    0.383E+02
RMM:   8    -0.801654614169E+04   -0.44280E+04   -0.12719E+04 45208   0.271E+02    0.822E+02
RMM:   9    -0.813151355248E+04   -0.11497E+03   -0.10331E+04 50096   0.135E+02    0.721E+02
RMM:  10    -0.763470527465E+04    0.49681E+03   -0.63130E+03 43180   0.209E+02    0.543E+02
RMM:  11    -0.746231657275E+04    0.17239E+03   -0.58052E+03 32611   0.168E+02    0.526E+02
RMM:  12    -0.840826682966E+04   -0.94595E+03   -0.62364E+03 35739   0.216E+02    0.502E+02
RMM:  13    -0.649190962546E+04    0.19164E+04   -0.64637E+03 48060   0.147E+02    0.495E+02
RMM:  14    -0.635829004191E+04    0.13362E+03   -0.43689E+03 47777   0.948E+01    0.469E+02
RMM:  15    -0.595210832596E+04    0.40618E+03   -0.32760E+03 47961   0.872E+01    0.440E+02
RMM:  16    -0.499404616529E+04    0.95806E+03   -0.29281E+03 28929   0.108E+02    0.394E+02
RMM:  17    -0.392831833193E+04    0.10657E+04   -0.18654E+03 30565   0.940E+01    0.339E+02
RMM:  18    -0.383983756156E+04    0.88481E+02   -0.19289E+03 35193   0.742E+01    0.325E+02
RMM:  19    -0.276041809048E+04    0.10794E+04   -0.86398E+02 28490   0.604E+01    0.240E+02
RMM:  20    -0.259543910950E+04    0.16498E+03   -0.71792E+02 31366   0.424E+01    0.224E+02
RMM:  21    -0.234974936068E+04    0.24569E+03   -0.10852E+03 41822   0.348E+01    0.122E+02
RMM:  22    -0.234191867052E+04    0.78307E+01   -0.67362E+02 45017   0.229E+01    0.958E+01
RMM:  23    -0.237716727882E+04   -0.35249E+02   -0.42008E+02 39819   0.187E+01    0.941E+01
RMM:  24    -0.236456626873E+04    0.12601E+02   -0.25548E+02 40804   0.123E+01    0.757E+01
RMM:  25    -0.235563420402E+04    0.89321E+01   -0.93451E+01 33357   0.894E+00    0.713E+01
RMM:  26    -0.234230156940E+04    0.13333E+02   -0.38664E+01 39846   0.611E+00    0.640E+01
RMM:  27    -0.235144411013E+04   -0.91425E+01   -0.42078E+01 37271   0.500E+00    0.699E+01
RMM:  28    -0.236404545501E+04   -0.12601E+02   -0.41303E+01 34601   0.597E+00    0.764E+01
RMM:  29    -0.235886152143E+04    0.51839E+01   -0.27028E+01 43790   0.276E+00    0.722E+01
RMM:  30    -0.235588854368E+04    0.29730E+01   -0.62887E+00 30350   0.394E+00    0.735E+01
RMM:  31    -0.234654203601E+04    0.93465E+01   -0.73983E+00 35740   0.335E+00    0.632E+01
RMM:  32    -0.234247921560E+04    0.40628E+01   -0.28459E+00 29201   0.335E+00    0.582E+01
RMM:  33    -0.234349471484E+04   -0.10155E+01   -0.39652E+00 44902   0.797E-01    0.595E+01
RMM:  34    -0.234404918488E+04   -0.55447E+00   -0.16141E+00 29462   0.238E+00    0.596E+01
RMM:  35    -0.234448316213E+04   -0.43398E+00   -0.32829E+00 37429   0.193E+00    0.595E+01
RMM:  36    -0.234348652997E+04    0.99663E+00   -0.12410E+00 30065   0.201E+00    0.582E+01
RMM:  37    -0.234312944335E+04    0.35709E+00   -0.38716E+00 29501   0.372E+00    0.584E+01
RMM:  38    -0.233908786924E+04    0.40416E+01   -0.89897E+00 35254   0.407E+00    0.522E+01
RMM:  39    -0.233484395176E+04    0.42439E+01   -0.51388E+00 33922   0.337E+00    0.438E+01
RMM:  40    -0.233379058447E+04    0.10534E+01   -0.67268E+00 34127   0.357E+00    0.415E+01
RMM:  41    -0.233366534751E+04    0.12524E+00   -0.57686E+00 38674   0.277E+00    0.403E+01
RMM:  42    -0.233228952570E+04    0.13758E+01   -0.30460E+00 39807   0.170E+00    0.371E+01
RMM:  43    -0.233096742724E+04    0.13221E+01   -0.12600E+00 40999   0.966E-01    0.335E+01
RMM:  44    -0.232998541434E+04    0.98201E+00   -0.56299E-01 31570   0.114E+00    0.308E+01
RMM:  45    -0.233004454561E+04   -0.59131E-01   -0.21354E+00 31194   0.236E+00    0.316E+01
RMM:  46    -0.233021276782E+04   -0.16822E+00   -0.23811E+00 32039   0.235E+00    0.315E+01
RMM:  47    -0.232933775736E+04    0.87501E+00   -0.31017E+00 40584   0.185E+00    0.283E+01
RMM:  48    -0.232878328165E+04    0.55448E+00   -0.21895E+00 36120   0.175E+00    0.257E+01
RMM:  49    -0.232888690913E+04   -0.10363E+00   -0.32135E+00 39143   0.209E+00    0.252E+01
RMM:  50    -0.232897460699E+04   -0.87698E-01   -0.22290E+00 39892   0.155E+00    0.255E+01
RMM:  51    -0.234037961068E+04   -0.11405E+02   -0.15081E+01 29679   0.706E+00    0.465E+01
RMM:  52    -0.233873171362E+04    0.16479E+01   -0.13347E+01 33886   0.518E+00    0.431E+01
RMM:  53    -0.233894419471E+04   -0.21248E+00   -0.66323E+00 31659   0.402E+00    0.449E+01
RMM:  54    -0.234234564382E+04   -0.34014E+01   -0.75423E+00 32966   0.361E+00    0.507E+01
RMM:  55    -0.233772038871E+04    0.46253E+01   -0.54936E+00 30944   0.373E+00    0.433E+01
RMM:  56    -0.232987839985E+04    0.78420E+01   -0.47271E+00 28808   0.409E+00    0.276E+01
RMM:  57    -0.232825473173E+04    0.16237E+01   -0.43245E+00 35578   0.278E+00    0.219E+01
RMM:  58    -0.232765869214E+04    0.59604E+00   -0.24414E+00 35330   0.210E+00    0.193E+01
RMM:  59    -0.232725137129E+04    0.40732E+00   -0.19301E+00 35490   0.184E+00    0.167E+01
RMM:  60    -0.232692075897E+04    0.33061E+00   -0.15672E+00 36198   0.163E+00    0.144E+01
RMM:  61    -0.232898254167E+04   -0.20618E+01   -0.42238E+00 33281   0.288E+00    0.239E+01
RMM:  62    -0.232793006536E+04    0.10525E+01   -0.25903E+00 40622   0.175E+00    0.188E+01
RMM:  63    -0.232732395577E+04    0.60611E+00   -0.92128E-01 30078   0.169E+00    0.157E+01
RMM:  64    -0.232692856536E+04    0.39539E+00   -0.93526E-01 28977   0.185E+00    0.131E+01
RMM:  65    -0.232616096579E+04    0.76760E+00   -0.65586E-01 27960   0.165E+00    0.659E+00
RMM:  66    -0.232638700041E+04   -0.22603E+00   -0.84067E-01 30815   0.147E+00    0.929E+00
RMM:  67    -0.232654496550E+04   -0.15797E+00   -0.61597E-01 35531   0.100E+00    0.109E+01
RMM:  68    -0.232672590313E+04   -0.18094E+00   -0.27623E-01 34071   0.698E-01    0.124E+01
RMM:  69    -0.232661980153E+04    0.10610E+00   -0.16099E-01 30537   0.684E-01    0.115E+01
RMM:  70    -0.232630701886E+04    0.31278E+00   -0.11349E-01 28554   0.681E-01    0.832E+00
RMM:  71    -0.232682661241E+04   -0.51959E+00   -0.56938E-01 28259   0.154E+00    0.130E+01
RMM:  72    -0.232619470602E+04    0.63191E+00   -0.20963E-01 27604   0.124E+00    0.671E+00
RMM:  73    -0.232609612341E+04    0.98583E-01   -0.11844E-01 29129   0.662E-01    0.531E+00
RMM:  74    -0.232604714063E+04    0.48983E-01   -0.90308E-02 28501   0.616E-01    0.434E+00
RMM:  75    -0.232600286343E+04    0.44277E-01   -0.59613E-02 29477   0.457E-01    0.332E+00
RMM:  76    -0.232600226406E+04    0.59937E-03   -0.17380E-01 29977   0.712E-01    0.318E+00
RMM:  77    -0.232597233343E+04    0.29931E-01   -0.45685E-02 27868   0.454E-01    0.221E+00
RMM:  78    -0.232597638984E+04   -0.40564E-02   -0.53728E-02 34946   0.294E-01    0.228E+00
RMM:  79    -0.232596785871E+04    0.85311E-02   -0.17557E-02 30836   0.217E-01    0.186E+00
RMM:  80    -0.232596237699E+04    0.54817E-02   -0.15333E-02 32166   0.187E-01    0.154E+00
RMM:  81    -0.232595976710E+04    0.26099E-02   -0.91337E-03 28410   0.195E-01    0.134E+00
RMM:  82    -0.232595684606E+04    0.29210E-02   -0.60972E-03 27842   0.185E-01    0.113E+00
RMM:  83    -0.232595555941E+04    0.12866E-02   -0.72199E-03 30474   0.141E-01    0.958E-01
RMM:  84    -0.232595211351E+04    0.34459E-02   -0.27684E-03 29216   0.102E-01    0.518E-01
RMM:  85    -0.232595212077E+04   -0.72576E-05   -0.35484E-03 35058   0.729E-02    0.473E-01
RMM:  86    -0.232595208906E+04    0.31706E-04   -0.18177E-03 33053   0.605E-02    0.431E-01
RMM:  87    -0.232595217455E+04   -0.85489E-04   -0.93166E-04 30700   0.500E-02    0.437E-01
RMM:  88    -0.232595203301E+04    0.14154E-03   -0.92181E-04 33475   0.404E-02    0.375E-01
RMM:  89    -0.232595216847E+04   -0.13546E-03   -0.51109E-04 30038   0.405E-02    0.385E-01
RMM:  90    -0.232595200821E+04    0.16026E-03   -0.46064E-04 31697   0.324E-02    0.317E-01
RMM:  91    -0.232595192312E+04    0.85087E-04   -0.55567E-04 30138   0.414E-02    0.267E-01
RMM:  92    -0.232595172622E+04    0.19690E-03   -0.21704E-04 28551   0.314E-02    0.169E-01
RMM:  93    -0.232595176391E+04   -0.37685E-04   -0.31246E-04 33491   0.208E-02    0.148E-01
RMM:  94    -0.232595181380E+04   -0.49889E-04   -0.12560E-04 26816   0.178E-02    0.133E-01
RMM:  95    -0.232595181824E+04   -0.44405E-05   -0.82391E-05 23544   0.138E-02
   1 F= -.23259518E+04 E0= -.23231822E+04  d E =-.232595E+04
       N       E                     dE             d eps       ncg     rms          rms(c)
DAV:   1    -0.232595514577E+04   -0.33320E-02   -0.73671E-01 30660   0.903E-01    0.178E-01
RMM:   2    -0.232687191482E+04   -0.91677E+00   -0.43193E-02 30243   0.331E-01    0.132E+01
RMM:   3    -0.232602135203E+04    0.85056E+00   -0.16426E-02 28088   0.263E-01    0.267E+00
RMM:   4    -0.232602057485E+04    0.77718E-03   -0.12406E-02 27725   0.247E-01    0.337E+00
RMM:   5    -0.232602736082E+04   -0.67860E-02   -0.11371E-02 28866   0.190E-01    0.367E+00
RMM:   6    -0.232598434800E+04    0.43013E-01   -0.24595E-02 27851   0.308E-01    0.222E+00
RMM:   7    -0.232600459682E+04   -0.20249E-01   -0.24092E-02 28847   0.276E-01    0.289E+00
RMM:   8    -0.232595853194E+04    0.46065E-01   -0.79565E-03 27603   0.231E-01    0.556E-01
RMM:   9    -0.232595669948E+04    0.18325E-02   -0.27784E-03 28317   0.110E-01    0.403E-01
RMM:  10    -0.232595701769E+04   -0.31821E-03   -0.27731E-03 30109   0.847E-02    0.448E-01
RMM:  11    -0.232595639021E+04    0.62747E-03   -0.11295E-03 28228   0.660E-02    0.281E-01
RMM:  12    -0.232595609274E+04    0.29747E-03   -0.51562E-04 28699   0.421E-02    0.178E-01
RMM:  13    -0.232595601115E+04    0.81599E-04   -0.51039E-04 35956   0.207E-02    0.952E-02
RMM:  14    -0.232595601410E+04   -0.29572E-05   -0.17586E-04 30475   0.186E-02    0.892E-02
RMM:  15    -0.232595601458E+04   -0.47276E-06   -0.82431E-05 23963   0.162E-02
   2 F= -.23259560E+04 E0= -.23231865E+04  d E =-.419634E-02
       N       E                     dE             d eps       ncg     rms          rms(c)
DAV:   1    -0.232595864555E+04   -0.26314E-02   -0.66315E+00 28500   0.271E+00    0.442E-01
RMM:   2    -0.232803242580E+04   -0.20738E+01   -0.21829E-01 29605   0.866E-01    0.195E+01
RMM:   3    -0.232609500621E+04    0.19374E+01   -0.62552E-02 28812   0.510E-01    0.390E+00
RMM:   4    -0.232628175969E+04   -0.18675E+00   -0.41725E-02 31177   0.328E-01    0.761E+00
RMM:   5    -0.232599337250E+04    0.28839E+00   -0.38115E-02 27606   0.437E-01    0.190E+00
RMM:   6    -0.232618361122E+04   -0.19024E+00   -0.10128E-01 31723   0.456E-01    0.627E+00
RMM:   7    -0.232604643388E+04    0.13718E+00   -0.40975E-02 27698   0.416E-01    0.373E+00
RMM:   8    -0.232598586218E+04    0.60572E-01   -0.18774E-02 27851   0.277E-01    0.190E+00
RMM:   9    -0.232596779201E+04    0.18070E-01   -0.97206E-03 27797   0.221E-01    0.750E-01
RMM:  10    -0.232596746487E+04    0.32714E-03   -0.10375E-02 31056   0.158E-01    0.726E-01
RMM:  11    -0.232596953713E+04   -0.20723E-02   -0.94948E-03 32558   0.141E-01    0.922E-01
RMM:  12    -0.232596633618E+04    0.32009E-02   -0.31070E-03 28013   0.111E-01    0.486E-01
RMM:  13    -0.232596513792E+04    0.11983E-02   -0.20011E-03 30415   0.729E-02    0.205E-01
RMM:  14    -0.232596520387E+04   -0.65955E-04   -0.18788E-03 38075   0.440E-02    0.201E-01
RMM:  15    -0.232596523057E+04   -0.26703E-04   -0.86756E-04 32170   0.440E-02    0.199E-01
RMM:  16    -0.232596511122E+04    0.11935E-03   -0.32041E-04 29113   0.345E-02    0.130E-01
RMM:  17    -0.232596511651E+04   -0.52854E-05   -0.37367E-04 35946   0.207E-02    0.123E-01
RMM:  18    -0.232596509411E+04    0.22402E-04   -0.16310E-04 28902   0.228E-02    0.100E-01
RMM:  19    -0.232596505487E+04    0.39234E-04   -0.87569E-05 25433   0.173E-02    0.456E-02
RMM:  20    -0.232596505649E+04   -0.16150E-05   -0.54201E-05 21323   0.957E-03
   3 F= -.23259651E+04 E0= -.23231956E+04  d E =-.132382E-01
       N       E                     dE             d eps       ncg     rms          rms(c)
DAV:   1    -0.232594269229E+04    0.22363E-01   -0.26518E+01 27600   0.542E+00    0.875E-01
RMM:   2    -0.233271178213E+04   -0.67691E+01   -0.81834E-01 29468   0.172E+00    0.351E+01
RMM:   3    -0.232623798703E+04    0.64738E+01   -0.23243E-01 29060   0.972E-01    0.473E+00
RMM:   4    -0.232768151019E+04   -0.14435E+01   -0.13699E-01 27863   0.812E-01    0.178E+01
RMM:   5    -0.232611827371E+04    0.15632E+01   -0.10684E-01 33812   0.490E-01    0.427E+00
RMM:   6    -0.232678117057E+04   -0.66290E+00   -0.32595E-01 29830   0.904E-01    0.120E+01
RMM:   7    -0.232620239794E+04    0.57877E+00   -0.12704E-01 27684   0.765E-01    0.627E+00
RMM:   8    -0.232604754258E+04    0.15486E+00   -0.62358E-02 27912   0.500E-01    0.375E+00
RMM:   9    -0.232597875027E+04    0.68792E-01   -0.33990E-02 27771   0.421E-01    0.137E+00
RMM:  10    -0.232598152156E+04   -0.27713E-02   -0.39869E-02 29595   0.343E-01    0.155E+00
RMM:  11    -0.232597701049E+04    0.45111E-02   -0.20265E-02 28766   0.273E-01    0.124E+00
RMM:  12    -0.232597180212E+04    0.52084E-02   -0.10367E-02 29444   0.179E-01    0.769E-01
RMM:  13    -0.232596953304E+04    0.22691E-02   -0.66928E-03 33352   0.101E-01    0.385E-01
RMM:  14    -0.232596977169E+04   -0.23865E-03   -0.44412E-03 34393   0.857E-02    0.407E-01
RMM:  15    -0.232596974676E+04    0.24930E-04   -0.27458E-03 31154   0.849E-02    0.377E-01
RMM:  16    -0.232596926336E+04    0.48340E-03   -0.10282E-03 28459   0.688E-02    0.245E-01
RMM:  17    -0.232596926664E+04   -0.32849E-05   -0.12438E-03 35964   0.419E-02    0.229E-01
RMM:  18    -0.232596922208E+04    0.44566E-04   -0.77753E-04 30703   0.458E-02    0.200E-01
RMM:  19    -0.232596906418E+04    0.15790E-03   -0.37271E-04 29470   0.361E-02    0.101E-01
RMM:  20    -0.232596907545E+04   -0.11273E-04   -0.43239E-04 36234   0.174E-02    0.885E-02
RMM:  21    -0.232596907094E+04    0.45119E-05   -0.12919E-04 28375   0.177E-02    0.773E-02
RMM:  22    -0.232596904607E+04    0.24874E-04   -0.58903E-05 22122   0.145E-02    0.398E-02
RMM:  23    -0.232596904688E+04   -0.81223E-06   -0.37669E-05 19919   0.854E-03
   4 F= -.23259690E+04 E0= -.23231997E+04  d E =-.172286E-01
       N       E                     dE             d eps       ncg     rms          rms(c)
DAV:   1    -0.232596749915E+04    0.15469E-02   -0.24814E+00 28400   0.166E+00    0.268E-01
RMM:   2    -0.232677400693E+04   -0.80651E+00   -0.85185E-02 29801   0.528E-01    0.122E+01
RMM:   3    -0.232600092890E+04    0.77308E+00   -0.23580E-02 28546   0.322E-01    0.160E+00
RMM:   4    -0.232620146368E+04   -0.20053E+00   -0.15498E-02 29571   0.222E-01    0.654E+00
RMM:   5    -0.232598413951E+04    0.21732E+00   -0.11985E-02 27658   0.232E-01    0.118E+00
RMM:   6    -0.232603120562E+04   -0.47066E-01   -0.38123E-02 30119   0.308E-01    0.323E+00
RMM:   7    -0.232598129986E+04    0.49906E-01   -0.12477E-02 27631   0.244E-01    0.139E+00
RMM:   8    -0.232597876651E+04    0.25333E-02   -0.60224E-03 28112   0.167E-01    0.129E+00
RMM:   9    -0.232597220416E+04    0.65624E-02   -0.31304E-03 30300   0.863E-02    0.665E-01
RMM:  10    -0.232597102194E+04    0.11822E-02   -0.26909E-03 28599   0.984E-02    0.473E-01
RMM:  11    -0.232597055975E+04    0.46219E-03   -0.20925E-03 29493   0.818E-02    0.368E-01
RMM:  12    -0.232597005467E+04    0.50508E-03   -0.68812E-04 27850   0.604E-02    0.232E-01
RMM:  13    -0.232596988197E+04    0.17270E-03   -0.62737E-04 33654   0.285E-02    0.132E-01
RMM:  14    -0.232596989093E+04   -0.89577E-05   -0.32619E-04 32598   0.256E-02    0.132E-01
RMM:  15    -0.232596987648E+04    0.14453E-04   -0.26118E-04 30424   0.266E-02    0.111E-01
RMM:  16    -0.232596984003E+04    0.36444E-04   -0.99100E-05 26242   0.219E-02    0.830E-02
RMM:  17    -0.232596983523E+04    0.48014E-05   -0.71383E-05 23057   0.120E-02
   5 F= -.23259698E+04 E0= -.23232004E+04  d E =-.180170E-01
       N       E                     dE             d eps       ncg     rms          rms(c)
DAV:   1    -0.232597285030E+04   -0.30103E-02   -0.16804E+00 28160   0.136E+00    0.211E-01
RMM:   2    -0.232652884551E+04   -0.55600E+00   -0.51641E-02 29462   0.428E-01    0.101E+01
RMM:   3    -0.232600520906E+04    0.52364E+00   -0.14358E-02 28389   0.257E-01    0.180E+00
RMM:   4    -0.232602511863E+04   -0.19910E-01   -0.76656E-03 29929   0.157E-01    0.304E+00
RMM:   5    -0.232598249885E+04    0.42620E-01   -0.11717E-02 27605   0.242E-01    0.113E+00
RMM:   6    -0.232603497949E+04   -0.52481E-01   -0.25074E-02 34191   0.212E-01    0.340E+00
RMM:   7    -0.232598542332E+04    0.49556E-01   -0.89852E-03 27617   0.204E-01    0.132E+00
RMM:   8    -0.232597914968E+04    0.62736E-02   -0.46035E-03 28049   0.138E-01    0.910E-01
RMM:   9    -0.232597499792E+04    0.41518E-02   -0.23545E-03 27965   0.101E-01    0.384E-01
RMM:  10    -0.232597507560E+04   -0.77677E-04   -0.24432E-03 32833   0.715E-02    0.390E-01
RMM:  11    -0.232597537814E+04   -0.30254E-03   -0.23001E-03 32774   0.680E-02    0.451E-01
RMM:  12    -0.232597442562E+04    0.95252E-03   -0.61417E-04 27631   0.565E-02    0.156E-01
RMM:  13    -0.232597433909E+04    0.86521E-04   -0.45766E-04 34712   0.254E-02    0.927E-02
RMM:  14    -0.232597436430E+04   -0.25209E-04   -0.27800E-04 33361   0.203E-02    0.106E-01
RMM:  15    -0.232597432885E+04    0.35452E-04   -0.11932E-04 27336   0.187E-02    0.670E-02
RMM:  16    -0.232597431246E+04    0.16394E-04   -0.52522E-05 21706   0.139E-02    0.393E-02
RMM:  17    -0.232597431696E+04   -0.45046E-05   -0.34848E-05 18928   0.112E-02
   6 F= -.23259743E+04 E0= -.23232052E+04  d E =-.448173E-02
       N       E                     dE             d eps       ncg     rms          rms(c)
DAV:   1    -0.232597059145E+04    0.37210E-02   -0.15126E+01 27600   0.408E+00    0.640E-01
RMM:   2    -0.233138528097E+04   -0.54147E+01   -0.52487E-01 29582   0.135E+00    0.315E+01
RMM:   3    -0.232614001681E+04    0.52453E+01   -0.14192E-01 28006   0.838E-01    0.261E+00
RMM:   4    -0.232766671585E+04   -0.15267E+01   -0.13555E-01 29298   0.679E-01    0.176E+01
RMM:   5    -0.232617975935E+04    0.14870E+01   -0.10244E-01 32900   0.494E-01    0.538E+00
RMM:   6    -0.232651104194E+04   -0.33128E+00   -0.18810E-01 30375   0.680E-01    0.101E+01
RMM:   7    -0.232613295327E+04    0.37809E+00   -0.95602E-02 27626   0.676E-01    0.511E+00
RMM:   8    -0.232601520940E+04    0.11774E+00   -0.41458E-02 27893   0.443E-01    0.217E+00
RMM:   9    -0.232599904386E+04    0.16166E-01   -0.31243E-02 27913   0.367E-01    0.162E+00
RMM:  10    -0.232599617293E+04    0.28709E-02   -0.31560E-02 28599   0.336E-01    0.146E+00
RMM:  11    -0.232598698178E+04    0.91911E-02   -0.11347E-02 27842   0.255E-01    0.802E-01
RMM:  12    -0.232598456048E+04    0.24213E-02   -0.56773E-03 31082   0.114E-01    0.449E-01
RMM:  13    -0.232598404754E+04    0.51294E-03   -0.41030E-03 36005   0.702E-02    0.268E-01
RMM:  14    -0.232598423790E+04   -0.19036E-03   -0.23867E-03 31993   0.727E-02    0.299E-01
RMM:  15    -0.232598415406E+04    0.83839E-04   -0.12850E-03 30807   0.599E-02    0.263E-01
RMM:  16    -0.232598396056E+04    0.19350E-03   -0.64120E-04 30118   0.454E-02    0.175E-01
RMM:  17    -0.232598398300E+04   -0.22439E-04   -0.71431E-04 33221   0.370E-02    0.174E-01
RMM:  18    -0.232598404884E+04   -0.65840E-04   -0.34250E-04 28997   0.354E-02    0.207E-01
RMM:  19    -0.232598402549E+04    0.23355E-04   -0.22715E-04 30066   0.247E-02    0.190E-01
RMM:  20    -0.232598398374E+04    0.41744E-04   -0.25774E-04 32658   0.214E-02    0.157E-01
RMM:  21    -0.232598387555E+04    0.10820E-03   -0.84318E-05 24500   0.176E-02    0.652E-02
RMM:  22    -0.232598386620E+04    0.93420E-05   -0.50035E-05 20789   0.973E-03
   7 F= -.23259839E+04 E0= -.23232156E+04  d E =-.140310E-01
       N       E                     dE             d eps       ncg     rms          rms(c)
DAV:   1    -0.232592843249E+04    0.55443E-01   -0.60474E+01 27600   0.816E+00    0.133E+00
RMM:   2    -0.234645332470E+04   -0.20525E+02   -0.22417E+00 29674   0.283E+00    0.610E+01
RMM:   3    -0.232652433977E+04    0.19929E+02   -0.57027E-01 28134   0.165E+00    0.541E+00
RMM:   4    -0.233168404713E+04   -0.51597E+01   -0.51524E-01 29013   0.141E+00    0.325E+01
RMM:   5    -0.232660293488E+04    0.50811E+01   -0.42882E-01 36612   0.871E-01    0.935E+00
RMM:   6    -0.232720865190E+04   -0.60572E+00   -0.64455E-01 28392   0.146E+00    0.150E+01
RMM:   7    -0.232616827852E+04    0.10404E+01   -0.23366E-01 27631   0.113E+00    0.521E+00
RMM:   8    -0.232625434123E+04   -0.86063E-01   -0.13007E-01 28551   0.700E-01    0.726E+00
RMM:   9    -0.232611167102E+04    0.14267E+00   -0.13654E-01 31259   0.594E-01    0.470E+00
RMM:  10    -0.232604099751E+04    0.70674E-01   -0.10779E-01 28005   0.657E-01    0.302E+00
RMM:  11    -0.232600421830E+04    0.36779E-01   -0.45023E-02 27889   0.487E-01    0.190E+00
RMM:  12    -0.232598979702E+04    0.14421E-01   -0.23610E-02 30080   0.250E-01    0.104E+00
RMM:  13    -0.232598675401E+04    0.30430E-02   -0.16792E-02 32765   0.172E-01    0.650E-01
RMM:  14    -0.232598752552E+04   -0.77151E-03   -0.13136E-02 33516   0.157E-01    0.677E-01
RMM:  15    -0.232598619109E+04    0.13344E-02   -0.42480E-03 29082   0.124E-01    0.485E-01
RMM:  16    -0.232598575501E+04    0.43608E-03   -0.33011E-03 32481   0.837E-02    0.354E-01
RMM:  17    -0.232598613373E+04   -0.37872E-03   -0.35693E-03 33332   0.836E-02    0.407E-01
RMM:  18    -0.232598562759E+04    0.50615E-03   -0.14456E-03 29506   0.717E-02    0.255E-01
RMM:  19    -0.232598553676E+04    0.90825E-04   -0.13182E-03 34618   0.450E-02    0.186E-01
RMM:  20    -0.232598564009E+04   -0.10333E-03   -0.86041E-04 32255   0.441E-02    0.214E-01
RMM:  21    -0.232598555114E+04    0.88943E-04   -0.34552E-04 29214   0.361E-02    0.172E-01
RMM:  22    -0.232598553374E+04    0.17405E-04   -0.39061E-04 35089   0.196E-02    0.148E-01
RMM:  23    -0.232598549961E+04    0.34134E-04   -0.20134E-04 30992   0.186E-02    0.112E-01
RMM:  24    -0.232598544699E+04    0.52618E-04   -0.86524E-05 24385   0.160E-02    0.531E-02
RMM:  25    -0.232598544211E+04    0.48727E-05   -0.47109E-05 20503   0.994E-03
   8 F= -.23259854E+04 E0= -.23232191E+04  d E =-.156069E-01
       N       E                     dE             d eps       ncg     rms          rms(c)
DAV:   1    -0.232597628455E+04    0.91624E-02   -0.13007E+01 27600   0.378E+00    0.587E-01
RMM:   2    -0.233105893763E+04   -0.50827E+01   -0.45814E-01 29881   0.122E+00    0.301E+01
RMM:   3    -0.232609986317E+04    0.49591E+01   -0.12079E-01 27899   0.787E-01    0.184E+00
RMM:   4    -0.232763349838E+04   -0.15336E+01   -0.11332E-01 29166   0.633E-01    0.176E+01
RMM:   5    -0.232619028698E+04    0.14432E+01   -0.12939E-01 35965   0.483E-01    0.531E+00
RMM:   6    -0.232640474165E+04   -0.21445E+00   -0.14106E-01 28437   0.700E-01    0.870E+00
RMM:   7    -0.232612582007E+04    0.27892E+00   -0.75430E-02 27635   0.608E-01    0.494E+00
RMM:   8    -0.232601627687E+04    0.10954E+00   -0.36554E-02 28351   0.385E-01    0.221E+00
RMM:   9    -0.232601533238E+04    0.94449E-03   -0.38706E-02 27902   0.396E-01    0.212E+00
RMM:  10    -0.232599872777E+04    0.16605E-01   -0.25538E-02 28281   0.322E-01    0.138E+00
RMM:  11    -0.232598933334E+04    0.93944E-02   -0.84548E-03 27668   0.230E-01    0.641E-01
RMM:  12    -0.232598865385E+04    0.67949E-03   -0.56203E-03 33546   0.945E-02    0.512E-01
RMM:  13    -0.232598859618E+04    0.57661E-04   -0.34995E-03 38192   0.630E-02    0.477E-01
RMM:  14    -0.232598801975E+04    0.57643E-03   -0.18163E-03 30750   0.687E-02    0.301E-01
RMM:  15    -0.232598771553E+04    0.30422E-03   -0.88311E-04 29614   0.551E-02    0.200E-01
RMM:  16    -0.232598768722E+04    0.28312E-04   -0.73817E-04 31807   0.397E-02    0.170E-01
RMM:  17    -0.232598776752E+04   -0.80305E-04   -0.65573E-04 32034   0.387E-02    0.196E-01
RMM:  18    -0.232598770833E+04    0.59192E-04   -0.21481E-04 27767   0.324E-02    0.167E-01
RMM:  19    -0.232598769967E+04    0.86592E-05   -0.20701E-04 29982   0.237E-02    0.160E-01
RMM:  20    -0.232598768419E+04    0.15485E-04   -0.22275E-04 30773   0.238E-02    0.143E-01
RMM:  21    -0.232598761509E+04    0.69099E-04   -0.78008E-05 24211   0.185E-02    0.874E-02
RMM:  22    -0.232598760538E+04    0.97037E-05   -0.57740E-05 21642   0.950E-03
   9 F= -.23259876E+04 E0= -.23232205E+04  d E =-.177702E-01
       N       E                     dE             d eps       ncg     rms          rms(c)
DAV:   1    -0.232598905049E+04   -0.14354E-02   -0.81498E+00 27600   0.299E+00    0.540E-01
RMM:   2    -0.233070439045E+04   -0.47153E+01   -0.52596E-01 30739   0.118E+00    0.297E+01
RMM:   3    -0.232618714143E+04    0.45172E+01   -0.12947E-01 27820   0.793E-01    0.398E+00
RMM:   4    -0.232636054057E+04   -0.17340E+00   -0.73382E-02 28347   0.583E-01    0.814E+00
RMM:   5    -0.232622895360E+04    0.13159E+00   -0.81270E-02 39153   0.285E-01    0.640E+00
RMM:   6    -0.232615239909E+04    0.76555E-01   -0.11662E-01 28177   0.634E-01    0.510E+00
RMM:   7    -0.232602981291E+04    0.12259E+00   -0.51959E-02 27611   0.543E-01    0.235E+00
RMM:   8    -0.232603885045E+04   -0.90375E-02   -0.19032E-02 27827   0.311E-01    0.293E+00
RMM:   9    -0.232599888543E+04    0.39965E-01   -0.88252E-03 28096   0.190E-01    0.763E-01
RMM:  10    -0.232600050157E+04   -0.16161E-02   -0.14130E-02 29269   0.211E-01    0.102E+00
RMM:  11    -0.232599729281E+04    0.32088E-02   -0.54996E-03 28156   0.159E-01    0.662E-01
RMM:  12    -0.232599559060E+04    0.17022E-02   -0.31132E-03 30279   0.889E-02    0.352E-01
RMM:  13    -0.232599518698E+04    0.40361E-03   -0.21627E-03 33696   0.545E-02    0.167E-01
RMM:  14    -0.232599531829E+04   -0.13131E-03   -0.14163E-03 33980   0.492E-02    0.206E-01
RMM:  15    -0.232599524866E+04    0.69628E-04   -0.54096E-04 30207   0.410E-02    0.165E-01
RMM:  16    -0.232599519721E+04    0.51452E-04   -0.32440E-04 30651   0.291E-02    0.125E-01
RMM:  17    -0.232599521886E+04   -0.21646E-04   -0.35845E-04 32269   0.271E-02    0.127E-01
RMM:  18    -0.232599520197E+04    0.16889E-04   -0.19697E-04 29282   0.253E-02    0.108E-01
RMM:  19    -0.232599517503E+04    0.26934E-04   -0.10182E-04 26049   0.175E-02    0.803E-02
RMM:  20    -0.232599517334E+04    0.16991E-05   -0.66521E-05 22685   0.934E-03
  10 F= -.23259952E+04 E0= -.23232278E+04  d E =-.756795E-02
       N       E                     dE             d eps       ncg     rms          rms(c)
DAV:   1    -0.232598683203E+04    0.83430E-02   -0.20710E+01 27600   0.476E+00    0.823E-01
RMM:   2    -0.233502480444E+04   -0.90380E+01   -0.10720E+00 30423   0.177E+00    0.409E+01
RMM:   3    -0.232636842397E+04    0.86564E+01   -0.26127E-01 27998   0.110E+00    0.568E+00
RMM:   4    -0.232638429714E+04   -0.15873E-01   -0.14588E-01 28199   0.844E-01    0.823E+00
RMM:   5    -0.232683862160E+04   -0.45432E+00   -0.16758E-01 40369   0.389E-01    0.124E+01
RMM:   6    -0.232632665078E+04    0.51197E+00   -0.21899E-01 28276   0.851E-01    0.725E+00
RMM:   7    -0.232613591907E+04    0.19073E+00   -0.11837E-01 27622   0.782E-01    0.476E+00
RMM:   8    -0.232612767283E+04    0.82462E-02   -0.47204E-02 27989   0.444E-01    0.483E+00
RMM:   9    -0.232601110355E+04    0.11657E+00   -0.27217E-02 27661   0.385E-01    0.106E+00
RMM:  10    -0.232602150365E+04   -0.10400E-01   -0.35856E-02 28992   0.346E-01    0.188E+00
RMM:  11    -0.232601517291E+04    0.63307E-02   -0.18411E-02 28628   0.262E-01    0.150E+00
RMM:  12    -0.232600430974E+04    0.10863E-01   -0.73174E-03 28390   0.179E-01    0.542E-01
RMM:  13    -0.232600356070E+04    0.74904E-03   -0.72277E-03 33726   0.962E-02    0.349E-01
RMM:  14    -0.232600372558E+04   -0.16488E-03   -0.40157E-03 34976   0.786E-02    0.348E-01
RMM:  15    -0.232600336621E+04    0.35937E-03   -0.12972E-03 30054   0.643E-02    0.230E-01
RMM:  16    -0.232600328140E+04    0.84814E-04   -0.89233E-04 32415   0.428E-02    0.175E-01
RMM:  17    -0.232600337545E+04   -0.94057E-04   -0.90014E-04 33119   0.417E-02    0.197E-01
RMM:  18    -0.232600330075E+04    0.74702E-04   -0.39562E-04 29686   0.371E-02    0.147E-01
RMM:  19    -0.232600324064E+04    0.60110E-04   -0.23756E-04 30322   0.249E-02    0.957E-02
RMM:  20    -0.232600325915E+04   -0.18505E-04   -0.24820E-04 32381   0.179E-02    0.997E-02
RMM:  21    -0.232600324322E+04    0.15926E-04   -0.11415E-04 27178   0.174E-02    0.780E-02
RMM:  22    -0.232600322971E+04    0.13510E-04   -0.53147E-05 21333   0.112E-02    0.562E-02
RMM:  23    -0.232600322802E+04    0.16905E-05   -0.33382E-05 19186   0.837E-03
  11 F= -.23260032E+04 E0= -.23232359E+04  d E =-.156226E-01
       N       E                     dE             d eps       ncg     rms          rms(c)
DAV:   1    -0.232593238873E+04    0.70841E-01   -0.82784E+01 27600   0.954E+00    0.176E+00
RMM:   2    -0.236878798913E+04   -0.42856E+02   -0.71802E+00 31284   0.405E+00    0.889E+01
RMM:   3    -0.232742815649E+04    0.41360E+02   -0.12945E+00 28013   0.240E+00    0.120E+01
RMM:   4    -0.232754370150E+04   -0.11555E+00   -0.79299E-01 28902   0.175E+00    0.166E+01
RMM:   5    -0.233111970209E+04   -0.35760E+01   -0.10547E+00 40818   0.880E-01    0.306E+01
RMM:   6    -0.232742753852E+04    0.36922E+01   -0.97689E-01 27988   0.186E+00    0.152E+01
RMM:   7    -0.232652202301E+04    0.90552E+00   -0.51749E-01 27606   0.169E+00    0.927E+00
RMM:   8    -0.232673868256E+04   -0.21666E+00   -0.33330E-01 29186   0.102E+00    0.119E+01
RMM:   9    -0.232609728594E+04    0.64140E+00   -0.14599E-01 27743   0.834E-01    0.384E+00
RMM:  10    -0.232609837939E+04   -0.10935E-02   -0.17758E-01 28293   0.811E-01    0.420E+00
RMM:  11    -0.232605541810E+04    0.42961E-01   -0.87653E-02 28503   0.603E-01    0.323E+00
RMM:  12    -0.232602639119E+04    0.29027E-01   -0.50799E-02 30097   0.360E-01    0.219E+00
RMM:  13    -0.232601616524E+04    0.10226E-01   -0.42316E-02 32544   0.271E-01    0.158E+00
RMM:  14    -0.232600752303E+04    0.86422E-02   -0.21665E-02 32696   0.198E-01    0.849E-01
RMM:  15    -0.232600620841E+04    0.13146E-02   -0.10246E-02 32690   0.138E-01    0.692E-01
RMM:  16    -0.232600584709E+04    0.36133E-03   -0.65618E-03 36093   0.901E-02    0.592E-01
RMM:  17    -0.232600478030E+04    0.10668E-02   -0.20916E-03 31384   0.722E-02    0.372E-01
RMM:  18    -0.232600467423E+04    0.10607E-03   -0.14204E-03 30707   0.644E-02    0.328E-01
RMM:  19    -0.232600475139E+04   -0.77158E-04   -0.18151E-03 30978   0.697E-02    0.320E-01
RMM:  20    -0.232600452572E+04    0.22567E-03   -0.95793E-04 28834   0.640E-02    0.240E-01
RMM:  21    -0.232600439327E+04    0.13245E-03   -0.66160E-04 30859   0.421E-02    0.178E-01
RMM:  22    -0.232600444475E+04   -0.51474E-04   -0.74178E-04 37176   0.276E-02    0.180E-01
RMM:  23    -0.232600439360E+04    0.51146E-04   -0.25691E-04 31782   0.212E-02    0.139E-01
RMM:  24    -0.232600436546E+04    0.28143E-04   -0.12214E-04 26086   0.150E-02    0.113E-01
RMM:  25    -0.232600435245E+04    0.13010E-04   -0.84640E-05 24322   0.128E-02    0.938E-02
RMM:  26    -0.232600432556E+04    0.26891E-04   -0.53318E-05 22032   0.137E-02    0.444E-02
RMM:  27    -0.232600432405E+04    0.15082E-05   -0.28152E-05 18599   0.923E-03
  12 F= -.23260043E+04 E0= -.23232370E+04  d E =-.167187E-01
       N       E                     dE             d eps       ncg     rms          rms(c)
DAV:   1    -0.232599157415E+04    0.12751E-01   -0.18782E+01 27600   0.454E+00    0.789E-01
RMM:   2    -0.233465972792E+04   -0.86682E+01   -0.78148E-01 29882   0.159E+00    0.387E+01
RMM:   3    -0.232631756604E+04    0.83422E+01   -0.23015E-01 27900   0.105E+00    0.556E+00
RMM:   4    -0.232637838619E+04   -0.60820E-01   -0.13066E-01 27775   0.781E-01    0.821E+00
RMM:   5    -0.232675171561E+04   -0.37333E+00   -0.15833E-01 40300   0.370E-01    0.117E+01
RMM:   6    -0.232627536031E+04    0.47636E+00   -0.20226E-01 28504   0.837E-01    0.662E+00
RMM:   7    -0.232616551990E+04    0.10984E+00   -0.11011E-01 27615   0.751E-01    0.537E+00
RMM:   8    -0.232609010113E+04    0.75419E-01   -0.43588E-02 28177   0.401E-01    0.392E+00
RMM:   9    -0.232601825124E+04    0.71850E-01   -0.27758E-02 27657   0.390E-01    0.129E+00
RMM:  10    -0.232602136457E+04   -0.31133E-02   -0.31692E-02 29219   0.322E-01    0.168E+00
RMM:  11    -0.232601629700E+04    0.50676E-02   -0.14261E-02 28039   0.244E-01    0.136E+00
RMM:  12    -0.232600717201E+04    0.91250E-02   -0.50807E-03 28167   0.154E-01    0.458E-01
RMM:  13    -0.232600642037E+04    0.75163E-03   -0.47549E-03 32369   0.860E-02    0.254E-01
RMM:  14    -0.232600683800E+04   -0.41763E-03   -0.33517E-03 34310   0.754E-02    0.341E-01
RMM:  15    -0.232600651981E+04    0.31820E-03   -0.11787E-03 29675   0.632E-02    0.239E-01
RMM:  16    -0.232600652734E+04   -0.75282E-05   -0.10303E-03 33686   0.416E-02    0.224E-01
RMM:  17    -0.232600652095E+04    0.63863E-05   -0.71347E-04 31861   0.402E-02    0.207E-01
RMM:  18    -0.232600637472E+04    0.14623E-03   -0.26873E-04 29074   0.324E-02    0.125E-01
RMM:  19    -0.232600635228E+04    0.22439E-04   -0.24064E-04 31027   0.199E-02    0.958E-02
RMM:  20    -0.232600635670E+04   -0.44180E-05   -0.17533E-04 30239   0.181E-02    0.914E-02
RMM:  21    -0.232600635075E+04    0.59541E-05   -0.70063E-05 22946   0.145E-02
  13 F= -.23260064E+04 E0= -.23232391E+04  d E =-.187454E-01
       N       E                     dE             d eps       ncg     rms          rms(c)
DAV:   1    -0.232600678235E+04   -0.42565E-03   -0.10966E+01 27600   0.346E+00    0.685E-01
RMM:   2    -0.233316031177E+04   -0.71535E+01   -0.90077E-01 31069   0.150E+00    0.366E+01
RMM:   3    -0.232636489136E+04    0.67954E+01   -0.21214E-01 27927   0.991E-01    0.598E+00
RMM:   4    -0.232653308213E+04   -0.16819E+00   -0.11932E-01 28356   0.741E-01    0.967E+00
RMM:   5    -0.232634129792E+04    0.19178E+00   -0.11252E-01 38415   0.343E-01    0.755E+00
RMM:   6    -0.232623037465E+04    0.11092E+00   -0.15906E-01 28292   0.738E-01    0.605E+00
RMM:   7    -0.232646629896E+04   -0.23592E+00   -0.13582E-01 28340   0.694E-01    0.934E+00
RMM:   8    -0.232606766651E+04    0.39863E+00   -0.48908E-02 27624   0.502E-01    0.265E+00
RMM:   9    -0.232601857622E+04    0.49090E-01   -0.23284E-02 27656   0.373E-01    0.868E-01
RMM:  10    -0.232601757018E+04    0.10060E-02   -0.20557E-02 28791   0.276E-01    0.804E-01
RMM:  11    -0.232601737094E+04    0.19924E-03   -0.11938E-02 29900   0.188E-01    0.797E-01
RMM:  12    -0.232601540362E+04    0.19673E-02   -0.52387E-03 30809   0.113E-01    0.507E-01
RMM:  13    -0.232601492976E+04    0.47386E-03   -0.41973E-03 37222   0.636E-02    0.358E-01
RMM:  14    -0.232601487217E+04    0.57587E-04   -0.18231E-03 32504   0.592E-02    0.327E-01
RMM:  15    -0.232601453828E+04    0.33389E-03   -0.86758E-04 30903   0.497E-02    0.204E-01
RMM:  16    -0.232601443923E+04    0.99047E-04   -0.41819E-04 30550   0.351E-02    0.155E-01
RMM:  17    -0.232601445286E+04   -0.13627E-04   -0.46037E-04 33630   0.286E-02    0.149E-01
RMM:  18    -0.232601443935E+04    0.13512E-04   -0.23075E-04 29986   0.259E-02    0.128E-01
RMM:  19    -0.232601439577E+04    0.43580E-04   -0.97934E-05 26079   0.202E-02    0.939E-02
RMM:  20    -0.232601440218E+04   -0.64133E-05   -0.10384E-04 25008   0.140E-02    0.952E-02
RMM:  21    -0.232601438451E+04    0.17675E-04   -0.48800E-05 21060   0.143E-02    0.687E-02
RMM:  22    -0.232601437336E+04    0.11144E-04   -0.21712E-05 17495   0.960E-03    0.522E-02
RMM:  23    -0.232601437026E+04    0.30987E-05   -0.18699E-05 17607   0.733E-03
  14 F= -.23260144E+04 E0= -.23232481E+04  d E =-.801952E-02
       N       E                     dE             d eps       ncg     rms          rms(c)
DAV:   1    -0.232597505218E+04    0.39321E-01   -0.66735E+01 27600   0.854E+00    0.165E+00
RMM:   2    -0.235602049147E+04   -0.30045E+02   -0.51761E+00 30983   0.368E+00    0.749E+01
RMM:   3    -0.232764697197E+04    0.28374E+02   -0.10666E+00 28472   0.209E+00    0.143E+01
RMM:   4    -0.232717431709E+04    0.47265E+00   -0.55267E-01 28308   0.159E+00    0.142E+01
RMM:   5    -0.232895825163E+04   -0.17839E+01   -0.63093E-01 40094   0.722E-01    0.231E+01
RMM:   6    -0.232689609259E+04    0.20622E+01   -0.63766E-01 27992   0.151E+00    0.117E+01
RMM:   7    -0.232649058654E+04    0.40551E+00   -0.39590E-01 27610   0.144E+00    0.891E+00
RMM:   8    -0.232658080630E+04   -0.90220E-01   -0.19301E-01 28198   0.866E-01    0.102E+01
RMM:   9    -0.232611455946E+04    0.46625E+00   -0.85694E-02 27669   0.678E-01    0.369E+00
RMM:  10    -0.232606520802E+04    0.49351E-01   -0.94511E-02 27841   0.664E-01    0.254E+00
RMM:  11    -0.232608835020E+04   -0.23142E-01   -0.89670E-02 29975   0.468E-01    0.342E+00
RMM:  12    -0.232604819672E+04    0.40153E-01   -0.28572E-02 28140   0.362E-01    0.198E+00
RMM:  13    -0.232603942954E+04    0.87672E-02   -0.29344E-02 31307   0.256E-01    0.153E+00
RMM:  14    -0.232603292492E+04    0.65046E-02   -0.16868E-02 32026   0.182E-01    0.928E-01
RMM:  15    -0.232602983926E+04    0.30857E-02   -0.73089E-03 31335   0.131E-01    0.571E-01
RMM:  16    -0.232602935443E+04    0.48483E-03   -0.53983E-03 35551   0.789E-02    0.456E-01
RMM:  17    -0.232602870500E+04    0.64943E-03   -0.21552E-03 32773   0.653E-02    0.261E-01
RMM:  18    -0.232602849906E+04    0.20594E-03   -0.10134E-03 30790   0.539E-02    0.170E-01
RMM:  19    -0.232602868519E+04   -0.18613E-03   -0.12079E-03 32701   0.492E-02    0.233E-01
RMM:  20    -0.232602870720E+04   -0.22009E-04   -0.72191E-04 30526   0.455E-02    0.223E-01
RMM:  21    -0.232602850600E+04    0.20120E-03   -0.28095E-04 28823   0.359E-02    0.116E-01
RMM:  22    -0.232602852960E+04   -0.23607E-04   -0.38999E-04 34247   0.204E-02    0.115E-01
RMM:  23    -0.232602853608E+04   -0.64818E-05   -0.19592E-04 30469   0.183E-02    0.107E-01
RMM:  24    -0.232602851346E+04    0.22622E-04   -0.74464E-05 23016   0.129E-02    0.791E-02
RMM:  25    -0.232602850827E+04    0.51882E-05   -0.40719E-05 20004   0.893E-03
  15 F= -.23260285E+04 E0= -.23232648E+04  d E =-.221575E-01
       N       E                     dE             d eps       ncg     rms          rms(c)
DAV:   1    -0.232575575277E+04    0.27276E+00   -0.26655E+02 27600   0.171E+01    0.360E+00
RMM:   2    -0.245045049423E+04   -0.12469E+03   -0.41247E+01 32434   0.886E+00    0.136E+02
RMM:   3    -0.233286936900E+04    0.11758E+03   -0.53558E+00 28924   0.437E+00    0.322E+01
RMM:   4    -0.232972556460E+04    0.31438E+01   -0.28460E+00 28588   0.314E+00    0.251E+01
RMM:   5    -0.234053753433E+04   -0.10812E+02   -0.38201E+00 41294   0.151E+00    0.509E+01
RMM:   6    -0.232886722858E+04    0.11670E+02   -0.22281E+00 27849   0.288E+00    0.211E+01
RMM:   7    -0.232820762280E+04    0.65961E+00   -0.14750E+00 27610   0.278E+00    0.192E+01
RMM:   8    -0.232708705829E+04    0.11206E+01   -0.76020E-01 27607   0.214E+00    0.137E+01
RMM:   9    -0.232692689544E+04    0.16016E+00   -0.39761E-01 27745   0.140E+00    0.131E+01
RMM:  10    -0.232661523161E+04    0.31166E+00   -0.47603E-01 31691   0.907E-01    0.102E+01
RMM:  11    -0.232632284281E+04    0.29239E+00   -0.31112E-01 30182   0.910E-01    0.728E+00
RMM:  12    -0.232617028600E+04    0.15256E+00   -0.19146E-01 28386   0.853E-01    0.527E+00
RMM:  13    -0.232608029311E+04    0.89993E-01   -0.16145E-01 29854   0.672E-01    0.317E+00
RMM:  14    -0.232606044220E+04    0.19851E-01   -0.97457E-02 31888   0.443E-01    0.231E+00
RMM:  15    -0.232605113490E+04    0.93073E-02   -0.62317E-02 36163   0.269E-01    0.191E+00
RMM:  16    -0.232603673515E+04    0.14400E-01   -0.20216E-02 31658   0.216E-01    0.105E+00
RMM:  17    -0.232603278957E+04    0.39456E-02   -0.96200E-03 30990   0.162E-01    0.603E-01
RMM:  18    -0.232603286013E+04   -0.70563E-04   -0.90378E-03 33354   0.130E-01    0.554E-01
RMM:  19    -0.232603406925E+04   -0.12091E-02   -0.74956E-03 32651   0.127E-01    0.703E-01
RMM:  20    -0.232603218864E+04    0.18806E-02   -0.24890E-03 29238   0.999E-02    0.362E-01
RMM:  21    -0.232603208535E+04    0.10329E-03   -0.28260E-03 36976   0.552E-02    0.287E-01
RMM:  22    -0.232603246200E+04   -0.37665E-03   -0.20519E-03 31901   0.689E-02    0.371E-01
RMM:  23    -0.232603224098E+04    0.22102E-03   -0.11504E-03 31023   0.562E-02    0.293E-01
RMM:  24    -0.232603220871E+04    0.32272E-04   -0.10419E-03 38223   0.330E-02    0.270E-01
RMM:  25    -0.232603201327E+04    0.19544E-03   -0.40300E-04 30038   0.357E-02    0.186E-01
RMM:  26    -0.232603191513E+04    0.98149E-04   -0.26829E-04 30830   0.253E-02    0.123E-01
RMM:  27    -0.232603191991E+04   -0.47846E-05   -0.21073E-04 30224   0.126E-02    0.115E-01
RMM:  28    -0.232603191889E+04    0.10181E-05   -0.74512E-05 23649   0.129E-02
  16 F= -.23260319E+04 E0= -.23232738E+04  d E =-.255681E-01
