unknown system                          
            1
     9.726678    0.000000    0.000000
     0.000000    8.423550    0.000000
     0.000000    0.000000   45.000000
   Fe   Mn
 273  15
Direct configuration=     1
   0.31268948  0.36522861  0.16722288
   0.18620535  0.28093168  0.12514119
   0.18721111  0.11697108  0.30068872
   0.56252127  0.03623899  0.38946666
   0.93887877  0.12939725  0.78777700
   0.56249575  0.37272463  0.52153233
   0.43804579  0.28263374  0.25638495
   0.93804636  0.61547218  0.16726536
   0.56259739  0.70491917  0.47846201
   0.31239520  0.70524532  0.47855139
   0.18771519  0.62248953  0.52151969
   0.06262498  0.71110292  0.69924357
   0.18724052  0.61678794  0.30057093
   0.81247734  0.36513888  0.16725029
   0.68754644  0.45728169  0.56556667
   0.06294164  0.54819301  0.87499755
   0.43733522  0.61421512  0.16727670
   0.93713087  0.46249405  0.83294574
   0.18779395  0.45264475  0.34539598
   0.56224320  0.36738461  0.30066138
   0.43820462  0.11483193  0.16722110
   0.43813225  0.79681888  0.87503495
   0.06334959  0.87934884  0.78777091
   0.68726829  0.29515111  0.74360493
   0.81208467  0.70729070  0.56569566
   0.56202628  0.20747512  0.56572979
   0.93751276  0.12081073  0.43441394
   0.81142133  0.19782133  0.21217700
   0.81304243  0.88009850  0.78785217
   0.43785867  0.96071312  0.69935518
   0.68735938  0.79500815  0.74366312
   0.56270142  0.53298746  0.25639443
   0.93748047  0.95542856  0.47848839
   0.93708971  0.61688833  0.30067532
   0.18738425  0.11477066  0.16726644
   0.93690238  0.94777826  0.21217358
   0.81253980  0.71354135  0.83272416
   0.93731416  0.78254956  0.25643710
   0.06275833  0.03243211  0.25631940
   0.43769328  0.29134898  0.61046073
   0.18791355  0.96276605  0.83275139
   0.18711780  0.62553620  0.65462901
   0.68777762  0.45268907  0.34526010
   0.31212508  0.70732520  0.56558954
   0.31350329  0.88031350  0.78778065
   0.43685579  0.94794357  0.21210283
   0.43742939  0.12251849  0.52154286
   0.56214649  0.54840306  0.87488181
   0.18742049  0.95507763  0.47850673
   0.31244082  0.37094018  0.43455440
   0.56318218  0.71309159  0.83277044
   0.81258310  0.21066548  0.69922831
   0.56270208  0.70239738  0.34525658
   0.06280376  0.20232753  0.34531372
   0.43759825  0.28601465  0.38953009
   0.43783854  0.46063300  0.69931724
   0.06215994  0.53642508  0.38951144
   0.56249944  0.86740406  0.30055296
   0.43721118  0.95724790  0.56564414
   0.31237605  0.87268274  0.52148997
   0.68755857  0.96071665  0.69927849
   0.31265567  0.04547822  0.74359460
   0.43796056  0.45256197  0.34538811
   0.43712859  0.11732663  0.30059019
   0.68898159  0.79725632  0.87493311
   0.81284675  0.86479198  0.16726433
   0.93744087  0.28673394  0.38953033
   0.81203589  0.37271400  0.52154874
   0.06221569  0.87554271  0.65474893
   0.31229100  0.87547578  0.65463172
   0.06237908  0.70768483  0.56550938
   0.06214723  0.04514548  0.74375516
   0.56249808  0.04123715  0.61048000
   0.18764433  0.79532172  0.74361604
   0.43724817  0.61754291  0.30068327
   0.68739094  0.61738581  0.30068466
   0.81178324  0.37565744  0.65462938
   0.43716028  0.45718577  0.56558072
   0.93743486  0.79165536  0.61045396
   0.56202479  0.20542849  0.47853019
   0.68797887  0.95250259  0.34527245
   0.56202831  0.52973208  0.12490138
   0.56214750  0.87531792  0.65462609
   0.93683366  0.79502859  0.74357523
   0.18799859  0.29611643  0.87512549
   0.18766057  0.62047108  0.43436888
   0.43733226  0.62280324  0.52150660
   0.31255180  0.04119005  0.61046544
   0.43712651  0.78632709  0.38936592
   0.31340346  0.04725939  0.87490360
   0.31240733  0.86719416  0.30074099
   0.18775533  0.78234915  0.25635206
   0.06223579  0.03626153  0.38952767
   0.68759534  0.28266662  0.25640070
   0.68731579  0.79160784  0.61057227
   0.56265635  0.03262500  0.25636247
   0.31280886  0.87040739  0.43444865
   0.81307002  0.04668053  0.87487665
   0.43728493  0.28087193  0.12491401
   0.56181065  0.69756063  0.21218578
   0.68710432  0.12534948  0.65466235
   0.68730147  0.11725824  0.30059709
   0.56277031  0.21030333  0.69923630
   0.93787031  0.28102392  0.12513828
   0.81261134  0.53672865  0.38945366
   0.68712223  0.11493936  0.16730693
   0.31238825  0.86508857  0.16726032
   0.56205874  0.37544810  0.65467784
   0.56224660  0.70711721  0.56569314
   0.06220144  0.71221131  0.83280314
   0.18728685  0.28610513  0.38954861
   0.43747698  0.96317771  0.83264569
   0.06258203  0.54512448  0.74370604
   0.31353902  0.38078427  0.78772906
   0.31246556  0.20720591  0.56552759
   0.06216971  0.87298099  0.52151563
   0.56276384  0.53642520  0.38937453
   0.31243584  0.54558067  0.74361011
   0.93794935  0.95185348  0.34518682
   0.81284484  0.54141394  0.61047501
   0.68723034  0.29116519  0.61044757
   0.68733114  0.78103592  0.12519963
   0.43647308  0.44762715  0.21218942
   0.81275791  0.87058574  0.43425713
   0.68705013  0.62263270  0.52147545
   0.81306658  0.20223271  0.34527222
   0.43706129  0.62070315  0.43440632
   0.18773006  0.95190313  0.34532892
   0.56284779  0.88025962  0.78778233
   0.31387989  0.54816964  0.87511575
   0.31260332  0.20237558  0.34531291
   0.68758504  0.45537942  0.47849750
   0.43756036  0.29535589  0.74358036
   0.68807181  0.63135675  0.78781918
   0.06216226  0.36658018  0.30082821
   0.18693821  0.94814415  0.21221033
   0.56198786  0.87245043  0.52148078
   0.18766404  0.12936670  0.78774722
   0.56229800  0.54538204  0.74362972
   0.43753862  0.79131361  0.61054918
   0.68795839  0.96345922  0.83284370
   0.81262801  0.54508488  0.74360285
   0.18762094  0.12258206  0.52149240
   0.56245542  0.54147834  0.61053962
   0.81230249  0.03636482  0.38943743
   0.31198811  0.02991581  0.12516537
   0.68796743  0.46224987  0.83287020
   0.18810357  0.46094008  0.69934183
   0.81300038  0.70237148  0.34529147
   0.43755317  0.12065900  0.43447272
   0.56258229  0.86449005  0.16734392
   0.31264661  0.70230378  0.34542204
   0.06223918  0.20707519  0.56555460
   0.93758599  0.45261723  0.34540374
   0.68744933  0.28677776  0.38954412
   0.81273526  0.37113524  0.43441772
   0.43802325  0.78274017  0.25638303
   0.56200234  0.19734746  0.21220161
   0.68728695  0.78642732  0.38950506
   0.81207256  0.21356336  0.83281413
   0.43706719  0.62552735  0.65472545
   0.81229070  0.04117603  0.61050641
   0.93793324  0.29723396  0.87497165
   0.93689629  0.44765134  0.21213405
   0.81161464  0.69754504  0.21212645
   0.81272040  0.38008182  0.78788435
   0.93695691  0.29508126  0.74363007
   0.81216995  0.36709457  0.30064363
   0.18722682  0.44768472  0.21211083
   0.06255653  0.37075861  0.43438913
   0.31264202  0.71113344  0.69936030
   0.68719397  0.94784770  0.21211476
   0.93722397  0.45699647  0.56557260
   0.93755312  0.11449056  0.16721244
   0.56365937  0.21292978  0.83270824
   0.81183217  0.87544232  0.65466229
   0.68829716  0.12989295  0.78781974
   0.18721761  0.61579085  0.16716847
   0.68746008  0.62089663  0.43436050
   0.31229032  0.37239431  0.52151417
   0.31234598  0.54137825  0.61052461
   0.43823367  0.46310246  0.83292979
   0.18739599  0.29146453  0.61047699
   0.18735465  0.95729234  0.56554839
   0.31235318  0.36744104  0.30062659
   0.31230951  0.37557304  0.65465585
   0.31244271  0.19797147  0.21213486
   0.06241158  0.87083775  0.43430074
   0.43728150  0.45536955  0.47859418
   0.81158445  0.53016459  0.12509551
   0.56250930  0.04491579  0.74351124
   0.93728953  0.12244679  0.52149681
   0.31255273  0.21033230  0.69922882
   0.18742229  0.12079411  0.43450505
   0.68762508  0.61416591  0.16726548
   0.43734041  0.95547930  0.47848275
   0.18735821  0.78618523  0.38944426
   0.93733522  0.95719539  0.56567968
   0.43715410  0.12510010  0.65459417
   0.06240310  0.21060242  0.69922186
   0.31252276  0.53259946  0.25645159
   0.93702984  0.62543937  0.65467960
   0.18788680  0.79651413  0.87496117
   0.06263001  0.36458905  0.16728552
   0.56316207  0.38011443  0.78781006
   0.06267212  0.37248913  0.52154255
   0.31219828  0.69786055  0.21213148
   0.06257933  0.04148036  0.61049575
   0.31241021  0.53026017  0.12507735
   0.56276909  0.71106472  0.69934364
   0.06272171  0.70540670  0.47856241
   0.93763623  0.79688745  0.87496703
   0.31252611  0.03259132  0.25637492
   0.43750984  0.95230311  0.34513139
   0.06267201  0.53262215  0.25647641
   0.43752462  0.79545097  0.74362373
   0.06195882  0.03097389  0.12504622
   0.93753606  0.96071904  0.69934395
   0.06280123  0.21245189  0.83285747
   0.81267048  0.53289875  0.25641570
   0.31254713  0.20537172  0.47856988
   0.68740120  0.46075900  0.69934333
   0.18811660  0.96088075  0.69925076
   0.43790354  0.12951520  0.78762007
   0.43770130  0.29676347  0.87497825
   0.06231268  0.20534499  0.47857254
   0.68760441  0.78281362  0.25640610
   0.81207098  0.86722555  0.30071059
   0.81232189  0.04472066  0.74348244
   0.93729441  0.29138105  0.61046716
   0.93746377  0.11693212  0.30064634
   0.06308204  0.04717096  0.87484054
   0.56228916  0.87044227  0.43447908
   0.43676543  0.78124150  0.12517846
   0.81277187  0.20536306  0.47851333
   0.81198543  0.70514912  0.47851147
   0.18717142  0.12560630  0.65466795
   0.06225955  0.54140062  0.61044292
   0.56181272  0.03072008  0.12517774
   0.06196048  0.53082531  0.12506962
   0.68717282  0.62565031  0.65474793
   0.56246598  0.37099071  0.43449212
   0.18808308  0.62943685  0.78787900
   0.68730773  0.44767549  0.21221506
   0.93704439  0.12570269  0.65459815
   0.18727536  0.45522839  0.47853273
   0.93799854  0.96278122  0.83260816
   0.31218133  0.53618891  0.38955757
   0.68669453  0.28093752  0.12490968
   0.81276930  0.03246000  0.25635151
   0.81222905  0.20710834  0.56556826
   0.93770432  0.63017042  0.78791815
   0.68708388  0.95696741  0.56533128
   0.06179971  0.19805552  0.21212819
   0.81263301  0.71088668  0.69933097
   0.81294896  0.87277936  0.52152585
   0.93764880  0.45503201  0.47860341
   0.93776348  0.78602721  0.38938278
   0.18703435  0.45736143  0.56561546
   0.81230757  0.02999783  0.12521063
   0.93762398  0.28242453  0.25639926
   0.06254711  0.70211374  0.34534223
   0.93736240  0.78074554  0.12502817
   0.56354783  0.04771676  0.87480871
   0.43861412  0.63023450  0.78784256
   0.93789591  0.62106314  0.43463765
   0.68711939  0.12307061  0.52136410
   0.18755954  0.79163514  0.61064279
   0.18790285  0.46274639  0.83296436
   0.06202341  0.86668954  0.30060813
   0.18670226  0.78048157  0.12504774
   0.81408737  0.54804870  0.87496682
   0.06249275  0.86474321  0.16724585
   0.31267363  0.03644099  0.38928115
   0.31284623  0.71246620  0.83327170
   0.56261399  0.36483579  0.16660438
   0.93746817  0.62271656  0.52142809
   0.06186225  0.69793860  0.21239051
   0.18721351  0.29564462  0.74361771
   0.06260563  0.37511144  0.65447262
   0.56247082  0.20234656  0.34542144
   0.31218270  0.21300993  0.83325604
   0.68903496  0.29719550  0.87464042
   0.68743698  0.95532383  0.47860998
   0.68754623  0.12156343  0.43420360
   0.18772243  0.28242657  0.25632612
   0.93768632  0.46082030  0.69953139
   0.06324543  0.38013355  0.78766393
Direct configuration=     2
   0.31266315  0.36519762  0.16723311
   0.18623689  0.28095081  0.12514340
   0.18723817  0.11697112  0.30070183
   0.56253996  0.03622492  0.38947623
   0.93885390  0.12931603  0.78776759
   0.56252049  0.37277043  0.52153667
   0.43801780  0.28267049  0.25639416
   0.93800274  0.61542530  0.16727647
   0.56255416  0.70490962  0.47845456
   0.31242063  0.70521972  0.47854472
   0.18771489  0.62249578  0.52152727
   0.06261627  0.71104642  0.69922722
   0.18726162  0.61679567  0.30058616
   0.81244583  0.36510491  0.16725988
   0.68754143  0.45726499  0.56555943
   0.06293813  0.54809803  0.87499965
   0.43731740  0.61417204  0.16728809
   0.93718236  0.46253438  0.83293216
   0.18777210  0.45258625  0.34540559
   0.56225925  0.36739656  0.30067411
   0.43818970  0.11479532  0.16723249
   0.43808678  0.79679175  0.87502951
   0.06333315  0.87933054  0.78777129
   0.68730037  0.29512771  0.74359093
   0.81208247  0.70725016  0.56568547
   0.56203949  0.20744049  0.56571939
   0.93751548  0.12084918  0.43442258
   0.81145431  0.19787325  0.21217717
   0.81300702  0.88003764  0.78784927
   0.43784769  0.96070958  0.69933868
   0.68738760  0.79498754  0.74365051
   0.56266508  0.53298788  0.25640096
   0.93749469  0.95539371  0.47847895
   0.93710082  0.61688452  0.30068741
   0.18736012  0.11472916  0.16727891
   0.93691615  0.94785177  0.21218297
   0.81258466  0.71353901  0.83270501
   0.93730238  0.78255463  0.25644818
   0.06271713  0.03244707  0.25633271
   0.43767264  0.29133786  0.61045493
   0.18795254  0.96283500  0.83274223
   0.18713960  0.62558570  0.65461793
   0.68775935  0.45264106  0.34526981
   0.31213456  0.70730183  0.56558078
   0.31346590  0.88027207  0.78778532
   0.43688074  0.94800842  0.21210747
   0.43744173  0.12254227  0.52154748
   0.56211211  0.54830104  0.87488151
   0.18740640  0.95505274  0.47850163
   0.31243862  0.37094740  0.43456452
   0.56320676  0.71311358  0.83275689
   0.81256104  0.21065782  0.69921181
   0.56268514  0.70235686  0.34526650
   0.06278093  0.20228487  0.34532512
   0.43761744  0.28601745  0.38953308
   0.43780848  0.46063005  0.69930225
   0.06215640  0.53643065  0.38951863
   0.56251894  0.86741528  0.30056417
   0.43722016  0.95722033  0.56563945
   0.31235139  0.87270849  0.52149473
   0.68751489  0.96071826  0.69926548
   0.31268477  0.04549083  0.74358465
   0.43793153  0.45251283  0.34539937
   0.43714819  0.11734092  0.30060730
   0.68892864  0.79722927  0.87492751
   0.81283960  0.86475307  0.16727739
   0.93744120  0.28673209  0.38953533
   0.81202134  0.37277641  0.52155252
   0.06223511  0.87558255  0.65473952
   0.31232792  0.87551735  0.65462137
   0.06239433  0.70765324  0.56550093
   0.06217238  0.04515515  0.74374252
   0.56248142  0.04125241  0.61047488
   0.18767294  0.79529057  0.74360399
   0.43727546  0.61753848  0.30069974
   0.68740254  0.61738388  0.30069958
   0.81182837  0.37568556  0.65462415
   0.43717112  0.45717377  0.56557507
   0.93742004  0.79165192  0.61044982
   0.56200052  0.20540042  0.47852642
   0.68795187  0.95246735  0.34527912
   0.56205540  0.52979290  0.12490726
   0.56217957  0.87535281  0.65461538
   0.93686883  0.79501053  0.74356716
   0.18801198  0.29614015  0.87512110
   0.18766237  0.62049849  0.43437250
   0.43733765  0.62283067  0.52151361
   0.31254211  0.04120606  0.61046090
   0.43714733  0.78634850  0.38937506
   0.31336520  0.04719380  0.87490478
   0.31242056  0.86721404  0.30075465
   0.18770544  0.78236896  0.25636101
   0.06224256  0.03624844  0.38953057
   0.68755689  0.28268544  0.25641046
   0.68730346  0.79162294  0.61056643
   0.56262921  0.03262276  0.25637018
   0.31280079  0.87042515  0.43445404
   0.81305153  0.04656452  0.87487377
   0.43733947  0.28090338  0.12492046
   0.56185263  0.69761274  0.21218584
   0.68715005  0.12538889  0.65465193
   0.68731427  0.11725254  0.30061457
   0.56275717  0.21030231  0.69922512
   0.93786484  0.28103787  0.12514073
   0.81262588  0.53671143  0.38945832
   0.68708828  0.11490486  0.16731871
   0.31233949  0.86504863  0.16727410
   0.56209607  0.37548085  0.65467025
   0.56226513  0.70707809  0.56568488
   0.06221973  0.71225195  0.83279019
   0.18730126  0.28612408  0.38955271
   0.43748115  0.96324630  0.83262970
   0.06260240  0.54511389  0.74369564
   0.31351054  0.38072564  0.78773167
   0.31245959  0.20718079  0.56551711
   0.06220765  0.87300561  0.52152174
   0.56277524  0.53641904  0.38938196
   0.31245940  0.54557968  0.74360442
   0.93792528  0.95182075  0.34520059
   0.81282797  0.54141437  0.61046925
   0.68723048  0.29117080  0.61044137
   0.68734036  0.78104995  0.12520311
   0.43650702  0.44769556  0.21219444
   0.81275616  0.87061671  0.43426438
   0.68705436  0.62266450  0.52148869
   0.81303154  0.20221809  0.34528501
   0.43705801  0.62073734  0.43441468
   0.18771947  0.95187329  0.34534537
   0.56281301  0.88021774  0.78778116
   0.31387653  0.54809454  0.87511922
   0.31256847  0.20234894  0.34532330
   0.68758986  0.45533104  0.47849323
   0.43758824  0.29532676  0.74356768
   0.68802883  0.63125502  0.78781221
   0.06219244  0.36660817  0.30083786
   0.18698572  0.94821349  0.21221883
   0.56203241  0.87249469  0.52148880
   0.18765121  0.12931670  0.78774721
   0.56233170  0.54537657  0.74362234
   0.43752075  0.79131301  0.61054082
   0.68796427  0.96351502  0.83282936
   0.81265392  0.54509357  0.74359764
   0.18761814  0.12258665  0.52149973
   0.56243559  0.54147803  0.61053615
   0.81230695  0.03636318  0.38944585
   0.31201562  0.02998398  0.12516384
   0.68798349  0.46225889  0.83285820
   0.18806116  0.46094875  0.69932094
   0.81297628  0.70234341  0.34530260
   0.43753276  0.12070012  0.43447847
   0.56255601  0.86445473  0.16735306
   0.31260857  0.70226625  0.34542933
   0.06225733  0.20705600  0.56554314
   0.93755593  0.45257070  0.34541473
   0.68745087  0.28676477  0.38954763
   0.81273291  0.37113521  0.43443046
   0.43800305  0.78274757  0.25639296
   0.56203873  0.19739284  0.21220271
   0.68730142  0.78644249  0.38950839
   0.81207670  0.21359118  0.83280089
   0.43709192  0.62557600  0.65471240
   0.81227864  0.04119316  0.61050610
   0.93793919  0.29725049  0.87496587
   0.93692522  0.44774688  0.21214374
   0.81163871  0.69759280  0.21212707
   0.81269573  0.38003700  0.78788472
   0.93700888  0.29505177  0.74361831
   0.81219160  0.36710336  0.30066456
   0.18726807  0.44777218  0.21212211
   0.06255384  0.37077217  0.43439895
   0.31261273  0.71111068  0.69934491
   0.68722688  0.94791896  0.21211794
   0.93723096  0.45696968  0.56556579
   0.93751784  0.11446176  0.16722346
   0.56371019  0.21298669  0.83269807
   0.81186358  0.87547657  0.65465232
   0.68826052  0.12980818  0.78780926
   0.18719328  0.61574143  0.16718033
   0.68744741  0.62092662  0.43436838
   0.31226608  0.37244597  0.52151951
   0.31234001  0.54138398  0.61051894
   0.43822391  0.46315463  0.83291818
   0.18738803  0.29145205  0.61047019
   0.18735183  0.95725815  0.56554021
   0.31236917  0.36745149  0.30064254
   0.31233309  0.37560261  0.65464715
   0.31246368  0.19802349  0.21213940
   0.06241015  0.87086224  0.43430977
   0.43727339  0.45533559  0.47858745
   0.81158445  0.53021747  0.12509572
   0.56252640  0.04491124  0.74350002
   0.93728443  0.12247832  0.52150103
   0.31252399  0.21033584  0.69921932
   0.18742311  0.12081953  0.43450819
   0.68760102  0.61412712  0.16727970
   0.43733329  0.95546464  0.47847754
   0.18735256  0.78621611  0.38945382
   0.93735236  0.95715742  0.56567256
   0.43717891  0.12514277  0.65458123
   0.06239343  0.21060092  0.69921089
   0.31249993  0.53258773  0.25645741
   0.93706514  0.62547148  0.65466882
   0.18790795  0.79652880  0.87495525
   0.06259962  0.36456880  0.16729921
   0.56311782  0.38008663  0.78780902
   0.06268277  0.37254288  0.52154692
   0.31223611  0.69791021  0.21213526
   0.06255747  0.04149292  0.61049300
   0.31244914  0.53031270  0.12507568
   0.56274671  0.71102856  0.69933000
   0.06268307  0.70538137  0.47855597
   0.93764011  0.79684768  0.87496062
   0.31250586  0.03260245  0.25638198
   0.43747212  0.95225942  0.34514414
   0.06262350  0.53261819  0.25648135
   0.43757019  0.79541169  0.74361687
   0.06198092  0.03104930  0.12504935
   0.93752476  0.96073277  0.69932828
   0.06283367  0.21247955  0.83284415
   0.81266294  0.53291164  0.25642563
   0.31257557  0.20535492  0.47856467
   0.68737808  0.46075148  0.69932776
   0.18809039  0.96087486  0.69923805
   0.43785070  0.12948456  0.78761687
   0.43765393  0.29678158  0.87496942
   0.06228895  0.20531197  0.47856658
   0.68756726  0.78282553  0.25641900
   0.81208213  0.86724977  0.30072419
   0.81236371  0.04472217  0.74347411
   0.93728679  0.29136829  0.61046398
   0.93748166  0.11693298  0.30065769
   0.06309738  0.04708422  0.87484402
   0.56226996  0.87045790  0.43448500
   0.43679814  0.78124756  0.12518233
   0.81280119  0.20533232  0.47850452
   0.81204237  0.70512460  0.47850480
   0.18719661  0.12564234  0.65465300
   0.06224605  0.54141619  0.61043539
   0.56183767  0.03079306  0.12518124
   0.06198494  0.53088599  0.12506826
   0.68721073  0.62569220  0.65473657
   0.56245317  0.37098093  0.43450107
   0.18806670  0.62937197  0.78787705
   0.68733360  0.44774140  0.21221889
   0.93705840  0.12573876  0.65458442
   0.18727335  0.45519709  0.47852743
   0.93800476  0.96282166  0.83259070
   0.31219986  0.53618817  0.38956309
   0.68669935  0.28096514  0.12492027
   0.81273701  0.03246689  0.25635882
   0.81224117  0.20708383  0.56555677
   0.93768550  0.63006406  0.78790410
   0.68709773  0.95692420  0.56531952
   0.06184317  0.19812110  0.21213505
   0.81260313  0.71084140  0.69931636
   0.81289039  0.87282228  0.52153301
   0.93765038  0.45498732  0.47859723
   0.93777062  0.78603965  0.38939002
   0.18704733  0.45733958  0.56560259
   0.81231638  0.03007334  0.12520980
   0.93758890  0.28244476  0.25640816
   0.06253595  0.70208579  0.34535313
   0.93737298  0.78077028  0.12503447
   0.56348725  0.04762758  0.87480679
   0.43857685  0.63016321  0.78783231
   0.93789288  0.62109468  0.43464981
   0.68711568  0.12307340  0.52137330
   0.18755069  0.79163783  0.61063485
   0.18793044  0.46280161  0.83294734
   0.06204450  0.86672170  0.30062085
   0.18673197  0.78051055  0.12505446
   0.81405806  0.54792272  0.87496617
   0.06246451  0.86473540  0.16725823
   0.31269598  0.03643474  0.38928938
   0.31287458  0.71253388  0.83326817
   0.56257905  0.36480180  0.16661054
   0.93745510  0.62274008  0.52142728
   0.06190402  0.69797856  0.21239223
   0.18725052  0.29560855  0.74360980
   0.06262257  0.37515583  0.65446443
   0.56244494  0.20230173  0.34543280
   0.31219528  0.21304395  0.83325506
   0.68898880  0.29714758  0.87463336
   0.68744352  0.95527915  0.47861355
   0.68753080  0.12159940  0.43420991
   0.18767828  0.28244354  0.25633429
   0.93768836  0.46080513  0.69951449
   0.06324008  0.38008742  0.78766343
Direct configuration=     3
   0.31258414  0.36510467  0.16726379
   0.18633152  0.28100821  0.12515005
   0.18731933  0.11697123  0.30074116
   0.56259605  0.03618268  0.38950496
   0.93877930  0.12907236  0.78773935
   0.56259470  0.37290785  0.52154970
   0.43793385  0.28278075  0.25642181
   0.93787189  0.61528465  0.16730978
   0.56242448  0.70488096  0.47843223
   0.31249694  0.70514292  0.47852472
   0.18771401  0.62251455  0.52155003
   0.06259013  0.71087690  0.69917817
   0.18732494  0.61681888  0.30063186
   0.81235131  0.36500300  0.16728864
   0.68752638  0.45721488  0.56553772
   0.06292760  0.54781310  0.87500597
   0.43726393  0.61404280  0.16732227
   0.93733683  0.46265537  0.83289141
   0.18770654  0.45241074  0.34543444
   0.56230739  0.36743240  0.30071229
   0.43814496  0.11468551  0.16726668
   0.43795038  0.79671035  0.87501318
   0.06328382  0.87927564  0.78777245
   0.68739660  0.29505750  0.74354893
   0.81207588  0.70712854  0.56565489
   0.56207910  0.20733660  0.56568817
   0.93752364  0.12096454  0.43444850
   0.81155325  0.19802900  0.21217768
   0.81290081  0.87985508  0.78784057
   0.43781475  0.96069897  0.69928920
   0.68747225  0.79492570  0.74361269
   0.56255608  0.53298915  0.25642055
   0.93753737  0.95528916  0.47845062
   0.93713418  0.61687310  0.30072366
   0.18728774  0.11460466  0.16731630
   0.93695744  0.94807231  0.21221112
   0.81271925  0.71353202  0.83264756
   0.93726705  0.78256982  0.25648143
   0.06259355  0.03249195  0.25637262
   0.43761073  0.29130452  0.61043753
   0.18806950  0.96304186  0.83271476
   0.18720500  0.62573420  0.65458470
   0.68770452  0.45249704  0.34529897
   0.31216300  0.70723172  0.56555451
   0.31335372  0.88014776  0.78779932
   0.43695561  0.94820295  0.21212140
   0.43747876  0.12261359  0.52156137
   0.56200898  0.54799497  0.87488059
   0.18736411  0.95497810  0.47848632
   0.31243203  0.37096904  0.43459487
   0.56328047  0.71317954  0.83271625
   0.81249485  0.21063485  0.69916230
   0.56263431  0.70223530  0.34529627
   0.06271244  0.20215687  0.34535932
   0.43767499  0.28602582  0.38954202
   0.43771833  0.46062120  0.69925730
   0.06214577  0.53644734  0.38954020
   0.56257743  0.86744895  0.30059778
   0.43724713  0.95713761  0.56562539
   0.31227741  0.87278576  0.52150900
   0.68738387  0.96072308  0.69922646
   0.31277205  0.04552864  0.74355479
   0.43784443  0.45236541  0.34543317
   0.43720697  0.11738379  0.30065862
   0.68876977  0.79714812  0.87491070
   0.81281817  0.86463635  0.16731656
   0.93744217  0.28672652  0.38955034
   0.81197771  0.37296362  0.52156388
   0.06229337  0.87570209  0.65471129
   0.31243868  0.87564206  0.65459033
   0.06244011  0.70755845  0.56547559
   0.06224782  0.04518414  0.74370460
   0.56243145  0.04129817  0.61045950
   0.18775879  0.79519714  0.74356784
   0.43735734  0.61752519  0.30074916
   0.68743733  0.61737807  0.30074433
   0.81196376  0.37576993  0.65460845
   0.43720363  0.45713777  0.56555812
   0.93737558  0.79164157  0.61043743
   0.56192771  0.20531621  0.47851510
   0.68787085  0.95236161  0.34529912
   0.56213669  0.52997538  0.12492488
   0.56227576  0.87545748  0.65458325
   0.93697435  0.79495635  0.74354292
   0.18805216  0.29621129  0.87510794
   0.18766779  0.62058072  0.43438334
   0.43735381  0.62291296  0.52153464
   0.31251303  0.04125411  0.61044728
   0.43720981  0.78641274  0.38940247
   0.31325045  0.04699704  0.87490831
   0.31246024  0.86727370  0.30079561
   0.18755577  0.78242840  0.25638785
   0.06226288  0.03620918  0.38953927
   0.68744152  0.28274188  0.25643976
   0.68726647  0.79166823  0.61054889
   0.56254779  0.03261604  0.25639333
   0.31277658  0.87047843  0.43447023
   0.81299605  0.04621652  0.87486513
   0.43750308  0.28099771  0.12493981
   0.56197855  0.69776905  0.21218603
   0.68728724  0.12550711  0.65462068
   0.68735266  0.11723543  0.30066701
   0.56271775  0.21029926  0.69919159
   0.93784843  0.28107972  0.12514809
   0.81266951  0.53665977  0.38947229
   0.68698641  0.11480135  0.16735406
   0.31219320  0.86492883  0.16731542
   0.56220805  0.37557909  0.65464746
   0.56232073  0.70696073  0.56566009
   0.06227458  0.71237388  0.83275136
   0.18734448  0.28618095  0.38956500
   0.43749367  0.96345209  0.83258173
   0.06266352  0.54508211  0.74366443
   0.31342511  0.38054974  0.78773949
   0.31244167  0.20710545  0.56548567
   0.06232147  0.87307945  0.52154010
   0.56280942  0.53640059  0.38940425
   0.31253008  0.54557671  0.74358737
   0.93785307  0.95172255  0.34524189
   0.81277736  0.54141565  0.61045198
   0.68723089  0.29118762  0.61042276
   0.68736800  0.78109207  0.12521357
   0.43660884  0.44790077  0.21220950
   0.81275093  0.87070961  0.43428613
   0.68706706  0.62275990  0.52152840
   0.81292644  0.20217423  0.34532339
   0.43704817  0.62083992  0.43443975
   0.18768768  0.95178376  0.34539472
   0.56270865  0.88009209  0.78777765
   0.31386646  0.54786923  0.87512962
   0.31246393  0.20226902  0.34535447
   0.68760434  0.45518593  0.47848042
   0.43767188  0.29523937  0.74352966
   0.68789988  0.63094981  0.78779132
   0.06228296  0.36669213  0.30086683
   0.18712826  0.94842151  0.21224433
   0.56216608  0.87262750  0.52151286
   0.18761272  0.12916669  0.78774717
   0.56243281  0.54536016  0.74360020
   0.43746715  0.79131121  0.61051573
   0.68798193  0.96368242  0.83278634
   0.81273164  0.54511963  0.74358203
   0.18760975  0.12260040  0.52152173
   0.56237611  0.54147709  0.61052576
   0.81232032  0.03635827  0.38947111
   0.31209813  0.03018850  0.12515927
   0.68803167  0.46228596  0.83282219
   0.18793393  0.46097475  0.69925825
   0.81290397  0.70225921  0.34533598
   0.43747152  0.12082347  0.43449573
   0.56247715  0.86434879  0.16738045
   0.31249445  0.70215366  0.34545122
   0.06231179  0.20699845  0.56550876
   0.93746575  0.45243110  0.34544771
   0.68745548  0.28672580  0.38955817
   0.81272585  0.37113513  0.43446868
   0.43794243  0.78276978  0.25642275
   0.56214791  0.19752900  0.21220599
   0.68734484  0.78648800  0.38951840
   0.81208912  0.21367463  0.83276116
   0.43716610  0.62572196  0.65467324
   0.81224246  0.04124455  0.61050517
   0.93795703  0.29730007  0.87494850
   0.93701201  0.44803348  0.21217282
   0.81171092  0.69773606  0.21212891
   0.81262171  0.37990255  0.78788583
   0.93716479  0.29496330  0.74358303
   0.81225656  0.36712971  0.30072737
   0.18739182  0.44803457  0.21215596
   0.06254577  0.37081286  0.43442840
   0.31252486  0.71104239  0.69929875
   0.68732560  0.94813274  0.21212750
   0.93725194  0.45688929  0.56554536
   0.93741198  0.11437537  0.16725652
   0.56386264  0.21315742  0.83266756
   0.81195778  0.87557933  0.65462243
   0.68815059  0.12955386  0.78777782
   0.18712028  0.61559316  0.16721593
   0.68740941  0.62101661  0.43439202
   0.31219336  0.37260095  0.52153551
   0.31232211  0.54140118  0.61050193
   0.43819462  0.46331112  0.83288333
   0.18736415  0.29141461  0.61044977
   0.18734335  0.95715559  0.56551566
   0.31241716  0.36748285  0.30069039
   0.31240380  0.37569132  0.65462106
   0.31252659  0.19817954  0.21215301
   0.06240584  0.87093573  0.43433685
   0.43724903  0.45523370  0.47856729
   0.81158443  0.53037610  0.12509637
   0.56257770  0.04489762  0.74346633
   0.93726910  0.12257290  0.52151369
   0.31243776  0.21034647  0.69919083
   0.18742557  0.12089580  0.43451762
   0.68752885  0.61401074  0.16732236
   0.43731193  0.95542066  0.47846193
   0.18733561  0.78630875  0.38948251
   0.93740379  0.95704352  0.56565121
   0.43725331  0.12527075  0.65454239
   0.06236442  0.21059641  0.69917798
   0.31243147  0.53255253  0.25647488
   0.93717104  0.62556783  0.65463647
   0.18797141  0.79657281  0.87493751
   0.06250844  0.36450806  0.16734030
   0.56298507  0.38000323  0.78780588
   0.06271471  0.37270413  0.52156003