 288 288   0   0
  0.1280206E+02  0.9726678E-09  0.8423550E-09  0.4500000E-08  0.2500000E-15
  1.000000000000000E-004
  CAR 
 unknown system                          
      6.80497140     -6.06386742  301      4.30453873      1.00000000
     -6.064  0.0000E+00  0.0000E+00
     -6.021  0.0000E+00  0.0000E+00
     -5.978  0.0000E+00  0.0000E+00
     -5.935  0.0000E+00  0.0000E+00
     -5.892  0.0000E+00  0.0000E+00
     -5.849  0.0000E+00  0.0000E+00
     -5.806  0.0000E+00  0.0000E+00
     -5.764  0.0000E+00  0.0000E+00
     -5.721  0.0000E+00  0.0000E+00
     -5.678  0.0000E+00  0.0000E+00
     -5.635  0.0000E+00  0.0000E+00
     -5.592  0.0000E+00  0.0000E+00
     -5.549  0.0000E+00  0.0000E+00
     -5.506  0.0000E+00  0.0000E+00
     -5.463  0.0000E+00  0.0000E+00
     -5.420  0.1941E-15  0.8327E-17
     -5.378  0.4756E-14  0.2123E-15
     -5.335  0.1023E-12  0.4602E-14
     -5.292  0.1867E-11  0.8470E-13
     -5.249  0.2898E-10  0.1328E-11
     -5.206  0.3827E-09  0.1775E-10
     -5.163  0.4300E-08  0.2022E-09
     -5.120  0.4112E-07  0.1966E-08
     -5.077  0.3348E-06  0.1633E-07
     -5.034  0.2323E-05  0.1160E-06
     -4.991  0.1374E-04  0.7054E-06
     -4.949  0.6942E-04  0.3683E-05
     -4.906  0.3001E-03  0.1656E-04
     -4.863  0.1114E-02  0.6435E-04
     -4.820  0.3569E-02  0.2174E-03
     -4.777  0.9929E-02  0.6433E-03
     -4.734  0.2422E-01  0.1682E-02
     -4.691  0.5244E-01  0.3932E-02
     -4.648  0.1021E+00  0.8312E-02
     -4.605  0.1811E+00  0.1608E-01
     -4.563  0.2959E+00  0.2878E-01
     -4.520  0.4490E+00  0.4804E-01
     -4.477  0.6364E+00  0.7534E-01
     -4.434  0.8470E+00  0.1117E+00
     -4.391  0.1064E+01  0.1573E+00
     -4.348  0.1267E+01  0.2117E+00
     -4.305  0.1440E+01  0.2734E+00
     -4.262  0.1573E+01  0.3409E+00
     -4.219  0.1671E+01  0.4126E+00
     -4.176  0.1751E+01  0.4877E+00
     -4.134  0.1836E+01  0.5665E+00
     -4.091  0.1951E+01  0.6501E+00
     -4.048  0.2111E+01  0.7407E+00
     -4.005  0.2315E+01  0.8400E+00
     -3.962  0.2542E+01  0.9490E+00
     -3.919  0.2762E+01  0.1067E+01
     -3.876  0.2941E+01  0.1194E+01
     -3.833  0.3056E+01  0.1325E+01
     -3.790  0.3100E+01  0.1458E+01
     -3.747  0.3091E+01  0.1590E+01
     -3.705  0.3062E+01  0.1722E+01
     -3.662  0.3053E+01  0.1853E+01
     -3.619  0.3094E+01  0.1985E+01
     -3.576  0.3198E+01  0.2122E+01
     -3.533  0.3360E+01  0.2267E+01
     -3.490  0.3558E+01  0.2419E+01
     -3.447  0.3763E+01  0.2581E+01
     -3.404  0.3944E+01  0.2750E+01
     -3.361  0.4080E+01  0.2925E+01
     -3.319  0.4158E+01  0.3103E+01
     -3.276  0.4184E+01  0.3283E+01
     -3.233  0.4177E+01  0.3462E+01
     -3.190  0.4174E+01  0.3641E+01
     -3.147  0.4215E+01  0.3822E+01
     -3.104  0.4332E+01  0.4007E+01
     -3.061  0.4528E+01  0.4202E+01
     -3.018  0.4784E+01  0.4407E+01
     -2.975  0.5053E+01  0.4624E+01
     -2.932  0.5276E+01  0.4850E+01
     -2.890  0.5404E+01  0.5082E+01
     -2.847  0.5422E+01  0.5314E+01
     -2.804  0.5365E+01  0.5545E+01
     -2.761  0.5303E+01  0.5772E+01
     -2.718  0.5301E+01  0.5999E+01
     -2.675  0.5382E+01  0.6230E+01
     -2.632  0.5510E+01  0.6467E+01
     -2.589  0.5621E+01  0.6708E+01
     -2.546  0.5672E+01  0.6951E+01
     -2.503  0.5678E+01  0.7195E+01
     -2.461  0.5711E+01  0.7440E+01
     -2.418  0.5860E+01  0.7691E+01
     -2.375  0.6175E+01  0.7956E+01
     -2.332  0.6626E+01  0.8240E+01
     -2.289  0.7086E+01  0.8544E+01
     -2.246  0.7394E+01  0.8861E+01
     -2.203  0.7442E+01  0.9181E+01
     -2.160  0.7255E+01  0.9492E+01
     -2.117  0.6989E+01  0.9792E+01
     -2.075  0.6846E+01  0.1009E+02
     -2.032  0.6969E+01  0.1038E+02
     -1.989  0.7373E+01  0.1070E+02
     -1.946  0.7938E+01  0.1104E+02
     -1.903  0.8474E+01  0.1140E+02
     -1.860  0.8809E+01  0.1178E+02
     -1.817  0.8883E+01  0.1216E+02
     -1.774  0.8773E+01  0.1254E+02
     -1.731  0.8640E+01  0.1291E+02
     -1.688  0.8623E+01  0.1328E+02
     -1.646  0.8767E+01  0.1366E+02
     -1.603  0.9028E+01  0.1404E+02
     -1.560  0.9327E+01  0.1444E+02
     -1.517  0.9613E+01  0.1486E+02
     -1.474  0.9873E+01  0.1528E+02
     -1.431  0.1012E+02  0.1571E+02
     -1.388  0.1035E+02  0.1616E+02
     -1.345  0.1055E+02  0.1661E+02
     -1.302  0.1076E+02  0.1707E+02
     -1.260  0.1107E+02  0.1755E+02
     -1.217  0.1160E+02  0.1804E+02
     -1.174  0.1244E+02  0.1858E+02
     -1.131  0.1348E+02  0.1916E+02
     -1.088  0.1447E+02  0.1978E+02
     -1.045  0.1516E+02  0.2043E+02
     -1.002  0.1544E+02  0.2109E+02
     -0.959  0.1551E+02  0.2175E+02
     -0.916  0.1575E+02  0.2243E+02
     -0.873  0.1653E+02  0.2314E+02
     -0.831  0.1799E+02  0.2391E+02
     -0.788  0.2005E+02  0.2477E+02
     -0.745  0.2255E+02  0.2574E+02
     -0.702  0.2544E+02  0.2683E+02
     -0.659  0.2880E+02  0.2806E+02
     -0.616  0.3269E+02  0.2947E+02
     -0.573  0.3697E+02  0.3105E+02
     -0.530  0.4126E+02  0.3282E+02
     -0.487  0.4509E+02  0.3476E+02
     -0.444  0.4814E+02  0.3682E+02
     -0.402  0.5042E+02  0.3898E+02
     -0.359  0.5216E+02  0.4122E+02
     -0.316  0.5366E+02  0.4352E+02
     -0.273  0.5501E+02  0.4588E+02
     -0.230  0.5614E+02  0.4829E+02
     -0.187  0.5688E+02  0.5073E+02
     -0.144  0.5717E+02  0.5318E+02
     -0.101  0.5718E+02  0.5564E+02
     -0.058  0.5722E+02  0.5809E+02
     -0.016  0.5761E+02  0.6056E+02
      0.027  0.5855E+02  0.6307E+02
      0.070  0.6013E+02  0.6565E+02
      0.113  0.6237E+02  0.6833E+02
      0.156  0.6519E+02  0.7113E+02
      0.199  0.6838E+02  0.7406E+02
      0.242  0.7161E+02  0.7713E+02
      0.285  0.7460E+02  0.8033E+02
      0.328  0.7723E+02  0.8364E+02
      0.371  0.7951E+02  0.8705E+02
      0.413  0.8152E+02  0.9055E+02
      0.456  0.8330E+02  0.9412E+02
      0.499  0.8479E+02  0.9776E+02
      0.542  0.8583E+02  0.1014E+03
      0.585  0.8629E+02  0.1051E+03
      0.628  0.8619E+02  0.1088E+03
      0.671  0.8563E+02  0.1125E+03
      0.714  0.8468E+02  0.1161E+03
      0.757  0.8336E+02  0.1197E+03
      0.800  0.8172E+02  0.1232E+03
      0.842  0.7993E+02  0.1267E+03
      0.885  0.7828E+02  0.1300E+03
      0.928  0.7700E+02  0.1333E+03
      0.971  0.7616E+02  0.1366E+03
      1.014  0.7559E+02  0.1398E+03
      1.057  0.7503E+02  0.1430E+03
      1.100  0.7428E+02  0.1462E+03
      1.143  0.7334E+02  0.1494E+03
      1.186  0.7247E+02  0.1525E+03
      1.228  0.7202E+02  0.1556E+03
      1.271  0.7214E+02  0.1587E+03
      1.314  0.7264E+02  0.1618E+03
      1.357  0.7304E+02  0.1649E+03
      1.400  0.7291E+02  0.1680E+03
      1.443  0.7211E+02  0.1711E+03
      1.486  0.7093E+02  0.1742E+03
      1.529  0.6992E+02  0.1772E+03
      1.572  0.6957E+02  0.1802E+03
      1.615  0.7014E+02  0.1832E+03
      1.657  0.7157E+02  0.1862E+03
      1.700  0.7361E+02  0.1894E+03
      1.743  0.7592E+02  0.1927E+03
      1.786  0.7820E+02  0.1960E+03
      1.829  0.8026E+02  0.1995E+03
      1.872  0.8207E+02  0.2030E+03
      1.915  0.8365E+02  0.2066E+03
      1.958  0.8512E+02  0.2102E+03
      2.001  0.8656E+02  0.2139E+03
      2.044  0.8801E+02  0.2177E+03
      2.086  0.8946E+02  0.2215E+03
      2.129  0.9088E+02  0.2254E+03
      2.172  0.9230E+02  0.2294E+03
      2.215  0.9381E+02  0.2334E+03
      2.258  0.9555E+02  0.2375E+03
      2.301  0.9777E+02  0.2417E+03
      2.344  0.1007E+03  0.2460E+03
      2.387  0.1043E+03  0.2505E+03
      2.430  0.1086E+03  0.2552E+03
      2.472  0.1132E+03  0.2600E+03
      2.515  0.1176E+03  0.2651E+03
      2.558  0.1215E+03  0.2703E+03
      2.601  0.1245E+03  0.2756E+03
      2.644  0.1264E+03  0.2810E+03
      2.687  0.1274E+03  0.2865E+03
      2.730  0.1278E+03  0.2920E+03
      2.773  0.1283E+03  0.2975E+03
      2.816  0.1295E+03  0.3031E+03
      2.859  0.1318E+03  0.3087E+03
      2.901  0.1350E+03  0.3145E+03
      2.944  0.1382E+03  0.3204E+03
      2.987  0.1398E+03  0.3264E+03
      3.030  0.1386E+03  0.3324E+03
      3.073  0.1337E+03  0.3381E+03
      3.116  0.1260E+03  0.3435E+03
      3.159  0.1168E+03  0.3485E+03
      3.202  0.1078E+03  0.3532E+03
      3.245  0.1005E+03  0.3575E+03
      3.287  0.9534E+02  0.3616E+03
      3.330  0.9250E+02  0.3655E+03
      3.373  0.9147E+02  0.3694E+03
      3.416  0.9144E+02  0.3734E+03
      3.459  0.9149E+02  0.3773E+03
      3.502  0.9090E+02  0.3812E+03
      3.545  0.8938E+02  0.3850E+03
      3.588  0.8724E+02  0.3888E+03
      3.631  0.8529E+02  0.3924E+03
      3.674  0.8446E+02  0.3960E+03
      3.716  0.8535E+02  0.3997E+03
      3.759  0.8784E+02  0.4035E+03
      3.802  0.9123E+02  0.4074E+03
      3.845  0.9466E+02  0.4115E+03
      3.888  0.9754E+02  0.4156E+03
      3.931  0.9976E+02  0.4199E+03
      3.974  0.1015E+03  0.4243E+03
      4.017  0.1028E+03  0.4287E+03
      4.060  0.1038E+03  0.4331E+03
      4.103  0.1042E+03  0.4376E+03
      4.145  0.1037E+03  0.4420E+03
      4.188  0.1025E+03  0.4464E+03
      4.231  0.1008E+03  0.4508E+03
      4.274  0.9908E+02  0.4550E+03
      4.317  0.9780E+02  0.4592E+03
      4.360  0.9722E+02  0.4634E+03
      4.403  0.9738E+02  0.4676E+03
      4.446  0.9803E+02  0.4718E+03
      4.489  0.9880E+02  0.4760E+03
      4.531  0.9928E+02  0.4803E+03
      4.574  0.9926E+02  0.4845E+03
      4.617  0.9881E+02  0.4888E+03
      4.660  0.9831E+02  0.4930E+03
      4.703  0.9825E+02  0.4972E+03
      4.746  0.9905E+02  0.5014E+03
      4.789  0.1008E+03  0.5058E+03
      4.832  0.1034E+03  0.5102E+03
      4.875  0.1062E+03  0.5148E+03
      4.918  0.1089E+03  0.5194E+03
      4.960  0.1110E+03  0.5242E+03
      5.003  0.1119E+03  0.5290E+03
      5.046  0.1106E+03  0.5337E+03
      5.089  0.1062E+03  0.5383E+03
      5.132  0.9765E+02  0.5425E+03
      5.175  0.8472E+02  0.5461E+03
      5.218  0.6836E+02  0.5490E+03
      5.261  0.5062E+02  0.5512E+03
      5.304  0.3400E+02  0.5527E+03
      5.347  0.2052E+02  0.5536E+03
      5.389  0.1103E+02  0.5540E+03
      5.432  0.5254E+01  0.5543E+03
      5.475  0.2205E+01  0.5543E+03
      5.518  0.8124E+00  0.5544E+03
      5.561  0.2619E+00  0.5544E+03
      5.604  0.7374E-01  0.5544E+03
      5.647  0.1809E-01  0.5544E+03
      5.690  0.3861E-02  0.5544E+03
      5.733  0.7160E-03  0.5544E+03
      5.775  0.1152E-03  0.5544E+03
      5.818  0.1607E-04  0.5544E+03
      5.861  0.1941E-05  0.5544E+03
      5.904  0.2027E-06  0.5544E+03
      5.947  0.1829E-07  0.5544E+03
      5.990  0.1424E-08  0.5544E+03
      6.033  0.9549E-10  0.5544E+03
      6.076  0.5513E-11  0.5544E+03
      6.119  0.2728E-12  0.5544E+03
      6.162  0.1081E-13  0.5544E+03
      6.204  0.2588E-15  0.5544E+03
      6.247  0.0000E+00  0.5544E+03
      6.290  0.0000E+00  0.5544E+03
      6.333  0.0000E+00  0.5544E+03
      6.376  0.0000E+00  0.5544E+03
      6.419  0.0000E+00  0.5544E+03
      6.462  0.0000E+00  0.5544E+03
      6.505  0.0000E+00  0.5544E+03
      6.548  0.0000E+00  0.5544E+03
      6.590  0.0000E+00  0.5544E+03
      6.633  0.0000E+00  0.5544E+03
      6.676  0.0000E+00  0.5544E+03
      6.719  0.0000E+00  0.5544E+03
      6.762  0.0000E+00  0.5544E+03
      6.805  0.0000E+00  0.5544E+03
