unknown system                          
           1
     9.726678    0.000000    0.000000
     0.000000    8.423550    0.000000
     0.000000    0.000000   45.000000
   Fe   Mn
 274  14
Direct configuration=     1
   0.06265840  0.03417933  0.12540042
   0.31375475  0.87209951  0.65405104
   0.18743456  0.11705920  0.78729786
   0.43787487  0.29114022  0.38952571
   0.31517300  0.70923396  0.83170867
   0.81433084  0.21028856  0.83269157
   0.18809551  0.95995985  0.83240710
   0.56334711  0.20706821  0.56512752
   0.06265640  0.03643673  0.74287119
   0.81232433  0.87051516  0.52113815
   0.19034393  0.28704849  0.74295854
   0.93641489  0.45606188  0.34615399
   0.93604685  0.29090476  0.38991381
   0.81242724  0.03482922  0.87447435
   0.18578393  0.78713523  0.61019013
   0.56236204  0.04105190  0.38990031
   0.93920651  0.95973015  0.83255996
   0.31445550  0.53503213  0.87481436
   0.68843180  0.28643467  0.74280213
   0.18771992  0.61776110  0.16737493
   0.81129601  0.20629676  0.47891720
   0.81179144  0.53589218  0.61035351
   0.31257324  0.87278845  0.43464817
   0.81170531  0.04119054  0.25735775
   0.68695108  0.95468380  0.34568736
   0.93593448  0.11964790  0.16845602
   0.06273810  0.87124477  0.52114108
   0.56157874  0.54194004  0.25688160
   0.68626721  0.79076975  0.87451273
   0.56313092  0.36851083  0.16761174
   0.43764638  0.78700484  0.74292243
   0.81249295  0.70670884  0.56497321
   0.56242514  0.86733731  0.78728601
   0.68666428  0.12096600  0.52118660
   0.81411253  0.37119234  0.65421329
   0.93836623  0.45917080  0.83246999
   0.06184551  0.20642383  0.69870214
   0.43639708  0.95654329  0.69862912
   0.31365272  0.20839739  0.83256009
   0.43906359  0.62167217  0.65405495
   0.31149533  0.53627765  0.61037680
   0.93752942  0.45733489  0.56511466
   0.68754874  0.78766419  0.74306826
   0.93668440  0.79109422  0.12552373
   0.68764394  0.78948237  0.38956183
   0.93798751  0.78684923  0.74333477
   0.06297974  0.20500391  0.34563496
   0.81221583  0.04068518  0.38993051
   0.43747316  0.11706783  0.78739918
   0.06239563  0.20766971  0.21266185
   0.06141226  0.36940219  0.16789323
   0.93504610  0.79145139  0.25693514
   0.56247166  0.20613170  0.69865531
   0.68687774  0.95650696  0.69869456
   0.81199559  0.86743464  0.78715110
   0.43707355  0.95670285  0.56486407
   0.81253336  0.36780300  0.78725110
   0.68483968  0.29175402  0.25735626
   0.18748913  0.45714739  0.56500254
   0.06266808  0.86921135  0.16779250
   0.18586943  0.28680266  0.61004058
   0.56407059  0.70587378  0.34609322
   0.31212322  0.20661218  0.69889215
   0.56211384  0.53502085  0.87470702
   0.06257087  0.70680053  0.56493839
   0.68775882  0.61717811  0.78738430
   0.31187938  0.54022187  0.38961404
   0.18752669  0.62076488  0.52116936
   0.56319319  0.87395573  0.43492003
   0.43716208  0.45723728  0.56501252
   0.43752240  0.28784112  0.74291402
   0.81262270  0.87671985  0.30144629
   0.81170191  0.70639650  0.34628557
   0.43942517  0.45902877  0.83207173
   0.68751174  0.95577202  0.47875143
   0.68652605  0.45645146  0.69870473
   0.56289482  0.87120895  0.52122239
   0.56396217  0.37140203  0.65393019
   0.81430356  0.87184259  0.65409896
   0.81388688  0.37400073  0.43468767
   0.81257120  0.54133980  0.25706184
   0.68936377  0.45759198  0.83215960
   0.18848769  0.79025558  0.12515682
   0.68841342  0.29058765  0.38935191
   0.31405288  0.37192201  0.65420213
   0.31318075  0.20493166  0.34572240
   0.81283005  0.53646003  0.74288164
   0.68756036  0.95885246  0.83226657
   0.56337121  0.87171461  0.65389976
   0.31254139  0.70713766  0.56510518
   0.31297597  0.53453651  0.12510960
   0.68723978  0.95815898  0.21272312
   0.31246442  0.20734863  0.56510254
   0.18708283  0.95624041  0.47864747
   0.68836988  0.95696969  0.56519710
   0.43736323  0.78584847  0.61029234
   0.68717803  0.61650072  0.16769798
   0.31307870  0.87541289  0.30116184
   0.31281906  0.70553422  0.47870038
   0.93590092  0.28695832  0.61018163
   0.43830805  0.62587192  0.30141155
   0.81242891  0.86852446  0.16819574
   0.56372837  0.20788414  0.21255010
   0.93625342  0.61642127  0.16775135
   0.94004086  0.78852411  0.87476476
   0.56247623  0.36708706  0.78730279
   0.06164617  0.37127581  0.52123031
   0.31217676  0.36760212  0.16812028
   0.68842454  0.12497940  0.30111075
   0.43956840  0.95853610  0.83202613
   0.18712549  0.29077070  0.12545913
   0.18497303  0.29231836  0.25735575
   0.31249163  0.37331765  0.43475853
   0.56396724  0.03467578  0.12532383
   0.43577256  0.28669817  0.61002088
   0.18651251  0.45810471  0.34638103
   0.43730739  0.29090324  0.12545044
   0.68481305  0.79186911  0.25701997
   0.43700413  0.12123529  0.52117833
   0.18869191  0.29071535  0.87471118
   0.18879167  0.12245657  0.65414553
   0.93899335  0.12256976  0.65417421
   0.31283220  0.20795518  0.21259318
   0.06306907  0.03927839  0.38965934
   0.18726104  0.11602186  0.16755487
   0.06104856  0.53668579  0.61031406
   0.93551259  0.29221998  0.25726904
   0.56132763  0.53659253  0.61007689
   0.93759142  0.95767374  0.56508526
   0.68781865  0.62494332  0.30136504
   0.93661060  0.62386495  0.43498388
   0.93696979  0.61789188  0.78704659
   0.56231219  0.70610606  0.69869231
   0.06309693  0.71062740  0.83251963
   0.93802741  0.12528291  0.30126813
   0.93740915  0.78576606  0.61035660
   0.43468094  0.79158816  0.25695598
   0.31238020  0.36732674  0.78725091
   0.43746298  0.45766659  0.21258620
   0.18778938  0.12029645  0.52112643
   0.81199521  0.70603832  0.69858466
   0.06102329  0.03612133  0.61008506
   0.56298043  0.20950604  0.83201436
   0.31135902  0.87097247  0.52111607
   0.68832362  0.29059107  0.12535068
   0.18749259  0.95813729  0.21286507
   0.68581840  0.28710133  0.61020041
   0.31123299  0.03628997  0.61039295
   0.93767817  0.11730837  0.78739230
   0.43818657  0.79108115  0.87458267
   0.81282214  0.03739903  0.74280021
   0.93686843  0.45691438  0.69889850
   0.18885833  0.62203877  0.65411409
   0.31223726  0.70649423  0.69873841
   0.93651776  0.29014299  0.12539819
   0.43729085  0.45590312  0.47882143
   0.06249738  0.70573830  0.47868945
   0.93651311  0.12376319  0.43531115
   0.43719330  0.12511007  0.30135420
   0.18760591  0.12331431  0.43466756
   0.56284597  0.03346967  0.87478639
   0.18761065  0.95748156  0.56518823
   0.68851565  0.79110763  0.12550637
   0.56332174  0.53327945  0.12518498
   0.31270223  0.04011138  0.38977051
   0.68741930  0.11899970  0.16840663
   0.81284243  0.20841163  0.21247551
   0.06311016  0.54216245  0.25699063
   0.56218672  0.70560426  0.47870931
   0.43731601  0.79123264  0.12513345
   0.56246966  0.37635480  0.30141166
   0.43610396  0.95576784  0.34590242
   0.18753577  0.95646907  0.69881562
   0.43564093  0.61796840  0.16745361
   0.93772891  0.45822095  0.21299162
   0.06231234  0.53332647  0.12533058
   0.81326083  0.37119713  0.52124068
   0.93737042  0.62529814  0.30106423
   0.31321161  0.04171986  0.25691581
   0.68598054  0.78672231  0.61038620
   0.18822517  0.45883641  0.83237241
   0.43669729  0.11608001  0.16752723
   0.31121292  0.37083875  0.52111548
   0.43732802  0.61698217  0.78749109
   0.06133297  0.04164681  0.25710957
   0.56261237  0.70700183  0.56542780
   0.93766931  0.28649943  0.74292634
   0.68677715  0.11718788  0.78717461
   0.18761397  0.45795989  0.21267258
   0.93753525  0.79069378  0.38977130
   0.68704942  0.29222776  0.87485615
   0.56201605  0.86854604  0.16760246
   0.43653656  0.45685559  0.69877237
   0.93776278  0.95611143  0.34590684
   0.68656751  0.62154654  0.52118747
   0.06376956  0.87087386  0.65413322
   0.06212917  0.86778079  0.78713874
   0.06395678  0.37160857  0.65406498
   0.68759085  0.45564979  0.47882979
   0.18519114  0.79248563  0.25699883
   0.43756030  0.12287409  0.43458166
   0.81318309  0.03374081  0.12532936
   0.93705888  0.62108405  0.52126418
   0.06280895  0.87306369  0.43464652
   0.81263637  0.53323953  0.12505788
   0.43658294  0.45604288  0.34627357
   0.81278896  0.20716547  0.34632647
   0.31257945  0.70465800  0.34568521
   0.68836828  0.12245326  0.65421245
   0.56343721  0.87642368  0.30148214
   0.06335777  0.53621551  0.74308244
   0.93820229  0.95826293  0.21262095
   0.81254249  0.70803385  0.21257684
   0.06200336  0.87542552  0.30137395
   0.18758340  0.12642810  0.30157779
   0.06209991  0.70553153  0.34604699
   0.81182911  0.03571991  0.61015513
   0.06272318  0.37257763  0.43459085
   0.56227479  0.20695854  0.34628912
   0.81309185  0.37623893  0.30138295
   0.56266777  0.04303561  0.25697620
   0.56275934  0.54074705  0.38976011
   0.06270266  0.20582416  0.47876355
   0.31272365  0.86708201  0.78710352
   0.93676277  0.95671782  0.69872466
   0.06331228  0.37534788  0.30114448
   0.68842342  0.62216416  0.65415813
   0.68766660  0.45734623  0.56504217
   0.43756319  0.95793012  0.21299916
   0.31236121  0.20588623  0.47866908
   0.43905186  0.12201784  0.65398045
   0.68737847  0.62240796  0.43459471
   0.81241953  0.20633484  0.69877834
   0.81235147  0.70583324  0.47865663
   0.81189205  0.87353172  0.43471674
   0.93721576  0.95542341  0.47881388
   0.56242011  0.20571710  0.47874673
   0.18759195  0.62375833  0.43469459
   0.31250615  0.03783392  0.74283334
   0.93866235  0.62282561  0.65413098
   0.56416044  0.70937756  0.83208356
   0.31309085  0.37451048  0.30135301
   0.56255225  0.70779821  0.21262040
   0.18704185  0.45590688  0.47867030
   0.31379105  0.03507601  0.87448126
   0.18639532  0.45694868  0.69863446
   0.81189869  0.53395261  0.87481780
   0.18747825  0.29056990  0.38982006
   0.43659510  0.62344193  0.43467876
   0.06278332  0.70768380  0.21274354
   0.56208904  0.37454982  0.43534831
   0.43780381  0.62172547  0.52127219
   0.81436974  0.71004250  0.83195818
   0.06251506  0.36813191  0.78725634
   0.43759878  0.29205271  0.87495249
   0.31304353  0.03418663  0.12532655
   0.68745602  0.12118322  0.43453845
   0.18616968  0.95660508  0.34609972
   0.06346130  0.20988158  0.83282049
   0.56120334  0.03626039  0.61043381
   0.68734075  0.45794277  0.21285288
   0.18776075  0.78668813  0.74299080
   0.18787656  0.62741300  0.30168201
   0.43658510  0.79123572  0.39000688
   0.43452574  0.29289084  0.25711962
   0.06362690  0.53567292  0.87462762
   0.56330180  0.03674683  0.74301641
   0.18807506  0.79095110  0.87455471
   0.93736883  0.45562903  0.47868334
   0.56315781  0.53737061  0.74274811
   0.81199891  0.20681443  0.56492206
   0.18747771  0.61709051  0.78728174
   0.06328332  0.54005751  0.38964038
   0.06254227  0.70631974  0.69866840
   0.31268010  0.54263437  0.25669063
   0.31278036  0.70546885  0.21326006
   0.31235826  0.86842088  0.16678962
   0.81371558  0.53912935  0.39002852
   0.68575131  0.45501144  0.34594720
   0.93513717  0.29217088  0.87427595
   0.43722395  0.95636766  0.47878805
   0.06349981  0.03138710  0.87445460
   0.18671013  0.79308383  0.39003307
   0.81224256  0.36908801  0.16741246
   0.56231990  0.37076482  0.52128432
   0.93693621  0.12073296  0.52105829
   0.06387469  0.20598845  0.56543792
   0.31364739  0.53576172  0.74308726
Direct configuration=     2
   0.06328918  0.03621285  0.12448950
   0.31406508  0.87132281  0.65328337
   0.18743043  0.11661620  0.78735015
   0.43763068  0.29133221  0.38936510
   0.31612867  0.70996324  0.83103457
   0.81227318  0.20827377  0.83156007
   0.19003487  0.95980378  0.83080541
   0.56375232  0.20639173  0.56504277
   0.06307955  0.03646507  0.74153388
   0.81269608  0.86959775  0.52164207
   0.18926832  0.28596781  0.74172654
   0.93796786  0.45584378  0.34619281
   0.93666025  0.29051014  0.38986225
   0.81094138  0.03518306  0.87624725
   0.18632092  0.78690386  0.60964757
   0.56213307  0.04103140  0.38962584
   0.93719451  0.95956974  0.83113093
   0.31596065  0.53715753  0.87647155
   0.68773160  0.28662100  0.74155655
   0.18740139  0.61904884  0.16886156
   0.81208263  0.20679034  0.47859753
   0.81140691  0.53800955  0.60971351
   0.31231572  0.87248732  0.43417841
   0.81268888  0.04099358  0.25850114
   0.68682112  0.95546867  0.34567990
   0.93432586  0.11979760  0.16975890
   0.06229128  0.87046709  0.52163518
   0.56190813  0.54236052  0.25777067
   0.68603366  0.78929936  0.87596792
   0.56361128  0.36719263  0.16933742
   0.43797044  0.78836261  0.74151897
   0.81216160  0.70707318  0.56522124
   0.56270931  0.86772812  0.78749907
   0.68713330  0.12073310  0.52163902
   0.81386533  0.37275762  0.65338575
   0.93765366  0.46098015  0.83109689
   0.06210293  0.20561068  0.69756837
   0.43597837  0.95580994  0.69723143
   0.31524613  0.20757157  0.83149925
   0.43953792  0.62359878  0.65302490
   0.31199496  0.53856522  0.60988111
   0.93749096  0.45821273  0.56510243
   0.68782711  0.78759151  0.74167081
   0.93765195  0.78886568  0.12468715
   0.68791659  0.78926843  0.38952034
   0.93782297  0.78705387  0.74162580
   0.06351446  0.20512476  0.34559493
   0.81279123  0.04071950  0.38977015
   0.43682733  0.11623675  0.78752239
   0.06176670  0.20678243  0.21392258
   0.06081695  0.36798117  0.16937392
   0.93611226  0.79213931  0.25817000
   0.56182245  0.20480496  0.69753894
   0.68704611  0.95491859  0.69731049
   0.81193567  0.86889758  0.78735287
   0.43778792  0.95469340  0.56508273
   0.81247622  0.36691210  0.78733700
   0.68579671  0.29090500  0.25827566
   0.18633755  0.45792004  0.56487392
   0.06209377  0.86908593  0.16938634
   0.18577371  0.28731354  0.60953996
   0.56292256  0.70674540  0.34614095
   0.31239513  0.20453405  0.69775141
   0.56263088  0.53713999  0.87609279
   0.06179801  0.70676273  0.56503195
   0.68743688  0.61828493  0.78750220
   0.31129204  0.54006972  0.38929968
   0.18708536  0.62116831  0.52148137
   0.56381903  0.87354850  0.43445638
   0.43813745  0.45830077  0.56494720
   0.43851663  0.28647520  0.74158822
   0.81302738  0.87732858  0.30190462
   0.81229519  0.70710027  0.34628887
   0.44048465  0.45918809  0.83128563
   0.68788683  0.95447719  0.47842851
   0.68781380  0.45771495  0.69746959
   0.56319326  0.87049912  0.52173923
   0.56429673  0.37282517  0.65306218
   0.81398013  0.87077035  0.65321756
   0.81407903  0.37477879  0.43417434
   0.81328173  0.54185216  0.25815382
   0.68799002  0.45894101  0.83140796
   0.18945859  0.78941804  0.12422188
   0.68843418  0.29043671  0.38944670
   0.31406937  0.37252969  0.65341793
   0.31231963  0.20482439  0.34569100
   0.81287890  0.53674553  0.74123009
   0.68730177  0.95924270  0.83130621
   0.56326688  0.87058786  0.65302153
   0.31304775  0.70793948  0.56521052
   0.31262650  0.53744885  0.12404900
   0.68755503  0.95836001  0.21378146
   0.31201136  0.20637456  0.56500854
   0.18659860  0.95529413  0.47845669
   0.68830172  0.95504876  0.56533668
   0.43804713  0.78595623  0.60968239
   0.68810920  0.61755143  0.16924836
   0.31243090  0.87635800  0.30185892
   0.31195792  0.70466303  0.47849715
   0.93523538  0.28777738  0.60948863
   0.43738437  0.62709430  0.30221594
   0.81238646  0.87027060  0.16979845
   0.56349933  0.20794588  0.21365254
   0.93569430  0.61737338  0.16920359
   0.93752813  0.78712235  0.87660711
   0.56273086  0.36728174  0.78733179
   0.06146285  0.37212225  0.52144600
   0.31223519  0.36725081  0.16976849
   0.68816078  0.12351448  0.30186015
   0.43989266  0.95839664  0.83123374
   0.18712157  0.28828256  0.12451580
   0.18499594  0.29127062  0.25862840
   0.31224294  0.37403585  0.43425202
   0.56303770  0.03644606  0.12461260
   0.43680873  0.28679588  0.60953385
   0.18667306  0.45795318  0.34623111
   0.43717148  0.28752733  0.12450384
   0.68548454  0.79275726  0.25826501
   0.43729567  0.12130592  0.52158053
   0.18936171  0.28863136  0.87671649
   0.18937555  0.12057343  0.65350619
   0.93809424  0.12093645  0.65341740
   0.31285208  0.20786189  0.21382698
   0.06298294  0.03961845  0.38935078
   0.18770498  0.11658565  0.16890448
   0.06031127  0.53856953  0.60961261
   0.93642650  0.29133441  0.25838762
   0.56233378  0.53921360  0.60947201
   0.93693941  0.95612258  0.56499144
   0.68789636  0.62627217  0.30195852
   0.93633529  0.62307107  0.43457332
   0.93706025  0.61876463  0.78721849
   0.56262428  0.70705011  0.69736855
   0.06325131  0.71051881  0.83127361
   0.93893337  0.12457846  0.30190990
   0.93624762  0.78531461  0.60972523
   0.43473400  0.79310820  0.25816709
   0.31220874  0.36571791  0.78759413
   0.43740111  0.45751249  0.21383627
   0.18673184  0.12069436  0.52152335
   0.81309238  0.70620641  0.69713915
   0.06075615  0.03493512  0.60950889
   0.56315863  0.20835249  0.83160409
   0.31105808  0.87025934  0.52154909
   0.68894582  0.28765156  0.12461567
   0.18798877  0.95711423  0.21416518
   0.68638130  0.28755859  0.60964459
   0.31219531  0.03437604  0.60980009
   0.93730671  0.11642770  0.78744154
   0.43945218  0.79003891  0.87598914
   0.81290631  0.03679857  0.74164791
   0.93676567  0.45883315  0.69756360
   0.18848957  0.62369335  0.65330809
   0.31191422  0.70872000  0.69728068
   0.93622871  0.28801283  0.12469021
   0.43677103  0.45624566  0.47862468
   0.06211387  0.70443426  0.47846573
   0.93639421  0.12431143  0.43457431
   0.43666545  0.12396817  0.30206533
   0.18684918  0.12370470  0.43415870
   0.56292640  0.03535911  0.87620018
   0.18739777  0.95610423  0.56511290
   0.68754557  0.78971638  0.12466485
   0.56331126  0.53586887  0.12403323
   0.31215981  0.04013700  0.38934188
   0.68863340  0.11887522  0.16952142
   0.81330519  0.20858907  0.21360310
   0.06259394  0.54287419  0.25831266
   0.56284055  0.70571317  0.47845996
   0.43655020  0.79092631  0.12431231
   0.56170333  0.37491791  0.30208367
   0.43576686  0.95605783  0.34574391
   0.18760548  0.95493334  0.69739662
   0.43572707  0.61958403  0.16896632
   0.93708259  0.45775480  0.21411506
   0.06208384  0.53567563  0.12424160
   0.81372491  0.37216175  0.52156641
   0.93881591  0.62568445  0.30159932
   0.31249267  0.04145625  0.25829141
   0.68624699  0.78624096  0.60970809
   0.18932546  0.45992575  0.83108091
   0.43687888  0.11506477  0.16885438
   0.31099101  0.37183147  0.52133718
   0.43842784  0.61816552  0.78764842
   0.06119214  0.04112342  0.25852053
   0.56315090  0.70790542  0.56567842
   0.93828859  0.28706517  0.74162687
   0.68778510  0.11639826  0.78736616
   0.18791468  0.45783341  0.21394684
   0.93791567  0.79035453  0.38973342
   0.68540336  0.28967806  0.87649359
   0.56135652  0.86975000  0.16906928
   0.43718217  0.45703784  0.69742924
   0.93862089  0.95678099  0.34588252
   0.68713785  0.62248616  0.52164891
   0.06341815  0.86973109  0.65354143
   0.06231198  0.86879625  0.78731354
   0.06308338  0.37296568  0.65333503
   0.68873261  0.45663795  0.47850719
   0.18468653  0.79308989  0.25830655
   0.43785139  0.12337118  0.43406000
   0.81287944  0.03705652  0.12484055
   0.93704772  0.62151866  0.52157498
   0.06206471  0.87229138  0.43411314
   0.81315001  0.53439034  0.12415330
   0.43553385  0.45657030  0.34638916
   0.81319975  0.20583238  0.34627264
   0.31176098  0.70481033  0.34575564
   0.68851699  0.12074410  0.65322553
   0.56260414  0.87731349  0.30212976
   0.06245145  0.53661452  0.74143693
   0.93806996  0.95851512  0.21393036
   0.81292706  0.70798122  0.21381202
   0.06260027  0.87606124  0.30199173
   0.18740568  0.12582834  0.30218421
   0.06318671  0.70592489  0.34601521
   0.81090889  0.03413609  0.60956115
   0.06190881  0.37370143  0.43423499
   0.56180796  0.20591128  0.34619713
   0.81404657  0.37540970  0.30197271
   0.56235978  0.04197122  0.25830512
   0.56272863  0.54074901  0.38970687
   0.06222511  0.20739913  0.47856734
   0.31227387  0.86822833  0.78720316
   0.93723126  0.95414423  0.69729191
   0.06412544  0.37477014  0.30193716
   0.68852913  0.62349178  0.65317574
   0.68776158  0.45855540  0.56513301
   0.43668236  0.95708447  0.21412332
   0.31186066  0.20683586  0.47843198
   0.43879075  0.11999846  0.65334190
   0.68853666  0.62215275  0.43415223
   0.81274588  0.20631767  0.69759078
   0.81273729  0.70485668  0.47826385
   0.81210735  0.87270274  0.43427824
   0.93699047  0.95456230  0.47862689
   0.56264514  0.20602542  0.47849025
   0.18661228  0.62297621  0.43425264
   0.31267920  0.03718305  0.74141361
   0.93805249  0.62369005  0.65346948
   0.56431024  0.70888286  0.83158825
   0.31152560  0.37355105  0.30224256
   0.56170594  0.70766811  0.21383940
   0.18600479  0.45626588  0.47841962
   0.31575907  0.03620164  0.87617388
   0.18499424  0.45751360  0.69743027
   0.81027134  0.53667936  0.87655636
   0.18726365  0.29090046  0.38947920
   0.43709074  0.62273776  0.43430091
   0.06302780  0.70787254  0.21419576
   0.56273928  0.37468886  0.43460816
   0.43777446  0.62234532  0.52168141
   0.81302204  0.71050979  0.83129137
   0.06258668  0.36707152  0.78717549
   0.43941489  0.28936791  0.87647339
   0.31350852  0.03457902  0.12442221
   0.68816618  0.12189957  0.43407208
   0.18630354  0.95688814  0.34598083
   0.06383783  0.20890364  0.83134582
   0.56187422  0.03450453  0.60984816
   0.68773838  0.45727303  0.21396318
   0.18737696  0.78745570  0.74144873
   0.18716784  0.62725989  0.30242781
   0.43641310  0.79085303  0.38963195
   0.43389388  0.29141406  0.25823458
   0.06307002  0.53693606  0.87660829
   0.56268361  0.03677361  0.74156780
   0.18977929  0.78919677  0.87640769
   0.93771595  0.45661319  0.47823223
   0.56415606  0.53763685  0.74152194
   0.81280961  0.20625985  0.56491727
   0.18673594  0.61877305  0.78747585
   0.06326065  0.54016388  0.38957566
   0.06148332  0.70696643  0.69741374
   0.31156274  0.54275848  0.25780146
   0.31268766  0.70720664  0.21441432
   0.31355633  0.86897156  0.16856805
   0.81388717  0.53944671  0.39009177
   0.68582355  0.45511625  0.34620901
   0.93394112  0.28941861  0.87694536
   0.43765724  0.95538172  0.47879723
   0.06258750  0.03315337  0.87710549
   0.18638050  0.79243536  0.38953599
   0.81216068  0.36641666  0.16938925
   0.56248255  0.37134301  0.52165132
   0.93740199  0.12085721  0.52160667
   0.06264546  0.20603231  0.56505269
   0.31337651  0.53701831  0.74149264
Direct configuration=     3
   0.06310977  0.03563444  0.12474860
   0.31397681  0.87154374  0.65350173
   0.18743161  0.11674220  0.78733527
   0.43770013  0.29127760  0.38941078
   0.31585684  0.70975580  0.83122631
   0.81285846  0.20884686  0.83188191
   0.18948324  0.95984817  0.83126099
   0.56363707  0.20658414  0.56506688
   0.06295919  0.03645701  0.74191426
   0.81259034  0.86985869  0.52149873
   0.18957426  0.28627520  0.74207697
   0.93752613  0.45590582  0.34618177
   0.93648578  0.29062239  0.38987692
   0.81136401  0.03508241  0.87574297
   0.18616818  0.78696967  0.60980189
   0.56219820  0.04103723  0.38970391
   0.93776680  0.95961537  0.83153740
   0.31553253  0.53655298  0.87600018
   0.68793076  0.28656800  0.74191084
   0.18749199  0.61868256  0.16843871
   0.81185889  0.20664995  0.47868846
   0.81151628  0.53740729  0.60989555
   0.31238897  0.87257297  0.43431203
   0.81240911  0.04104960  0.25817592
   0.68685809  0.95524542  0.34568202
   0.93478341  0.11975502  0.16938831
   0.06241837  0.87068829  0.52149464
   0.56181444  0.54224092  0.25751778
   0.68610009  0.78971759  0.87555401
   0.56347464  0.36756757  0.16884657
   0.43787827  0.78797641  0.74191817
   0.81225585  0.70696955  0.56515069
   0.56262848  0.86761696  0.78743847
   0.68699989  0.12079934  0.52151033
   0.81393564  0.37231240  0.65362113
   0.93785635  0.46046550  0.83148745
   0.06202971  0.20584197  0.69789085
   0.43609747  0.95601853  0.69762899
   0.31479291  0.20780646  0.83180099
   0.43940300  0.62305078  0.65331789
   0.31185285  0.53791454  0.61002210
   0.93750190  0.45796304  0.56510591
   0.68774793  0.78761218  0.74206829
   0.93737674  0.78949956  0.12492511
   0.68783904  0.78932928  0.38953214
   0.93786977  0.78699566  0.74211189
   0.06336236  0.20509038  0.34560632
   0.81262757  0.04070974  0.38981576
   0.43701103  0.11647314  0.78748735
   0.06194559  0.20703481  0.21356398
   0.06098628  0.36838536  0.16895275
   0.93580900  0.79194364  0.25781876
   0.56200711  0.20518234  0.69785648
   0.68699822  0.95537038  0.69770418
   0.81195271  0.86848146  0.78729548
   0.43758472  0.95526497  0.56502054
   0.81249247  0.36716550  0.78731257
   0.68552449  0.29114650  0.25801415
   0.18666510  0.45770027  0.56491050
   0.06225713  0.86912161  0.16893299
   0.18580094  0.28716822  0.60968236
   0.56324910  0.70649748  0.34612737
   0.31231779  0.20512515  0.69807588
   0.56248381  0.53653723  0.87569863
   0.06201784  0.70677348  0.56500534
   0.68752845  0.61797010  0.78746867
   0.31145910  0.54011300  0.38938909
   0.18721089  0.62105356  0.52139262
   0.56364101  0.87366433  0.43458826
   0.43786002  0.45799827  0.56496578
   0.43823383  0.28686372  0.74196533
   0.81291228  0.87715543  0.30177426
   0.81212644  0.70690009  0.34628793
   0.44018329  0.45914277  0.83150922
   0.68778014  0.95484549  0.47852037
   0.68744751  0.45735556  0.69782091
   0.56310837  0.87070102  0.52159222
   0.56420157  0.37242037  0.65330907
   0.81407212  0.87107533  0.65346826
   0.81402438  0.37455748  0.43432035
   0.81307963  0.54170643  0.25784322
   0.68838077  0.45855730  0.83162176
   0.18918243  0.78965627  0.12448781
   0.68842828  0.29047964  0.38941974
   0.31406468  0.37235684  0.65364098
   0.31256457  0.20485491  0.34569993
   0.81286501  0.53666432  0.74169986
   0.68737532  0.95913170  0.83157938
   0.56329656  0.87090835  0.65327133
   0.31290372  0.70771141  0.56518056
   0.31272590  0.53662047  0.12435068
   0.68746536  0.95830283  0.21348043
   0.31214022  0.20665163  0.56503528
   0.18673634  0.95556329  0.47851095
   0.68832111  0.95559515  0.56529698
   0.43785261  0.78592558  0.60985589
   0.68784434  0.61725257  0.16880737
   0.31261516  0.87608918  0.30166065
   0.31220286  0.70491083  0.47855496
   0.93542469  0.28754441  0.60968575
   0.43764710  0.62674661  0.30198714
   0.81239853  0.86977393  0.16934258
   0.56356448  0.20792831  0.21333896
   0.93585333  0.61710257  0.16879052
   0.93824284  0.78752106  0.87608307
   0.56265843  0.36722637  0.78732354
   0.06151499  0.37188149  0.52138465
   0.31221857  0.36735073  0.16929968
   0.68823580  0.12393116  0.30164699
   0.43980043  0.95843631  0.83145913
   0.18712268  0.28899028  0.12478412
   0.18498942  0.29156864  0.25826641
   0.31231368  0.37383157  0.43439609
   0.56330210  0.03594253  0.12481490
   0.43651401  0.28676809  0.60967238
   0.18662739  0.45799628  0.34627376
   0.43721014  0.28848757  0.12477309
   0.68529355  0.79250464  0.25791087
   0.43721274  0.12128583  0.52146613
   0.18917119  0.28922413  0.87614610
   0.18920947  0.12110907  0.65368804
   0.93834998  0.12140103  0.65363267
   0.31284643  0.20788842  0.21347604
   0.06300744  0.03952173  0.38943854
   0.18757871  0.11642528  0.16852060
   0.06052098  0.53803372  0.60981213
   0.93616655  0.29158630  0.25806945
   0.56204759  0.53846807  0.60964406
   0.93712486  0.95656379  0.56501813
   0.68787425  0.62589420  0.30178971
   0.93641360  0.62329688  0.43469010
   0.93703452  0.61851638  0.78716959
   0.56253551  0.70678158  0.69774508
   0.06320740  0.71054970  0.83162803
   0.93867568  0.12477883  0.30172736
   0.93657800  0.78544302  0.60990482
   0.43471890  0.79267584  0.25782260
   0.31225751  0.36617552  0.78749651
   0.43741871  0.45755632  0.21348070
   0.18703264  0.12058118  0.52141045
   0.81278031  0.70615859  0.69755031
   0.06083214  0.03527252  0.60967277
   0.56310794  0.20868060  0.83172079
   0.31114368  0.87046218  0.52142592
   0.68876884  0.28848767  0.12482473
   0.18784763  0.95740523  0.21379538
   0.68622119  0.28742853  0.60980269
   0.31192159  0.03492043  0.60996872
   0.93741237  0.11667820  0.78742753
   0.43909219  0.79033537  0.87558909
   0.81288237  0.03696937  0.74197567
   0.93679490  0.45828738  0.69794330
   0.18859446  0.62322273  0.65353735
   0.31200610  0.70808691  0.69769532
   0.93631093  0.28861873  0.12489159
   0.43691888  0.45614823  0.47868064
   0.06222296  0.70480518  0.47852937
   0.93642803  0.12415549  0.43478390
   0.43681559  0.12429297  0.30186306
   0.18706443  0.12359366  0.43430344
   0.56290352  0.03482168  0.87579804
   0.18745832  0.95649600  0.56513433
   0.68782150  0.79011211  0.12490421
   0.56331424  0.53513234  0.12436083
   0.31231410  0.04012971  0.38946380
   0.68828806  0.11891063  0.16920433
   0.81317356  0.20853860  0.21328237
   0.06274077  0.54267175  0.25793663
   0.56265457  0.70568219  0.47853089
   0.43676802  0.79101344  0.12454587
   0.56192130  0.37532661  0.30189252
   0.43586274  0.95597534  0.34578900
   0.18758565  0.95537016  0.69780024
   0.43570257  0.61912448  0.16853605
   0.93726643  0.45788739  0.21379551
   0.06214884  0.53500744  0.12455135
   0.81359291  0.37188737  0.52147376
   0.93840475  0.62557457  0.30144712
   0.31269716  0.04153124  0.25790013
   0.68617120  0.78637788  0.60990097
   0.18901250  0.45961590  0.83144826
   0.43682723  0.11535354  0.16847689
   0.31105413  0.37154910  0.52127412
   0.43811501  0.61782893  0.78760367
   0.06123220  0.04127229  0.25811920
   0.56299772  0.70764841  0.56560714
   0.93811244  0.28690425  0.74199649
   0.68749840  0.11662286  0.78731168
   0.18782915  0.45786939  0.21358439
   0.93780746  0.79045103  0.38974420
   0.68587156  0.29040330  0.87602784
   0.56154411  0.86940755  0.16865206
   0.43699853  0.45698600  0.69781128
   0.93837681  0.95659054  0.34588944
   0.68697562  0.62221890  0.52151766
   0.06351810  0.87005613  0.65370976
   0.06225998  0.86850741  0.78726382
   0.06333181  0.37257967  0.65354266
   0.68840785  0.45635688  0.47859895
   0.18483006  0.79291801  0.25793458
   0.43776859  0.12322979  0.43420838
   0.81296581  0.03611341  0.12497958
   0.93705089  0.62139504  0.52148658
   0.06227640  0.87251105  0.43426485
   0.81300391  0.53406300  0.12441060
   0.43583225  0.45642028  0.34635628