       N       E                     dE             d eps       ncg     rms          rms(c)
DAV:   1     0.302091469528E+05    0.30209E+05   -0.91150E+05 13790   0.214E+03
DAV:   2     0.154905228032E+04   -0.28660E+05   -0.28077E+05 13700   0.616E+02
DAV:   3    -0.189319936338E+04   -0.34423E+04   -0.30014E+04 19130   0.300E+02
DAV:   4    -0.261890649965E+04   -0.72571E+03   -0.66233E+03 25130   0.105E+02
DAV:   5    -0.275087436449E+04   -0.13197E+03   -0.12354E+03 23920   0.429E+01    0.208E+02
RMM:   6    -0.569358275475E+04   -0.29427E+04   -0.12839E+04 23948   0.256E+02    0.696E+02
RMM:   7    -0.396564032503E+04    0.17279E+04   -0.37467E+03 24143   0.104E+02    0.405E+02
RMM:   8    -0.116770294409E+05   -0.77114E+04   -0.22438E+04 23347   0.421E+02    0.131E+03
RMM:   9    -0.141660697794E+05   -0.24890E+04   -0.17894E+04 24939   0.213E+02    0.855E+02
RMM:  10    -0.830493409278E+04    0.58611E+04   -0.98375E+03 17964   0.202E+02    0.613E+02
RMM:  11    -0.101231193532E+05   -0.18182E+04   -0.15732E+04 22965   0.248E+02    0.865E+02
RMM:  12    -0.112842941171E+05   -0.11612E+04   -0.15159E+04 24756   0.132E+02    0.739E+02
RMM:  13    -0.910623671227E+04    0.21781E+04   -0.51739E+03 23802   0.150E+02    0.606E+02
RMM:  14    -0.715845518180E+04    0.19478E+04   -0.88831E+03 17923   0.232E+02    0.591E+02
RMM:  15    -0.480784175414E+04    0.23506E+04   -0.52293E+03 23449   0.117E+02    0.449E+02
RMM:  16    -0.533116201392E+04   -0.52332E+03   -0.27264E+03 19711   0.948E+01    0.441E+02
RMM:  17    -0.306969576926E+04    0.22615E+04   -0.24190E+03 14657   0.969E+01    0.247E+02
RMM:  18    -0.274705400231E+04    0.32264E+03   -0.19950E+03 20700   0.501E+01    0.211E+02
RMM:  19    -0.295110580134E+04   -0.20405E+03   -0.15994E+03 20833   0.559E+01    0.236E+02
RMM:  20    -0.266374304910E+04    0.28736E+03   -0.57729E+02 15000   0.423E+01    0.177E+02
RMM:  21    -0.249488461769E+04    0.16886E+03   -0.38946E+02 17138   0.263E+01    0.149E+02
RMM:  22    -0.241993118430E+04    0.74953E+02   -0.33336E+02 15617   0.286E+01    0.139E+02
RMM:  23    -0.250947941701E+04   -0.89548E+02   -0.39696E+02 16516   0.295E+01    0.147E+02
RMM:  24    -0.243521322544E+04    0.74266E+02   -0.33882E+02 20691   0.156E+01    0.118E+02
RMM:  25    -0.242479363251E+04    0.10420E+02   -0.18792E+02 19781   0.106E+01    0.111E+02
RMM:  26    -0.243202753759E+04   -0.72339E+01   -0.13172E+02 22161   0.632E+00    0.116E+02
RMM:  27    -0.242641947290E+04    0.56081E+01   -0.56166E+01 18888   0.415E+00    0.118E+02
RMM:  28    -0.242488968448E+04    0.15298E+01   -0.34223E+01 22806   0.188E+00    0.122E+02
RMM:  29    -0.244028215300E+04   -0.15392E+02   -0.31220E+01 20063   0.249E+00    0.131E+02
RMM:  30    -0.242225865718E+04    0.18023E+02   -0.66890E+00 16420   0.242E+00    0.128E+02
RMM:  31    -0.239495321770E+04    0.27305E+02   -0.79979E+00 18708   0.299E+00    0.113E+02
RMM:  32    -0.239449368718E+04    0.45953E+00   -0.38564E+01 16249   0.729E+00    0.101E+02
RMM:  33    -0.238173595860E+04    0.12758E+02   -0.46905E+01 20733   0.502E+00    0.869E+01
RMM:  34    -0.239081104541E+04   -0.90751E+01   -0.30752E+01 16741   0.608E+00    0.931E+01
RMM:  35    -0.239362989368E+04   -0.28188E+01   -0.25833E+01 20491   0.389E+00    0.972E+01
RMM:  36    -0.239742329305E+04   -0.37934E+01   -0.11142E+01 18801   0.242E+00    0.101E+02
RMM:  37    -0.239661026998E+04    0.81302E+00   -0.63912E+00 22374   0.100E+00    0.102E+02
RMM:  38    -0.239118808962E+04    0.54222E+01   -0.15436E+00 15371   0.144E+00    0.985E+01
RMM:  39    -0.238584188472E+04    0.53462E+01   -0.14342E+00 15064   0.191E+00    0.951E+01
RMM:  40    -0.238249222403E+04    0.33497E+01   -0.96395E-01 14783   0.182E+00    0.924E+01
RMM:  41    -0.237686164371E+04    0.56306E+01   -0.26493E+00 14545   0.315E+00    0.888E+01
RMM:  42    -0.235735577429E+04    0.19506E+02   -0.68579E+00 15154   0.442E+00    0.692E+01
RMM:  43    -0.234450429144E+04    0.12851E+02   -0.19211E+01 19348   0.452E+00    0.489E+01
RMM:  44    -0.234224772258E+04    0.22566E+01   -0.27611E+01 20364   0.432E+00    0.373E+01
RMM:  45    -0.234520252267E+04   -0.29548E+01   -0.15567E+01 20838   0.271E+00    0.398E+01
RMM:  46    -0.234656694400E+04   -0.13644E+01   -0.61610E+00 20231   0.180E+00    0.431E+01
RMM:  47    -0.234556583880E+04    0.10011E+01   -0.15941E+00 19181   0.995E-01    0.423E+01
RMM:  48    -0.234529977905E+04    0.26606E+00   -0.87504E-01 22155   0.464E-01    0.424E+01
RMM:  49    -0.234441988084E+04    0.87990E+00   -0.26635E-01 15297   0.791E-01    0.415E+01
RMM:  50    -0.234287852605E+04    0.15414E+01   -0.49000E-01 15173   0.118E+00    0.393E+01
RMM:  51    -0.239036585267E+04   -0.47487E+02   -0.56756E+01 15508   0.128E+01    0.730E+01
RMM:  52    -0.241119399547E+04   -0.20828E+02   -0.76898E+01 21904   0.470E+00    0.864E+01
RMM:  53    -0.241541420235E+04   -0.42202E+01   -0.21948E+01 20451   0.222E+00    0.938E+01
RMM:  54    -0.245148489021E+04   -0.36071E+02   -0.38137E+01 18081   0.604E+00    0.108E+02
RMM:  55    -0.245858026032E+04   -0.70954E+01   -0.35266E+01 22582   0.231E+00    0.117E+02
RMM:  56    -0.244815383026E+04    0.10426E+02   -0.16741E+02 14178   0.260E+01    0.145E+02
RMM:  57    -0.238324834916E+04    0.64905E+02   -0.62999E+01 14971   0.133E+01    0.103E+02
RMM:  58    -0.239016126945E+04   -0.69129E+01   -0.50736E+01 17379   0.939E+00    0.114E+02
RMM:  59    -0.239668945749E+04   -0.65282E+01   -0.36033E+01 17773   0.737E+00    0.116E+02
RMM:  60    -0.238609698167E+04    0.10592E+02   -0.32820E+01 18303   0.627E+00    0.105E+02
RMM:  61    -0.246258444447E+04   -0.76487E+02   -0.12225E+02 17296   0.132E+01    0.142E+02
RMM:  62    -0.240355284577E+04    0.59032E+02   -0.61941E+01 20309   0.669E+00    0.107E+02
RMM:  63    -0.239873674535E+04    0.48161E+01   -0.29047E+01 15638   0.849E+00    0.103E+02
RMM:  64    -0.238743310376E+04    0.11304E+02   -0.18318E+01 14834   0.771E+00    0.950E+01
RMM:  65    -0.237104276586E+04    0.16390E+02   -0.14838E+01 13925   0.841E+00    0.796E+01
RMM:  66    -0.237699443336E+04   -0.59517E+01   -0.25257E+01 14619   0.922E+00    0.841E+01
RMM:  67    -0.236877467750E+04    0.82198E+01   -0.10884E+01 14291   0.648E+00    0.744E+01
RMM:  68    -0.236803840934E+04    0.73627E+00   -0.86930E+00 15262   0.480E+00    0.730E+01
RMM:  69    -0.235706655896E+04    0.10972E+02   -0.43381E+00 14486   0.411E+00    0.608E+01
RMM:  70    -0.234625064027E+04    0.10816E+02   -0.37147E+00 14568   0.358E+00    0.454E+01
RMM:  71    -0.234933791158E+04   -0.30873E+01   -0.30805E+01 18268   0.691E+00    0.512E+01
RMM:  72    -0.234112308140E+04    0.82148E+01   -0.10045E+01 14254   0.582E+00    0.344E+01
RMM:  73    -0.233994343411E+04    0.11796E+01   -0.92894E+00 17235   0.383E+00    0.307E+01
RMM:  74    -0.233926998225E+04    0.67345E+00   -0.33239E+00 15566   0.287E+00    0.282E+01
RMM:  75    -0.233750425084E+04    0.17657E+01   -0.19738E+00 14929   0.244E+00    0.220E+01
RMM:  76    -0.234213905313E+04   -0.46348E+01   -0.59835E+00 13818   0.500E+00    0.354E+01
RMM:  77    -0.233809894058E+04    0.40401E+01   -0.23557E+00 13700   0.399E+00    0.244E+01
RMM:  78    -0.233641512632E+04    0.16838E+01   -0.88962E-01 13856   0.214E+00    0.176E+01
RMM:  79    -0.233612540904E+04    0.28972E+00   -0.93544E-01 14412   0.183E+00    0.160E+01
RMM:  80    -0.233592298658E+04    0.20242E+00   -0.53384E-01 13857   0.162E+00    0.147E+01
RMM:  81    -0.233702132325E+04   -0.10983E+01   -0.13276E+00 13988   0.241E+00    0.200E+01
RMM:  82    -0.233609463840E+04    0.92668E+00   -0.61933E-01 13889   0.181E+00    0.156E+01
RMM:  83    -0.233550964090E+04    0.58500E+00   -0.56861E-01 14301   0.151E+00    0.122E+01
RMM:  84    -0.233527261365E+04    0.23703E+00   -0.44205E-01 14563   0.126E+00    0.103E+01
RMM:  85    -0.233519347636E+04    0.79137E-01   -0.51302E-01 15182   0.120E+00    0.905E+00
RMM:  86    -0.233587383881E+04   -0.68036E+00   -0.14546E+00 14236   0.237E+00    0.140E+01
RMM:  87    -0.233515702137E+04    0.71682E+00   -0.74641E-01 13728   0.219E+00    0.807E+00
RMM:  88    -0.233504988784E+04    0.10713E+00   -0.63829E-01 16025   0.114E+00    0.632E+00
RMM:  89    -0.233516456183E+04   -0.11467E+00   -0.56630E-01 17617   0.901E-01    0.742E+00
RMM:  90    -0.233516704570E+04   -0.24839E-02   -0.32235E-01 17330   0.687E-01    0.700E+00
RMM:  91    -0.233525126172E+04   -0.84216E-01   -0.22459E-01 16249   0.677E-01    0.785E+00
RMM:  92    -0.233516682998E+04    0.84432E-01   -0.81021E-02 14466   0.567E-01    0.680E+00
RMM:  93    -0.233510302508E+04    0.63805E-01   -0.85935E-02 15858   0.433E-01    0.580E+00
RMM:  94    -0.233507934716E+04    0.23678E-01   -0.81203E-02 15470   0.454E-01    0.541E+00
RMM:  95    -0.233506892304E+04    0.10424E-01   -0.77430E-02 17299   0.360E-01    0.508E+00
RMM:  96    -0.233520559874E+04   -0.13668E+00   -0.44511E-01 14123   0.128E+00    0.718E+00
RMM:  97    -0.233500089507E+04    0.20470E+00   -0.20895E-01 13700   0.117E+00    0.403E+00
RMM:  98    -0.233497277647E+04    0.28119E-01   -0.79179E-02 14393   0.544E-01    0.349E+00
RMM:  99    -0.233502667403E+04   -0.53898E-01   -0.95422E-02 15469   0.473E-01    0.468E+00
RMM: 100    -0.233503263434E+04   -0.59603E-02   -0.64426E-02 14036   0.516E-01    0.462E+00
RMM: 101    -0.233504019356E+04   -0.75592E-02   -0.12514E-01 13765   0.749E-01    0.465E+00
RMM: 102    -0.233497270111E+04    0.67492E-01   -0.61719E-02 13700   0.663E-01    0.315E+00
RMM: 103    -0.233495233593E+04    0.20365E-01   -0.29222E-02 13867   0.363E-01    0.251E+00
RMM: 104    -0.233493815781E+04    0.14178E-01   -0.21796E-02 14156   0.288E-01    0.183E+00
RMM: 105    -0.233493273751E+04    0.54203E-02   -0.13513E-02 14689   0.210E-01    0.152E+00
RMM: 106    -0.233496675386E+04   -0.34016E-01   -0.72232E-02 14325   0.503E-01    0.282E+00
RMM: 107    -0.233492803446E+04    0.38719E-01   -0.24745E-02 13702   0.417E-01    0.112E+00
RMM: 108    -0.233492581315E+04    0.22213E-02   -0.96610E-03 14201   0.208E-01    0.978E-01
RMM: 109    -0.233492510791E+04    0.70523E-03   -0.75262E-03 13957   0.184E-01    0.887E-01
RMM: 110    -0.233492236712E+04    0.27408E-02   -0.54599E-03 13975   0.161E-01    0.519E-01
RMM: 111    -0.233494170177E+04   -0.19335E-01   -0.18849E-02 14802   0.235E-01    0.191E+00
RMM: 112    -0.233492431473E+04    0.17387E-01   -0.60531E-03 13707   0.193E-01    0.671E-01
RMM: 113    -0.233492335828E+04    0.95645E-03   -0.50444E-03 15786   0.103E-01    0.592E-01
RMM: 114    -0.233492216332E+04    0.11950E-02   -0.24926E-03 16712   0.659E-02    0.327E-01
RMM: 115    -0.233492188592E+04    0.27740E-03   -0.11357E-03 15751   0.508E-02    0.230E-01
RMM: 116    -0.233492277097E+04   -0.88505E-03   -0.20505E-03 14551   0.844E-02    0.437E-01
RMM: 117    -0.233492178802E+04    0.98295E-03   -0.71436E-04 13760   0.705E-02    0.153E-01
RMM: 118    -0.233492174442E+04    0.43592E-04   -0.36779E-04 15353   0.290E-02    0.113E-01
RMM: 119    -0.233492181292E+04   -0.68499E-04   -0.33749E-04 16533   0.238E-02    0.140E-01
RMM: 120    -0.233492175264E+04    0.60283E-04   -0.16192E-04 14222   0.204E-02    0.823E-02
RMM: 121    -0.233492196834E+04   -0.21570E-03   -0.34417E-04 14557   0.343E-02    0.209E-01
RMM: 122    -0.233492175384E+04    0.21450E-03   -0.10817E-04 13100   0.263E-02    0.629E-02
RMM: 123    -0.233492174819E+04    0.56562E-05   -0.47188E-05 10019   0.120E-02
   1 F= -.23349217E+04 E0= -.23321820E+04  d E =-.233492E+04
       N       E                     dE             d eps       ncg     rms          rms(c)
DAV:   1    -0.233492255109E+04   -0.79725E-03   -0.23053E-01 15180   0.503E-01    0.966E-02
RMM:   2    -0.233495564016E+04   -0.33089E-01   -0.78341E-03 14526   0.165E-01    0.245E+00
RMM:   3    -0.233493069738E+04    0.24943E-01   -0.35483E-03 17909   0.804E-02    0.111E+00
RMM:   4    -0.233494514069E+04   -0.14443E-01   -0.20391E-03 14853   0.752E-02    0.200E+00
RMM:   5    -0.233492427349E+04    0.20867E-01   -0.13541E-03 13712   0.809E-02    0.408E-01
RMM:   6    -0.233492545177E+04   -0.11783E-02   -0.20222E-03 17402   0.622E-02    0.714E-01
RMM:   7    -0.233492494976E+04    0.50201E-03   -0.21065E-03 13951   0.867E-02    0.604E-01
RMM:   8    -0.233492442363E+04    0.52613E-03   -0.11602E-03 14073   0.655E-02    0.512E-01
RMM:   9    -0.233492306685E+04    0.13568E-02   -0.50483E-04 13693   0.554E-02    0.204E-01
RMM:  10    -0.233492298444E+04    0.82406E-04   -0.28199E-04 14937   0.279E-02    0.171E-01
RMM:  11    -0.233492296948E+04    0.14961E-04   -0.32772E-04 16283   0.252E-02    0.160E-01
RMM:  12    -0.233492287911E+04    0.90378E-04   -0.13267E-04 13255   0.233E-02    0.954E-02
RMM:  13    -0.233492285383E+04    0.25276E-04   -0.62449E-05 11448   0.178E-02    0.722E-02
RMM:  14    -0.233492285154E+04    0.22894E-05   -0.37307E-05  9622   0.116E-02
   2 F= -.23349229E+04 E0= -.23321833E+04  d E =-.110335E-02
       N       E                     dE             d eps       ncg     rms          rms(c)
DAV:   1    -0.233492317115E+04   -0.31732E-03   -0.15379E-01 14600   0.413E-01    0.862E-02
RMM:   2    -0.233496091431E+04   -0.37743E-01   -0.67210E-03 14967   0.143E-01    0.262E+00
RMM:   3    -0.233493207307E+04    0.28841E-01   -0.30946E-03 18360   0.714E-02    0.119E+00
RMM:   4    -0.233493598831E+04   -0.39152E-02   -0.17591E-03 13934   0.857E-02    0.150E+00
RMM:   5    -0.233492523903E+04    0.10749E-01   -0.11499E-03 14193   0.624E-02    0.523E-01
RMM:   6    -0.233492513131E+04    0.10771E-03   -0.13499E-03 14860   0.629E-02    0.577E-01
RMM:   7    -0.233492788066E+04   -0.27494E-02   -0.33841E-03 17346   0.771E-02    0.898E-01
RMM:   8    -0.233492445788E+04    0.34228E-02   -0.13992E-03 14101   0.722E-02    0.414E-01
RMM:   9    -0.233492372591E+04    0.73197E-03   -0.66609E-04 13708   0.614E-02    0.258E-01
RMM:  10    -0.233492356356E+04    0.16235E-03   -0.39753E-04 15820   0.290E-02    0.197E-01
RMM:  11    -0.233492351093E+04    0.52623E-04   -0.34539E-04 16027   0.253E-02    0.158E-01
RMM:  12    -0.233492339406E+04    0.11688E-03   -0.11279E-04 12951   0.207E-02    0.797E-02
RMM:  13    -0.233492338850E+04    0.55608E-05   -0.74651E-05 11500   0.141E-02
   3 F= -.23349234E+04 E0= -.23321840E+04  d E =-.164031E-02
       N       E                     dE             d eps       ncg     rms          rms(c)
DAV:   1    -0.233492277547E+04    0.61859E-03   -0.61562E-01 14120   0.822E-01    0.152E-01
RMM:   2    -0.233496878155E+04   -0.46006E-01   -0.17810E-02 14399   0.253E-01    0.294E+00
RMM:   3    -0.233494789286E+04    0.20889E-01   -0.80413E-03 17543   0.128E-01    0.199E+00
RMM:   4    -0.233493481004E+04    0.13083E-01   -0.30418E-03 13709   0.123E-01    0.140E+00
RMM:   5    -0.233493035379E+04    0.44563E-02   -0.26921E-03 18901   0.571E-02    0.110E+00
RMM:   6    -0.233492607242E+04    0.42814E-02   -0.17880E-03 13728   0.871E-02    0.680E-01
RMM:   7    -0.233493000387E+04   -0.39315E-02   -0.49819E-03 17939   0.914E-02    0.113E+00
RMM:   8    -0.233492841407E+04    0.15898E-02   -0.31662E-03 14334   0.100E-01    0.899E-01
RMM:   9    -0.233492469055E+04    0.37235E-02   -0.13860E-03 13701   0.877E-02    0.454E-01
RMM:  10    -0.233492398849E+04    0.70207E-03   -0.61271E-04 13740   0.547E-02    0.307E-01
RMM:  11    -0.233492386010E+04    0.12838E-03   -0.76353E-04 15726   0.421E-02    0.261E-01
RMM:  12    -0.233492360662E+04    0.25349E-03   -0.32697E-04 13895   0.359E-02    0.151E-01
RMM:  13    -0.233492357290E+04    0.33713E-04   -0.19677E-04 14202   0.257E-02    0.134E-01
RMM:  14    -0.233492357310E+04   -0.19337E-06   -0.17872E-04 14684   0.186E-02    0.129E-01
RMM:  15    -0.233492352452E+04    0.48574E-04   -0.74702E-05 11679   0.166E-02    0.847E-02
RMM:  16    -0.233492348908E+04    0.35442E-04   -0.31263E-05  8840   0.142E-02    0.358E-02
RMM:  17    -0.233492348584E+04    0.32390E-05   -0.13366E-05  7910   0.744E-03
   4 F= -.23349235E+04 E0= -.23321841E+04  d E =-.173765E-02
       N       E                     dE             d eps       ncg     rms          rms(c)
DAV:   1    -0.233492386737E+04   -0.37829E-03   -0.23769E-01 14140   0.509E-01    0.949E-02
RMM:   2    -0.233493443375E+04   -0.10566E-01   -0.68107E-03 14380   0.159E-01    0.141E+00
RMM:   3    -0.233494495695E+04   -0.10523E-01   -0.34373E-03 18928   0.701E-02    0.193E+00
RMM:   4    -0.233492798831E+04    0.16969E-01   -0.11931E-03 13724   0.714E-02    0.770E-01
RMM:   5    -0.233493041634E+04   -0.24280E-02   -0.13396E-03 15099   0.569E-02    0.103E+00
RMM:   6    -0.233492483226E+04    0.55841E-02   -0.10561E-03 13717   0.672E-02    0.338E-01
RMM:   7    -0.233492843237E+04   -0.36001E-02   -0.27484E-03 18473   0.620E-02    0.911E-01
RMM:   8    -0.233492526087E+04    0.31715E-02   -0.13570E-03 13932   0.703E-02    0.418E-01
RMM:   9    -0.233492435626E+04    0.90461E-03   -0.55692E-04 13684   0.571E-02    0.201E-01
RMM:  10    -0.233492418656E+04    0.16970E-03   -0.26085E-04 13895   0.309E-02    0.122E-01
RMM:  11    -0.233492415197E+04    0.34586E-04   -0.23163E-04 15236   0.226E-02    0.873E-02
RMM:  12    -0.233492419183E+04   -0.39858E-04   -0.25235E-04 15456   0.240E-02    0.115E-01
RMM:  13    -0.233492413508E+04    0.56754E-04   -0.83040E-05 12239   0.197E-02    0.621E-02
RMM:  14    -0.233492412218E+04    0.12899E-04   -0.37726E-05  9601   0.113E-02    0.446E-02
RMM:  15    -0.233492412554E+04   -0.33652E-05   -0.31538E-05  9025   0.110E-02
   5 F= -.23349241E+04 E0= -.23321848E+04  d E =-.639701E-03
       N       E                     dE             d eps       ncg     rms          rms(c)
DAV:   1    -0.233492412527E+04   -0.30982E-05   -0.10686E-01 14140   0.342E-01    0.638E-02
RMM:   2    -0.233493185977E+04   -0.77345E-02   -0.28715E-03 14189   0.106E-01    0.118E+00
RMM:   3    -0.233493008572E+04    0.17741E-02   -0.15639E-03 19900   0.419E-02    0.102E+00
RMM:   4    -0.233492496893E+04    0.51168E-02   -0.62373E-04 13654   0.542E-02    0.320E-01
RMM:   5    -0.233492801294E+04   -0.30440E-02   -0.73722E-04 14647   0.456E-02    0.819E-01
RMM:   6    -0.233492471996E+04    0.32930E-02   -0.68440E-04 17668   0.351E-02    0.255E-01
RMM:   7    -0.233492647706E+04   -0.17571E-02   -0.94708E-04 14819   0.501E-02    0.645E-01
RMM:   8    -0.233492480660E+04    0.16705E-02   -0.48598E-04 14397   0.400E-02    0.299E-01
RMM:   9    -0.233492432552E+04    0.48108E-03   -0.24303E-04 13657   0.379E-02    0.103E-01
RMM:  10    -0.233492429673E+04    0.28790E-04   -0.15104E-04 13696   0.199E-02    0.925E-02
RMM:  11    -0.233492429787E+04   -0.11479E-05   -0.13102E-04 13277   0.172E-02    0.848E-02
RMM:  12    -0.233492430245E+04   -0.45797E-05   -0.85665E-05 12326   0.175E-02
   6 F= -.23349243E+04 E0= -.23321850E+04  d E =-.816612E-03
       N       E                     dE             d eps       ncg     rms          rms(c)
DAV:   1    -0.233492445708E+04   -0.15921E-03   -0.11597E-01 14000   0.361E-01    0.808E-02
RMM:   2    -0.233496429681E+04   -0.39840E-01   -0.74126E-03 14620   0.160E-01    0.258E+00
RMM:   3    -0.233493230769E+04    0.31989E-01   -0.24020E-03 15026   0.869E-02    0.118E+00
RMM:   4    -0.233493163595E+04    0.67174E-03   -0.12811E-03 13716   0.790E-02    0.111E+00
RMM:   5    -0.233492728764E+04    0.43483E-02   -0.10420E-03 17239   0.405E-02    0.688E-01
RMM:   6    -0.233492623851E+04    0.10491E-02   -0.12120E-03 13833   0.699E-02    0.547E-01
RMM:   7    -0.233492754825E+04   -0.13097E-02   -0.21053E-03 17363   0.599E-02    0.734E-01
RMM:   8    -0.233492519525E+04    0.23530E-02   -0.11632E-03 14087   0.656E-02    0.294E-01
RMM:   9    -0.233492470092E+04    0.49433E-03   -0.47290E-04 13706   0.534E-02    0.162E-01
RMM:  10    -0.233492466415E+04    0.36766E-04   -0.22552E-04 14252   0.258E-02    0.138E-01
RMM:  11    -0.233492467142E+04   -0.72683E-05   -0.22644E-04 15254   0.183E-02    0.138E-01
RMM:  12    -0.233492460476E+04    0.66657E-04   -0.94669E-05 12587   0.172E-02    0.855E-02
RMM:  13    -0.233492457540E+04    0.29368E-04   -0.39457E-05  9483   0.142E-02    0.462E-02
RMM:  14    -0.233492457351E+04    0.18880E-05   -0.21511E-05  8321   0.816E-03
   7 F= -.23349246E+04 E0= -.23321855E+04  d E =-.271056E-03
       N       E                     dE             d eps       ncg     rms          rms(c)
DAV:   1    -0.233492446683E+04    0.10857E-03   -0.10454E+00 13800   0.108E+00    0.197E-01
RMM:   2    -0.233497616313E+04   -0.51696E-01   -0.30983E-02 14285   0.361E-01    0.306E+00
RMM:   3    -0.233497817739E+04   -0.20143E-02   -0.79334E-03 13702   0.202E-01    0.307E+00
RMM:   4    -0.233493483552E+04    0.43342E-01   -0.31103E-03 15183   0.972E-02    0.120E+00
RMM:   5    -0.233494857685E+04   -0.13741E-01   -0.27970E-03 14360   0.947E-02    0.203E+00
RMM:   6    -0.233492841216E+04    0.20165E-01   -0.22505E-03 13864   0.944E-02    0.678E-01
RMM:   7    -0.233494907780E+04   -0.20666E-01   -0.88590E-03 15745   0.134E-01    0.211E+00
RMM:   8    -0.233492869320E+04    0.20385E-01   -0.30288E-03 13780   0.117E-01    0.697E-01
RMM:   9    -0.233492642020E+04    0.22730E-02   -0.15502E-03 13844   0.902E-02    0.452E-01
RMM:  10    -0.233492594836E+04    0.47184E-03   -0.98964E-04 15582   0.468E-02    0.349E-01
RMM:  11    -0.233492557600E+04    0.37236E-03   -0.84272E-04 14824   0.495E-02    0.227E-01
RMM:  12    -0.233492538370E+04    0.19230E-03   -0.30015E-04 13938   0.387E-02    0.153E-01
RMM:  13    -0.233492535753E+04    0.26177E-04   -0.24185E-04 14930   0.207E-02    0.133E-01
RMM:  14    -0.233492533324E+04    0.24292E-04   -0.14372E-04 14133   0.184E-02    0.110E-01
RMM:  15    -0.233492528401E+04    0.49224E-04   -0.51419E-05 10364   0.163E-02    0.488E-02
RMM:  16    -0.233492527380E+04    0.10215E-04   -0.19996E-05  8138   0.110E-02    0.282E-02
RMM:  17    -0.233492527350E+04    0.29162E-06   -0.13089E-05  7912   0.747E-03
   8 F= -.23349253E+04 E0= -.23321861E+04  d E =-.971052E-03
       N       E                     dE             d eps       ncg     rms          rms(c)
DAV:   1    -0.233492261757E+04    0.26562E-02   -0.41818E+00 13700   0.215E+00    0.384E-01
RMM:   2    -0.233516403015E+04   -0.24141E+00   -0.12243E-01 14370   0.708E-01    0.639E+00
RMM:   3    -0.233519124342E+04   -0.27213E-01   -0.39094E-02 14215   0.372E-01    0.700E+00
RMM:   4    -0.233497102763E+04    0.22022E+00   -0.15126E-02 13740   0.271E-01    0.265E+00
RMM:   5    -0.233500682298E+04   -0.35795E-01   -0.11766E-02 16276   0.158E-01    0.382E+00
RMM:   6    -0.233493924044E+04    0.67583E-01   -0.11636E-02 13755   0.223E-01    0.135E+00
RMM:   7    -0.233496844098E+04   -0.29201E-01   -0.23684E-02 14354   0.280E-01    0.278E+00
RMM:   8    -0.233494373147E+04    0.24710E-01   -0.12910E-02 15855   0.183E-01    0.175E+00
RMM:   9    -0.233492944075E+04    0.14291E-01   -0.64187E-03 13719   0.191E-01    0.779E-01
RMM:  10    -0.233492785659E+04    0.15842E-02   -0.42209E-03 16579   0.939E-02    0.602E-01
RMM:  11    -0.233492727990E+04    0.57670E-03   -0.33422E-03 15887   0.868E-02    0.497E-01
RMM:  12    -0.233492639013E+04    0.88976E-03   -0.15245E-03 14646   0.699E-02    0.314E-01
RMM:  13    -0.233492615709E+04    0.23304E-03   -0.72735E-04 14580   0.494E-02    0.248E-01
RMM:  14    -0.233492610085E+04    0.56241E-04   -0.69372E-04 17192   0.345E-02    0.220E-01
RMM:  15    -0.233492592942E+04    0.17143E-03   -0.30000E-04 14254   0.327E-02    0.123E-01
RMM:  16    -0.233492586744E+04    0.61979E-04   -0.12163E-04 13355   0.239E-02    0.743E-02
RMM:  17    -0.233492586433E+04    0.31182E-05   -0.92878E-05 12278   0.131E-02
   9 F= -.23349259E+04 E0= -.23321866E+04  d E =-.156187E-02
       N       E                     dE             d eps       ncg     rms          rms(c)
DAV:   1    -0.233492599168E+04   -0.12424E-03   -0.15606E-01 13900   0.416E-01    0.778E-02
RMM:   2    -0.233493575622E+04   -0.97645E-02   -0.43829E-03 14200   0.130E-01    0.127E+00
RMM:   3    -0.233493720495E+04   -0.14487E-02   -0.23091E-03 19405   0.543E-02    0.142E+00
RMM:   4    -0.233493169455E+04    0.55104E-02   -0.93567E-04 13750   0.633E-02    0.965E-01
RMM:   5    -0.233492786435E+04    0.38302E-02   -0.74631E-04 14769   0.456E-02    0.564E-01
RMM:   6    -0.233492663735E+04    0.12270E-02   -0.83591E-04 13778   0.581E-02    0.306E-01
RMM:   7    -0.233492680368E+04   -0.16633E-03   -0.16679E-03 15721   0.644E-02    0.339E-01
RMM:   8    -0.233492683896E+04   -0.35285E-04   -0.58161E-04 13684   0.497E-02    0.351E-01
RMM:   9    -0.233492660458E+04    0.23438E-03   -0.28556E-04 14023   0.311E-02    0.306E-01
RMM:  10    -0.233492620926E+04    0.39532E-03   -0.22929E-04 15223   0.213E-02    0.117E-01
RMM:  11    -0.233492617844E+04    0.30822E-04   -0.11862E-04 13862   0.172E-02    0.999E-02
RMM:  12    -0.233492615694E+04    0.21501E-04   -0.82657E-05 12500   0.168E-02    0.726E-02
RMM:  13    -0.233492613428E+04    0.22654E-04   -0.32210E-05  8630   0.132E-02    0.356E-02
RMM:  14    -0.233492613427E+04    0.13970E-07   -0.20060E-05  7635   0.954E-03
  10 F= -.23349261E+04 E0= -.23321872E+04  d E =-.269944E-03
       N       E                     dE             d eps       ncg     rms          rms(c)
DAV:   1    -0.233492564739E+04    0.48689E-03   -0.14046E+00 13700   0.125E+00    0.196E-01
RMM:   2    -0.233495818402E+04   -0.32537E-01   -0.27710E-02 13930   0.361E-01    0.233E+00
RMM:   3    -0.233495583848E+04    0.23455E-02   -0.68764E-03 13889   0.170E-01    0.227E+00
RMM:   4    -0.233493342579E+04    0.22413E-01   -0.26957E-03 14697   0.966E-02    0.106E+00
RMM:   5    -0.233496627175E+04   -0.32846E-01   -0.26432E-03 14721   0.887E-02    0.268E+00
RMM:   6    -0.233492974731E+04    0.36524E-01   -0.21618E-03 14313   0.877E-02    0.564E-01
RMM:   7    -0.233493276731E+04   -0.30200E-02   -0.47775E-03 13778   0.138E-01    0.101E+00
RMM:   8    -0.233493415096E+04   -0.13836E-02   -0.25450E-03 14056   0.982E-02    0.116E+00
RMM:   9    -0.233492829490E+04    0.58561E-02   -0.10596E-03 13715   0.757E-02    0.501E-01
RMM:  10    -0.233492759551E+04    0.69939E-03   -0.65753E-04 13800   0.563E-02    0.383E-01
RMM:  11    -0.233492724347E+04    0.35204E-03   -0.57776E-04 14259   0.428E-02    0.291E-01
RMM:  12    -0.233492695977E+04    0.28371E-03   -0.54019E-04 14688   0.410E-02    0.182E-01
RMM:  13    -0.233492686651E+04    0.93258E-04   -0.19388E-04 13575   0.329E-02    0.147E-01
RMM:  14    -0.233492685511E+04    0.11394E-04   -0.15799E-04 14101   0.176E-02    0.137E-01
RMM:  15    -0.233492679821E+04    0.56901E-04   -0.80665E-05 12155   0.166E-02    0.851E-02
RMM:  16    -0.233492676292E+04    0.35291E-04   -0.31078E-05  8662   0.142E-02    0.298E-02
RMM:  17    -0.233492676020E+04    0.27203E-05   -0.13535E-05  7685   0.807E-03
  11 F= -.23349268E+04 E0= -.23321882E+04  d E =-.895876E-03
       N       E                     dE             d eps       ncg     rms          rms(c)
DAV:   1    -0.233492253449E+04    0.42284E-02   -0.56179E+00 13700   0.249E+00    0.386E-01
RMM:   2    -0.233505028086E+04   -0.12775E+00   -0.10795E-01 13916   0.715E-01    0.456E+00
RMM:   3    -0.233507634057E+04   -0.26060E-01   -0.28037E-02 14598   0.316E-01    0.523E+00
RMM:   4    -0.233496630907E+04    0.11003E+00   -0.10693E-02 14038   0.205E-01    0.255E+00
RMM:   5    -0.233503372221E+04   -0.67413E-01   -0.12582E-02 16613   0.157E-01    0.439E+00
RMM:   6    -0.233493611580E+04    0.97606E-01   -0.11520E-02 13737   0.226E-01    0.101E+00
RMM:   7    -0.233494275325E+04   -0.66375E-02   -0.16266E-02 13928   0.249E-01    0.162E+00
RMM:   8    -0.233494101901E+04    0.17342E-02   -0.62171E-03 13733   0.176E-01    0.156E+00
RMM:   9    -0.233493427185E+04    0.67472E-02   -0.24409E-03 13867   0.975E-02    0.114E+00
RMM:  10    -0.233493100376E+04    0.32681E-02   -0.21367E-03 13934   0.983E-02    0.824E-01
RMM:  11    -0.233492932897E+04    0.16748E-02   -0.22108E-03 14425   0.845E-02    0.627E-01
RMM:  12    -0.233492770733E+04    0.16216E-02   -0.14753E-03 14184   0.741E-02    0.333E-01
RMM:  13    -0.233492751538E+04    0.19195E-03   -0.65496E-04 13770   0.592E-02    0.307E-01
RMM:  14    -0.233492749079E+04    0.24590E-04   -0.56439E-04 15209   0.381E-02    0.295E-01
RMM:  15    -0.233492719536E+04    0.29544E-03   -0.35628E-04 14625   0.334E-02    0.166E-01
RMM:  16    -0.233492705345E+04    0.14190E-03   -0.12650E-04 13350   0.258E-02    0.599E-02
RMM:  17    -0.233492704611E+04    0.73387E-05   -0.84388E-05 11685   0.129E-02
  12 F= -.23349270E+04 E0= -.23321891E+04  d E =-.118179E-02
       N       E                     dE             d eps       ncg     rms          rms(c)
DAV:   1    -0.233492742469E+04   -0.37124E-03   -0.53740E-01 13720   0.772E-01    0.145E-01
RMM:   2    -0.233500004020E+04   -0.72616E-01   -0.16539E-02 14563   0.244E-01    0.364E+00
RMM:   3    -0.233494556384E+04    0.54476E-01   -0.88704E-03 18882   0.111E-01    0.168E+00
RMM:   4    -0.233497290131E+04   -0.27337E-01   -0.48045E-03 14725   0.119E-01    0.282E+00
RMM:   5    -0.233493124018E+04    0.41661E-01   -0.33884E-03 13719   0.127E-01    0.670E-01
RMM:   6    -0.233493429340E+04   -0.30532E-02   -0.48127E-03 18067   0.930E-02    0.110E+00
RMM:   7    -0.233493475136E+04   -0.45796E-03   -0.56633E-03 14744   0.128E-01    0.110E+00
RMM:   8    -0.233493077060E+04    0.39808E-02   -0.25372E-03 14226   0.968E-02    0.671E-01
RMM:   9    -0.233492841700E+04    0.23536E-02   -0.11415E-03 13702   0.807E-02    0.304E-01
RMM:  10    -0.233492823745E+04    0.17955E-03   -0.88644E-04 16557   0.406E-02    0.247E-01
RMM:  11    -0.233492834437E+04   -0.10691E-03   -0.77775E-04 16626   0.385E-02    0.279E-01
RMM:  12    -0.233492802198E+04    0.32239E-03   -0.30869E-04 13807   0.363E-02    0.127E-01
RMM:  13    -0.233492793306E+04    0.88921E-04   -0.15487E-04 13724   0.262E-02    0.562E-02
RMM:  14    -0.233492794261E+04   -0.95502E-05   -0.14053E-04 13685   0.156E-02    0.614E-02
RMM:  15    -0.233492795353E+04   -0.10920E-04   -0.86614E-05 12478   0.164E-02    0.751E-02
RMM:  16    -0.233492792753E+04    0.25999E-04   -0.27459E-05  8454   0.126E-02    0.324E-02
RMM:  17    -0.233492792619E+04    0.13429E-05   -0.15100E-05  7752   0.783E-03
  13 F= -.23349279E+04 E0= -.23321897E+04  d E =-.880073E-03
       N       E                     dE             d eps       ncg     rms          rms(c)
DAV:   1    -0.233492791084E+04    0.16685E-04   -0.11761E-01 13840   0.361E-01    0.699E-02
RMM:   2    -0.233494694332E+04   -0.19032E-01   -0.41193E-03 14537   0.122E-01    0.182E+00
RMM:   3    -0.233493091047E+04    0.16033E-01   -0.18720E-03 17975   0.579E-02    0.664E-01
RMM:   4    -0.233494021451E+04   -0.93040E-02   -0.10512E-03 15093   0.513E-02    0.149E+00
RMM:   5    -0.233492884637E+04    0.11368E-01   -0.84028E-04 13703   0.636E-02    0.309E-01
RMM:   6    -0.233492936805E+04   -0.52168E-03   -0.11657E-03 15757   0.547E-02    0.478E-01
RMM:   7    -0.233492941614E+04   -0.48086E-04   -0.12643E-03 14854   0.605E-02    0.504E-01
RMM:   8    -0.233492919076E+04    0.22538E-03   -0.70735E-04 15837   0.411E-02    0.454E-01
RMM:   9    -0.233492819568E+04    0.99508E-03   -0.33025E-04 13655   0.421E-02    0.169E-01
RMM:  10    -0.233492811916E+04    0.76519E-04   -0.28308E-04 16631   0.241E-02    0.131E-01
RMM:  11    -0.233492809613E+04    0.23033E-04   -0.21265E-04 15370   0.210E-02    0.110E-01
RMM:  12    -0.233492806219E+04    0.33939E-04   -0.68848E-05 11348   0.168E-02    0.789E-02
RMM:  13    -0.233492803631E+04    0.25881E-04   -0.31113E-05  8984   0.112E-02    0.414E-02
RMM:  14    -0.233492803516E+04    0.11525E-05   -0.23011E-05  8036   0.982E-03
  14 F= -.23349280E+04 E0= -.23321897E+04  d E =-.989042E-03
       N       E                     dE             d eps       ncg     rms          rms(c)
DAV:   1    -0.233492826771E+04   -0.23140E-03   -0.38383E-01 13760   0.654E-01    0.118E-01
RMM:   2    -0.233503142131E+04   -0.10315E+00   -0.14881E-02 14619   0.235E-01    0.420E+00
RMM:   3    -0.233494456289E+04    0.86858E-01   -0.47786E-03 15360   0.122E-01    0.160E+00
RMM:   4    -0.233495691288E+04   -0.12350E-01   -0.27462E-03 14179   0.990E-02    0.226E+00
RMM:   5    -0.233493234402E+04    0.24569E-01   -0.20460E-03 13804   0.922E-02    0.752E-01
RMM:   6    -0.233493144183E+04    0.90219E-03   -0.32864E-03 13839   0.116E-01    0.678E-01
RMM:   7    -0.233493645661E+04   -0.50148E-02   -0.38140E-03 14466   0.113E-01    0.123E+00
RMM:   8    -0.233493182796E+04    0.46286E-02   -0.21034E-03 14974   0.796E-02    0.728E-01
RMM:   9    -0.233492920844E+04    0.26195E-02   -0.96912E-04 13701   0.769E-02    0.324E-01
RMM:  10    -0.233492889961E+04    0.30883E-03   -0.57332E-04 15490   0.395E-02    0.245E-01
RMM:  11    -0.233492882115E+04    0.78459E-04   -0.58730E-04 17070   0.328E-02    0.206E-01
RMM:  12    -0.233492863565E+04    0.18550E-03   -0.21528E-04 14144   0.264E-02    0.103E-01
RMM:  13    -0.233492860115E+04    0.34500E-04   -0.13146E-04 13605   0.174E-02    0.668E-02
RMM:  14    -0.233492859934E+04    0.18114E-05   -0.61455E-05 11155   0.122E-02
  15 F= -.23349286E+04 E0= -.23321901E+04  d E =-.564182E-03
       N       E                     dE             d eps       ncg     rms          rms(c)
DAV:   1    -0.233492703373E+04    0.15674E-02   -0.26108E+00 13700   0.170E+00    0.309E-01
RMM:   2    -0.233552264868E+04   -0.59561E+00   -0.98747E-02 14701   0.593E-01    0.101E+01
RMM:   3    -0.233501024731E+04    0.51240E+00   -0.32807E-02 15059   0.326E-01    0.366E+00
RMM:   4    -0.233506284975E+04   -0.52602E-01   -0.16279E-02 13757   0.282E-01    0.491E+00
RMM:   5    -0.233495621231E+04    0.10664E+00   -0.11985E-02 16602   0.155E-01    0.207E+00
RMM:   6    -0.233494540263E+04    0.10810E-01   -0.15213E-02 13803   0.250E-01    0.157E+00
RMM:   7    -0.233495034273E+04   -0.49401E-02   -0.16562E-02 13926   0.253E-01    0.201E+00
RMM:   8    -0.233494797669E+04    0.23660E-02   -0.74409E-03 14002   0.166E-01    0.184E+00
RMM:   9    -0.233493260137E+04    0.15375E-01   -0.35746E-03 13708   0.142E-01    0.735E-01
RMM:  10    -0.233493088711E+04    0.17143E-02   -0.23273E-03 14793   0.838E-02    0.558E-01
RMM:  11    -0.233493011021E+04    0.77690E-03   -0.22142E-03 14935   0.785E-02    0.411E-01
RMM:  12    -0.233492950815E+04    0.60205E-03   -0.11767E-03 14506   0.621E-02    0.257E-01
RMM:  13    -0.233492924130E+04    0.26685E-03   -0.46426E-04 14183   0.428E-02    0.144E-01
RMM:  14    -0.233492925728E+04   -0.15979E-04   -0.52170E-04 17289   0.278E-02    0.146E-01
RMM:  15    -0.233492921360E+04    0.43683E-04   -0.24381E-04 14785   0.269E-02    0.103E-01
RMM:  16    -0.233492916396E+04    0.49636E-04   -0.93911E-05 12923   0.209E-02    0.537E-02
RMM:  17    -0.233492915948E+04    0.44839E-05   -0.67117E-05 11004   0.117E-02
  16 F= -.23349292E+04 E0= -.23321905E+04  d E =-.112432E-02
       N       E                     dE             d eps       ncg     rms          rms(c)
DAV:   1    -0.233492919665E+04   -0.32693E-04   -0.51439E-01 13700   0.758E-01    0.130E-01
RMM:   2    -0.233501168209E+04   -0.82485E-01   -0.15229E-02 14516   0.238E-01    0.374E+00
RMM:   3    -0.233495418646E+04    0.57496E-01   -0.67613E-03 17847   0.113E-01    0.206E+00
RMM:   4    -0.233495291911E+04    0.12673E-02   -0.29932E-03 13908   0.110E-01    0.203E+00
RMM:   5    -0.233493325504E+04    0.19664E-01   -0.20254E-03 13871   0.880E-02    0.769E-01
RMM:   6    -0.233493276504E+04    0.49001E-03   -0.34946E-03 13778   0.119E-01    0.747E-01
RMM:   7    -0.233494295807E+04   -0.10193E-01   -0.80183E-03 18348   0.112E-01    0.159E+00
RMM:   8    -0.233493205991E+04    0.10898E-01   -0.29790E-03 13810   0.108E-01    0.598E-01
RMM:   9    -0.233492984428E+04    0.22156E-02   -0.14593E-03 13714   0.907E-02    0.225E-01
RMM:  10    -0.233492978898E+04    0.55296E-04   -0.10834E-03 17865   0.408E-02    0.198E-01
RMM:  11    -0.233492983955E+04   -0.50568E-04   -0.72907E-04 17918   0.331E-02    0.212E-01
RMM:  12    -0.233492969688E+04    0.14267E-03   -0.26990E-04 14049   0.304E-02    0.132E-01
RMM:  13    -0.233492962350E+04    0.73378E-04   -0.15946E-04 13832   0.223E-02    0.654E-02
RMM:  14    -0.233492962346E+04    0.36322E-07   -0.11950E-04 13584   0.139E-02    0.613E-02
RMM:  15    -0.233492961545E+04    0.80171E-05   -0.50032E-05 10461   0.143E-02
  17 F= -.23349296E+04 E0= -.23321910E+04  d E =-.455970E-03
       N       E                     dE             d eps       ncg     rms          rms(c)
DAV:   1    -0.233492839629E+04    0.12272E-02   -0.19106E+00 13700   0.146E+00    0.239E-01
RMM:   2    -0.233514186675E+04   -0.21347E+00   -0.50875E-02 14465   0.448E-01    0.589E+00
RMM:   3    -0.233498748131E+04    0.15439E+00   -0.19509E-02 16510   0.220E-01    0.326E+00
RMM:   4    -0.233496771119E+04    0.19770E-01   -0.74753E-03 13726   0.191E-01    0.256E+00
RMM:   5    -0.233494366952E+04    0.24042E-01   -0.56348E-03 17597   0.978E-02    0.153E+00
RMM:   6    -0.233493632589E+04    0.73436E-02   -0.81255E-03 13761   0.186E-01    0.101E+00
RMM:   7    -0.233494917228E+04   -0.12846E-01   -0.12617E-02 14984   0.189E-01    0.189E+00
RMM:   8    -0.233493879223E+04    0.10380E-01   -0.67872E-03 15845   0.129E-01    0.121E+00
RMM:   9    -0.233493063281E+04    0.81594E-02   -0.31121E-03 13700   0.136E-01    0.333E-01
RMM:  10    -0.233493045008E+04    0.18274E-03   -0.23964E-03 16983   0.670E-02    0.328E-01
RMM:  11    -0.233493038971E+04    0.60361E-04   -0.16442E-03 16698   0.546E-02    0.292E-01
RMM:  12    -0.233493022814E+04    0.16157E-03   -0.89785E-04 14666   0.524E-02    0.234E-01
RMM:  13    -0.233492995018E+04    0.27797E-03   -0.35290E-04 13725   0.410E-02    0.103E-01
RMM:  14    -0.233492995442E+04   -0.42391E-05   -0.38373E-04 17910   0.209E-02    0.995E-02
RMM:  15    -0.233492993457E+04    0.19844E-04   -0.13181E-04 13581   0.224E-02    0.863E-02
RMM:  16    -0.233492989923E+04    0.35340E-04   -0.72399E-05 11547   0.155E-02    0.295E-02
RMM:  17    -0.233492990007E+04   -0.83318E-06   -0.31041E-05  9183   0.886E-03
  18 F= -.23349299E+04 E0= -.23321914E+04  d E =-.740589E-03
       N       E                     dE             d eps       ncg     rms          rms(c)
DAV:   1    -0.233492986270E+04    0.36530E-04   -0.59531E-01 13700   0.813E-01    0.115E-01
RMM:   2    -0.233494847772E+04   -0.18615E-01   -0.94969E-03 13945   0.213E-01    0.172E+00
RMM:   3    -0.233493599629E+04    0.12481E-01   -0.30953E-03 18852   0.755E-02    0.101E+00
RMM:   4    -0.233493498783E+04    0.10085E-02   -0.95805E-04 13674   0.674E-02    0.912E-01
RMM:   5    -0.233493563234E+04   -0.64452E-03   -0.12967E-03 19001   0.397E-02    0.975E-01
RMM:   6    -0.233493228231E+04    0.33500E-02   -0.16623E-03 13757   0.826E-02    0.568E-01
RMM:   7    -0.233493631704E+04   -0.40347E-02   -0.33977E-03 17913   0.745E-02    0.106E+00
RMM:   8    -0.233493134074E+04    0.49763E-02   -0.14180E-03 13705   0.791E-02    0.382E-01
RMM:   9    -0.233493054917E+04    0.79157E-03   -0.59647E-04 13707   0.587E-02    0.187E-01
RMM:  10    -0.233493045910E+04    0.90072E-04   -0.37603E-04 16311   0.289E-02    0.149E-01
RMM:  11    -0.233493047977E+04   -0.20673E-04   -0.31597E-04 15613   0.264E-02    0.157E-01
RMM:  12    -0.233493040969E+04    0.70081E-04   -0.16227E-04 13749   0.234E-02    0.103E-01
RMM:  13    -0.233493035548E+04    0.54210E-04   -0.72006E-05 11731   0.171E-02    0.470E-02
RMM:  14    -0.233493035306E+04    0.24243E-05   -0.38064E-05  9719   0.976E-03
  19 F= -.23349304E+04 E0= -.23321919E+04  d E =-.452992E-03
       N       E                     dE             d eps       ncg     rms          rms(c)
DAV:   1    -0.233492683290E+04    0.35226E-02   -0.53573E+00 13700   0.244E+00    0.343E-01
RMM:   2    -0.233518542789E+04   -0.25859E+00   -0.87363E-02 14016   0.639E-01    0.643E+00
RMM:   3    -0.233498936559E+04    0.19606E+00   -0.26138E-02 17717   0.248E-01    0.322E+00
RMM:   4    -0.233499881870E+04   -0.94531E-02   -0.87803E-03 13725   0.201E-01    0.347E+00
RMM:   5    -0.233495166297E+04    0.47156E-01   -0.83024E-03 17291   0.125E-01    0.186E+00
RMM:   6    -0.233494811927E+04    0.35437E-02   -0.18949E-02 13713   0.282E-01    0.176E+00
RMM:   7    -0.233499502482E+04   -0.46906E-01   -0.18723E-02 14500   0.243E-01    0.347E+00
RMM:   8    -0.233493703396E+04    0.57991E-01   -0.67257E-03 13710   0.190E-01    0.838E-01
RMM:   9    -0.233493195397E+04    0.50800E-02   -0.32176E-03 13732   0.143E-01    0.372E-01
RMM:  10    -0.233493260372E+04   -0.64975E-03   -0.25202E-03 14655   0.861E-02    0.523E-01
RMM:  11    -0.233493227665E+04    0.32707E-03   -0.21642E-03 14868   0.805E-02    0.434E-01
RMM:  12    -0.233493138139E+04    0.89527E-03   -0.86641E-04 13721   0.691E-02    0.210E-01
RMM:  13    -0.233493121110E+04    0.17028E-03   -0.45145E-04 15119   0.341E-02    0.130E-01
RMM:  14    -0.233493122037E+04   -0.92671E-05   -0.40851E-04 16929   0.257E-02    0.123E-01
RMM:  15    -0.233493118601E+04    0.34358E-04   -0.22910E-04 14923   0.254E-02    0.945E-02
RMM:  16    -0.233493115187E+04    0.34140E-04   -0.85937E-05 12613   0.189E-02    0.574E-02
RMM:  17    -0.233493114836E+04    0.35163E-05   -0.51691E-05 10509   0.102E-02
  20 F= -.23349311E+04 E0= -.23321930E+04  d E =-.124829E-02
       N       E                     dE             d eps       ncg     rms          rms(c)
DAV:   1    -0.233493113001E+04    0.21862E-04   -0.91790E-01 13700   0.101E+00    0.160E-01
RMM:   2    -0.233494654486E+04   -0.15415E-01   -0.18027E-02 13907   0.284E-01    0.172E+00
RMM:   3    -0.233496329994E+04   -0.16755E-01   -0.67078E-03 16716   0.127E-01    0.234E+00
RMM:   4    -0.233493664487E+04    0.26655E-01   -0.20860E-03 13712   0.977E-02    0.834E-01
RMM:   5    -0.233495198836E+04   -0.15343E-01   -0.16728E-03 15422   0.636E-02    0.191E+00
RMM:   6    -0.233493459327E+04    0.17395E-01   -0.17848E-03 13998   0.798E-02    0.597E-01
RMM:   7    -0.233493472543E+04   -0.13216E-03   -0.37893E-03 13794   0.122E-01    0.665E-01
RMM:   8    -0.233493742708E+04   -0.27016E-02   -0.21181E-03 13802   0.953E-02    0.101E+00
RMM:   9    -0.233493293184E+04    0.44952E-02   -0.82388E-04 13705   0.612E-02    0.407E-01
RMM:  10    -0.233493215847E+04    0.77337E-03   -0.45594E-04 13710   0.494E-02    0.229E-01
RMM:  11    -0.233493207130E+04    0.87163E-04   -0.41973E-04 14251   0.370E-02    0.180E-01
RMM:  12    -0.233493203982E+04    0.31486E-04   -0.38887E-04 14958   0.334E-02    0.167E-01
RMM:  13    -0.233493190858E+04    0.13124E-03   -0.12118E-04 13160   0.259E-02    0.751E-02
RMM:  14    -0.233493190148E+04    0.71041E-05   -0.74489E-05 11747   0.137E-02
  21 F= -.23349319E+04 E0= -.23321937E+04  d E =-.753119E-03
       N       E                     dE             d eps       ncg     rms          rms(c)
DAV:   1    -0.233492913147E+04    0.27771E-02   -0.40457E+00 13700   0.212E+00    0.332E-01
RMM:   2    -0.233505843311E+04   -0.12930E+00   -0.78614E-02 13957   0.593E-01    0.499E+00
RMM:   3    -0.233506523152E+04   -0.67984E-02   -0.37022E-02 19203   0.235E-01    0.478E+00
RMM:   4    -0.233505285199E+04    0.12380E-01   -0.11666E-02 13764   0.228E-01    0.460E+00
RMM:   5    -0.233494762061E+04    0.10523E+00   -0.78469E-03 14203   0.168E-01    0.143E+00
RMM:   6    -0.233494988241E+04   -0.22618E-02   -0.13537E-02 13891   0.223E-01    0.171E+00
RMM:   7    -0.233494718242E+04    0.27000E-02   -0.20630E-02 14613   0.254E-01    0.154E+00
RMM:   8    -0.233494511106E+04    0.20714E-02   -0.69463E-03 13705   0.192E-01    0.156E+00
RMM:   9    -0.233493465930E+04    0.10452E-01   -0.34861E-03 15099   0.948E-02    0.582E-01
RMM:  10    -0.233493367168E+04    0.98762E-03   -0.23730E-03 14967   0.793E-02    0.464E-01
RMM:  11    -0.233493340641E+04    0.26527E-03   -0.25722E-03 15562   0.786E-02    0.401E-01
RMM:  12    -0.233493303184E+04    0.37457E-03   -0.11139E-03 13809   0.669E-02    0.329E-01
RMM:  13    -0.233493260467E+04    0.42717E-03   -0.44887E-04 13717   0.485E-02    0.183E-01
RMM:  14    -0.233493257649E+04    0.28178E-04   -0.46111E-04 16447   0.292E-02    0.163E-01
RMM:  15    -0.233493247920E+04    0.97290E-04   -0.17744E-04 13820   0.263E-02    0.842E-02
RMM:  16    -0.233493245053E+04    0.28676E-04   -0.89093E-05 12462   0.182E-02    0.492E-02
RMM:  17    -0.233493245285E+04   -0.23262E-05   -0.54663E-05 10831   0.117E-02
  22 F= -.23349325E+04 E0= -.23321937E+04  d E =-.130450E-02
       N       E                     dE             d eps       ncg     rms          rms(c)
DAV:   1    -0.233493250421E+04   -0.53686E-04   -0.27725E-01 13780   0.553E-01    0.847E-02
RMM:   2    -0.233494038558E+04   -0.78814E-02   -0.50133E-03 13875   0.149E-01    0.121E+00
RMM:   3    -0.233493783046E+04    0.25551E-02   -0.17197E-03 18856   0.539E-02    0.935E-01
RMM:   4    -0.233493892837E+04   -0.10979E-02   -0.53815E-04 13803   0.460E-02    0.106E+00
RMM:   5    -0.233493504231E+04    0.38861E-02   -0.71955E-04 14790   0.443E-02    0.595E-01
RMM:   6    -0.233493391370E+04    0.11286E-02   -0.85916E-04 13772   0.587E-02    0.458E-01
RMM:   7    -0.233493507511E+04   -0.11614E-02   -0.19642E-03 18300   0.569E-02    0.648E-01
RMM:   8    -0.233493326242E+04    0.18127E-02   -0.88237E-04 13730   0.605E-02    0.274E-01
RMM:   9    -0.233493284617E+04    0.41625E-03   -0.40028E-04 13688   0.494E-02    0.139E-01
RMM:  10    -0.233493277910E+04    0.67067E-04   -0.14992E-04 13771   0.225E-02    0.892E-02
RMM:  11    -0.233493281055E+04   -0.31450E-04   -0.18058E-04 15004   0.166E-02    0.115E-01
RMM:  12    -0.233493278262E+04    0.27928E-04   -0.10650E-04 13272   0.180E-02    0.809E-02
RMM:  13    -0.233493275879E+04    0.23830E-04   -0.48399E-05 10227   0.143E-02    0.508E-02
RMM:  14    -0.233493275101E+04    0.77843E-05   -0.26646E-05  8156   0.107E-02
  23 F= -.23349328E+04 E0= -.23321941E+04  d E =-.298152E-03
       N       E                     dE             d eps       ncg     rms          rms(c)
DAV:   1    -0.233493152392E+04    0.12349E-02   -0.24951E+00 13700   0.166E+00    0.238E-01
RMM:   2    -0.233496298045E+04   -0.31457E-01   -0.39919E-02 13942   0.439E-01    0.241E+00
RMM:   3    -0.233496547252E+04   -0.24921E-02   -0.86831E-03 14633   0.182E-01    0.238E+00
RMM:   4    -0.233494214058E+04    0.23332E-01   -0.32383E-03 17165   0.867E-02    0.118E+00
RMM:   5    -0.233497086085E+04   -0.28720E-01   -0.42271E-03 15401   0.951E-02    0.257E+00
RMM:   6    -0.233494104536E+04    0.29815E-01   -0.51561E-03 13873   0.140E-01    0.104E+00
RMM:   7    -0.233496516759E+04   -0.24122E-01   -0.88879E-03 14516   0.162E-01    0.247E+00
RMM:   8    -0.233493804155E+04    0.27126E-01   -0.37067E-03 13749   0.134E-01    0.768E-01
RMM:   9    -0.233493460131E+04    0.34402E-02   -0.16664E-03 13709   0.107E-01    0.433E-01
RMM:  10    -0.233493453318E+04    0.68125E-04   -0.10632E-03 14374   0.607E-02    0.433E-01
RMM:  11    -0.233493413822E+04    0.39496E-03   -0.10679E-03 14480   0.590E-02    0.321E-01
RMM:  12    -0.233493367773E+04    0.46049E-03   -0.41923E-04 13746   0.474E-02    0.181E-01
RMM:  13    -0.233493359856E+04    0.79167E-04   -0.25108E-04 14778   0.251E-02    0.138E-01
RMM:  14    -0.233493357841E+04    0.20153E-04   -0.19822E-04 15387   0.187E-02    0.120E-01
RMM:  15    -0.233493352830E+04    0.50107E-04   -0.58380E-05 10810   0.159E-02    0.642E-02
RMM:  16    -0.233493351713E+04    0.11171E-04   -0.24368E-05  8704   0.108E-02    0.464E-02
RMM:  17    -0.233493351546E+04    0.16696E-05   -0.19003E-05  8168   0.889E-03
  24 F= -.23349335E+04 E0= -.23321948E+04  d E =-.106261E-02
       N       E                     dE             d eps       ncg     rms          rms(c)
DAV:   1    -0.233492636407E+04    0.71531E-02   -0.99791E+00 13700   0.331E+00    0.472E-01
RMM:   2    -0.233502898303E+04   -0.10262E+00   -0.15554E-01 13935   0.867E-01    0.436E+00
RMM:   3    -0.233502225983E+04    0.67232E-02   -0.34257E-02 15100   0.348E-01    0.392E+00
RMM:   4    -0.233495683039E+04    0.65429E-01   -0.11233E-02 15854   0.177E-01    0.182E+00
RMM:   5    -0.233507536215E+04   -0.11853E+00   -0.13778E-02 13754   0.240E-01    0.512E+00
RMM:   6    -0.233499573333E+04    0.79629E-01   -0.26819E-02 19921   0.164E-01    0.313E+00
RMM:   7    -0.233506559207E+04   -0.69859E-01   -0.36362E-02 14400   0.330E-01    0.497E+00
RMM:   8    -0.233495282045E+04    0.11277E+00   -0.15190E-02 13725   0.274E-01    0.154E+00
RMM:   9    -0.233494149945E+04    0.11321E-01   -0.82066E-03 13718   0.217E-01    0.112E+00
RMM:  10    -0.233494140767E+04    0.91781E-04   -0.82113E-03 14849   0.152E-01    0.113E+00
RMM:  11    -0.233493686446E+04    0.45432E-02   -0.45618E-03 14097   0.130E-01    0.625E-01
RMM:  12    -0.233493498431E+04    0.18802E-02   -0.18368E-03 13766   0.101E-01    0.338E-01
RMM:  13    -0.233493482060E+04    0.16371E-03   -0.14429E-03 16513   0.483E-02    0.280E-01
RMM:  14    -0.233493473532E+04    0.85278E-04   -0.90062E-04 16601   0.425E-02    0.237E-01
RMM:  15    -0.233493450752E+04    0.22780E-03   -0.27422E-04 13977   0.342E-02    0.109E-01
RMM:  16    -0.233493449397E+04    0.13552E-04   -0.24638E-04 15911   0.178E-02    0.845E-02
RMM:  17    -0.233493449508E+04   -0.11121E-05   -0.11072E-04 13513   0.162E-02    0.763E-02
RMM:  18    -0.233493447659E+04    0.18490E-04   -0.38617E-05  9508   0.143E-02    0.459E-02
RMM:  19    -0.233493447282E+04    0.37688E-05   -0.19847E-05  7981   0.103E-02
  25 F= -.23349345E+04 E0= -.23321958E+04  d E =-.201996E-02
       N       E                     dE             d eps       ncg     rms          rms(c)
DAV:   1    -0.233493488855E+04   -0.41197E-03   -0.79587E-01 13700   0.939E-01    0.161E-01
RMM:   2    -0.233494709043E+04   -0.12202E-01   -0.17949E-02 13894   0.277E-01    0.143E+00
RMM:   3    -0.233500655110E+04   -0.59461E-01   -0.74852E-03 16944   0.129E-01    0.358E+00
RMM:   4    -0.233494205220E+04    0.64499E-01   -0.23130E-03 13727   0.104E-01    0.913E-01
RMM:   5    -0.233493862134E+04    0.34309E-02   -0.21084E-03 13757   0.989E-02    0.762E-01
RMM:   6    -0.233496691065E+04   -0.28289E-01   -0.66320E-03 18191   0.991E-02    0.228E+00
RMM:   7    -0.233495281307E+04    0.14098E-01   -0.61676E-03 17263   0.107E-01    0.180E+00
RMM:   8    -0.233493840279E+04    0.14410E-01   -0.34060E-03 13773   0.117E-01    0.658E-01
RMM:   9    -0.233493640389E+04    0.19989E-02   -0.18058E-03 13755   0.961E-02    0.411E-01
RMM:  10    -0.233493602570E+04    0.37819E-03   -0.12488E-03 14460   0.629E-02    0.307E-01
RMM:  11    -0.233493611329E+04   -0.87592E-04   -0.17129E-03 17615   0.535E-02    0.324E-01
RMM:  12    -0.233493569510E+04    0.41819E-03   -0.50840E-04 13863   0.468E-02    0.164E-01
RMM:  13    -0.233493557897E+04    0.11613E-03   -0.28021E-04 14533   0.293E-02    0.933E-02
RMM:  14    -0.233493558785E+04   -0.88874E-05   -0.26057E-04 16162   0.171E-02    0.869E-02
RMM:  15    -0.233493557409E+04    0.13762E-04   -0.10690E-04 13513   0.176E-02    0.652E-02
RMM:  16    -0.233493556290E+04    0.11195E-04   -0.42819E-05 10057   0.137E-02    0.488E-02
RMM:  17    -0.233493555927E+04    0.36240E-05   -0.22891E-05  8199   0.955E-03
  26 F= -.23349356E+04 E0= -.23321973E+04  d E =-.108645E-02
       N       E                     dE             d eps       ncg     rms          rms(c)
DAV:   1    -0.233493447543E+04    0.10875E-02   -0.21346E+00 13700   0.154E+00    0.263E-01
RMM:   2    -0.233498872821E+04   -0.54253E-01   -0.48297E-02 13949   0.454E-01    0.302E+00
RMM:   3    -0.233507939838E+04   -0.90670E-01   -0.27309E-02 19885   0.176E-01    0.511E+00
RMM:   4    -0.233498253735E+04    0.96861E-01   -0.92324E-03 13733   0.209E-01    0.268E+00
RMM:   5    -0.233495419901E+04    0.28338E-01   -0.63874E-03 14954   0.140E-01    0.182E+00
RMM:   6    -0.233494348957E+04    0.10709E-01   -0.69833E-03 14183   0.155E-01    0.112E+00
RMM:   7    -0.233496064774E+04   -0.17158E-01   -0.19268E-02 15998   0.204E-01    0.214E+00
RMM:   8    -0.233494833734E+04    0.12310E-01   -0.93686E-03 16392   0.148E-01    0.147E+00
RMM:   9    -0.233493787104E+04    0.10466E-01   -0.41796E-03 13700   0.147E-01    0.517E-01
RMM:  10    -0.233493693466E+04    0.93638E-03   -0.37018E-03 17469   0.813E-02    0.371E-01
RMM:  11    -0.233493753465E+04   -0.59999E-03   -0.27236E-03 18178   0.660E-02    0.501E-01
RMM:  12    -0.233493670623E+04    0.82842E-03   -0.96177E-04 13966   0.592E-02    0.286E-01
RMM:  13    -0.233493636481E+04    0.34142E-03   -0.47005E-04 13858   0.442E-02    0.168E-01
RMM:  14    -0.233493639657E+04   -0.31763E-04   -0.67938E-04 18311   0.302E-02    0.171E-01
RMM:  15    -0.233493627985E+04    0.11673E-03   -0.19648E-04 13609   0.289E-02    0.906E-02
RMM:  16    -0.233493624843E+04    0.31419E-04   -0.12121E-04 13711   0.183E-02    0.480E-02
RMM:  17    -0.233493624813E+04    0.29616E-06   -0.58741E-05 11163   0.115E-02
  27 F= -.23349362E+04 E0= -.23321987E+04  d E =-.177531E-02
       N       E                     dE             d eps       ncg     rms          rms(c)
DAV:   1    -0.233493617818E+04    0.70246E-04   -0.66706E-01 13700   0.860E-01    0.130E-01
RMM:   2    -0.233496419009E+04   -0.28012E-01   -0.12039E-02 13904   0.233E-01    0.232E+00
RMM:   3    -0.233495056999E+04    0.13620E-01   -0.45816E-03 19384   0.834E-02    0.151E+00
RMM:   4    -0.233494932106E+04    0.12489E-02   -0.16205E-03 13751   0.818E-02    0.148E+00
RMM:   5    -0.233494148495E+04    0.78361E-02   -0.15951E-03 14572   0.687E-02    0.858E-01
RMM:   6    -0.233493954556E+04    0.19394E-02   -0.22278E-03 13735   0.949E-02    0.719E-01
RMM:   7    -0.233494323753E+04   -0.36920E-02   -0.52227E-03 18924   0.854E-02    0.109E+00
RMM:   8    -0.233493798035E+04    0.52572E-02   -0.20932E-03 13719   0.953E-02    0.436E-01
RMM:   9    -0.233493694429E+04    0.10361E-02   -0.86771E-04 13706   0.710E-02    0.195E-01
RMM:  10    -0.233493689559E+04    0.48698E-04   -0.48701E-04 15488   0.346E-02    0.171E-01
RMM:  11    -0.233493697081E+04   -0.75220E-04   -0.59390E-04 18339   0.279E-02    0.198E-01
RMM:  12    -0.233493684350E+04    0.12731E-03   -0.22755E-04 14067   0.275E-02    0.116E-01
RMM:  13    -0.233493679296E+04    0.50534E-04   -0.13327E-04 13748   0.196E-02    0.720E-02
RMM:  14    -0.233493678950E+04    0.34608E-05   -0.82981E-05 12057   0.132E-02
  28 F= -.23349368E+04 E0= -.23321995E+04  d E =-.541368E-03
       N       E                     dE             d eps       ncg     rms          rms(c)
DAV:   1    -0.233493547454E+04    0.13184E-02   -0.18640E+00 13700   0.144E+00    0.214E-01
RMM:   2    -0.233499014096E+04   -0.54666E-01   -0.31019E-02 13922   0.376E-01    0.316E+00
RMM:   3    -0.233498550009E+04    0.46409E-02   -0.12206E-02 19960   0.124E-01    0.291E+00
RMM:   4    -0.233494455631E+04    0.40944E-01   -0.46068E-03 13703   0.149E-01    0.107E+00
RMM:   5    -0.233497016617E+04   -0.25610E-01   -0.62434E-03 16092   0.111E-01    0.239E+00
RMM:   6    -0.233494378107E+04    0.26385E-01   -0.56041E-03 14433   0.134E-01    0.104E+00
RMM:   7    -0.233497001994E+04   -0.26239E-01   -0.14948E-02 16963   0.161E-01    0.249E+00
RMM:   8    -0.233494082821E+04    0.29192E-01   -0.46670E-03 13732   0.144E-01    0.727E-01
RMM:   9    -0.233493755153E+04    0.32767E-02   -0.22283E-03 13770   0.109E-01    0.302E-01
RMM:  10    -0.233493755760E+04   -0.60778E-05   -0.15659E-03 16348   0.572E-02    0.316E-01
RMM:  11    -0.233493757731E+04   -0.19703E-04   -0.15737E-03 15038   0.639E-02    0.294E-01
RMM:  12    -0.233493727085E+04    0.30646E-03   -0.58101E-04 13848   0.509E-02    0.178E-01
RMM:  13    -0.233493713958E+04    0.13127E-03   -0.42264E-04 16077   0.274E-02    0.917E-02
RMM:  14    -0.233493714247E+04   -0.28912E-05   -0.24565E-04 15937   0.195E-02    0.863E-02
RMM:  15    -0.233493712695E+04    0.15521E-04   -0.11046E-04 13332   0.189E-02    0.670E-02
RMM:  16    -0.233493710754E+04    0.19415E-04   -0.37343E-05  9588   0.143E-02    0.370E-02
RMM:  17    -0.233493710481E+04    0.27257E-05   -0.17949E-05  8176   0.848E-03
  29 F= -.23349371E+04 E0= -.23321999E+04  d E =-.856679E-03
       N       E                     dE             d eps       ncg     rms          rms(c)
DAV:   1    -0.233493673986E+04    0.36768E-03   -0.11038E+00 13700   0.111E+00    0.174E-01
RMM:   2    -0.233495449575E+04   -0.17756E-01   -0.20631E-02 13852   0.302E-01    0.179E+00
RMM:   3    -0.233497056184E+04   -0.16066E-01   -0.97198E-03 19587   0.117E-01    0.238E+00
RMM:   4    -0.233496277681E+04    0.77850E-02   -0.26499E-03 13712   0.114E-01    0.215E+00
RMM:   5    -0.233494400876E+04    0.18768E-01   -0.24397E-03 16058   0.774E-02    0.981E-01
RMM:   6    -0.233494189144E+04    0.21173E-02   -0.23942E-03 13880   0.945E-02    0.866E-01
RMM:   7    -0.233495211158E+04   -0.10220E-01   -0.88478E-03 16578   0.126E-01    0.163E+00
RMM:   8    -0.233494008239E+04    0.12029E-01   -0.36389E-03 14022   0.120E-01    0.589E-01
RMM:   9    -0.233493806553E+04    0.20169E-02   -0.15198E-03 13724   0.910E-02    0.278E-01
RMM:  10    -0.233493784966E+04    0.21587E-03   -0.10232E-03 15961   0.469E-02    0.198E-01
RMM:  11    -0.233493801835E+04   -0.16869E-03   -0.93315E-04 17876   0.380E-02    0.261E-01
RMM:  12    -0.233493778230E+04    0.23605E-03   -0.34868E-04 13778   0.372E-02    0.151E-01
RMM:  13    -0.233493767101E+04    0.11129E-03   -0.16371E-04 13646   0.270E-02    0.698E-02
RMM:  14    -0.233493767714E+04   -0.61281E-05   -0.15803E-04 14085   0.160E-02    0.717E-02
RMM:  15    -0.233493767220E+04    0.49380E-05   -0.86915E-05 12519   0.166E-02
  30 F= -.23349377E+04 E0= -.23322003E+04  d E =-.567388E-03
       N       E                     dE             d eps       ncg     rms          rms(c)
DAV:   1    -0.233493732706E+04    0.35008E-03   -0.50956E-01 13700   0.752E-01    0.118E-01
RMM:   2    -0.233497340968E+04   -0.36083E-01   -0.10761E-02 14088   0.213E-01    0.257E+00
RMM:   3    -0.233494251102E+04    0.30899E-01   -0.36741E-03 17559   0.905E-02    0.801E-01
RMM:   4    -0.233494183670E+04    0.67432E-03   -0.15928E-03 13702   0.937E-02    0.867E-01
RMM:   5    -0.233494605848E+04   -0.42218E-02   -0.15060E-03 19804   0.404E-02    0.121E+00
RMM:   6    -0.233494034046E+04    0.57180E-02   -0.12267E-03 13954   0.658E-02    0.646E-01
RMM:   7    -0.233494353661E+04   -0.31962E-02   -0.30948E-03 15260   0.863E-02    0.103E+00
RMM:   8    -0.233493902507E+04    0.45115E-02   -0.16811E-03 14006   0.819E-02    0.413E-01
RMM:   9    -0.233493818964E+04    0.83543E-03   -0.72920E-04 13699   0.650E-02    0.261E-01
RMM:  10    -0.233493790668E+04    0.28296E-03   -0.31399E-04 13727   0.389E-02    0.164E-01
RMM:  11    -0.233493787729E+04    0.29389E-04   -0.32850E-04 15164   0.263E-02    0.140E-01
RMM:  12    -0.233493790207E+04   -0.24780E-04   -0.30935E-04 15003   0.291E-02    0.150E-01
RMM:  13    -0.233493779007E+04    0.11200E-03   -0.10276E-04 12828   0.237E-02    0.604E-02
RMM:  14    -0.233493778076E+04    0.93059E-05   -0.58442E-05 10511   0.111E-02
  31 F= -.23349378E+04 E0= -.23322002E+04  d E =-.675951E-03
       N       E                     dE             d eps       ncg     rms          rms(c)
DAV:   1    -0.233493752783E+04    0.26224E-03   -0.81537E-01 13700   0.949E-01    0.141E-01
RMM:   2    -0.233495830343E+04   -0.20776E-01   -0.14017E-02 13908   0.250E-01    0.193E+00
RMM:   3    -0.233494653051E+04    0.11773E-01   -0.52297E-03 19246   0.903E-02    0.117E+00
RMM:   4    -0.233493970327E+04    0.68272E-02   -0.19683E-03 13701   0.106E-01    0.497E-01
RMM:   5    -0.233495384832E+04   -0.14145E-01   -0.19937E-03 19304   0.527E-02    0.171E+00
RMM:   6    -0.233494560819E+04    0.82401E-02   -0.28348E-03 18257   0.650E-02    0.110E+00
RMM:   7    -0.233494325369E+04    0.23545E-02   -0.27146E-03 13799   0.101E-01    0.928E-01
RMM:   8    -0.233494124464E+04    0.20091E-02   -0.25753E-03 15010   0.861E-02    0.715E-01
RMM:   9    -0.233493861440E+04    0.26302E-02   -0.11557E-03 13701   0.830E-02    0.258E-01
RMM:  10    -0.233493838669E+04    0.22771E-03   -0.60970E-04 13888   0.514E-02    0.192E-01
RMM:  11    -0.233493849863E+04   -0.11194E-03   -0.85398E-04 16507   0.394E-02    0.224E-01
RMM:  12    -0.233493837561E+04    0.12303E-03   -0.26034E-04 13819   0.311E-02    0.172E-01
RMM:  13    -0.233493824221E+04    0.13340E-03   -0.12446E-04 13230   0.226E-02    0.739E-02
RMM:  14    -0.233493822991E+04    0.12297E-04   -0.84868E-05 12271   0.124E-02    0.607E-02
RMM:  15    -0.233493822520E+04    0.47135E-05   -0.48980E-05 10345   0.132E-02
  32 F= -.23349382E+04 E0= -.23322006E+04  d E =-.444438E-03
       N       E                     dE             d eps       ncg     rms          rms(c)
DAV:   1    -0.233493691287E+04    0.13170E-02   -0.18174E+00 13700   0.142E+00    0.200E-01
RMM:   2    -0.233494690973E+04   -0.99969E-02   -0.26697E-02 13940   0.354E-01    0.126E+00
RMM:   3    -0.233496962066E+04   -0.22711E-01   -0.82362E-03 19529   0.120E-01    0.237E+00
RMM:   4    -0.233495277368E+04    0.16847E-01   -0.23187E-03 13771   0.969E-02    0.155E+00
RMM:   5    -0.233495517195E+04   -0.23983E-02   -0.28282E-03 15847   0.796E-02    0.169E+00
RMM:   6    -0.233494564207E+04    0.95299E-02   -0.33621E-03 14498   0.101E-01    0.113E+00
RMM:   7    -0.233495509682E+04   -0.94547E-02   -0.95691E-03 15817   0.141E-01    0.172E+00
RMM:   8    -0.233494258223E+04    0.12515E-01   -0.43843E-03 14016   0.132E-01    0.829E-01
RMM:   9    -0.233493933226E+04    0.32500E-02   -0.19386E-03 13714   0.109E-01    0.380E-01
RMM:  10    -0.233493898303E+04    0.34923E-03   -0.10145E-03 14514   0.584E-02    0.321E-01
RMM:  11    -0.233493894134E+04    0.41688E-04   -0.11105E-03 15720   0.477E-02    0.301E-01
RMM:  12    -0.233493880689E+04    0.13445E-03   -0.64866E-04 15063   0.412E-02    0.242E-01
RMM:  13    -0.233493853721E+04    0.26968E-03   -0.23280E-04 13605   0.337E-02    0.121E-01
RMM:  14    -0.233493851702E+04    0.20194E-04   -0.22049E-04 15313   0.185E-02    0.993E-02
RMM:  15    -0.233493850012E+04    0.16903E-04   -0.13324E-04 13835   0.178E-02    0.827E-02
RMM:  16    -0.233493846686E+04    0.33256E-04   -0.40575E-05  9598   0.143E-02    0.295E-02
RMM:  17    -0.233493846482E+04    0.20433E-05   -0.18146E-05  7997   0.816E-03
  33 F= -.23349385E+04 E0= -.23322009E+04  d E =-.684055E-03
       N       E                     dE             d eps       ncg     rms          rms(c)
DAV:   1    -0.233493833691E+04    0.12995E-03   -0.51969E-01 13700   0.757E-01    0.104E-01
RMM:   2    -0.233494061543E+04   -0.22785E-02   -0.73602E-03 13932   0.188E-01    0.567E-01
RMM:   3    -0.233494190114E+04   -0.12857E-02   -0.17588E-03 17286   0.678E-02    0.722E-01
RMM:   4    -0.233494149701E+04    0.40413E-03   -0.64591E-04 15354   0.389E-02    0.716E-01
RMM:   5    -0.233494648687E+04   -0.49899E-02   -0.63240E-04 13813   0.498E-02    0.119E+00
RMM:   6    -0.233494076888E+04    0.57180E-02   -0.11861E-03 18834   0.407E-02    0.564E-01
RMM:   7    -0.233494571020E+04   -0.49413E-02   -0.21358E-03 14879   0.727E-02    0.114E+00
RMM:   8    -0.233493954706E+04    0.61631E-02   -0.90993E-04 13688   0.673E-02    0.317E-01
RMM:   9    -0.233493891780E+04    0.62925E-03   -0.36909E-04 13679   0.463E-02    0.160E-01
RMM:  10    -0.233493885659E+04    0.61214E-04   -0.25859E-04 14006   0.302E-02    0.130E-01
RMM:  11    -0.233493890927E+04   -0.52679E-04   -0.30475E-04 14978   0.291E-02    0.154E-01
RMM:  12    -0.233493879384E+04    0.11543E-03   -0.10278E-04 12821   0.229E-02    0.623E-02
RMM:  13    -0.233493877473E+04    0.19109E-04   -0.45364E-05  9624   0.124E-02    0.286E-02
RMM:  14    -0.233493877525E+04   -0.51898E-06   -0.23503E-05  8694   0.781E-03
  34 F= -.23349388E+04 E0= -.23322012E+04  d E =-.310435E-03
       N       E                     dE             d eps       ncg     rms          rms(c)
DAV:   1    -0.233493635472E+04    0.24200E-02   -0.33327E+00 13700   0.192E+00    0.260E-01
RMM:   2    -0.233497876274E+04   -0.42408E-01   -0.46696E-02 13940   0.470E-01    0.270E+00
RMM:   3    -0.233497916227E+04   -0.39953E-03   -0.13589E-02 19775   0.130E-01    0.264E+00
RMM:   4    -0.233494694776E+04    0.32215E-01   -0.44498E-03 13702   0.145E-01    0.113E+00
RMM:   5    -0.233500113376E+04   -0.54186E-01   -0.97649E-03 15608   0.148E-01    0.328E+00
RMM:   6    -0.233494889547E+04    0.52238E-01   -0.92725E-03 16146   0.152E-01    0.122E+00
RMM:   7    -0.233498174735E+04   -0.32852E-01   -0.15402E-02 15101   0.189E-01    0.282E+00
RMM:   8    -0.233494359197E+04    0.38155E-01   -0.48841E-03 13730   0.154E-01    0.769E-01
RMM:   9    -0.233494024459E+04    0.33474E-02   -0.26766E-03 13822   0.115E-01    0.454E-01
RMM:  10    -0.233493995099E+04    0.29360E-03   -0.18614E-03 14491   0.773E-02    0.397E-01
RMM:  11    -0.233494004530E+04   -0.94315E-04   -0.24295E-03 16425   0.687E-02    0.406E-01
RMM:  12    -0.233493937300E+04    0.67230E-03   -0.74345E-04 13714   0.598E-02    0.201E-01
RMM:  13    -0.233493918739E+04    0.18561E-03   -0.37589E-04 14517   0.350E-02    0.111E-01
RMM:  14    -0.233493920640E+04   -0.19009E-04   -0.39772E-04 17678   0.209E-02    0.111E-01
RMM:  15    -0.233493918047E+04    0.25931E-04   -0.18878E-04 14983   0.212E-02    0.824E-02
RMM:  16    -0.233493915240E+04    0.28067E-04   -0.62094E-05 11391   0.160E-02    0.447E-02
RMM:  17    -0.233493915008E+04    0.23212E-05   -0.33141E-05  9510   0.795E-03
  35 F= -.23349392E+04 E0= -.23322017E+04  d E =-.685263E-03
       N       E                     dE             d eps       ncg     rms          rms(c)
DAV:   1    -0.233493885408E+04    0.29832E-03   -0.85637E-01 13700   0.971E-01    0.141E-01
RMM:   2    -0.233496279108E+04   -0.23937E-01   -0.14230E-02 13908   0.255E-01    0.206E+00
RMM:   3    -0.233494766428E+04    0.15127E-01   -0.49005E-03 19113   0.893E-02    0.116E+00
RMM:   4    -0.233496801664E+04   -0.20352E-01   -0.16273E-03 13794   0.863E-02    0.228E+00
RMM:   5    -0.233494152543E+04    0.26491E-01   -0.13603E-03 14272   0.707E-02    0.452E-01
RMM:   6    -0.233494473516E+04   -0.32097E-02   -0.32600E-03 13891   0.110E-01    0.988E-01
RMM:   7    -0.233494818127E+04   -0.34461E-02   -0.54643E-03 17402   0.980E-02    0.125E+00
RMM:   8    -0.233494151988E+04    0.66614E-02   -0.18514E-03 13706   0.913E-02    0.548E-01
RMM:   9    -0.233494043496E+04    0.10849E-02   -0.98397E-04 13824   0.634E-02    0.399E-01
RMM:  10    -0.233493977693E+04    0.65803E-03   -0.70775E-04 15964   0.404E-02    0.209E-01
RMM:  11    -0.233493972609E+04    0.50838E-04   -0.63440E-04 15985   0.370E-02    0.182E-01
RMM:  12    -0.233493962327E+04    0.10282E-03   -0.27469E-04 14257   0.306E-02    0.116E-01
RMM:  13    -0.233493956904E+04    0.54232E-04   -0.12405E-04 13276   0.207E-02    0.656E-02
RMM:  14    -0.233493957283E+04   -0.37858E-05   -0.96003E-05 12251   0.129E-02
  36 F= -.23349396E+04 E0= -.23322021E+04  d E =-.422748E-03
       N       E                     dE             d eps       ncg     rms          rms(c)
DAV:   1    -0.233493788971E+04    0.16793E-02   -0.23134E+00 13700   0.160E+00    0.229E-01
RMM:   2    -0.233503657999E+04   -0.98690E-01   -0.36326E-02 13930   0.407E-01    0.424E+00
RMM:   3    -0.233496307210E+04    0.73508E-01   -0.12685E-02 19464   0.136E-01    0.192E+00
RMM:   4    -0.233499566540E+04   -0.32593E-01   -0.58323E-03 14035   0.148E-01    0.312E+00
RMM:   5    -0.233494519668E+04    0.50469E-01   -0.43505E-03 13767   0.137E-01    0.897E-01
RMM:   6    -0.233495797844E+04   -0.12782E-01   -0.11960E-02 15767   0.165E-01    0.180E+00
RMM:   7    -0.233496414918E+04   -0.61707E-02   -0.11519E-02 14865   0.178E-01    0.207E+00
RMM:   8    -0.233494642603E+04    0.17723E-01   -0.45397E-03 13719   0.144E-01    0.106E+00
RMM:   9    -0.233494083135E+04    0.55947E-02   -0.19447E-03 13733   0.102E-01    0.426E-01
RMM:  10    -0.233494019738E+04    0.63397E-03   -0.12197E-03 14269   0.647E-02    0.296E-01
RMM:  11    -0.233494014155E+04    0.55832E-04   -0.16296E-03 15119   0.657E-02    0.255E-01
RMM:  12    -0.233493990167E+04    0.23988E-03   -0.64983E-04 14049   0.511E-02    0.150E-01
RMM:  13    -0.233493980979E+04    0.91880E-04   -0.43483E-04 15663   0.301E-02    0.784E-02
RMM:  14    -0.233493982887E+04   -0.19084E-04   -0.26546E-04 16236   0.183E-02    0.857E-02
RMM:  15    -0.233493982173E+04    0.71413E-05   -0.12211E-04 13479   0.188E-02    0.767E-02
RMM:  16    -0.233493979332E+04    0.28408E-04   -0.40784E-05  9732   0.148E-02    0.345E-02
RMM:  17    -0.233493979111E+04    0.22142E-05   -0.19141E-05  8364   0.871E-03
  37 F= -.23349398E+04 E0= -.23322024E+04  d E =-.641030E-03
       N       E                     dE             d eps       ncg     rms          rms(c)
DAV:   1    -0.233493912791E+04    0.66541E-03   -0.12480E+00 13700   0.117E+00    0.167E-01
RMM:   2    -0.233498595422E+04   -0.46826E-01   -0.20142E-02 13947   0.304E-01    0.288E+00
RMM:   3    -0.233495144143E+04    0.34513E-01   -0.62115E-03 18775   0.106E-01    0.134E+00
RMM:   4    -0.233497555941E+04   -0.24118E-01   -0.26930E-03 14555   0.910E-02    0.254E+00
RMM:   5    -0.233494229255E+04    0.33267E-01   -0.24454E-03 13716   0.106E-01    0.440E-01
RMM:   6    -0.233495771404E+04   -0.15421E-01   -0.84349E-03 15484   0.139E-01    0.181E+00
RMM:   7    -0.233494586685E+04    0.11847E-01   -0.51745E-03 15741   0.119E-01    0.970E-01
RMM:   8    -0.233494379011E+04    0.20767E-02   -0.24712E-03 13751   0.108E-01    0.791E-01
RMM:   9    -0.233494040529E+04    0.33848E-02   -0.10186E-03 13845   0.682E-02    0.217E-01
RMM:  10    -0.233494032995E+04    0.75334E-04   -0.10538E-03 15941   0.505E-02    0.205E-01
RMM:  11    -0.233494056049E+04   -0.23054E-03   -0.10517E-03 17519   0.415E-02    0.281E-01
RMM:  12    -0.233494025051E+04    0.30999E-03   -0.30258E-04 13706   0.348E-02    0.146E-01
RMM:  13    -0.233494016376E+04    0.86745E-04   -0.22675E-04 15028   0.231E-02    0.801E-02
RMM:  14    -0.233494016500E+04   -0.12409E-05   -0.14701E-04 14515   0.158E-02    0.789E-02
RMM:  15    -0.233494014942E+04    0.15578E-04   -0.63652E-05 11377   0.155E-02    0.560E-02
RMM:  16    -0.233494013744E+04    0.11984E-04   -0.25572E-05  8220   0.116E-02    0.333E-02
RMM:  17    -0.233494013610E+04    0.13439E-05   -0.16463E-05  7944   0.812E-03
  38 F= -.23349401E+04 E0= -.23322027E+04  d E =-.344985E-03
       N       E                     dE             d eps       ncg     rms          rms(c)
DAV:   1    -0.233493798948E+04    0.21480E-02   -0.28948E+00 13700   0.178E+00    0.246E-01
RMM:   2    -0.233499390357E+04   -0.55914E-01   -0.42229E-02 13949   0.446E-01    0.312E+00
RMM:   3    -0.233495991036E+04    0.33993E-01   -0.11698E-02 19281   0.138E-01    0.181E+00
RMM:   4    -0.233500952958E+04   -0.49619E-01   -0.47562E-03 14464   0.123E-01    0.352E+00
RMM:   5    -0.233494516807E+04    0.64362E-01   -0.42885E-03 13784   0.135E-01    0.708E-01
RMM:   6    -0.233497718889E+04   -0.32021E-01   -0.16249E-02 15022   0.202E-01    0.261E+00
RMM:   7    -0.233495101481E+04    0.26174E-01   -0.97216E-03 15651   0.164E-01    0.134E+00
RMM:   8    -0.233494188409E+04    0.91307E-02   -0.41896E-03 13716   0.156E-01    0.499E-01
RMM:   9    -0.233494086988E+04    0.10142E-02   -0.19673E-03 14900   0.783E-02    0.342E-01
RMM:  10    -0.233494075357E+04    0.11631E-03   -0.19340E-03 15754   0.656E-02    0.278E-01
RMM:  11    -0.233494188098E+04   -0.11274E-02   -0.17317E-03 16796   0.555E-02    0.527E-01
RMM:  12    -0.233494059811E+04    0.12829E-02   -0.51141E-04 13861   0.441E-02    0.203E-01
RMM:  13    -0.233494039329E+04    0.20482E-03   -0.35890E-04 15310   0.291E-02    0.995E-02
RMM:  14    -0.233494041452E+04   -0.21227E-04   -0.31393E-04 17072   0.229E-02    0.116E-01
RMM:  15    -0.233494036426E+04    0.50257E-04   -0.99152E-05 12869   0.199E-02    0.621E-02
RMM:  16    -0.233494035101E+04    0.13252E-04   -0.47165E-05 10206   0.128E-02    0.409E-02
RMM:  17    -0.233494035142E+04   -0.41269E-06   -0.28484E-05  8913   0.978E-03
  39 F= -.23349404E+04 E0= -.23322028E+04  d E =-.560311E-03
       N       E                     dE             d eps       ncg     rms          rms(c)
DAV:   1    -0.233493922881E+04    0.11222E-02   -0.18266E+00 13700   0.142E+00    0.198E-01
RMM:   2    -0.233498131458E+04   -0.42086E-01   -0.26923E-02 13934   0.353E-01    0.273E+00
RMM:   3    -0.233495404361E+04    0.27271E-01   -0.82537E-03 19619   0.103E-01    0.148E+00
RMM:   4    -0.233497008000E+04   -0.16036E-01   -0.37437E-03 13816   0.128E-01    0.232E+00
RMM:   5    -0.233494636341E+04    0.23717E-01   -0.29902E-03 14702   0.990E-02    0.893E-01
RMM:   6    -0.233495204315E+04   -0.56797E-02   -0.65362E-03 15254   0.129E-01    0.141E+00
RMM:   7    -0.233495725448E+04   -0.52113E-02   -0.78593E-03 15308   0.140E-01    0.175E+00
RMM:   8    -0.233494443734E+04    0.12817E-01   -0.35598E-03 13832   0.123E-01    0.750E-01
RMM:   9    -0.233494168003E+04    0.27573E-02   -0.16472E-03 13719   0.954E-02    0.404E-01
RMM:  10    -0.233494093610E+04    0.74393E-03   -0.91078E-04 14093   0.591E-02    0.209E-01
RMM:  11    -0.233494097301E+04   -0.36911E-04   -0.11405E-03 15934   0.473E-02    0.214E-01
RMM:  12    -0.233494091629E+04    0.56726E-04   -0.60328E-04 14833   0.426E-02    0.177E-01
RMM:  13    -0.233494076619E+04    0.15010E-03   -0.23320E-04 13868   0.319E-02    0.871E-02
RMM:  14    -0.233494076444E+04    0.17468E-05   -0.22788E-04 15472   0.151E-02    0.753E-02
RMM:  15    -0.233494075906E+04    0.53849E-05   -0.85879E-05 12554   0.166E-02
  40 F= -.23349408E+04 E0= -.23322032E+04  d E =-.407636E-03
       N       E                     dE             d eps       ncg     rms          rms(c)
DAV:   1    -0.233494067423E+04    0.90210E-04   -0.95645E-02 13800   0.327E-01    0.548E-02
RMM:   2    -0.233494424917E+04   -0.35749E-02   -0.19711E-03 13849   0.925E-02    0.795E-01
RMM:   3    -0.233494190247E+04    0.23467E-02   -0.71051E-04 19340   0.294E-02    0.431E-01
RMM:   4    -0.233494450257E+04   -0.26001E-02   -0.36682E-04 14289   0.336E-02    0.827E-01
RMM:   5    -0.233494119307E+04    0.33095E-02   -0.31949E-04 13658   0.373E-02    0.235E-01
RMM:   6    -0.233494167515E+04   -0.48208E-03   -0.58652E-04 15175   0.397E-02    0.405E-01
RMM:   7    -0.233494156413E+04    0.11102E-03   -0.63950E-04 16207   0.381E-02    0.377E-01
RMM:   8    -0.233494125775E+04    0.30638E-03   -0.30396E-04 13822   0.330E-02    0.283E-01
RMM:   9    -0.233494083817E+04    0.41958E-03   -0.17600E-04 13575   0.314E-02    0.101E-01
RMM:  10    -0.233494079236E+04    0.45812E-04   -0.85355E-05 12162   0.154E-02    0.671E-02
RMM:  11    -0.233494080560E+04   -0.13240E-04   -0.77664E-05 11701   0.139E-02    0.824E-02
RMM:  12    -0.233494079984E+04    0.57649E-05   -0.54968E-05 10465   0.140E-02
  41 F= -.23349408E+04 E0= -.23322033E+04  d E =-.448415E-03
       N       E                     dE             d eps       ncg     rms          rms(c)
DAV:   1    -0.233494061201E+04    0.19359E-03   -0.39028E-01 13700   0.659E-01    0.110E-01
RMM:   2    -0.233495933958E+04   -0.18728E-01   -0.86623E-03 13887   0.196E-01    0.181E+00
RMM:   3    -0.233494684403E+04    0.12496E-01   -0.37769E-03 18923   0.766E-02    0.101E+00
RMM:   4    -0.233495304149E+04   -0.61975E-02   -0.13220E-03 13705   0.843E-02    0.149E+00
RMM:   5    -0.233494249068E+04    0.10551E-01   -0.11264E-03 17931   0.444E-02    0.456E-01
RMM:   6    -0.233494462344E+04   -0.21328E-02   -0.15615E-03 13835   0.768E-02    0.839E-01
RMM:   7    -0.233494330315E+04    0.13203E-02   -0.29275E-03 17322   0.714E-02    0.628E-01
RMM:   8    -0.233494210991E+04    0.11932E-02   -0.11755E-03 13769   0.710E-02    0.428E-01
RMM:   9    -0.233494166411E+04    0.44580E-03   -0.65536E-04 13689   0.584E-02    0.345E-01
RMM:  10    -0.233494110967E+04    0.55444E-03   -0.31306E-04 14053   0.338E-02    0.168E-01
RMM:  11    -0.233494099849E+04    0.11118E-03   -0.27950E-04 16049   0.222E-02    0.886E-02
RMM:  12    -0.233494105522E+04   -0.56736E-04   -0.26443E-04 15127   0.258E-02    0.128E-01
RMM:  13    -0.233494098031E+04    0.74916E-04   -0.87029E-05 12300   0.201E-02    0.608E-02
RMM:  14    -0.233494096746E+04    0.12852E-04   -0.41077E-05  9597   0.114E-02    0.423E-02
RMM:  15    -0.233494096954E+04   -0.20791E-05   -0.30127E-05  8632   0.116E-02
  42 F= -.23349410E+04 E0= -.23322037E+04  d E =-.169699E-03
       N       E                     dE             d eps       ncg     rms          rms(c)
DAV:   1    -0.233494092991E+04    0.37545E-04   -0.42693E-02 13800   0.219E-01    0.423E-02
RMM:   2    -0.233494950636E+04   -0.85765E-02   -0.12922E-03 13886   0.739E-02    0.127E+00
RMM:   3    -0.233494253012E+04    0.69762E-02   -0.67975E-04 18436   0.328E-02    0.483E-01
RMM:   4    -0.233494323879E+04   -0.70867E-03   -0.36979E-04 13565   0.410E-02    0.637E-01
RMM:   5    -0.233494144625E+04    0.17925E-02   -0.28215E-04 14704   0.280E-02    0.262E-01
RMM:   6    -0.233494139870E+04    0.47558E-04   -0.40274E-04 13877   0.385E-02    0.267E-01
RMM:   7    -0.233494145838E+04   -0.59683E-04   -0.51272E-04 15367   0.376E-02    0.287E-01
RMM:   8    -0.233494109774E+04    0.36063E-03   -0.17200E-04 13444   0.313E-02    0.140E-01
RMM:   9    -0.233494113629E+04   -0.38545E-04   -0.60873E-05 11165   0.165E-02    0.175E-01
RMM:  10    -0.233494098860E+04    0.14769E-03   -0.34542E-05  9032   0.130E-02    0.431E-02
RMM:  11    -0.233494098864E+04   -0.36671E-07   -0.36432E-05  9300   0.123E-02
  43 F= -.23349410E+04 E0= -.23322038E+04  d E =-.188804E-03
       N       E                     dE             d eps       ncg     rms          rms(c)
DAV:   1    -0.233494083384E+04    0.15476E-03   -0.31662E-01 13720   0.594E-01    0.110E-01
RMM:   2    -0.233495702012E+04   -0.16186E-01   -0.89609E-03 14266   0.190E-01    0.168E+00
RMM:   3    -0.233496479690E+04   -0.77768E-02   -0.55428E-03 20113   0.748E-02    0.208E+00
RMM:   4    -0.233495173902E+04    0.13058E-01   -0.20401E-03 13712   0.100E-01    0.134E+00
RMM:   5    -0.233494233700E+04    0.94020E-02   -0.12063E-03 15019   0.587E-02    0.443E-01
RMM:   6    -0.233494484403E+04   -0.25070E-02   -0.31598E-03 15055   0.888E-02    0.821E-01
RMM:   7    -0.233494271877E+04    0.21253E-02   -0.30027E-03 16133   0.853E-02    0.501E-01
RMM:   8    -0.233494274222E+04   -0.23446E-04   -0.10517E-03 13713   0.710E-02    0.571E-01
RMM:   9    -0.233494157953E+04    0.11627E-02   -0.86779E-04 16880   0.380E-02    0.284E-01
RMM:  10    -0.233494125070E+04    0.32883E-03   -0.41134E-04 15672   0.293E-02    0.167E-01
RMM:  11    -0.233494119375E+04    0.56950E-04   -0.34308E-04 17039   0.243E-02    0.137E-01
RMM:  12    -0.233494114687E+04    0.46883E-04   -0.14318E-04 13672   0.229E-02    0.995E-02
RMM:  13    -0.233494110526E+04    0.41608E-04   -0.52926E-05 10711   0.163E-02    0.574E-02
RMM:  14    -0.233494110271E+04    0.25476E-05   -0.31763E-05  9079   0.109E-02
  44 F= -.23349411E+04 E0= -.23322039E+04  d E =-.114073E-03
       N       E                     dE             d eps       ncg     rms          rms(c)
DAV:   1    -0.233494103149E+04    0.73769E-04   -0.79272E-02 13800   0.298E-01    0.612E-02
RMM:   2    -0.233495388897E+04   -0.12857E-01   -0.28824E-03 14242   0.104E-01    0.151E+00
RMM:   3    -0.233494507639E+04    0.88126E-02   -0.15511E-03 18445   0.492E-02    0.818E-01
RMM:   4    -0.233494879388E+04   -0.37175E-02   -0.71920E-04 14070   0.492E-02    0.117E+00
RMM:   5    -0.233494169677E+04    0.70971E-02   -0.50797E-04 13659   0.473E-02    0.283E-01
RMM:   6    -0.233494197246E+04   -0.27569E-03   -0.74236E-04 14089   0.507E-02    0.389E-01
RMM:   7    -0.233494188199E+04    0.90469E-04   -0.13008E-03 16062   0.540E-02    0.360E-01
RMM:   8    -0.233494263744E+04   -0.75545E-03   -0.87646E-04 16444   0.408E-02    0.532E-01
RMM:   9    -0.233494134166E+04    0.12958E-02   -0.30658E-04 13600   0.387E-02    0.195E-01
RMM:  10    -0.233494115158E+04    0.19008E-03   -0.15795E-04 13435   0.246E-02    0.108E-01
RMM:  11    -0.233494112978E+04    0.21806E-04   -0.18067E-04 14834   0.168E-02    0.789E-02
RMM:  12    -0.233494112989E+04   -0.11560E-06   -0.13602E-04 13872   0.165E-02    0.722E-02
RMM:  13    -0.233494110837E+04    0.21519E-04   -0.42220E-05  9665   0.133E-02    0.380E-02
RMM:  14    -0.233494110501E+04    0.33679E-05   -0.23364E-05  7826   0.927E-03
  45 F= -.23349411E+04 E0= -.23322039E+04  d E =-.116365E-03
       N       E                     dE             d eps       ncg     rms          rms(c)
DAV:   1    -0.233494097296E+04    0.13541E-03   -0.26423E-01 13720   0.541E-01    0.903E-02
RMM:   2    -0.233495865790E+04   -0.17685E-01   -0.60940E-03 13991   0.166E-01    0.174E+00
RMM:   3    -0.233494840830E+04    0.10250E-01   -0.26605E-03 18454   0.667E-02    0.114E+00
RMM:   4    -0.233495554528E+04   -0.71370E-02   -0.10506E-03 14026   0.634E-02    0.161E+00
RMM:   5    -0.233494245655E+04    0.13089E-01   -0.80062E-04 13729   0.576E-02    0.408E-01
RMM:   6    -0.233494337339E+04   -0.91683E-03   -0.13338E-03 14172   0.663E-02    0.622E-01
RMM:   7    -0.233494467230E+04   -0.12989E-02   -0.26643E-03 16816   0.746E-02    0.788E-01
RMM:   8    -0.233494293136E+04    0.17409E-02   -0.12526E-03 14620   0.634E-02    0.534E-01
RMM:   9    -0.233494157532E+04    0.13560E-02   -0.59434E-04 13693   0.563E-02    0.263E-01
RMM:  10    -0.233494125282E+04    0.32249E-03   -0.28111E-04 14058   0.325E-02    0.120E-01
RMM:  11    -0.233494124792E+04    0.49060E-05   -0.36359E-04 16851   0.256E-02    0.110E-01
RMM:  12    -0.233494122296E+04    0.24955E-04   -0.21874E-04 15407   0.209E-02    0.821E-02
RMM:  13    -0.233494119807E+04    0.24888E-04   -0.67223E-05 11595   0.161E-02    0.526E-02
RMM:  14    -0.233494119408E+04    0.39920E-05   -0.31536E-05  8907   0.986E-03
  46 F= -.23349412E+04 E0= -.23322041E+04  d E =-.890767E-04
       N       E                     dE             d eps       ncg     rms          rms(c)
DAV:   1    -0.233494113893E+04    0.59142E-04   -0.68193E-02 13800   0.276E-01    0.603E-02
RMM:   2    -0.233497257218E+04   -0.31433E-01   -0.30132E-03 14312   0.105E-01    0.241E+00
RMM:   3    -0.233494499036E+04    0.27582E-01   -0.16814E-03 17517   0.568E-02    0.715E-01
RMM:   4    -0.233494942067E+04   -0.44303E-02   -0.11005E-03 13720   0.701E-02    0.119E+00
RMM:   5    -0.233494217313E+04    0.72475E-02   -0.68347E-04 13942   0.504E-02    0.400E-01
RMM:   6    -0.233494281898E+04   -0.64585E-03   -0.12724E-03 14671   0.611E-02    0.530E-01
RMM:   7    -0.233494320055E+04   -0.38158E-03   -0.16461E-03 15952   0.631E-02    0.592E-01
RMM:   8    -0.233494271741E+04    0.48314E-03   -0.78693E-04 14165   0.501E-02    0.516E-01
RMM:   9    -0.233494147895E+04    0.12385E-02   -0.36177E-04 13630   0.444E-02    0.223E-01
RMM:  10    -0.233494124797E+04    0.23098E-03   -0.17470E-04 13708   0.267E-02    0.107E-01
RMM:  11    -0.233494124135E+04    0.66174E-05   -0.21510E-04 15759   0.199E-02    0.983E-02
RMM:  12    -0.233494121743E+04    0.23921E-04   -0.11262E-04 13303   0.167E-02    0.655E-02
RMM:  13    -0.233494120013E+04    0.17302E-04   -0.38439E-05  9223   0.129E-02    0.367E-02
RMM:  14    -0.233494119850E+04    0.16335E-05   -0.22029E-05  8001   0.866E-03
  47 F= -.23349412E+04 E0= -.23322040E+04  d E =-.934902E-04
