<?xml version="1.0" encoding="ISO-8859-1"?>
<modeling>
 <generator>
  <i name="program" type="string">vasp </i>
  <i name="version" type="string">5.4.4.18Apr17-6-g9f103f2a35  </i>
  <i name="subversion" type="string">(build Sep 27 2018 12:46:37) complex + VL-xray_ parallel </i>
  <i name="platform" type="string">LLNL_Quartz_ifc </i>
  <i name="date" type="string">2021 09 26 </i>
  <i name="time" type="string">21:29:17 </i>
 </generator>
 <incar>
  <i type="int" name="ISTART">     2</i>
  <i type="string" name="PREC">accurate</i>
  <i type="string" name="ALGO"> Fast</i>
  <i type="int" name="ICHARG">     2</i>
  <i type="int" name="INIWAV">     1</i>
  <i type="int" name="NELM">   100</i>
  <i type="int" name="NELMIN">     4</i>
  <i type="int" name="IBRION">     2</i>
  <i name="EDIFF">      0.00000100</i>
  <i type="int" name="NSW">     5</i>
  <i type="int" name="ISIF">     2</i>
  <i type="int" name="ISYM">     2</i>
  <i name="ENCUT">    450.00000000</i>
  <i name="POTIM">      0.25000000</i>
  <i type="string" name="LREAL"> Auto</i>
  <i type="int" name="ISMEAR">     0</i>
  <i name="SIGMA">      0.15000000</i>
  <i type="logical" name="LWAVE"> F  </i>
  <i type="logical" name="LCHARG"> F  </i>
  <i type="int" name="ICORELEVEL">     0</i>
  <i type="int" name="CLNT">     1</i>
  <i type="int" name="CLN">     1</i>
  <i type="int" name="INCAR     ">     0</i>
  <i name="CLZ">      0.00000000</i>
  <v type="int" name="KPOINT_BSE">    -1     0     0     0</v>
  <i type="int" name="NELM">   100</i>
 </incar>
 <structure name="primitive_cell" >
  <crystal>
   <varray name="basis" >
    <v>       9.72667804       0.00000000       0.00000000 </v>
    <v>       0.00000000       8.42355028       0.00000000 </v>
    <v>       0.00000000       0.00000000      45.00000000 </v>
   </varray>
   <i name="volume">   3686.99226691 </i>
   <varray name="rec_basis" >
    <v>       0.10281002       0.00000000       0.00000000 </v>
    <v>       0.00000000       0.11871479       0.00000000 </v>
    <v>       0.00000000       0.00000000       0.02222222 </v>
   </varray>
  </crystal>
  <varray name="positions" >
   <v>       0.06136451       0.03483059       0.12454739 </v>
   <v>      -0.05696510       0.11413912       0.16694037 </v>
   <v>       0.19276547       0.11258941       0.16612096 </v>
   <v>       0.18734462       0.27875315       0.12486629 </v>
   <v>       0.06766233      -0.13880294       0.16673596 </v>
   <v>      -0.06516583       0.27946093       0.12464697 </v>
   <v>      -0.18894473       0.03349900       0.12443007 </v>
   <v>       0.31399538       0.03424542       0.12443138 </v>
   <v>      -0.06487405      -0.21965138       0.12460871 </v>
   <v>       0.18792394      -0.21949305       0.12443004 </v>
   <v>       0.06721384       0.36094897       0.16670385 </v>
   <v>      -0.18353869      -0.13811161       0.16699669 </v>
   <v>       0.31776775      -0.14106416       0.16603504 </v>
   <v>      -0.18373377       0.36250741       0.16697810 </v>
   <v>      -0.30738285       0.11235941       0.16727053 </v>
   <v>       0.31636393       0.35999781       0.16645021 </v>
   <v>       0.17970737      -0.04834994       0.21205411 </v>
   <v>       0.05504904       0.20275677       0.21191734 </v>
   <v>      -0.31249061       0.28066109       0.12419249 </v>
   <v>      -0.06931617      -0.04696723       0.21187354 </v>
   <v>      -0.05837086      -0.38663836       0.16699003 </v>
   <v>       0.06284942      -0.46565590       0.12457682 </v>
   <v>       0.44189482       0.11197291       0.16669024 </v>
   <v>      -0.31172587      -0.21874966       0.12446429 </v>
   <v>       0.43880596       0.28046614       0.12440637 </v>
   <v>       0.19286778      -0.38946881       0.16587167 </v>
   <v>       0.43745218      -0.21944868       0.12420442 </v>
   <v>       0.30530697       0.20254381       0.21193205 </v>
   <v>       0.05555652      -0.29736465       0.21196435 </v>
   <v>      -0.43578397       0.03401859       0.12430498 </v>
   <v>      -0.18908277      -0.46570507       0.12448087 </v>
   <v>       0.31254747      -0.46436156       0.12417072 </v>
   <v>      -0.19464624       0.20313842       0.21187749 </v>
   <v>       0.43014110      -0.04730145       0.21182701 </v>
   <v>      -0.43331603      -0.13706029       0.16692879 </v>
   <v>       0.30579306      -0.29757037       0.21196703 </v>
   <v>       0.18096890       0.45195309       0.21165578 </v>
   <v>      -0.30794578      -0.38793496       0.16698919 </v>
   <v>      -0.19414973      -0.29751719       0.21175065 </v>
   <v>      -0.06996889       0.45318405       0.21195369 </v>
   <v>      -0.31976948      -0.04708690       0.21165621 </v>
   <v>       0.44169277      -0.38725562       0.16685230 </v>
   <v>      -0.43268120       0.36242422       0.16691797 </v>
   <v>       0.06512498       0.03539743       0.25604724 </v>
   <v>      -0.44439888       0.20254606       0.21169620 </v>
   <v>       0.43055993       0.45242558       0.21175544 </v>
   <v>      -0.18449074       0.03519405       0.25604137 </v>
   <v>      -0.05990622      -0.21464868       0.25601235 </v>
   <v>      -0.05945050       0.28522169       0.25603581 </v>
   <v>       0.19024923      -0.21415196       0.25590166 </v>
   <v>       0.19002129       0.28569168       0.25600881 </v>
   <v>      -0.43599719      -0.46650184       0.12451185 </v>
   <v>       0.31520588       0.03557975       0.25599063 </v>
   <v>      -0.31968104       0.45305578       0.21173613 </v>
   <v>      -0.44501927      -0.29737768       0.21178444 </v>
   <v>      -0.30993308      -0.21460490       0.25604355 </v>
   <v>      -0.31002736       0.28536024       0.25605562 </v>
   <v>       0.06561362      -0.46456655       0.25594800 </v>
   <v>       0.44006042      -0.21410755       0.25592861 </v>
   <v>       0.44063393       0.28533879       0.25603378 </v>
   <v>      -0.43496393       0.03544920       0.25603690 </v>
   <v>      -0.18442450      -0.46475086       0.25602158 </v>
   <v>       0.31536326      -0.46432050       0.25602533 </v>
   <v>       0.05422259      -0.12744042       0.30014672 </v>
   <v>       0.17917111       0.12304177       0.30028693 </v>
   <v>      -0.07135992       0.12233558       0.30026794 </v>
   <v>       0.30383345      -0.12791637       0.30033947 </v>
   <v>       0.05373079       0.37214097       0.30031911 </v>
   <v>      -0.19610763      -0.12780893       0.30025476 </v>
   <v>       0.42863219       0.12207134       0.30031273 </v>
   <v>       0.17891046      -0.37778957       0.30035089 </v>
   <v>      -0.43491058      -0.46465505       0.25598466 </v>
   <v>       0.30387534       0.37224310       0.30026605 </v>
   <v>      -0.07128826      -0.37778625       0.30028139 </v>
   <v>      -0.19650026       0.37204045       0.30032185 </v>
   <v>      -0.32122548       0.12206573       0.30030041 </v>
   <v>       0.42869795      -0.37773723       0.30028290 </v>
   <v>      -0.44627668      -0.12801280       0.30032820 </v>
   <v>      -0.32119712      -0.37788417       0.30027447 </v>
   <v>      -0.44622365       0.37206254       0.30026792 </v>
   <v>      -0.05864162      -0.04787074       0.34490666 </v>
   <v>       0.06618605       0.20233744       0.34506067 </v>
   <v>       0.19139441      -0.04797573       0.34499427 </v>
   <v>      -0.18378288       0.20179796       0.34494550 </v>
   <v>       0.06628925      -0.29826028       0.34496587 </v>
   <v>       0.31636995       0.20169152       0.34492488 </v>
   <v>      -0.30868218      -0.04823776       0.34493149 </v>
   <v>      -0.18363237      -0.29786354       0.34493269 </v>
   <v>      -0.05859885       0.45194916       0.34493040 </v>
   <v>       0.19134814       0.45179870       0.34493664 </v>
   <v>       0.31617440      -0.29822208       0.34494804 </v>
   <v>       0.44142954      -0.04809598       0.34497278 </v>
   <v>      -0.43375342       0.20197929       0.34494387 </v>
   <v>      -0.30889567       0.45218960       0.34499196 </v>
   <v>       0.44154831       0.45193720       0.34501607 </v>
   <v>       0.06420867       0.04277807      -0.12441605 </v>
   <v>      -0.43368698      -0.29811337       0.34491421 </v>
   <v>      -0.05909834      -0.20415015      -0.12432457 </v>
   <v>       0.19364098      -0.20309644      -0.12413519 </v>
   <v>      -0.18563193       0.04271076      -0.12433472 </v>
   <v>      -0.05895528       0.29681198      -0.12415755 </v>
   <v>       0.31485118       0.04177880      -0.12433759 </v>
   <v>       0.19087187       0.29587994      -0.12420055 </v>
   <v>       0.05870333       0.03742148       0.38902883 </v>
   <v>      -0.30711279      -0.20383098      -0.12436261 </v>
   <v>       0.06433898      -0.45754199      -0.12434274 </v>
   <v>      -0.30614837       0.29710917      -0.12416865 </v>
   <v>       0.44131185      -0.20303966      -0.12430104 </v>
   <v>       0.44301471       0.29640399      -0.12429757 </v>
   <v>       0.30875943       0.03745382       0.38903952 </v>
   <v>       0.18354582      -0.21267003       0.38907487 </v>
   <v>      -0.06630581      -0.21291044       0.38905647 </v>
   <v>       0.18340230       0.28767744       0.38908070 </v>
   <v>      -0.19141547       0.03762425       0.38905623 </v>
   <v>      -0.06617536       0.28739935       0.38903992 </v>
   <v>      -0.18539361      -0.45761118      -0.12436366 </v>
   <v>       0.31424045      -0.45751214      -0.12445517 </v>
   <v>      -0.43480295       0.04294449      -0.12443396 </v>
   <v>       0.05825220      -0.46218233       0.38893254 </v>
   <v>       0.43357938      -0.21240094       0.38909057 </v>
   <v>       0.43366543       0.28746547       0.38903614 </v>
   <v>      -0.31631922      -0.21240302       0.38907629 </v>
   <v>      -0.31631976       0.28747382       0.38903403 </v>
   <v>       0.30859473      -0.46243089       0.38906877 </v>
   <v>      -0.44131368       0.03767249       0.38905881 </v>
   <v>      -0.19129549      -0.46231668       0.38904682 </v>
   <v>      -0.43463671      -0.45824281      -0.12441480 </v>
   <v>       0.18392348      -0.03652128      -0.16677889 </v>
   <v>      -0.06659305      -0.03681686      -0.16682871 </v>
   <v>       0.05859119       0.21351199      -0.16669919 </v>
   <v>       0.05893008      -0.28687396      -0.16672542 </v>
   <v>       0.30888541       0.21387039      -0.16671215 </v>
   <v>      -0.19121997       0.21305558      -0.16685039 </v>
   <v>      -0.44144486      -0.46262890       0.38905956 </v>
   <v>       0.30798507      -0.28517355      -0.16608081 </v>
   <v>       0.43286867      -0.03695921      -0.16681716 </v>
   <v>      -0.19166262      -0.28632313      -0.16690911 </v>
   <v>      -0.31613626      -0.03645639      -0.16692141 </v>
   <v>       0.18385931       0.46446695      -0.16672432 </v>
   <v>      -0.06640954       0.46326577      -0.16698835 </v>
   <v>       0.06310216      -0.12941745       0.43439659 </v>
   <v>      -0.06191913       0.12033201       0.43442694 </v>
   <v>       0.18795073       0.12059723       0.43438129 </v>
   <v>      -0.44093704       0.21343923      -0.16674426 </v>
   <v>       0.43356884       0.46411889      -0.16682296 </v>
   <v>      -0.31656876       0.46302137      -0.16691280 </v>
   <v>      -0.18697234      -0.12944027       0.43442382 </v>
   <v>       0.31313999      -0.12932766       0.43436385 </v>
   <v>       0.06301382       0.37051880       0.43442467 </v>
   <v>      -0.44110191      -0.28674685      -0.16677164 </v>
   <v>      -0.31183924       0.12030965       0.43438490 </v>
   <v>      -0.06192267      -0.37966903       0.43446589 </v>
   <v>       0.18809615      -0.37966723       0.43442505 </v>
   <v>      -0.18708630       0.37049045       0.43443514 </v>
   <v>       0.43811514       0.12034459       0.43441326 </v>
   <v>       0.31303134       0.37045273       0.43443219 </v>
   <v>      -0.31224613      -0.37958201       0.43439247 </v>
   <v>      -0.43699547      -0.12954089       0.43442540 </v>
   <v>       0.43826678      -0.37949045       0.43430607 </v>
   <v>      -0.43698299       0.37045072       0.43443873 </v>
   <v>      -0.05436781       0.12507519      -0.21154156 </v>
   <v>       0.07087349      -0.12556280      -0.21161728 </v>
   <v>       0.19541127       0.12535283      -0.21149231 </v>
   <v>      -0.17916222      -0.12555407      -0.21161765 </v>
   <v>       0.07093513       0.37441961      -0.21158331 </v>
   <v>       0.32071616      -0.12542803      -0.21161865 </v>
   <v>      -0.05470905      -0.37505089      -0.21144338 </v>
   <v>      -0.30431369       0.12487479      -0.21155601 </v>
   <v>       0.19520558      -0.37516067      -0.21158125 </v>
   <v>      -0.17935572       0.37438127      -0.21162205 </v>
   <v>       0.44537656       0.12507912      -0.21142470 </v>
   <v>       0.32082886       0.37454476      -0.21161963 </v>
   <v>      -0.30479065      -0.37530068      -0.21146007 </v>
   <v>      -0.42954134      -0.12575947      -0.21164617 </v>
   <v>       0.44591582      -0.37523040      -0.21161511 </v>
   <v>      -0.06212058      -0.04414461       0.47863802 </v>
   <v>       0.18781205      -0.04418954       0.47862170 </v>
   <v>       0.06280286       0.20572146       0.47864744 </v>
   <v>      -0.42925605       0.37436629      -0.21163077 </v>
   <v>       0.06281057      -0.29410369       0.47862109 </v>
   <v>      -0.18720025       0.20575601       0.47863302 </v>
   <v>       0.31278139       0.20579124       0.47861929 </v>
   <v>      -0.18721725      -0.29429142       0.47862936 </v>
   <v>      -0.31216217      -0.04407082       0.47861495 </v>
   <v>       0.31288174      -0.29419255       0.47862588 </v>
   <v>       0.43787270      -0.04408084       0.47861366 </v>
   <v>      -0.06219632       0.45574915       0.47861592 </v>
   <v>       0.18781240       0.45580020       0.47862115 </v>
   <v>      -0.43716683       0.20580138       0.47860495 </v>
   <v>      -0.31217717       0.45592232       0.47861432 </v>
   <v>       0.43785685       0.45590742       0.47861204 </v>
   <v>      -0.43717991      -0.29422178       0.47863222 </v>
   <v>       0.06037859       0.04221219      -0.25583171 </v>
   <v>       0.18609277      -0.20836008      -0.25582178 </v>
   <v>      -0.06406797      -0.20819772      -0.25583974 </v>
   <v>       0.31068701       0.04199048      -0.25595804 </v>
   <v>      -0.18917174       0.04232520      -0.25593512 </v>
   <v>       0.18567940       0.29189815      -0.25587970 </v>
   <v>      -0.06389961       0.29199698      -0.25590251 </v>
   <v>       0.06041959      -0.45799838      -0.25581458 </v>
   <v>       0.43585206      -0.20830278      -0.25584931 </v>
   <v>      -0.31424381      -0.20803545      -0.25583715 </v>
   <v>       0.43573146       0.29193316      -0.25589320 </v>
   <v>      -0.31431205       0.29185417      -0.25595324 </v>
   <v>       0.31082306      -0.45742044      -0.25574941 </v>
   <v>      -0.18924222      -0.45777470      -0.25592503 </v>
   <v>      -0.43939871       0.04212963      -0.25584442 </v>
   <v>       0.06351205      -0.12802757      -0.47868990 </v>
   <v>      -0.06149052       0.12197566      -0.47868156 </v>
   <v>       0.18846777       0.12194392      -0.47868078 </v>
   <v>      -0.18648653      -0.12801837      -0.47869977 </v>
   <v>       0.31352969      -0.12799545      -0.47870979 </v>
   <v>       0.06347448       0.37203636      -0.47867836 </v>
   <v>      -0.06148660      -0.37800245      -0.47869391 </v>
   <v>       0.18847524      -0.37803575      -0.47868404 </v>
   <v>      -0.31149963       0.12199985      -0.47869607 </v>
   <v>      -0.18648106       0.37196176      -0.47869331 </v>
   <v>       0.43849448       0.12197663      -0.47868837 </v>
   <v>       0.31349497       0.37206369      -0.47869577 </v>
   <v>      -0.43924889      -0.45749589      -0.25593621 </v>
   <v>      -0.31153260      -0.37794440      -0.47869514 </v>
   <v>      -0.43652928      -0.12798507      -0.47868229 </v>
   <v>       0.43850383      -0.37798964      -0.47867630 </v>
   <v>      -0.43650197       0.37200960      -0.47869188 </v>
   <v>      -0.05966306      -0.04146106      -0.30026098 </v>
   <v>       0.19070466      -0.04153107      -0.30032226 </v>
   <v>       0.06542326       0.20846889      -0.30031524 </v>
   <v>       0.06530386      -0.29148285      -0.30032005 </v>
   <v>      -0.18471167       0.20835612      -0.30035143 </v>
   <v>       0.31541710       0.20840453      -0.30027544 </v>
   <v>      -0.18457420      -0.29150028      -0.30032841 </v>
   <v>      -0.30926038      -0.04167526      -0.30026174 </v>
   <v>       0.31535956      -0.29155806      -0.30034152 </v>
   <v>       0.44024973      -0.04172529      -0.30031957 </v>
   <v>      -0.05967508       0.45841884      -0.30030215 </v>
   <v>       0.19020149       0.45814345      -0.30034242 </v>
   <v>      -0.43458380       0.20839220      -0.30027683 </v>
   <v>      -0.30924869       0.45840017      -0.30028423 </v>
   <v>       0.44033480       0.45829207      -0.30033723 </v>
   <v>      -0.06116484      -0.04226227      -0.43457094 </v>
   <v>       0.18880082      -0.04234235      -0.43455516 </v>
   <v>       0.06385905       0.20775439      -0.43457463 </v>
   <v>      -0.43459414      -0.29151514      -0.30033815 </v>
   <v>       0.06375963      -0.29223332      -0.43455572 </v>
   <v>      -0.18624523       0.20779796      -0.43456077 </v>
   <v>       0.31378772       0.20769545      -0.43456431 </v>
   <v>      -0.18619164      -0.29231678      -0.43457293 </v>
   <v>      -0.31120688      -0.04229813      -0.43456783 </v>
   <v>       0.31381135      -0.29228388      -0.43455628 </v>
   <v>       0.43881622      -0.04228317      -0.43457934 </v>
   <v>      -0.06125353       0.45772495      -0.43457645 </v>
   <v>       0.18889164       0.45768843      -0.43456581 </v>
   <v>      -0.43622011       0.20767700      -0.43457102 </v>
   <v>      -0.31123878       0.45774594      -0.43456184 </v>
   <v>       0.43879372       0.45769643      -0.43455911 </v>
   <v>      -0.43623655      -0.29226016      -0.43456532 </v>
   <v>       0.05885875      -0.12431317      -0.34509672 </v>
   <v>       0.18384500       0.12573343      -0.34510087 </v>
   <v>      -0.06608646       0.12585760      -0.34507997 </v>
   <v>       0.30880553      -0.12435829      -0.34507227 </v>
   <v>      -0.19117283      -0.12439466      -0.34510745 </v>
   <v>       0.05884743       0.37562002      -0.34507735 </v>
   <v>       0.18381116      -0.37422355      -0.34508491 </v>
   <v>      -0.06603785      -0.37409936      -0.34511795 </v>
   <v>       0.43381645       0.12585878      -0.34506270 </v>
   <v>       0.30878059       0.37572577      -0.34508342 </v>
   <v>      -0.31626202       0.12572172      -0.34508776 </v>
   <v>      -0.19111059       0.37565698      -0.34508172 </v>
   <v>       0.43400924      -0.37392837      -0.34503146 </v>
   <v>      -0.44110669      -0.12431496      -0.34508780 </v>
   <v>      -0.31594031      -0.37405020      -0.34504938 </v>
   <v>      -0.44118213       0.37548546      -0.34506697 </v>
   <v>       0.06264383       0.04192373      -0.38914589 </v>
   <v>       0.18772685      -0.20813706      -0.38916454 </v>
   <v>      -0.06229847      -0.20815343      -0.38910911 </v>
   <v>      -0.18720617       0.04178402      -0.38920048 </v>
   <v>       0.31259527       0.04189691      -0.38916989 </v>
   <v>       0.18780956       0.29183980      -0.38920466 </v>
   <v>      -0.06226619       0.29183986      -0.38916644 </v>
   <v>       0.06275875      -0.45817720      -0.38917683 </v>
   <v>      -0.31224728      -0.20816940      -0.38917686 </v>
   <v>       0.43773172      -0.20818784      -0.38916417 </v>
   <v>      -0.31223066       0.29189261      -0.38919165 </v>
   <v>       0.43766168       0.29187529      -0.38914478 </v>
   <v>      -0.18732777      -0.45810874      -0.38916836 </v>
   <v>       0.31274108      -0.45812842      -0.38922097 </v>
   <v>      -0.43729649       0.04188086      -0.38913667 </v>
   <v>      -0.43723585      -0.45821321      -0.38918458 </v>
  </varray>
 </structure>
 <varray name="primitive_index" >
  <v type="int" >        1 </v>
  <v type="int" >       26 </v>
  <v type="int" >      282 </v>
  <v type="int" >      288 </v>
  <v type="int" >       60 </v>
  <v type="int" >      155 </v>
  <v type="int" >      202 </v>
  <v type="int" >      256 </v>
  <v type="int" >      212 </v>
  <v type="int" >       83 </v>
  <v type="int" >       51 </v>
  <v type="int" >      102 </v>
  <v type="int" >      284 </v>
  <v type="int" >      252 </v>
  <v type="int" >      166 </v>
  <v type="int" >        5 </v>
  <v type="int" >      146 </v>
  <v type="int" >       50 </v>
  <v type="int" >      145 </v>
  <v type="int" >      273 </v>
  <v type="int" >      104 </v>
  <v type="int" >      176 </v>
  <v type="int" >      182 </v>
  <v type="int" >      163 </v>
  <v type="int" >      117 </v>
  <v type="int" >      287 </v>
  <v type="int" >       48 </v>
  <v type="int" >      123 </v>
  <v type="int" >      250 </v>
  <v type="int" >      251 </v>
  <v type="int" >      205 </v>
  <v type="int" >       91 </v>
  <v type="int" >      167 </v>
  <v type="int" >      229 </v>
  <v type="int" >      277 </v>
  <v type="int" >      276 </v>
  <v type="int" >      189 </v>
  <v type="int" >       97 </v>
  <v type="int" >      213 </v>
  <v type="int" >      175 </v>
  <v type="int" >       92 </v>
  <v type="int" >      174 </v>
  <v type="int" >       30 </v>
  <v type="int" >      185 </v>
  <v type="int" >      103 </v>
  <v type="int" >      139 </v>
  <v type="int" >       24 </v>
  <v type="int" >       52 </v>
  <v type="int" >      127 </v>
  <v type="int" >      200 </v>
  <v type="int" >       35 </v>
  <v type="int" >      164 </v>
  <v type="int" >      179 </v>
  <v type="int" >      261 </v>
  <v type="int" >      243 </v>
  <v type="int" >      118 </v>
  <v type="int" >       58 </v>
  <v type="int" >      168 </v>
  <v type="int" >      137 </v>
  <v type="int" >      265 </v>
  <v type="int" >      281 </v>
  <v type="int" >       81 </v>
  <v type="int" >      275 </v>
  <v type="int" >      214 </v>
  <v type="int" >      215 </v>
  <v type="int" >      135 </v>
  <v type="int" >       98 </v>
  <v type="int" >      226 </v>
  <v type="int" >       72 </v>
  <v type="int" >      159 </v>
  <v type="int" >      187 </v>
  <v type="int" >       28 </v>
  <v type="int" >      242 </v>
  <v type="int" >      178 </v>
  <v type="int" >      220 </v>
  <v type="int" >      109 </v>
  <v type="int" >      101 </v>
  <v type="int" >      210 </v>
  <v type="int" >      130 </v>
  <v type="int" >      171 </v>
  <v type="int" >       20 </v>
  <v type="int" >       47 </v>
  <v type="int" >      258 </v>
  <v type="int" >      207 </v>
  <v type="int" >      216 </v>
  <v type="int" >       86 </v>
  <v type="int" >       25 </v>
  <v type="int" >       73 </v>
  <v type="int" >       12 </v>
  <v type="int" >      116 </v>
  <v type="int" >      208 </v>
  <v type="int" >      172 </v>
  <v type="int" >      219 </v>
  <v type="int" >      279 </v>
  <v type="int" >      206 </v>
  <v type="int" >       84 </v>
  <v type="int" >       62 </v>
  <v type="int" >      105 </v>
  <v type="int" >      268 </v>
  <v type="int" >        2 </v>
  <v type="int" >      280 </v>
  <v type="int" >      245 </v>
  <v type="int" >      120 </v>
  <v type="int" >      124 </v>
  <v type="int" >       29 </v>
  <v type="int" >      266 </v>
  <v type="int" >      191 </v>
  <v type="int" >      150 </v>
  <v type="int" >      255 </v>
  <v type="int" >      165 </v>
  <v type="int" >        7 </v>
  <v type="int" >      190 </v>
  <v type="int" >      248 </v>
  <v type="int" >       38 </v>
  <v type="int" >       13 </v>
  <v type="int" >      247 </v>
  <v type="int" >       18 </v>
  <v type="int" >      161 </v>
  <v type="int" >      286 </v>
  <v type="int" >      264 </v>
  <v type="int" >        4 </v>
  <v type="int" >       45 </v>
  <v type="int" >       55 </v>
  <v type="int" >       67 </v>
  <v type="int" >       16 </v>
  <v type="int" >      270 </v>
  <v type="int" >       64 </v>
  <v type="int" >      173 </v>
  <v type="int" >       17 </v>
  <v type="int" >      259 </v>
  <v type="int" >      134 </v>
  <v type="int" >       39 </v>
  <v type="int" >        6 </v>
  <v type="int" >      222 </v>
  <v type="int" >      283 </v>
  <v type="int" >      110 </v>
  <v type="int" >      253 </v>
  <v type="int" >       88 </v>
  <v type="int" >      181 </v>
  <v type="int" >       36 </v>
  <v type="int" >      204 </v>
  <v type="int" >      158 </v>
  <v type="int" >      160 </v>
  <v type="int" >      143 </v>
  <v type="int" >       74 </v>
  <v type="int" >       82 </v>
  <v type="int" >      263 </v>
  <v type="int" >       23 </v>
  <v type="int" >      218 </v>
  <v type="int" >      241 </v>
  <v type="int" >      257 </v>
  <v type="int" >      131 </v>
  <v type="int" >      238 </v>
  <v type="int" >       80 </v>
  <v type="int" >      201 </v>
  <v type="int" >      113 </v>
  <v type="int" >      232 </v>
  <v type="int" >       69 </v>
  <v type="int" >      249 </v>
  <v type="int" >      235 </v>
  <v type="int" >      149 </v>
  <v type="int" >      197 </v>
  <v type="int" >        3 </v>
  <v type="int" >      112 </v>
  <v type="int" >      254 </v>
  <v type="int" >      224 </v>
  <v type="int" >      132 </v>
  <v type="int" >      188 </v>
  <v type="int" >      272 </v>
  <v type="int" >       57 </v>
  <v type="int" >       49 </v>
  <v type="int" >      138 </v>
  <v type="int" >       66 </v>
  <v type="int" >       33 </v>
  <v type="int" >      184 </v>
  <v type="int" >      236 </v>
  <v type="int" >      111 </v>
  <v type="int" >      223 </v>
  <v type="int" >      106 </v>
  <v type="int" >      157 </v>
  <v type="int" >       21 </v>
  <v type="int" >      230 </v>
  <v type="int" >      234 </v>
  <v type="int" >       75 </v>
  <v type="int" >       99 </v>
  <v type="int" >      221 </v>
  <v type="int" >      269 </v>
  <v type="int" >      244 </v>
  <v type="int" >      237 </v>
  <v type="int" >      199 </v>
  <v type="int" >      156 </v>
  <v type="int" >      169 </v>
  <v type="int" >        9 </v>
  <v type="int" >      262 </v>
  <v type="int" >       46 </v>
  <v type="int" >      239 </v>
  <v type="int" >      151 </v>
  <v type="int" >       11 </v>
  <v type="int" >      285 </v>
  <v type="int" >      211 </v>
  <v type="int" >       31 </v>
  <v type="int" >       43 </v>
  <v type="int" >       71 </v>
  <v type="int" >       19 </v>
  <v type="int" >       94 </v>
  <v type="int" >       87 </v>
  <v type="int" >      267 </v>
  <v type="int" >      180 </v>
  <v type="int" >       27 </v>
  <v type="int" >      140 </v>
  <v type="int" >       10 </v>
  <v type="int" >      144 </v>
  <v type="int" >      107 </v>
  <v type="int" >      203 </v>
  <v type="int" >       68 </v>
  <v type="int" >       34 </v>
  <v type="int" >      177 </v>
  <v type="int" >      152 </v>
  <v type="int" >      183 </v>
  <v type="int" >      278 </v>
  <v type="int" >      195 </v>
  <v type="int" >       77 </v>
  <v type="int" >       14 </v>
  <v type="int" >      108 </v>
  <v type="int" >      225 </v>
  <v type="int" >      119 </v>
  <v type="int" >       37 </v>
  <v type="int" >      274 </v>
  <v type="int" >      233 </v>
  <v type="int" >       63 </v>
  <v type="int" >      141 </v>
  <v type="int" >       54 </v>
  <v type="int" >      154 </v>
  <v type="int" >      125 </v>
  <v type="int" >      136 </v>
  <v type="int" >      246 </v>
  <v type="int" >       53 </v>
  <v type="int" >       76 </v>
  <v type="int" >      193 </v>
  <v type="int" >      129 </v>
  <v type="int" >      162 </v>
  <v type="int" >      170 </v>
  <v type="int" >      133 </v>
  <v type="int" >       65 </v>
  <v type="int" >      271 </v>
  <v type="int" >       93 </v>
  <v type="int" >       32 </v>
  <v type="int" >       95 </v>
  <v type="int" >       90 </v>
  <v type="int" >       56 </v>
  <v type="int" >       42 </v>
  <v type="int" >       59 </v>
  <v type="int" >        8 </v>
  <v type="int" >      228 </v>
  <v type="int" >       70 </v>
  <v type="int" >      186 </v>
  <v type="int" >      196 </v>
  <v type="int" >      121 </v>
  <v type="int" >      122 </v>
  <v type="int" >       44 </v>
  <v type="int" >       79 </v>
  <v type="int" >      198 </v>
  <v type="int" >      153 </v>
  <v type="int" >      240 </v>
  <v type="int" >      231 </v>
  <v type="int" >       85 </v>
  <v type="int" >      209 </v>
  <v type="int" >      194 </v>
  <v type="int" >       40 </v>
  <v type="int" >       89 </v>
  <v type="int" >      227 </v>
  <v type="int" >       78 </v>
  <v type="int" >      142 </v>
  <v type="int" >       15 </v>
  <v type="int" >      114 </v>
  <v type="int" >      217 </v>
  <v type="int" >      148 </v>
  <v type="int" >       61 </v>
  <v type="int" >      100 </v>
  <v type="int" >      126 </v>
  <v type="int" >      192 </v>
  <v type="int" >       96 </v>
  <v type="int" >      147 </v>
  <v type="int" >      115 </v>
  <v type="int" >       22 </v>
  <v type="int" >       41 </v>
  <v type="int" >      260 </v>
  <v type="int" >      128 </v>
 </varray>
 <kpoints>
  <generation param="Gamma">
   <v type="int" name="divisions">       4        4        1 </v>
   <v name="usershift">      0.00000000       0.00000000       0.00000000 </v>
   <v name="genvec1">      0.25000000       0.00000000       0.00000000 </v>
   <v name="genvec2">      0.00000000       0.25000000       0.00000000 </v>
   <v name="genvec3">      0.00000000       0.00000000       1.00000000 </v>
   <v name="shift">      0.00000000       0.00000000       0.00000000 </v>
  </generation>
  <varray name="kpointlist" >
   <v>       0.00000000       0.00000000       0.00000000 </v>
   <v>       0.25000000       0.00000000       0.00000000 </v>
   <v>       0.50000000       0.00000000       0.00000000 </v>
   <v>       0.00000000       0.25000000       0.00000000 </v>
   <v>       0.25000000       0.25000000       0.00000000 </v>
   <v>       0.50000000       0.25000000       0.00000000 </v>
   <v>      -0.25000000       0.25000000       0.00000000 </v>
   <v>       0.00000000       0.50000000       0.00000000 </v>
   <v>       0.25000000       0.50000000       0.00000000 </v>
   <v>       0.50000000       0.50000000       0.00000000 </v>
  </varray>
  <varray name="weights" >
   <v>       0.06250000 </v>
   <v>       0.12500000 </v>
   <v>       0.06250000 </v>
   <v>       0.12500000 </v>
   <v>       0.12500000 </v>
   <v>       0.12500000 </v>
   <v>       0.12500000 </v>
   <v>       0.06250000 </v>
   <v>       0.12500000 </v>
   <v>       0.06250000 </v>
  </varray>
 </kpoints>
 <parameters>
  <separator name="general" >
   <i type="string" name="SYSTEM">unknown system</i>
   <i type="logical" name="LCOMPAT"> F  </i>
  </separator>
  <separator name="electronic" >
   <i type="string" name="PREC">accura</i>
   <i name="ENMAX">    450.00000000</i>
   <i name="ENAUG">    838.43500000</i>
   <i name="EDIFF">      0.00000100</i>
   <i type="int" name="IALGO">    68</i>
   <i type="int" name="IWAVPR">    11</i>
   <i type="int" name="NBANDS">  1386</i>
   <i name="NELECT">   2297.00000000</i>
   <i type="int" name="TURBO">     0</i>
   <i type="int" name="IRESTART">     0</i>
   <i type="int" name="NREBOOT">     0</i>
   <i type="int" name="NMIN">     0</i>
   <i name="EREF">      0.00000000</i>
   <separator name="electronic smearing" >
    <i type="int" name="ISMEAR">     0</i>
    <i name="SIGMA">      0.15000000</i>
    <i name="KSPACING">      0.50000000</i>
    <i type="logical" name="KGAMMA"> T  </i>
   </separator>
   <separator name="electronic projectors" >
    <i type="logical" name="LREAL"> T  </i>
    <v name="ROPT">     -0.00025000     -0.00025000</v>
    <i type="int" name="LMAXPAW">  -100</i>
    <i type="int" name="LMAXMIX">     2</i>
    <i type="logical" name="NLSPLINE"> F  </i>
   </separator>
   <separator name="electronic startup" >
    <i type="int" name="ISTART">     0</i>
    <i type="int" name="ICHARG">     2</i>
    <i type="int" name="INIWAV">     1</i>
   </separator>
   <separator name="electronic spin" >
    <i type="int" name="ISPIN">     1</i>
    <i type="logical" name="LNONCOLLINEAR"> F  </i>
    <v name="MAGMOM">      1.00000000      1.00000000      1.00000000      1.00000000      1.00000000      1.00000000      1.00000000      1.00000000      1.00000000      1.00000000      1.00000000      1.00000000      1.00000000      1.00000000      1.00000000      1.00000000      1.00000000      1.00000000      1.00000000      1.00000000
      1.00000000      1.00000000      1.00000000      1.00000000      1.00000000      1.00000000      1.00000000      1.00000000      1.00000000      1.00000000      1.00000000      1.00000000      1.00000000      1.00000000      1.00000000      1.00000000      1.00000000      1.00000000      1.00000000      1.00000000
      1.00000000      1.00000000      1.00000000      1.00000000      1.00000000      1.00000000      1.00000000      1.00000000      1.00000000      1.00000000      1.00000000      1.00000000      1.00000000      1.00000000      1.00000000      1.00000000      1.00000000      1.00000000      1.00000000      1.00000000
      1.00000000      1.00000000      1.00000000      1.00000000      1.00000000      1.00000000      1.00000000      1.00000000      1.00000000      1.00000000      1.00000000      1.00000000      1.00000000      1.00000000      1.00000000      1.00000000      1.00000000      1.00000000      1.00000000      1.00000000
      1.00000000      1.00000000      1.00000000      1.00000000      1.00000000      1.00000000      1.00000000      1.00000000      1.00000000      1.00000000      1.00000000      1.00000000      1.00000000      1.00000000      1.00000000      1.00000000      1.00000000      1.00000000      1.00000000      1.00000000
      1.00000000      1.00000000      1.00000000      1.00000000      1.00000000      1.00000000      1.00000000      1.00000000      1.00000000      1.00000000      1.00000000      1.00000000      1.00000000      1.00000000      1.00000000      1.00000000      1.00000000      1.00000000      1.00000000      1.00000000
      1.00000000      1.00000000      1.00000000      1.00000000      1.00000000      1.00000000      1.00000000      1.00000000      1.00000000      1.00000000      1.00000000      1.00000000      1.00000000      1.00000000      1.00000000      1.00000000      1.00000000      1.00000000      1.00000000      1.00000000
      1.00000000      1.00000000      1.00000000      1.00000000      1.00000000      1.00000000      1.00000000      1.00000000      1.00000000      1.00000000      1.00000000      1.00000000      1.00000000      1.00000000      1.00000000      1.00000000      1.00000000      1.00000000      1.00000000      1.00000000
      1.00000000      1.00000000      1.00000000      1.00000000      1.00000000      1.00000000      1.00000000      1.00000000      1.00000000      1.00000000      1.00000000      1.00000000      1.00000000      1.00000000      1.00000000      1.00000000      1.00000000      1.00000000      1.00000000      1.00000000
      1.00000000      1.00000000      1.00000000      1.00000000      1.00000000      1.00000000      1.00000000      1.00000000      1.00000000      1.00000000      1.00000000      1.00000000      1.00000000      1.00000000      1.00000000      1.00000000      1.00000000      1.00000000      1.00000000      1.00000000
      1.00000000      1.00000000      1.00000000      1.00000000      1.00000000      1.00000000      1.00000000      1.00000000      1.00000000      1.00000000      1.00000000      1.00000000      1.00000000      1.00000000      1.00000000      1.00000000      1.00000000      1.00000000      1.00000000      1.00000000
      1.00000000      1.00000000      1.00000000      1.00000000      1.00000000      1.00000000      1.00000000      1.00000000      1.00000000      1.00000000      1.00000000      1.00000000      1.00000000      1.00000000      1.00000000      1.00000000      1.00000000      1.00000000      1.00000000      1.00000000
      1.00000000      1.00000000      1.00000000      1.00000000      1.00000000      1.00000000      1.00000000      1.00000000      1.00000000      1.00000000      1.00000000      1.00000000      1.00000000      1.00000000      1.00000000      1.00000000      1.00000000      1.00000000      1.00000000      1.00000000
      1.00000000      1.00000000      1.00000000      1.00000000      1.00000000      1.00000000      1.00000000      1.00000000      1.00000000      1.00000000      1.00000000      1.00000000      1.00000000      1.00000000      1.00000000      1.00000000      1.00000000      1.00000000      1.00000000      1.00000000
      1.00000000      1.00000000      1.00000000      1.00000000      1.00000000      1.00000000      1.00000000      1.00000000</v>
    <i name="NUPDOWN">     -1.00000000</i>
    <i type="logical" name="LSORBIT"> F  </i>
    <v name="SAXIS">      0.00000000      0.00000000      1.00000000</v>
    <i type="logical" name="LSPIRAL"> F  </i>
    <v name="QSPIRAL">      0.00000000      0.00000000      0.00000000</v>
    <i type="logical" name="LZEROZ"> F  </i>
   </separator>
   <separator name="electronic exchange-correlation" >
    <i type="logical" name="LASPH"> F  </i>
    <i type="logical" name="LMETAGGA"> F  </i>
   </separator>
   <separator name="electronic convergence" >
    <i type="int" name="NELM">   100</i>
    <i type="int" name="NELMDL">     0</i>
    <i type="int" name="NELMIN">     4</i>
    <i name="ENINI">    450.00000000</i>
    <separator name="electronic convergence detail" >
     <i type="logical" name="LDIAG"> T  </i>
     <i type="logical" name="LSUBROT"> F  </i>
     <i name="WEIMIN">      0.00100000</i>
     <i name="EBREAK">      0.00000000</i>
     <i name="DEPER">      0.30000000</i>
     <i type="int" name="NRMM">     4</i>
     <i name="TIME">      0.40000000</i>
    </separator>
   </separator>
   <separator name="electronic mixer" >
    <i name="AMIX">      0.40000000</i>
    <i name="BMIX">      1.00000000</i>
    <i name="AMIN">      0.10000000</i>
    <i name="AMIX_MAG">      1.60000000</i>
    <i name="BMIX_MAG">      1.00000000</i>
    <separator name="electronic mixer details" >
     <i type="int" name="IMIX">     4</i>
     <i type="logical" name="MIXFIRST"> F  </i>
     <i type="int" name="MAXMIX">   -45</i>
     <i name="WC">    100.00000000</i>
     <i type="int" name="INIMIX">     1</i>
     <i type="int" name="MIXPRE">     1</i>
     <i type="int" name="MREMOVE">     5</i>
    </separator>
   </separator>
   <separator name="electronic dipolcorrection" >
    <i type="logical" name="LDIPOL"> F  </i>
    <i type="logical" name="LMONO"> F  </i>
    <i type="int" name="IDIPOL">     0</i>
    <i name="EPSILON">      1.00000000</i>
    <v name="DIPOL">   -100.00000000   -100.00000000   -100.00000000</v>
    <i name="EFIELD">      0.00000000</i>
   </separator>
  </separator>
  <separator name="grids" >
   <i type="int" name="NGX">    70</i>
   <i type="int" name="NGY">    60</i>
   <i type="int" name="NGZ">   320</i>
   <i type="int" name="NGXF">   140</i>
   <i type="int" name="NGYF">   120</i>
   <i type="int" name="NGZF">   640</i>
   <i type="logical" name="ADDGRID"> F  </i>
  </separator>
  <separator name="ionic" >
   <i type="int" name="NSW">     5</i>
   <i type="int" name="IBRION">     2</i>
   <i type="int" name="MDALGO">     0</i>
   <i type="int" name="ISIF">     2</i>
   <i name="PSTRESS">      0.00000000</i>
   <i name="EDIFFG">      0.00001000</i>
   <i type="int" name="NFREE">     1</i>
   <i name="POTIM">      0.25000000</i>
   <i name="SMASS">     -3.00000000</i>
   <i name="SCALEE">      1.00000000</i>
  </separator>
  <separator name="ionic md" >
   <i name="TEBEG">      0.00010000</i>
   <i name="TEEND">      0.00010000</i>
   <i type="int" name="NBLOCK">     1</i>
   <i type="int" name="KBLOCK">     5</i>
   <i type="int" name="NPACO">   256</i>
   <i name="APACO">     16.00000000</i>
  </separator>
  <separator name="symmetry" >
   <i type="int" name="ISYM">     2</i>
   <i name="SYMPREC">      0.00001000</i>
  </separator>
  <separator name="dos" >
   <i type="int" name="LORBIT">     0</i>
   <v name="RWIGS">     -1.00000000     -1.00000000</v>
   <i type="int" name="NEDOS">   301</i>
   <i name="EMIN">     10.00000000</i>
   <i name="EMAX">    -10.00000000</i>
   <i name="EFERMI">      0.00000000</i>
  </separator>
  <separator name="writing" >
   <i type="int" name="NWRITE">     2</i>
   <i type="logical" name="LWAVE"> F  </i>
   <i type="logical" name="LDOWNSAMPLE"> F  </i>
   <i type="logical" name="LCHARG"> F  </i>
   <i type="logical" name="LPARD"> F  </i>
   <i type="logical" name="LVTOT"> F  </i>
   <i type="logical" name="LVHAR"> F  </i>
   <i type="logical" name="LELF"> F  </i>
   <i type="logical" name="LOPTICS"> F  </i>
   <v name="STM">      0.00000000      0.00000000      0.00000000      0.00000000      0.00000000      0.00000000      0.00000000</v>
  </separator>
  <separator name="performance" >
   <i type="int" name="NPAR">    14</i>
   <i type="int" name="NSIM">     4</i>
   <i type="int" name="NBLK">    -1</i>
   <i type="logical" name="LPLANE"> T  </i>
   <i type="logical" name="LSCALAPACK"> T  </i>
   <i type="logical" name="LSCAAWARE"> T  </i>
   <i type="logical" name="LSCALU"> F  </i>
   <i type="logical" name="LASYNC"> F  </i>
   <i type="logical" name="LORBITALREAL"> F  </i>
  </separator>
  <separator name="miscellaneous" >
   <i type="int" name="IDIOT">     3</i>
   <i type="int" name="ISPECIAL">     0</i>
   <i type="logical" name="LMUSIC"> F  </i>
   <v name="POMASS">     55.84700000     54.93800000</v>
   <v name="DARWINR">      0.00000000      0.00000000</v>
   <v name="DARWINV">      1.00000000      1.00000000</v>
   <i type="logical" name="LCORR"> T  </i>
  </separator>
  <i type="logical" name="GGA_COMPAT"> T  </i>
  <i type="logical" name="LBERRY"> F  </i>
  <i type="int" name="ICORELEVEL">     0</i>
  <i type="logical" name="LDAU"> F  </i>
  <i type="int" name="I_CONSTRAINED_M">     0</i>
  <separator name="electronic exchange-correlation" >
   <i type="string" name="GGA">--</i>
   <i type="int" name="VOSKOWN">     0</i>
   <i type="logical" name="LHFCALC"> F  </i>
   <i type="string" name="PRECFOCK"></i>
   <i type="logical" name="LSYMGRAD"> F  </i>
   <i type="logical" name="LHFONE"> F  </i>
   <i type="logical" name="LRHFCALC"> F  </i>
   <i type="logical" name="LTHOMAS"> F  </i>
   <i type="logical" name="LMODELHF"> F  </i>
   <i name="ENCUT4O">     -1.00000000</i>
   <i type="int" name="EXXOEP">     0</i>
   <i type="int" name="FOURORBIT">     0</i>
   <i name="AEXX">      0.00000000</i>
   <i name="HFALPHA">      0.00000000</i>
   <i name="MCALPHA">      0.00000000</i>
   <i name="ALDAX">      1.00000000</i>
   <i name="AGGAX">      1.00000000</i>
   <i name="ALDAC">      1.00000000</i>
   <i name="AGGAC">      1.00000000</i>
   <i type="int" name="NKREDX">     1</i>
   <i type="int" name="NKREDY">     1</i>
   <i type="int" name="NKREDZ">     1</i>
   <i type="logical" name="SHIFTRED"> F  </i>
   <i type="logical" name="ODDONLY"> F  </i>
   <i type="logical" name="EVENONLY"> F  </i>
   <i type="int" name="LMAXFOCK">     0</i>
   <i type="int" name="NMAXFOCKAE">     0</i>
   <i type="logical" name="LFOCKAEDFT"> F  </i>
   <i name="HFSCREEN">      0.00000000</i>
   <i name="HFSCREENC">      0.00000000</i>
   <i type="int" name="NBANDSGWLOW">     0</i>
  </separator>
  <separator name="vdW DFT" >
   <i type="logical" name="LUSE_VDW"> F  </i>
   <i name="Zab_VDW">     -0.84910000</i>
   <i name="PARAM1">      0.12340000</i>
   <i name="PARAM2">      1.00000000</i>
   <i name="PARAM3">      0.00000000</i>
  </separator>
  <separator name="model GW" >
   <i type="int" name="MODEL_GW">     0</i>
   <i name="MODEL_EPS0">      7.68123389</i>
   <i name="MODEL_ALPHA">      1.00000000</i>
  </separator>
  <separator name="linear response parameters" >
   <i type="logical" name="LEPSILON"> F  </i>
   <i type="logical" name="LRPA"> F  </i>
   <i type="logical" name="LNABLA"> F  </i>
   <i type="logical" name="LVEL"> F  </i>
   <i type="int" name="KINTER">     0</i>
   <i name="CSHIFT">      0.10000000</i>
   <i name="OMEGAMAX">     -1.00000000</i>
   <i name="DEG_THRESHOLD">      0.00200000</i>
   <i name="RTIME">     -0.10000000</i>
   <i name="WPLASMAI">      0.00000000</i>
   <v name="DFIELD">      0.00000000      0.00000000      0.00000000</v>
   <v name="WPLASMA">      0.00000000      0.00000000      0.00000000      0.00000000      0.00000000      0.00000000      0.00000000      0.00000000      0.00000000</v>
  </separator>
  <separator name="orbital magnetization" >
   <i type="logical" name="NUCIND"> F  </i>
   <v name="MAGPOS">      0.00000000      0.00000000      0.00000000</v>
   <i type="logical" name="LNICSALL"> T  </i>
   <i type="logical" name="ORBITALMAG"> F  </i>
   <i type="logical" name="LMAGBLOCH"> F  </i>
   <i type="logical" name="LCHIMAG"> F  </i>
   <i type="logical" name="LGAUGE"> T  </i>
   <i type="int" name="MAGATOM">     0</i>
   <v name="MAGDIPOL">      0.00000000      0.00000000      0.00000000</v>
   <v name="AVECCONST">      0.00000000      0.00000000      0.00000000</v>
  </separator>
  <separator name="response functions" >
   <i type="logical" name="LADDER"> F  </i>
   <i type="logical" name="LRPAFORCE"> F  </i>
   <i type="logical" name="LFXC"> F  </i>
   <i type="logical" name="LHARTREE"> T  </i>
   <i type="int" name="IBSE">     0</i>
   <v type="int" name="KPOINT">    -1     0     0     0</v>
   <i type="logical" name="LTCTE"> F  </i>
   <i type="logical" name="LTETE"> F  </i>
   <i type="logical" name="LTRIPLET"> F  </i>
   <i type="logical" name="LFXCEPS"> F  </i>
   <i type="logical" name="LFXHEG"> F  </i>
   <i type="int" name="NATURALO">     2</i>
   <i type="logical" name="L2ORDER"> F  </i>
   <i type="logical" name="LMP2LT"> F  </i>
   <i type="logical" name="LUSEW"> F  </i>
   <i name="ENCUTGW">     -2.00000000</i>
   <i name="ENCUTGWSOFT">     -2.00000000</i>
   <i name="ENCUTLF">     -1.00000000</i>
   <i type="int" name="LMAXMP2">    -1</i>
   <i name="SCISSOR">      0.00000000</i>
   <i type="int" name="NOMEGA">     0</i>
   <i type="int" name="NOMEGAR">     0</i>
   <i type="int" name="NBANDSGW">    -1</i>
   <i type="int" name="NBANDSO">    -1</i>
   <i type="int" name="NBANDSV">    -1</i>
   <i type="int" name="NELM">   100</i>
   <i type="int" name="NELMHF">     1</i>
   <i type="int" name="DIM">     3</i>
   <i type="int" name="ANTIRES">     0</i>
   <i name="OMEGAMAX">    -30.00000000</i>
   <i name="OMEGAMIN">    -30.00000000</i>
   <i name="OMEGATL">   -200.00000000</i>
   <i type="int" name="OMEGAGRID">   140</i>
   <i name="CSHIFT">     -0.10000000</i>
   <i type="logical" name="SELFENERGY"> F  </i>
   <i type="logical" name="LSPECTRAL"> F  </i>
   <i type="logical" name="LSPECTRALGW"> F  </i>
   <i type="logical" name="LSINGLES"> F  </i>
   <i type="logical" name="LFERMIGW"> F  </i>
   <i type="logical" name="ODDONLYGW"> F  </i>
   <i type="logical" name="EVENONLYGW"> F  </i>
   <i type="int" name="NKREDLFX">     1</i>
   <i type="int" name="NKREDLFY">     1</i>
   <i type="int" name="NKREDLFZ">     1</i>
   <i type="int" name="MAXMEM">  2800</i>
   <i type="int" name="TELESCOPE">     0</i>
   <i type="int" name="TAUPAR">     1</i>
   <i type="int" name="OMEGAPAR">    -1</i>
   <i name="LAMBDA">      1.00000000</i>
  </separator>
  <separator name="External order field" >
   <i name="OFIELD_KAPPA">      0.00000000</i>
   <v name="OFIELD_K">      0.00000000      0.00000000      0.00000000</v>
   <i name="OFIELD_Q6_NEAR">      0.00000000</i>
   <i name="OFIELD_Q6_FAR">      0.00000000</i>
   <i name="OFIELD_A">      0.00000000</i>
  </separator>
 </parameters>
 <atominfo>
  <atoms>     288 </atoms>
  <types>       2 </types>
  <array name="atoms" >
   <dimension dim="1">ion</dimension>
   <field type="string">element</field>
   <field type="int">atomtype</field>
   <set>
    <rc><c>Fe</c><c>   1</c></rc>
    <rc><c>Fe</c><c>   1</c></rc>
    <rc><c>Fe</c><c>   1</c></rc>
    <rc><c>Fe</c><c>   1</c></rc>
    <rc><c>Fe</c><c>   1</c></rc>
    <rc><c>Fe</c><c>   1</c></rc>
    <rc><c>Fe</c><c>   1</c></rc>
    <rc><c>Fe</c><c>   1</c></rc>
    <rc><c>Fe</c><c>   1</c></rc>
    <rc><c>Fe</c><c>   1</c></rc>
    <rc><c>Fe</c><c>   1</c></rc>
    <rc><c>Fe</c><c>   1</c></rc>
    <rc><c>Fe</c><c>   1</c></rc>
    <rc><c>Fe</c><c>   1</c></rc>
    <rc><c>Fe</c><c>   1</c></rc>
    <rc><c>Fe</c><c>   1</c></rc>
    <rc><c>Fe</c><c>   1</c></rc>
    <rc><c>Fe</c><c>   1</c></rc>
    <rc><c>Fe</c><c>   1</c></rc>
    <rc><c>Fe</c><c>   1</c></rc>
    <rc><c>Fe</c><c>   1</c></rc>
    <rc><c>Fe</c><c>   1</c></rc>
    <rc><c>Fe</c><c>   1</c></rc>
    <rc><c>Fe</c><c>   1</c></rc>
    <rc><c>Fe</c><c>   1</c></rc>
    <rc><c>Fe</c><c>   1</c></rc>
    <rc><c>Fe</c><c>   1</c></rc>
    <rc><c>Fe</c><c>   1</c></rc>
    <rc><c>Fe</c><c>   1</c></rc>
    <rc><c>Fe</c><c>   1</c></rc>
    <rc><c>Fe</c><c>   1</c></rc>
    <rc><c>Fe</c><c>   1</c></rc>
    <rc><c>Fe</c><c>   1</c></rc>
    <rc><c>Fe</c><c>   1</c></rc>
    <rc><c>Fe</c><c>   1</c></rc>
    <rc><c>Fe</c><c>   1</c></rc>
    <rc><c>Fe</c><c>   1</c></rc>
    <rc><c>Fe</c><c>   1</c></rc>
    <rc><c>Fe</c><c>   1</c></rc>
    <rc><c>Fe</c><c>   1</c></rc>
    <rc><c>Fe</c><c>   1</c></rc>
    <rc><c>Fe</c><c>   1</c></rc>
    <rc><c>Fe</c><c>   1</c></rc>
    <rc><c>Fe</c><c>   1</c></rc>
    <rc><c>Fe</c><c>   1</c></rc>
    <rc><c>Fe</c><c>   1</c></rc>
    <rc><c>Fe</c><c>   1</c></rc>
    <rc><c>Fe</c><c>   1</c></rc>
    <rc><c>Fe</c><c>   1</c></rc>
    <rc><c>Fe</c><c>   1</c></rc>
    <rc><c>Fe</c><c>   1</c></rc>
    <rc><c>Fe</c><c>   1</c></rc>
    <rc><c>Fe</c><c>   1</c></rc>
    <rc><c>Fe</c><c>   1</c></rc>
    <rc><c>Fe</c><c>   1</c></rc>
    <rc><c>Fe</c><c>   1</c></rc>
    <rc><c>Fe</c><c>   1</c></rc>
    <rc><c>Fe</c><c>   1</c></rc>
    <rc><c>Fe</c><c>   1</c></rc>
    <rc><c>Fe</c><c>   1</c></rc>
    <rc><c>Fe</c><c>   1</c></rc>
    <rc><c>Fe</c><c>   1</c></rc>
    <rc><c>Fe</c><c>   1</c></rc>
    <rc><c>Fe</c><c>   1</c></rc>
    <rc><c>Fe</c><c>   1</c></rc>
    <rc><c>Fe</c><c>   1</c></rc>
    <rc><c>Fe</c><c>   1</c></rc>
    <rc><c>Fe</c><c>   1</c></rc>
    <rc><c>Fe</c><c>   1</c></rc>
    <rc><c>Fe</c><c>   1</c></rc>
    <rc><c>Fe</c><c>   1</c></rc>
    <rc><c>Fe</c><c>   1</c></rc>
    <rc><c>Fe</c><c>   1</c></rc>
    <rc><c>Fe</c><c>   1</c></rc>
    <rc><c>Fe</c><c>   1</c></rc>
    <rc><c>Fe</c><c>   1</c></rc>
    <rc><c>Fe</c><c>   1</c></rc>
    <rc><c>Fe</c><c>   1</c></rc>
    <rc><c>Fe</c><c>   1</c></rc>
    <rc><c>Fe</c><c>   1</c></rc>
    <rc><c>Fe</c><c>   1</c></rc>
    <rc><c>Fe</c><c>   1</c></rc>
    <rc><c>Fe</c><c>   1</c></rc>
    <rc><c>Fe</c><c>   1</c></rc>
    <rc><c>Fe</c><c>   1</c></rc>
    <rc><c>Fe</c><c>   1</c></rc>
    <rc><c>Fe</c><c>   1</c></rc>
    <rc><c>Fe</c><c>   1</c></rc>
    <rc><c>Fe</c><c>   1</c></rc>
    <rc><c>Fe</c><c>   1</c></rc>
    <rc><c>Fe</c><c>   1</c></rc>
    <rc><c>Fe</c><c>   1</c></rc>
    <rc><c>Fe</c><c>   1</c></rc>
    <rc><c>Fe</c><c>   1</c></rc>
    <rc><c>Fe</c><c>   1</c></rc>
    <rc><c>Fe</c><c>   1</c></rc>
    <rc><c>Fe</c><c>   1</c></rc>
    <rc><c>Fe</c><c>   1</c></rc>
    <rc><c>Fe</c><c>   1</c></rc>
    <rc><c>Fe</c><c>   1</c></rc>
    <rc><c>Fe</c><c>   1</c></rc>
    <rc><c>Fe</c><c>   1</c></rc>
    <rc><c>Fe</c><c>   1</c></rc>
    <rc><c>Fe</c><c>   1</c></rc>
    <rc><c>Fe</c><c>   1</c></rc>
    <rc><c>Fe</c><c>   1</c></rc>
    <rc><c>Fe</c><c>   1</c></rc>
    <rc><c>Fe</c><c>   1</c></rc>
    <rc><c>Fe</c><c>   1</c></rc>
    <rc><c>Fe</c><c>   1</c></rc>
    <rc><c>Fe</c><c>   1</c></rc>
    <rc><c>Fe</c><c>   1</c></rc>
    <rc><c>Fe</c><c>   1</c></rc>
    <rc><c>Fe</c><c>   1</c></rc>
    <rc><c>Fe</c><c>   1</c></rc>
    <rc><c>Fe</c><c>   1</c></rc>
    <rc><c>Fe</c><c>   1</c></rc>
    <rc><c>Fe</c><c>   1</c></rc>
    <rc><c>Fe</c><c>   1</c></rc>
    <rc><c>Fe</c><c>   1</c></rc>
    <rc><c>Fe</c><c>   1</c></rc>
    <rc><c>Fe</c><c>   1</c></rc>
    <rc><c>Fe</c><c>   1</c></rc>
    <rc><c>Fe</c><c>   1</c></rc>
    <rc><c>Fe</c><c>   1</c></rc>
    <rc><c>Fe</c><c>   1</c></rc>
    <rc><c>Fe</c><c>   1</c></rc>
    <rc><c>Fe</c><c>   1</c></rc>
    <rc><c>Fe</c><c>   1</c></rc>
    <rc><c>Fe</c><c>   1</c></rc>
    <rc><c>Fe</c><c>   1</c></rc>
    <rc><c>Fe</c><c>   1</c></rc>
    <rc><c>Fe</c><c>   1</c></rc>
    <rc><c>Fe</c><c>   1</c></rc>
    <rc><c>Fe</c><c>   1</c></rc>
    <rc><c>Fe</c><c>   1</c></rc>
    <rc><c>Fe</c><c>   1</c></rc>
    <rc><c>Fe</c><c>   1</c></rc>
    <rc><c>Fe</c><c>   1</c></rc>
    <rc><c>Fe</c><c>   1</c></rc>
    <rc><c>Fe</c><c>   1</c></rc>
    <rc><c>Fe</c><c>   1</c></rc>
    <rc><c>Fe</c><c>   1</c></rc>
    <rc><c>Fe</c><c>   1</c></rc>
    <rc><c>Fe</c><c>   1</c></rc>
    <rc><c>Fe</c><c>   1</c></rc>
    <rc><c>Fe</c><c>   1</c></rc>
    <rc><c>Fe</c><c>   1</c></rc>
    <rc><c>Fe</c><c>   1</c></rc>
    <rc><c>Fe</c><c>   1</c></rc>
    <rc><c>Fe</c><c>   1</c></rc>
    <rc><c>Fe</c><c>   1</c></rc>
    <rc><c>Fe</c><c>   1</c></rc>
    <rc><c>Fe</c><c>   1</c></rc>
    <rc><c>Fe</c><c>   1</c></rc>
    <rc><c>Fe</c><c>   1</c></rc>
    <rc><c>Fe</c><c>   1</c></rc>
    <rc><c>Fe</c><c>   1</c></rc>
    <rc><c>Fe</c><c>   1</c></rc>
    <rc><c>Fe</c><c>   1</c></rc>
    <rc><c>Fe</c><c>   1</c></rc>
    <rc><c>Fe</c><c>   1</c></rc>
    <rc><c>Fe</c><c>   1</c></rc>
    <rc><c>Fe</c><c>   1</c></rc>
    <rc><c>Fe</c><c>   1</c></rc>
    <rc><c>Fe</c><c>   1</c></rc>
    <rc><c>Fe</c><c>   1</c></rc>
    <rc><c>Fe</c><c>   1</c></rc>
    <rc><c>Fe</c><c>   1</c></rc>
    <rc><c>Fe</c><c>   1</c></rc>
    <rc><c>Fe</c><c>   1</c></rc>
    <rc><c>Fe</c><c>   1</c></rc>
    <rc><c>Fe</c><c>   1</c></rc>
    <rc><c>Fe</c><c>   1</c></rc>
    <rc><c>Fe</c><c>   1</c></rc>
    <rc><c>Fe</c><c>   1</c></rc>
    <rc><c>Fe</c><c>   1</c></rc>
    <rc><c>Fe</c><c>   1</c></rc>
    <rc><c>Fe</c><c>   1</c></rc>
    <rc><c>Fe</c><c>   1</c></rc>
    <rc><c>Fe</c><c>   1</c></rc>
    <rc><c>Fe</c><c>   1</c></rc>
    <rc><c>Fe</c><c>   1</c></rc>
    <rc><c>Fe</c><c>   1</c></rc>
    <rc><c>Fe</c><c>   1</c></rc>
    <rc><c>Fe</c><c>   1</c></rc>
    <rc><c>Fe</c><c>   1</c></rc>
    <rc><c>Fe</c><c>   1</c></rc>
    <rc><c>Fe</c><c>   1</c></rc>
    <rc><c>Fe</c><c>   1</c></rc>
    <rc><c>Fe</c><c>   1</c></rc>
    <rc><c>Fe</c><c>   1</c></rc>
    <rc><c>Fe</c><c>   1</c></rc>
    <rc><c>Fe</c><c>   1</c></rc>
    <rc><c>Fe</c><c>   1</c></rc>
    <rc><c>Fe</c><c>   1</c></rc>
    <rc><c>Fe</c><c>   1</c></rc>
    <rc><c>Fe</c><c>   1</c></rc>
    <rc><c>Fe</c><c>   1</c></rc>
    <rc><c>Fe</c><c>   1</c></rc>
    <rc><c>Fe</c><c>   1</c></rc>
    <rc><c>Fe</c><c>   1</c></rc>
    <rc><c>Fe</c><c>   1</c></rc>
    <rc><c>Fe</c><c>   1</c></rc>
    <rc><c>Fe</c><c>   1</c></rc>
    <rc><c>Fe</c><c>   1</c></rc>
    <rc><c>Fe</c><c>   1</c></rc>
    <rc><c>Fe</c><c>   1</c></rc>
    <rc><c>Fe</c><c>   1</c></rc>
    <rc><c>Fe</c><c>   1</c></rc>
    <rc><c>Fe</c><c>   1</c></rc>
    <rc><c>Fe</c><c>   1</c></rc>
    <rc><c>Fe</c><c>   1</c></rc>
    <rc><c>Fe</c><c>   1</c></rc>
    <rc><c>Fe</c><c>   1</c></rc>
    <rc><c>Fe</c><c>   1</c></rc>
    <rc><c>Fe</c><c>   1</c></rc>
    <rc><c>Fe</c><c>   1</c></rc>
    <rc><c>Fe</c><c>   1</c></rc>
    <rc><c>Fe</c><c>   1</c></rc>
    <rc><c>Fe</c><c>   1</c></rc>
    <rc><c>Fe</c><c>   1</c></rc>
    <rc><c>Fe</c><c>   1</c></rc>
    <rc><c>Fe</c><c>   1</c></rc>
    <rc><c>Fe</c><c>   1</c></rc>
    <rc><c>Fe</c><c>   1</c></rc>
    <rc><c>Fe</c><c>   1</c></rc>
    <rc><c>Fe</c><c>   1</c></rc>
    <rc><c>Fe</c><c>   1</c></rc>
    <rc><c>Fe</c><c>   1</c></rc>
    <rc><c>Fe</c><c>   1</c></rc>
    <rc><c>Fe</c><c>   1</c></rc>
    <rc><c>Fe</c><c>   1</c></rc>
    <rc><c>Fe</c><c>   1</c></rc>
    <rc><c>Fe</c><c>   1</c></rc>
    <rc><c>Fe</c><c>   1</c></rc>
    <rc><c>Fe</c><c>   1</c></rc>
    <rc><c>Fe</c><c>   1</c></rc>
    <rc><c>Fe</c><c>   1</c></rc>
    <rc><c>Fe</c><c>   1</c></rc>
    <rc><c>Fe</c><c>   1</c></rc>
    <rc><c>Fe</c><c>   1</c></rc>
    <rc><c>Fe</c><c>   1</c></rc>
    <rc><c>Fe</c><c>   1</c></rc>
    <rc><c>Fe</c><c>   1</c></rc>
    <rc><c>Fe</c><c>   1</c></rc>
    <rc><c>Fe</c><c>   1</c></rc>
    <rc><c>Fe</c><c>   1</c></rc>
    <rc><c>Fe</c><c>   1</c></rc>
    <rc><c>Fe</c><c>   1</c></rc>
    <rc><c>Fe</c><c>   1</c></rc>
    <rc><c>Fe</c><c>   1</c></rc>
    <rc><c>Fe</c><c>   1</c></rc>
    <rc><c>Fe</c><c>   1</c></rc>
    <rc><c>Fe</c><c>   1</c></rc>
    <rc><c>Fe</c><c>   1</c></rc>
    <rc><c>Fe</c><c>   1</c></rc>
    <rc><c>Fe</c><c>   1</c></rc>
    <rc><c>Fe</c><c>   1</c></rc>
    <rc><c>Fe</c><c>   1</c></rc>
    <rc><c>Fe</c><c>   1</c></rc>
    <rc><c>Fe</c><c>   1</c></rc>
    <rc><c>Fe</c><c>   1</c></rc>
    <rc><c>Fe</c><c>   1</c></rc>
    <rc><c>Fe</c><c>   1</c></rc>
    <rc><c>Fe</c><c>   1</c></rc>
    <rc><c>Fe</c><c>   1</c></rc>
    <rc><c>Fe</c><c>   1</c></rc>
    <rc><c>Fe</c><c>   1</c></rc>
    <rc><c>Fe</c><c>   1</c></rc>
    <rc><c>Fe</c><c>   1</c></rc>
    <rc><c>Fe</c><c>   1</c></rc>
    <rc><c>Fe</c><c>   1</c></rc>
    <rc><c>Fe</c><c>   1</c></rc>
    <rc><c>Fe</c><c>   1</c></rc>
    <rc><c>Fe</c><c>   1</c></rc>
    <rc><c>Fe</c><c>   1</c></rc>
    <rc><c>Fe</c><c>   1</c></rc>
    <rc><c>Fe</c><c>   1</c></rc>
    <rc><c>Fe</c><c>   1</c></rc>
    <rc><c>Fe</c><c>   1</c></rc>
    <rc><c>Mn</c><c>   2</c></rc>
    <rc><c>Mn</c><c>   2</c></rc>
    <rc><c>Mn</c><c>   2</c></rc>
    <rc><c>Mn</c><c>   2</c></rc>
    <rc><c>Mn</c><c>   2</c></rc>
    <rc><c>Mn</c><c>   2</c></rc>
    <rc><c>Mn</c><c>   2</c></rc>
   </set>
  </array>
  <array name="atomtypes" >
   <dimension dim="1">type</dimension>
   <field type="int">atomspertype</field>
   <field type="string">element</field>
   <field>mass</field>
   <field>valence</field>
   <field type="string">pseudopotential</field>
   <set>
    <rc><c> 281</c><c>Fe</c><c>     55.84700000</c><c>      8.00000000</c><c>  PAW_PBE Fe_GW 31Mar2010               </c></rc>
    <rc><c>   7</c><c>Mn</c><c>     54.93800000</c><c>      7.00000000</c><c>  PAW_PBE Mn_GW 31Mar2010               </c></rc>
   </set>
  </array>
 </atominfo>
 <structure name="initialpos" >
  <crystal>
   <varray name="basis" >
    <v>       9.72667804       0.00000000       0.00000000 </v>
    <v>       0.00000000       8.42355028       0.00000000 </v>
    <v>       0.00000000       0.00000000      45.00000000 </v>
   </varray>
   <i name="volume">   3686.99226691 </i>
   <varray name="rec_basis" >
    <v>       0.10281002       0.00000000       0.00000000 </v>
    <v>       0.00000000       0.11871479       0.00000000 </v>
    <v>       0.00000000       0.00000000       0.02222222 </v>
   </varray>
  </crystal>
  <varray name="positions" >
   <v>       0.06136451       0.03483059       0.12454739 </v>
   <v>       0.81436807       0.04271076       0.87566528 </v>
   <v>       0.19541127       0.12535283       0.78850769 </v>
   <v>       0.43366543       0.28746547       0.38903614 </v>
   <v>       0.31636393       0.35999781       0.16645021 </v>
   <v>       0.80878003       0.21305558       0.83314961 </v>
   <v>       0.18354582       0.78732997       0.38907487 </v>
   <v>       0.56377989       0.20767700       0.56542898 </v>
   <v>       0.06037859       0.04221219       0.74416829 </v>
   <v>       0.81351347       0.87198163       0.52130023 </v>
   <v>       0.18567940       0.29189815       0.74412030 </v>
   <v>       0.94140115       0.45194916       0.34493040 </v>
   <v>       0.93382464       0.28739935       0.38903992 </v>
   <v>       0.43850383       0.62201036       0.52132370 </v>
   <v>       0.18772685       0.79186294       0.61083546 </v>
   <v>       0.55868632       0.03767249       0.38905881 </v>
   <v>       0.93340695       0.96318314       0.83317129 </v>
   <v>       0.31424045       0.54248786       0.87554483 </v>
   <v>       0.68568795       0.29185417       0.74404676 </v>
   <v>       0.94135838       0.95212926       0.34490666 </v>
   <v>       0.81279975       0.20575601       0.47863302 </v>
   <v>       0.81267223       0.54189126       0.61083164 </v>
   <v>       0.31313999       0.87067234       0.43436385 </v>
   <v>       0.81550926       0.03519405       0.25604137 </v>
   <v>       0.69131782       0.95176224       0.34493149 </v>
   <v>       0.94303490       0.11413912       0.16694037 </v>
   <v>       0.93850948       0.12197566       0.52131844 </v>
   <v>       0.56508942       0.53534495       0.25598466 </v>
   <v>       0.69288721       0.79616902       0.87563739 </v>
   <v>       0.56731880       0.36242422       0.16691797 </v>
   <v>       0.43585206       0.79169722       0.74415069 </v>
   <v>       0.81380836       0.70768322       0.56542707 </v>
   <v>       0.57045866       0.87424053       0.78835383 </v>
   <v>       0.68850037       0.12199985       0.52130393 </v>
   <v>       0.19002129       0.28569168       0.25600881 </v>
   <v>       0.93359046       0.46326577       0.83301165 </v>
   <v>       0.06542326       0.20846889       0.69968476 </v>
   <v>       0.80858453       0.03762425       0.38905623 </v>
   <v>       0.30888541       0.21387039       0.83328785 </v>
   <v>       0.43400924       0.62607163       0.65496854 </v>
   <v>       0.31274108       0.54187158       0.61077903 </v>
   <v>       0.93874647       0.45772495       0.56542355 </v>
   <v>       0.68575619       0.79196455       0.74416285 </v>
   <v>       0.30880553       0.87564171       0.65492773 </v>
   <v>       0.68368078       0.78759698       0.38907629 </v>
   <v>       0.93593203       0.79180228       0.74416026 </v>
   <v>       0.06618605       0.20233744       0.34506067 </v>
   <v>       0.43745218       0.78055132       0.12420442 </v>
   <v>       0.44537656       0.12507912       0.78857530 </v>
   <v>       0.05504904       0.20275677       0.21191734 </v>
   <v>       0.06721384       0.36094897       0.16670385 </v>
   <v>       0.94009378       0.78535132       0.25601235 </v>
   <v>       0.56541620       0.20839220       0.69972317 </v>
   <v>       0.69073962       0.95832474       0.69973826 </v>
   <v>       0.68368024       0.28747382       0.38903403 </v>
   <v>       0.43881622       0.95771683       0.56542066 </v>
   <v>       0.82064428       0.37438127       0.78837795 </v>
   <v>       0.68997264       0.28536024       0.25605562 </v>
   <v>       0.18889164       0.45768843       0.56543419 </v>
   <v>       0.06766233       0.86119706       0.16673596 </v>
   <v>       0.18780956       0.29183980       0.61079534 </v>
   <v>       0.56631302       0.70188663       0.34491421 </v>
   <v>       0.31541710       0.20840453       0.69972456 </v>
   <v>       0.56536329       0.54175719       0.87558520 </v>
   <v>       0.06375963       0.70776668       0.56544428 </v>
   <v>       0.69520935       0.62469932       0.78853993 </v>
   <v>       0.30859473       0.53756911       0.38906877 </v>
   <v>       0.18847524       0.62196425       0.52131596 </v>
   <v>       0.56300453       0.87045911       0.43442540 </v>
   <v>       0.43879372       0.45769643       0.56544089 </v>
   <v>       0.43573146       0.29193316       0.74410680 </v>
   <v>       0.80389237       0.87219107       0.30025476 </v>
   <v>       0.81636763       0.70213646       0.34493269 </v>
   <v>       0.43356884       0.46411889       0.83317704 </v>
   <v>       0.68783783       0.95592918       0.47861495 </v>
   <v>       0.69075131       0.45840017       0.69971577 </v>
   <v>       0.56347072       0.87201493       0.52131771 </v>
   <v>       0.55881787       0.37548546       0.65493303 </v>
   <v>       0.80882717       0.87560534       0.65489255 </v>
   <v>       0.81291370       0.37049045       0.43443514 </v>
   <v>       0.81557550       0.53524914       0.25602158 </v>
   <v>       0.68343124       0.46302137       0.83308720 </v>
   <v>       0.18792394       0.78050695       0.12443004 </v>
   <v>       0.06420867       0.04277807       0.87558395 </v>
   <v>       0.30878059       0.37572577       0.65491658 </v>
   <v>       0.31636995       0.20169152       0.34492488 </v>
   <v>       0.81075778       0.54222530       0.74407497 </v>
   <v>       0.68386374       0.96354361       0.83307859 </v>
   <v>       0.55889331       0.87568504       0.65491220 </v>
   <v>       0.31381135       0.70771612       0.56544372 </v>
   <v>       0.31254747       0.53563844       0.12417072 </v>
   <v>       0.68023052       0.95291310       0.21165621 </v>
   <v>       0.31378772       0.20769545       0.56543569 </v>
   <v>       0.31082306       0.54257956       0.74425059 </v>
   <v>       0.68879312       0.95770187       0.56543217 </v>
   <v>       0.43773172       0.79181216       0.61083583 </v>
   <v>       0.69205422       0.61206504       0.16698919 </v>
   <v>       0.30383345       0.87208363       0.30033947 </v>
   <v>       0.31288174       0.70580745       0.47862588 </v>
   <v>       0.93773381       0.29183986       0.61083356 </v>
   <v>       0.42869795       0.62226277       0.30028290 </v>
   <v>       0.81646131       0.86188839       0.16699669 </v>
   <v>       0.55560112       0.20254606       0.21169620 </v>
   <v>       0.94162914       0.61336164       0.16699003 </v>
   <v>       0.94090166       0.79584985       0.87567543 </v>
   <v>       0.57074395       0.37436629       0.78836923 </v>
   <v>       0.06347448       0.37203636       0.52132164 </v>
   <v>       0.56349803       0.37200960       0.52130812 </v>
   <v>       0.67877452       0.12206573       0.30030041 </v>
   <v>       0.43286867       0.96304079       0.83318284 </v>
   <v>       0.18781205       0.95581046       0.47862170 </v>
   <v>       0.82083778       0.87444593       0.78838235 </v>
   <v>       0.31303134       0.37045273       0.43443219 </v>
   <v>       0.93770153       0.79184657       0.61089089 </v>
   <v>       0.43766168       0.29187529       0.61085522 </v>
   <v>       0.19134814       0.45179870       0.34493664 </v>
   <v>       0.43880596       0.28046614       0.12440637 </v>
   <v>       0.69006692       0.78539510       0.25604355 </v>
   <v>       0.19070466       0.95846893       0.69967774 </v>
   <v>       0.19087187       0.29587994       0.87579945 </v>
   <v>       0.18384500       0.12573343       0.65489913 </v>
   <v>       0.93391354       0.12585760       0.65492003 </v>
   <v>       0.30530697       0.20254381       0.21193205 </v>
   <v>       0.05870333       0.03742148       0.38902883 </v>
   <v>       0.44024973       0.95827471       0.69968043 </v>
   <v>       0.06275875       0.54182280       0.61082317 </v>
   <v>       0.94054950       0.28522169       0.25603581 </v>
   <v>       0.56276415       0.54178679       0.61081542 </v>
   <v>       0.93883516       0.95773773       0.56542906 </v>
   <v>       0.67880288       0.62211583       0.30027447 </v>
   <v>       0.93807733       0.62033097       0.43446589 </v>
   <v>       0.94529095       0.62494911       0.78855662 </v>
   <v>       0.56540586       0.70848486       0.69966185 </v>
   <v>       0.05893008       0.71312604       0.83327458 </v>
   <v>       0.92864008       0.12233558       0.30026794 </v>
   <v>       0.94032492       0.45841884       0.69969785 </v>
   <v>       0.44006042       0.78589245       0.25592861 </v>
   <v>       0.32082886       0.37454476       0.78838037 </v>
   <v>       0.43055993       0.45242558       0.21175544 </v>
   <v>       0.18846777       0.12194392       0.52131922 </v>
   <v>       0.81542580       0.70849972       0.69967159 </v>
   <v>       0.06264383       0.04192373       0.61085411 </v>
   <v>       0.55906296       0.21343923       0.83325574 </v>
   <v>       0.31352969       0.87200455       0.52129021 </v>
   <v>       0.68750939       0.28066109       0.12419249 </v>
   <v>       0.17970737       0.95165006       0.21205411 </v>
   <v>       0.68776934       0.29189261       0.61080835 </v>
   <v>       0.31259527       0.04189691       0.61083011 </v>
   <v>       0.94563219       0.12507519       0.78845844 </v>
   <v>       0.44131185       0.79696034       0.87569896 </v>
   <v>       0.81082826       0.04232520       0.74406488 </v>
   <v>       0.43849448       0.12197663       0.52131163 </v>
   <v>       0.18381116       0.62577645       0.65491509 </v>
   <v>       0.31535956       0.70844194       0.69965848 </v>
   <v>       0.93483417       0.27946093       0.12464697 </v>
   <v>       0.43785685       0.45590742       0.47861204 </v>
   <v>       0.06281057       0.70589631       0.47862109 </v>
   <v>       0.93808087       0.12033201       0.43442694 </v>
   <v>       0.42863219       0.12207134       0.30031273 </v>
   <v>       0.18795073       0.12059723       0.43438129 </v>
   <v>       0.56519705       0.04294449       0.87556604 </v>
   <v>       0.18880082       0.95765765       0.56544484 </v>
   <v>       0.68827413       0.78125034       0.12446429 </v>
   <v>       0.56400281       0.53349816       0.12451185 </v>
   <v>       0.30875943       0.03745382       0.38903952 </v>
   <v>       0.69261715       0.11235941       0.16727053 </v>
   <v>       0.80535376       0.20313842       0.21187749 </v>
   <v>       0.06561362       0.53543345       0.25594800 </v>
   <v>       0.56282009       0.70577822       0.47863222 </v>
   <v>       0.06385905       0.20775439       0.56542537 </v>
   <v>       0.55377635       0.37206254       0.30026792 </v>
   <v>       0.44142954       0.95190402       0.34497278 </v>
   <v>       0.18392348       0.96347872       0.83322111 </v>
   <v>       0.44169277       0.61274438       0.16685230 </v>
   <v>       0.93003111       0.45318405       0.21195369 </v>
   <v>       0.06284942       0.53434410       0.12457682 </v>
   <v>       0.81351894       0.37196176       0.52130669 </v>
   <v>       0.92871174       0.62221375       0.30028139 </v>
   <v>       0.31520588       0.03557975       0.25599063 </v>
   <v>       0.06351205       0.87197243       0.52131010 </v>
   <v>       0.18385931       0.46446695       0.83327568 </v>
   <v>       0.44189482       0.11197291       0.16669024 </v>
   <v>       0.31349497       0.37206369       0.52130423 </v>
   <v>       0.44591582       0.62476960       0.78838489 </v>
   <v>       0.06512498       0.03539743       0.25604724 </v>
   <v>       0.56376345       0.70773984       0.56543468 </v>
   <v>       0.17891046       0.62221043       0.30035089 </v>
   <v>       0.69568631       0.12487479       0.78844399 </v>
   <v>       0.18096890       0.45195309       0.21165578 </v>
   <v>       0.93369419       0.78708956       0.38905647 </v>
   <v>       0.69385163       0.29710917       0.87583135 </v>
   <v>       0.68775272       0.79183060       0.61082314 </v>
   <v>       0.44033480       0.45829207       0.69966277 </v>
   <v>       0.80888941       0.37565698       0.65491828 </v>
   <v>       0.68846740       0.62205560       0.52130486 </v>
   <v>       0.05885875       0.87568683       0.65490328 </v>
   <v>       0.07087349       0.87443720       0.78838272 </v>
   <v>       0.05884743       0.37562002       0.65492265 </v>
   <v>       0.68782283       0.45592232       0.47861432 </v>
   <v>       0.19024923       0.78584804       0.25590166 </v>
   <v>       0.43811514       0.12034459       0.43441326 </v>
   <v>       0.81105527       0.03349900       0.12443007 </v>
   <v>       0.93851340       0.62199755       0.52130609 </v>
   <v>       0.06310216       0.87058255       0.43439659 </v>
   <v>       0.81091723       0.53429493       0.12448087 </v>
   <v>       0.44154831       0.45193720       0.34501607 </v>
   <v>       0.81621712       0.20179796       0.34494550 </v>
   <v>       0.31617440       0.70177792       0.34494804 </v>
   <v>       0.68373798       0.12572172       0.65491224 </v>
   <v>       0.55372332       0.87198720       0.30032820 </v>
   <v>       0.06041959       0.54200162       0.74418542 </v>
   <v>       0.93512595       0.78034862       0.12460871 </v>
   <v>       0.80585027       0.70248281       0.21175065 </v>
   <v>       0.05422259       0.87255958       0.30014672 </v>
   <v>       0.17917111       0.12304177       0.30028693 </v>
   <v>       0.06628925       0.70173972       0.34496587 </v>
   <v>       0.81279383       0.04178402       0.61079952 </v>
   <v>       0.06301382       0.37051880       0.43442467 </v>
   <v>       0.56624658       0.20197929       0.34494387 </v>
   <v>       0.80349974       0.37204045       0.30032185 </v>
   <v>       0.43787270       0.95591916       0.47861366 </v>
   <v>       0.55855514       0.53737110       0.38905956 </v>
   <v>       0.06280286       0.20572146       0.47864744 </v>
   <v>       0.32071616       0.87457197       0.78838135 </v>
   <v>       0.94033694       0.95853894       0.69973902 </v>
   <v>       0.05373079       0.37214097       0.30031911 </v>
   <v>       0.68405969       0.62594980       0.65495062 </v>
   <v>       0.68876122       0.45774594       0.56543816 </v>
   <v>       0.43014110       0.95269855       0.21182701 </v>
   <v>       0.31278139       0.20579124       0.47861929 </v>
   <v>       0.43381645       0.12585878       0.65493730 </v>
   <v>       0.68775387       0.62041799       0.43439247 </v>
   <v>       0.81528833       0.20835612       0.69964857 </v>
   <v>       0.81278275       0.70570858       0.47862936 </v>
   <v>       0.56301701       0.37045072       0.43443873 </v>
   <v>       0.93787942       0.95585539       0.47863802 </v>
   <v>       0.56283317       0.20580138       0.47860495 </v>
   <v>       0.18809615       0.62033277       0.43442505 </v>
   <v>       0.31068701       0.04199048       0.74404196 </v>
   <v>       0.93396215       0.62590064       0.65488205 </v>
   <v>       0.55889809       0.71325315       0.83322836 </v>
   <v>       0.30387534       0.37224310       0.30026605 </v>
   <v>       0.55498073       0.70262232       0.21178444 </v>
   <v>       0.18781240       0.45580020       0.47862115 </v>
   <v>       0.31485118       0.04177880       0.87566241 </v>
   <v>       0.19020149       0.45814345       0.69965758 </v>
   <v>       0.81460639       0.54238882       0.87563634 </v>
   <v>       0.18340230       0.28767744       0.38908070 </v>
   <v>       0.43826678       0.62050955       0.43430607 </v>
   <v>       0.05555652       0.70263535       0.21196435 </v>
   <v>       0.56421603       0.03401859       0.12430498 </v>
   <v>       0.81626623       0.36250741       0.16697810 </v>
   <v>       0.80833738       0.71367687       0.83309089 </v>
   <v>       0.07093513       0.37441961       0.78841669 </v>
   <v>       0.44301471       0.29640399       0.87570243 </v>
   <v>       0.31399538       0.03424542       0.12443138 </v>
   <v>       0.68816076       0.12030965       0.43438490 </v>
   <v>       0.19139441       0.95202427       0.34499427 </v>
   <v>       0.05859119       0.21351199       0.83330081 </v>
   <v>       0.56270351       0.04188086       0.61086333 </v>
   <v>       0.68031896       0.45305578       0.21173613 </v>
   <v>       0.18609277       0.79163992       0.74417822 </v>
   <v>       0.81302766       0.87055973       0.43442382 </v>
   <v>       0.43357938       0.78759906       0.38909057 </v>
   <v>       0.44063393       0.28533879       0.25603378 </v>
   <v>       0.06433898       0.54245801       0.87565726 </v>
   <v>       0.56060129       0.04212963       0.74415558 </v>
   <v>       0.19364098       0.79690356       0.87586481 </v>
   <v>       0.93780368       0.45574915       0.47861592 </v>
   <v>       0.80870451       0.53768332       0.38904682 </v>
   <v>       0.81375477       0.20779796       0.56543923 </v>
   <v>       0.19520558       0.62483933       0.78841875 </v>
   <v>       0.93068383       0.95303277       0.21187354 </v>
   <v>       0.06530386       0.70851715       0.69967995 </v>
   <v>       0.31536326       0.53567950       0.25602533 </v>
   <v>       0.30579306       0.70242963       0.21196703 </v>
   <v>       0.56668397       0.86293971       0.16692879 </v>
   <v>       0.56075111       0.54250411       0.74406379 </v>
   <v>       0.69110433       0.45218960       0.34499196 </v>
   <v>       0.94104472       0.29681198       0.87584245 </v>
   <v>       0.56503607       0.03544920       0.25603690 </v>
   <v>       0.19276547       0.11258941       0.16612096 </v>
   <v>       0.30798507       0.71482645       0.83391919 </v>
   <v>       0.31776775       0.85893584       0.16603504 </v>
   <v>       0.93610039       0.29199698       0.74409749 </v>
   <v>       0.05825220       0.53781767       0.38893254 </v>
   <v>       0.19286778       0.61053119       0.16587167 </v>
   <v>       0.18734462       0.27875315       0.12486629 </v>
  </varray>
 </structure>
 <calculation>
  <scstep>
   <time name="dav">   54.69   54.70</time>
   <time name="total">   54.84   54.88</time>
   <energy>
    <i name="alphaZ">  16403.00255340 </i>
    <i name="ewald"> 738003.81104567 </i>
    <i name="hartreedc">-929653.23263284 </i>
    <i name="XCdc">  -6388.72376595 </i>
    <i name="pawpsdc"> 163151.95320885 </i>
    <i name="pawaedc">-160818.84594568 </i>
    <i name="eentropy">     -1.04450231 </i>
    <i name="bandstr">  38623.43029236 </i>
    <i name="atom"> 169914.59583762 </i>
    <i name="e_fr_energy">  29234.94609112 </i>
    <i name="e_wo_entrp">  29235.99059343 </i>
    <i name="e_0_energy">  29235.46834227 </i>
   </energy>
  </scstep>
  <scstep>
   <time name="dav">   54.21   54.25</time>
   <time name="total">   54.22   54.25</time>
   <energy>
    <i name="e_fr_energy">   1198.01462362 </i>
    <i name="e_wo_entrp">   1199.48306205 </i>
    <i name="e_0_energy">   1198.74884283 </i>
   </energy>
  </scstep>
  <scstep>
   <time name="dav">   71.28   71.31</time>
   <time name="total">   71.28   71.32</time>
   <energy>
    <i name="e_fr_energy">  -1940.30064771 </i>
    <i name="e_wo_entrp">  -1936.71495610 </i>
    <i name="e_0_energy">  -1938.50780191 </i>
   </energy>
  </scstep>
  <scstep>
   <time name="dav">   89.16   89.20</time>
   <time name="total">   89.17   89.21</time>
   <energy>
    <i name="e_fr_energy">  -2610.09631026 </i>
    <i name="e_wo_entrp">  -2606.54690034 </i>
    <i name="e_0_energy">  -2608.32160530 </i>
   </energy>
  </scstep>
  <scstep>
   <time name="dav">   84.98   85.03</time>
   <time name="total">   87.08   87.13</time>
   <energy>
    <i name="e_fr_energy">  -2730.48960892 </i>
    <i name="e_wo_entrp">  -2726.82256533 </i>
    <i name="e_0_energy">  -2728.65608713 </i>
   </energy>
  </scstep>
  <scstep>
   <time name="diag">    8.26    8.26</time>
   <time name="diis">   37.30   37.31</time>
   <time name="orth">    2.28    2.28</time>
   <time name="total">   50.04   50.08</time>
   <energy>
    <i name="e_fr_energy">  -4939.08395163 </i>
    <i name="e_wo_entrp">  -4935.78265619 </i>
    <i name="e_0_energy">  -4937.43330391 </i>
   </energy>
  </scstep>
  <scstep>
   <time name="diag">    8.25    8.26</time>
   <time name="diis">   22.37   22.37</time>
   <time name="orth">    2.29    2.29</time>
   <time name="total">   34.98   35.02</time>
[...]
       <r>     5.8068     0.0000  2772.0000 </r>
       <r>     5.8495     0.0000  2772.0000 </r>
       <r>     5.8922     0.0000  2772.0000 </r>
       <r>     5.9349     0.0000  2772.0000 </r>
       <r>     5.9776     0.0000  2772.0000 </r>
       <r>     6.0203     0.0000  2772.0000 </r>
       <r>     6.0630     0.0000  2772.0000 </r>
       <r>     6.1057     0.0000  2772.0000 </r>
       <r>     6.1484     0.0000  2772.0000 </r>
       <r>     6.1911     0.0000  2772.0000 </r>
       <r>     6.2337     0.0000  2772.0000 </r>
       <r>     6.2764     0.0000  2772.0000 </r>
       <r>     6.3191     0.0000  2772.0000 </r>
       <r>     6.3618     0.0000  2772.0000 </r>
       <r>     6.4045     0.0000  2772.0000 </r>
       <r>     6.4472     0.0000  2772.0000 </r>
       <r>     6.4899     0.0000  2772.0000 </r>
       <r>     6.5326     0.0000  2772.0000 </r>
       <r>     6.5753     0.0000  2772.0000 </r>
       <r>     6.6180     0.0000  2772.0000 </r>
       <r>     6.6607     0.0000  2772.0000 </r>
       <r>     6.7034     0.0000  2772.0000 </r>
       <r>     6.7461     0.0000  2772.0000 </r>
      </set>
     </set>
    </array>
   </total>
  </dos>
 </calculation>
 <structure name="finalpos" >
  <crystal>
   <varray name="basis" >
    <v>       9.72667804       0.00000000       0.00000000 </v>
    <v>       0.00000000       8.42355028       0.00000000 </v>
    <v>       0.00000000       0.00000000      45.00000000 </v>
   </varray>
   <i name="volume">   3686.99226691 </i>
   <varray name="rec_basis" >
    <v>       0.10281002       0.00000000       0.00000000 </v>
    <v>       0.00000000       0.11871479       0.00000000 </v>
    <v>       0.00000000       0.00000000       0.02222222 </v>
   </varray>
  </crystal>
  <varray name="positions" >
   <v>       0.06142029       0.03257584       0.12464705 </v>
   <v>       0.81401799       0.04218090       0.87543721 </v>
   <v>       0.19446105       0.12546447       0.78830084 </v>
   <v>       0.43433650       0.28718164       0.38901413 </v>
   <v>       0.31552884       0.36110091       0.16683948 </v>
   <v>       0.81030713       0.21203730       0.83304179 </v>
   <v>       0.18435258       0.78719569       0.38906462 </v>
   <v>       0.56354968       0.20768376       0.56556261 </v>
   <v>       0.06220280       0.04160985       0.74392760 </v>
   <v>       0.81343320       0.87237917       0.52158142 </v>
   <v>       0.18744815       0.29150239       0.74389459 </v>
   <v>       0.93985451       0.45275655       0.34474547 </v>
   <v>       0.93474130       0.28744764       0.38902915 </v>
   <v>       0.43814769       0.62244281       0.52158407 </v>
   <v>       0.18718839       0.79137476       0.61075492 </v>
   <v>       0.55970511       0.03674464       0.38899484 </v>
   <v>       0.93495836       0.96249093       0.83323501 </v>
   <v>       0.31385046       0.54518076       0.87549983 </v>
   <v>       0.68615400       0.29110021       0.74385782 </v>
   <v>       0.93989105       0.95257415       0.34475946 </v>
   <v>       0.81293008       0.20554915       0.47871015 </v>
   <v>       0.81244338       0.54199461       0.61065408 </v>
   <v>       0.31248983       0.87037350       0.43454089 </v>
   <v>       0.81430868       0.03541250       0.25599500 </v>
   <v>       0.69014885       0.95206273       0.34487185 </v>
   <v>       0.94195375       0.11450692       0.16693061 </v>
   <v>       0.93842710       0.12254742       0.52158626 </v>
   <v>       0.56316414       0.53538381       0.25590013 </v>
   <v>       0.69133905       0.79580986       0.87553898 </v>
   <v>       0.56571767       0.36291480       0.16686259 </v>
   <v>       0.43608030       0.79272874       0.74386993 </v>
   <v>       0.81344293       0.70734111       0.56568957 </v>
   <v>       0.56861337       0.87556957       0.78826442 </v>
   <v>       0.68827763       0.12258282       0.52159958 </v>
   <v>       0.18852641       0.28552033       0.25600608 </v>
   <v>       0.93511221       0.46278121       0.83311632 </v>
   <v>       0.06560210       0.20788254       0.69954360 </v>
   <v>       0.80935421       0.03692652       0.38893406 </v>
   <v>       0.31046368       0.21281609       0.83299094 </v>
   <v>       0.43459995       0.62570737       0.65498985 </v>
   <v>       0.31258879       0.54202159       0.61064194 </v>
   <v>       0.93845389       0.45750487       0.56561336 </v>
   <v>       0.68693187       0.79274154       0.74395313 </v>
   <v>       0.30938238       0.87561155       0.65510737 </v>
   <v>       0.68448907       0.78775263       0.38898585 </v>
   <v>       0.93754837       0.79255861       0.74389431 </v>
   <v>       0.06441937       0.20231384       0.34477793 </v>
   <v>       0.43798211       0.78193156       0.12431206 </v>
   <v>       0.44318376       0.12549789       0.78836657 </v>
   <v>       0.05664489       0.20244416       0.21195666 </v>
   <v>       0.06594989       0.36145831       0.16701445 </v>
   <v>       0.93919300       0.78546936       0.25597206 </v>
   <v>       0.56400409       0.20796900       0.69961548 </v>
   <v>       0.68959453       0.95882420       0.69962045 </v>
   <v>       0.68476314       0.28722392       0.38897074 </v>
   <v>       0.43874295       0.95710983       0.56550393 </v>
   <v>       0.81868755       0.37459184       0.78817346 </v>
   <v>       0.68875597       0.28527272       0.25599870 </v>
   <v>       0.18868552       0.45764137       0.56553215 </v>
   <v>       0.06609850       0.86305408       0.16695055 </v>
   <v>       0.18716918       0.29194210       0.61073250 </v>
   <v>       0.56498465       0.70264781       0.34487635 </v>
   <v>       0.31472401       0.20810358       0.69964577 </v>
   <v>       0.56395491       0.54484521       0.87531245 </v>
   <v>       0.06354203       0.70736443       0.56561727 </v>
   <v>       0.69354674       0.62563390       0.78840417 </v>
   <v>       0.30905641       0.53822412       0.38911474 </v>
   <v>       0.18845055       0.62240791       0.52153592 </v>
   <v>       0.56271062       0.87033879       0.43452299 </v>
   <v>       0.43871208       0.45781614       0.56557526 </v>
   <v>       0.43628712       0.29124724       0.74392144 </v>
   <v>       0.80618217       0.87152505       0.30040556 </v>
   <v>       0.81490524       0.70282636       0.34481337 </v>
   <v>       0.43454989       0.46322836       0.83314329 </v>
   <v>       0.68783252       0.95528423       0.47873952 </v>
   <v>       0.68961132       0.45815987       0.69955467 </v>
   <v>       0.56317773       0.87234559       0.52160049 </v>
   <v>       0.55958569       0.37516227       0.65494214 </v>
   <v>       0.81006823       0.87566407       0.65488856 </v>
   <v>       0.81345738       0.37117337       0.43464879 </v>
   <v>       0.81440900       0.53514464       0.25597131 </v>
   <v>       0.68433697       0.46280954       0.83306621 </v>
   <v>       0.18804811       0.78293478       0.12439239 </v>
   <v>       0.06439966       0.04296099       0.87538631 </v>
   <v>       0.30953244       0.37524761       0.65508816 </v>
   <v>       0.31416921       0.20206326       0.34468906 </v>
   <v>       0.81199770       0.54279459       0.74389155 </v>
   <v>       0.68481981       0.96282545       0.83319151 </v>
   <v>       0.55995191       0.87587496       0.65491713 </v>
   <v>       0.31378020       0.70730996       0.56557923 </v>
   <v>       0.31368245       0.53354664       0.12435351 </v>
   <v>       0.68163644       0.95260844       0.21189977 </v>
   <v>       0.31370922       0.20782565       0.56548432 </v>
   <v>       0.31121758       0.54217468       0.74389559 </v>
   <v>       0.68846518       0.95713793       0.56564520 </v>
   <v>       0.43798771       0.79138440       0.61066058 </v>
   <v>       0.69086573       0.61285275       0.16687796 </v>
   <v>       0.30525128       0.87154977       0.30030365 </v>
   <v>       0.31272129       0.70527407       0.47870578 </v>
   <v>       0.93732815       0.29195085       0.61072302 </v>
   <v>       0.43007992       0.62171354       0.30027822 </v>
   <v>       0.81632321       0.86305001       0.16688388 </v>
   <v>       0.55657467       0.20244506       0.21187175 </v>
   <v>       0.94086834       0.61340658       0.16702362 </v>
   <v>       0.94039588       0.79566090       0.87549382 </v>
   <v>       0.56824047       0.37410384       0.78819630 </v>
   <v>       0.06354308       0.37293799       0.52158179 </v>
   <v>       0.56312299       0.37283702       0.52159272 </v>
   <v>       0.68087329       0.12131779       0.30034013 </v>
   <v>       0.43407139       0.96262446       0.83320086 </v>
   <v>       0.18799720       0.95508273       0.47864680 </v>
   <v>       0.81931905       0.87503742       0.78817672 </v>
   <v>       0.31217070       0.37124331       0.43470591 </v>
   <v>       0.93732646       0.79147108       0.61080506 </v>
   <v>       0.43798261       0.29220619       0.61070853 </v>
   <v>       0.18929844       0.45268905       0.34469217 </v>
   <v>       0.43920713       0.28016351       0.12468275 </v>
   <v>       0.68869541       0.78527837       0.25601828 </v>
   <v>       0.19009917       0.95855853       0.69961639 </v>
   <v>       0.19088813       0.29489898       0.87546847 </v>
   <v>       0.18475702       0.12513445       0.65508692 </v>
   <v>       0.93516556       0.12535306       0.65493778 </v>
   <v>       0.30668575       0.20247131       0.21191821 </v>
   <v>       0.05965155       0.03675133       0.38897494 </v>
   <v>       0.43909641       0.95901410       0.69959103 </v>
   <v>       0.06214534       0.54192778       0.61072355 </v>
   <v>       0.93944469       0.28541439       0.25601408 </v>
   <v>       0.56303972       0.54199703       0.61058867 </v>
   <v>       0.93853517       0.95727713       0.56562704 </v>
   <v>       0.68095025       0.62151896       0.30042541 </v>
   <v>       0.93853382       0.62042849       0.43457536 </v>
   <v>       0.94415076       0.62601822       0.78830259 </v>
   <v>       0.56435021       0.70886581       0.69951848 </v>
   <v>       0.06077223       0.71304867       0.83328806 </v>
   <v>       0.93092810       0.12167223       0.30035983 </v>
   <v>       0.94048541       0.45889353       0.69952894 </v>
   <v>       0.43778914       0.78583977       0.25596946 </v>
   <v>       0.31916436       0.37392850       0.78823927 </v>
   <v>       0.43163184       0.45187631       0.21187587 </v>
   <v>       0.18847515       0.12254241       0.52153942 </v>
   <v>       0.81532873       0.70943640       0.69955428 </v>
   <v>       0.06206122       0.04149818       0.61080845 </v>
   <v>       0.55992325       0.21240100       0.83307850 </v>
   <v>       0.31336004       0.87223691       0.52153539 </v>
   <v>       0.68817094       0.28114163       0.12427255 </v>
   <v>       0.18099402       0.95131909       0.21208219 </v>
   <v>       0.68778856       0.29217520       0.61065668 </v>
   <v>       0.31246618       0.04151929       0.61081871 </v>
   <v>       0.94448156       0.12451366       0.78823716 </v>
   <v>       0.44024364       0.79625790       0.87565816 </v>
   <v>       0.81201982       0.04179796       0.74388814 </v>
   <v>       0.43823437       0.12256166       0.52158711 </v>
   <v>       0.18447422       0.62583595       0.65501549 </v>
   <v>       0.31413767       0.70852785       0.69958845 </v>
   <v>       0.93506828       0.27987065       0.12476406 </v>
   <v>       0.43750971       0.45576545       0.47875646 </v>
   <v>       0.06315034       0.70525062       0.47867054 </v>
   <v>       0.93830434       0.12064415       0.43458057 </v>
   <v>       0.43013569       0.12143503       0.30025900 </v>
   <v>       0.18761146       0.12046172       0.43457761 </v>
   <v>       0.56424396       0.04282590       0.87536460 </v>
   <v>       0.18847679       0.95712721       0.56555853 </v>
   <v>       0.68835978       0.78244135       0.12439857 </v>
   <v>       0.56447399       0.53233270       0.12464274 </v>
   <v>       0.30935404       0.03662522       0.38903069 </v>
   <v>       0.69142772       0.11380119       0.16701409 </v>
   <v>       0.80751282       0.20285057       0.21202462 </v>
   <v>       0.06439269       0.53539126       0.25598059 </v>
   <v>       0.56246388       0.70522103       0.47874514 </v>
   <v>       0.06345383       0.20768765       0.56556001 </v>
   <v>       0.55543027       0.37152713       0.30028849 </v>
   <v>       0.43952625       0.95214971       0.34486023 </v>
   <v>       0.18564381       0.96290434       0.83320268 </v>
   <v>       0.44088332       0.61332670       0.16687810 </v>
   <v>       0.93195378       0.45218398       0.21203845 </v>
   <v>       0.06179970       0.53227367       0.12460363 </v>
   <v>       0.81346406       0.37278769       0.52159803 </v>
   <v>       0.93103267       0.62174161       0.30034935 </v>
   <v>       0.31305318       0.03571392       0.25604259 </v>
   <v>       0.06351265       0.87220025       0.52152564 </v>
   <v>       0.18570549       0.46379439       0.83329079 </v>
   <v>       0.44042502       0.11288094       0.16659826 </v>
   <v>       0.31331506       0.37291977       0.52155717 </v>
   <v>       0.44406027       0.62514799       0.78831904 </v>
   <v>       0.06403979       0.03574271       0.25603498 </v>
   <v>       0.56343638       0.70733293       0.56567300 </v>
   <v>       0.18070329       0.62164255       0.30029318 </v>
   <v>       0.69354310       0.12485805       0.78823212 </v>
   <v>       0.18208555       0.45074908       0.21180364 </v>
   <v>       0.93471284       0.78694772       0.38898836 </v>
   <v>       0.69178534       0.29525534       0.87546576 </v>
   <v>       0.68768417       0.79136224       0.61065416 </v>
   <v>       0.43896231       0.45765671       0.69959477 </v>
   <v>       0.81020677       0.37544229       0.65474870 </v>
   <v>       0.68819486       0.62245094       0.52160065 </v>
   <v>       0.05994406       0.87566388       0.65501758 </v>
   <v>       0.06938117       0.87532522       0.78813939 </v>
   <v>       0.05991177       0.37530817       0.65493125 </v>
   <v>       0.68784248       0.45545458       0.47876569 </v>
   <v>       0.18867450       0.78570306       0.25602108 </v>
   <v>       0.43742257       0.12028302       0.43459957 </v>
   <v>       0.81204507       0.03268503       0.12444266 </v>
   <v>       0.93861115       0.62235278       0.52157244 </v>
   <v>       0.06325746       0.87040127       0.43454780 </v>
   <v>       0.81156694       0.53263983       0.12453411 </v>
   <v>       0.43973698       0.45276414       0.34477927 </v>
   <v>       0.81485017       0.20205537       0.34475979 </v>
   <v>       0.31412535       0.70277840       0.34482947 </v>
   <v>       0.68470334       0.12532013       0.65492154 </v>
   <v>       0.55548568       0.87140861       0.30036702 </v>
   <v>       0.06215116       0.54265748       0.74388454 </v>
   <v>       0.93602118       0.78136791       0.12470597 </v>
   <v>       0.80753628       0.70224600       0.21203610 </v>
   <v>       0.05608629       0.87190941       0.30026874 </v>
   <v>       0.18075902       0.12216583       0.30024763 </v>
   <v>       0.06454678       0.70266588       0.34481651 </v>
   <v>       0.81261475       0.04148642       0.61073004 </v>
   <v>       0.06297290       0.37138342       0.43461797 </v>
   <v>       0.56498671       0.20219569       0.34476463 </v>
   <v>       0.80584727       0.37150745       0.30035319 </v>
   <v>       0.43750722       0.95507590       0.47873881 </v>
   <v>       0.55949723       0.53823815       0.38901189 </v>
   <v>       0.06309910       0.20559184       0.47871447 </v>
   <v>       0.31868874       0.87629632       0.78821471 </v>
   <v>       0.94021288       0.95836986       0.69965337 </v>
   <v>       0.05593803       0.37166944       0.30030202 </v>
   <v>       0.68530998       0.62611242       0.65478052 </v>
   <v>       0.68840525       0.45767963       0.56567677 </v>
   <v>       0.43147464       0.95255611       0.21195518 </v>
   <v>       0.31262165       0.20564020       0.47873784 </v>
   <v>       0.43460260       0.12554749       0.65513025 </v>
   <v>       0.68807654       0.62088536       0.43456089 </v>
   <v>       0.81458731       0.20774279       0.69950946 </v>
   <v>       0.81306145       0.70524829       0.47874806 </v>
   <v>       0.56287857       0.37113630       0.43466346 </v>
   <v>       0.93812320       0.95513577       0.47869681 </v>
   <v>       0.56275747       0.20553079       0.47880180 </v>
   <v>       0.18760298       0.62070576       0.43461933 </v>
   <v>       0.31139168       0.04227704       0.74385664 </v>
   <v>       0.93516273       0.62630963       0.65481414 </v>
   <v>       0.56007640       0.71326239       0.83329193 </v>
   <v>       0.30539420       0.37167168       0.30014824 </v>
   <v>       0.55638562       0.70243494       0.21195654 </v>
   <v>       0.18793482       0.45566829       0.47871443 </v>
   <v>       0.31460035       0.04207115       0.87542037 </v>
   <v>       0.18995169       0.45814931       0.69958301 </v>
   <v>       0.81437316       0.54518966       0.87538940 </v>
   <v>       0.18397678       0.28759922       0.38911034 </v>
   <v>       0.43742343       0.62105662       0.43456453 </v>
   <v>       0.05673983       0.70269903       0.21203416 </v>
   <v>       0.56393762       0.03260005       0.12447651 </v>
   <v>       0.81602872       0.36308685       0.16697338 </v>
   <v>       0.80953989       0.71368433       0.83319875 </v>
   <v>       0.07014153       0.37458974       0.78818939 </v>
   <v>       0.44130458       0.29511763       0.87537430 </v>
   <v>       0.31449865       0.03237662       0.12424641 </v>
   <v>       0.68831878       0.12052419       0.43456454 </v>
   <v>       0.18919413       0.95247821       0.34483482 </v>
   <v>       0.06032123       0.21253756       0.83321854 </v>
   <v>       0.56296864       0.04158675       0.61075495 </v>
   <v>       0.68200637       0.45229644       0.21190426 </v>
   <v>       0.18690676       0.79247305       0.74385037 </v>
   <v>       0.81315279       0.87049238       0.43453615 </v>
   <v>       0.43442763       0.78766942       0.38909999 </v>
   <v>       0.43804598       0.28545392       0.25600701 </v>
   <v>       0.06510567       0.54478272       0.87545169 </v>
   <v>       0.56117857       0.04228376       0.74394094 </v>
   <v>       0.19286484       0.79601195       0.87582762 </v>
   <v>       0.93809981       0.45549104       0.47869628 </v>
   <v>       0.80977812       0.53817901       0.38902956 </v>
   <v>       0.81347689       0.20770127       0.56562960 </v>
   <v>       0.19383793       0.62553258       0.78826944 </v>
   <v>       0.93276663       0.95264909       0.21199264 </v>
   <v>       0.06506685       0.70918703       0.69961041 </v>
   <v>       0.31314664       0.53540817       0.25606944 </v>
   <v>       0.30713460       0.70198646       0.21206028 </v>
   <v>       0.56530520       0.86383115       0.16681338 </v>
   <v>       0.56135118       0.54195829       0.74388308 </v>
   <v>       0.68992313       0.45279518       0.34481522 </v>
   <v>       0.94127564       0.29542664       0.87553555 </v>
   <v>       0.56320732       0.03562151       0.25598995 </v>
   <v>       0.19146862       0.11308074       0.16669669 </v>
   <v>       0.30948420       0.71445652       0.83399808 </v>
   <v>       0.31715239       0.86168901       0.16632237 </v>
   <v>       0.93733459       0.29111659       0.74388930 </v>
   <v>       0.05915083       0.53851085       0.38901478 </v>
   <v>       0.19138447       0.61009077       0.16639132 </v>
   <v>       0.18769997       0.28017107       0.12472422 </v>
  </varray>
 </structure>
</modeling>
