unknown system                          
           1
     9.726678    0.000000    0.000000
     0.000000    8.423550    0.000000
     0.000000    0.000000   45.000000
   Fe   Mn
 281   7
Direct configuration=     1
   0.06136451  0.03483059  0.12454739
   0.81436807  0.04271076  0.87566528
   0.19541127  0.12535283  0.78850769
   0.43366543  0.28746547  0.38903614
   0.31636393  0.35999781  0.16645021
   0.80878003  0.21305558  0.83314961
   0.18354582  0.78732997  0.38907487
   0.56377989  0.20767700  0.56542898
   0.06037859  0.04221219  0.74416829
   0.81351347  0.87198163  0.52130023
   0.18567940  0.29189815  0.74412030
   0.94140115  0.45194916  0.34493040
   0.93382464  0.28739935  0.38903992
   0.43850383  0.62201036  0.52132370
   0.18772685  0.79186294  0.61083546
   0.55868632  0.03767249  0.38905881
   0.93340695  0.96318314  0.83317129
   0.31424045  0.54248786  0.87554483
   0.68568795  0.29185417  0.74404676
   0.94135838  0.95212926  0.34490666
   0.81279975  0.20575601  0.47863302
   0.81267223  0.54189126  0.61083164
   0.31313999  0.87067234  0.43436385
   0.81550926  0.03519405  0.25604137
   0.69131782  0.95176224  0.34493149
   0.94303490  0.11413912  0.16694037
   0.93850948  0.12197566  0.52131844
   0.56508942  0.53534495  0.25598466
   0.69288721  0.79616902  0.87563739
   0.56731880  0.36242422  0.16691797
   0.43585206  0.79169722  0.74415069
   0.81380836  0.70768322  0.56542707
   0.57045866  0.87424053  0.78835383
   0.68850037  0.12199985  0.52130393
   0.19002129  0.28569168  0.25600881
   0.93359046  0.46326577  0.83301165
   0.06542326  0.20846889  0.69968476
   0.80858453  0.03762425  0.38905623
   0.30888541  0.21387039  0.83328785
   0.43400924  0.62607163  0.65496854
   0.31274108  0.54187158  0.61077903
   0.93874647  0.45772495  0.56542355
   0.68575619  0.79196455  0.74416285
   0.30880553  0.87564171  0.65492773
   0.68368078  0.78759698  0.38907629
   0.93593203  0.79180228  0.74416026
   0.06618605  0.20233744  0.34506067
   0.43745218  0.78055132  0.12420442
   0.44537656  0.12507912  0.78857530
   0.05504904  0.20275677  0.21191734
   0.06721384  0.36094897  0.16670385
   0.94009378  0.78535132  0.25601235
   0.56541620  0.20839220  0.69972317
   0.69073962  0.95832474  0.69973826
   0.68368024  0.28747382  0.38903403
   0.43881622  0.95771683  0.56542066
   0.82064428  0.37438127  0.78837795
   0.68997264  0.28536024  0.25605562
   0.18889164  0.45768843  0.56543419
   0.06766233  0.86119706  0.16673596
   0.18780956  0.29183980  0.61079534
   0.56631302  0.70188663  0.34491421
   0.31541710  0.20840453  0.69972456
   0.56536329  0.54175719  0.87558520
   0.06375963  0.70776668  0.56544428
   0.69520935  0.62469932  0.78853993
   0.30859473  0.53756911  0.38906877
   0.18847524  0.62196425  0.52131596
   0.56300453  0.87045911  0.43442540
   0.43879372  0.45769643  0.56544089
   0.43573146  0.29193316  0.74410680
   0.80389237  0.87219107  0.30025476
   0.81636763  0.70213646  0.34493269
   0.43356884  0.46411889  0.83317704
   0.68783783  0.95592918  0.47861495
   0.69075131  0.45840017  0.69971577
   0.56347072  0.87201493  0.52131771
   0.55881787  0.37548546  0.65493303
   0.80882717  0.87560534  0.65489255
   0.81291370  0.37049045  0.43443514
   0.81557550  0.53524914  0.25602158
   0.68343124  0.46302137  0.83308720
   0.18792394  0.78050695  0.12443004
   0.06420867  0.04277807  0.87558395
   0.30878059  0.37572577  0.65491658
   0.31636995  0.20169152  0.34492488
   0.81075778  0.54222530  0.74407497
   0.68386374  0.96354361  0.83307859
   0.55889331  0.87568504  0.65491220
   0.31381135  0.70771612  0.56544372
   0.31254747  0.53563844  0.12417072
   0.68023052  0.95291310  0.21165621
   0.31378772  0.20769545  0.56543569
   0.31082306  0.54257956  0.74425059
   0.68879312  0.95770187  0.56543217
   0.43773172  0.79181216  0.61083583
   0.69205422  0.61206504  0.16698919
   0.30383345  0.87208363  0.30033947
   0.31288174  0.70580745  0.47862588
   0.93773381  0.29183986  0.61083356
   0.42869795  0.62226277  0.30028290
   0.81646131  0.86188839  0.16699669
   0.55560112  0.20254606  0.21169620
   0.94162914  0.61336164  0.16699003
   0.94090166  0.79584985  0.87567543
   0.57074395  0.37436629  0.78836923
   0.06347448  0.37203636  0.52132164
   0.56349803  0.37200960  0.52130812
   0.67877452  0.12206573  0.30030041
   0.43286867  0.96304079  0.83318284
   0.18781205  0.95581046  0.47862170
   0.82083778  0.87444593  0.78838235
   0.31303134  0.37045273  0.43443219
   0.93770153  0.79184657  0.61089089
   0.43766168  0.29187529  0.61085522
   0.19134814  0.45179870  0.34493664
   0.43880596  0.28046614  0.12440637
   0.69006692  0.78539510  0.25604355
   0.19070466  0.95846893  0.69967774
   0.19087187  0.29587994  0.87579945
   0.18384500  0.12573343  0.65489913
   0.93391354  0.12585760  0.65492003
   0.30530697  0.20254381  0.21193205
   0.05870333  0.03742148  0.38902883
   0.44024973  0.95827471  0.69968043
   0.06275875  0.54182280  0.61082317
   0.94054950  0.28522169  0.25603581
   0.56276415  0.54178679  0.61081542
   0.93883516  0.95773773  0.56542906
   0.67880288  0.62211583  0.30027447
   0.93807733  0.62033097  0.43446589
   0.94529095  0.62494911  0.78855662
   0.56540586  0.70848486  0.69966185
   0.05893008  0.71312604  0.83327458
   0.92864008  0.12233558  0.30026794
   0.94032492  0.45841884  0.69969785
   0.44006042  0.78589245  0.25592861
   0.32082886  0.37454476  0.78838037
   0.43055993  0.45242558  0.21175544
   0.18846777  0.12194392  0.52131922
   0.81542580  0.70849972  0.69967159
   0.06264383  0.04192373  0.61085411
   0.55906296  0.21343923  0.83325574
   0.31352969  0.87200455  0.52129021
   0.68750939  0.28066109  0.12419249
   0.17970737  0.95165006  0.21205411
   0.68776934  0.29189261  0.61080835
   0.31259527  0.04189691  0.61083011
   0.94563219  0.12507519  0.78845844
   0.44131185  0.79696034  0.87569896
   0.81082826  0.04232520  0.74406488
   0.43849448  0.12197663  0.52131163
   0.18381116  0.62577645  0.65491509
   0.31535956  0.70844194  0.69965848
   0.93483417  0.27946093  0.12464697
   0.43785685  0.45590742  0.47861204
   0.06281057  0.70589631  0.47862109
   0.93808087  0.12033201  0.43442694
   0.42863219  0.12207134  0.30031273
   0.18795073  0.12059723  0.43438129
   0.56519705  0.04294449  0.87556604
   0.18880082  0.95765765  0.56544484
   0.68827413  0.78125034  0.12446429
   0.56400281  0.53349816  0.12451185
   0.30875943  0.03745382  0.38903952
   0.69261715  0.11235941  0.16727053
   0.80535376  0.20313842  0.21187749
   0.06561362  0.53543345  0.25594800
   0.56282009  0.70577822  0.47863222
   0.06385905  0.20775439  0.56542537
   0.55377635  0.37206254  0.30026792
   0.44142954  0.95190402  0.34497278
   0.18392348  0.96347872  0.83322111
   0.44169277  0.61274438  0.16685230
   0.93003111  0.45318405  0.21195369
   0.06284942  0.53434410  0.12457682
   0.81351894  0.37196176  0.52130669
   0.92871174  0.62221375  0.30028139
   0.31520588  0.03557975  0.25599063
   0.06351205  0.87197243  0.52131010
   0.18385931  0.46446695  0.83327568
   0.44189482  0.11197291  0.16669024
   0.31349497  0.37206369  0.52130423
   0.44591582  0.62476960  0.78838489
   0.06512498  0.03539743  0.25604724
   0.56376345  0.70773984  0.56543468
   0.17891046  0.62221043  0.30035089
   0.69568631  0.12487479  0.78844399
   0.18096890  0.45195309  0.21165578
   0.93369419  0.78708956  0.38905647
   0.69385163  0.29710917  0.87583135
   0.68775272  0.79183060  0.61082314
   0.44033480  0.45829207  0.69966277
   0.80888941  0.37565698  0.65491828
   0.68846740  0.62205560  0.52130486
   0.05885875  0.87568683  0.65490328
   0.07087349  0.87443720  0.78838272
   0.05884743  0.37562002  0.65492265
   0.68782283  0.45592232  0.47861432
   0.19024923  0.78584804  0.25590166
   0.43811514  0.12034459  0.43441326
   0.81105527  0.03349900  0.12443007
   0.93851340  0.62199755  0.52130609
   0.06310216  0.87058255  0.43439659
   0.81091723  0.53429493  0.12448087
   0.44154831  0.45193720  0.34501607
   0.81621712  0.20179796  0.34494550
   0.31617440  0.70177792  0.34494804
   0.68373798  0.12572172  0.65491224
   0.55372332  0.87198720  0.30032820
   0.06041959  0.54200162  0.74418542
   0.93512595  0.78034862  0.12460871
   0.80585027  0.70248281  0.21175065
   0.05422259  0.87255958  0.30014672
   0.17917111  0.12304177  0.30028693
   0.06628925  0.70173972  0.34496587
   0.81279383  0.04178402  0.61079952
   0.06301382  0.37051880  0.43442467
   0.56624658  0.20197929  0.34494387
   0.80349974  0.37204045  0.30032185
   0.43787270  0.95591916  0.47861366
   0.55855514  0.53737110  0.38905956
   0.06280286  0.20572146  0.47864744
   0.32071616  0.87457197  0.78838135
   0.94033694  0.95853894  0.69973902
   0.05373079  0.37214097  0.30031911
   0.68405969  0.62594980  0.65495062
   0.68876122  0.45774594  0.56543816
   0.43014110  0.95269855  0.21182701
   0.31278139  0.20579124  0.47861929
   0.43381645  0.12585878  0.65493730
   0.68775387  0.62041799  0.43439247
   0.81528833  0.20835612  0.69964857
   0.81278275  0.70570858  0.47862936
   0.56301701  0.37045072  0.43443873
   0.93787942  0.95585539  0.47863802
   0.56283317  0.20580138  0.47860495
   0.18809615  0.62033277  0.43442505
   0.31068701  0.04199048  0.74404196
   0.93396215  0.62590064  0.65488205
   0.55889809  0.71325315  0.83322836
   0.30387534  0.37224310  0.30026605
   0.55498073  0.70262232  0.21178444
   0.18781240  0.45580020  0.47862115
   0.31485118  0.04177880  0.87566241
   0.19020149  0.45814345  0.69965758
   0.81460639  0.54238882  0.87563634
   0.18340230  0.28767744  0.38908070
   0.43826678  0.62050955  0.43430607
   0.05555652  0.70263535  0.21196435
   0.56421603  0.03401859  0.12430498
   0.81626623  0.36250741  0.16697810
   0.80833738  0.71367687  0.83309089
   0.07093513  0.37441961  0.78841669
   0.44301471  0.29640399  0.87570243
   0.31399538  0.03424542  0.12443138
   0.68816076  0.12030965  0.43438490
   0.19139441  0.95202427  0.34499427
   0.05859119  0.21351199  0.83330081
   0.56270351  0.04188086  0.61086333
   0.68031896  0.45305578  0.21173613
   0.18609277  0.79163992  0.74417822
   0.81302766  0.87055973  0.43442382
   0.43357938  0.78759906  0.38909057
   0.44063393  0.28533879  0.25603378
   0.06433898  0.54245801  0.87565726
   0.56060129  0.04212963  0.74415558
   0.19364098  0.79690356  0.87586481
   0.93780368  0.45574915  0.47861592
   0.80870451  0.53768332  0.38904682
   0.81375477  0.20779796  0.56543923
   0.19520558  0.62483933  0.78841875
   0.93068383  0.95303277  0.21187354
   0.06530386  0.70851715  0.69967995
   0.31536326  0.53567950  0.25602533
   0.30579306  0.70242963  0.21196703
   0.56668397  0.86293971  0.16692879
   0.56075111  0.54250411  0.74406379
   0.69110433  0.45218960  0.34499196
   0.94104472  0.29681198  0.87584245
   0.56503607  0.03544920  0.25603690
   0.19276547  0.11258941  0.16612096
   0.30798507  0.71482645  0.83391919
   0.31776775  0.85893584  0.16603504
   0.93610039  0.29199698  0.74409749
   0.05825220  0.53781767  0.38893254
   0.19286778  0.61053119  0.16587167
   0.18734462  0.27875315  0.12486629
Direct configuration=     2
   0.06125547  0.03386652  0.12456507
   0.81419865  0.04214249  0.87558223
   0.19534321  0.12536717  0.78841701
   0.43387590  0.28734201  0.38897993
   0.31618435  0.36027645  0.16668033
   0.80928994  0.21251611  0.83307920
   0.18376836  0.78724836  0.38902994
   0.56373472  0.20775984  0.56546421
   0.06117421  0.04181884  0.74406121
   0.81349886  0.87209537  0.52141036
   0.18649421  0.29156300  0.74401832
   0.94091590  0.45230791  0.34479829
   0.93417164  0.28744484  0.38898507
   0.43831051  0.62209282  0.52142341
   0.18742632  0.79158077  0.61081969
   0.55908491  0.03707773  0.38897487
   0.93397227  0.96285100  0.83318168
   0.31405187  0.54382533  0.87553212
   0.68567694  0.29128800  0.74396476
   0.94091245  0.95224283  0.34480143
   0.81284906  0.20575957  0.47872009
   0.81255022  0.54201186  0.61075987
   0.31278627  0.87042667  0.43447924
   0.81525206  0.03532423  0.25600192
   0.69107300  0.95174599  0.34487901
   0.94286843  0.11439341  0.16696336
   0.93849310  0.12221708  0.52142497
   0.56430996  0.53532192  0.25592903
   0.69221739  0.79616767  0.87560856
   0.56652727  0.36245754  0.16691332
   0.43571027  0.79233365  0.74401236
   0.81362869  0.70751267  0.56554712
   0.56982533  0.87493660  0.78833349
   0.68836807  0.12224145  0.52142005
   0.18950591  0.28565781  0.25599516
   0.93415791  0.46320438  0.83303896
   0.06575166  0.20805763  0.69961129
   0.80886123  0.03718015  0.38893392
   0.30947019  0.21334396  0.83311504
   0.43411713  0.62596979  0.65499642
   0.31270679  0.54203526  0.61071496
   0.93861580  0.45768544  0.56549665
   0.68629740  0.79244680  0.74407332
   0.30885929  0.87568964  0.65505302
   0.68393165  0.78769329  0.38897235
   0.93668131  0.79222951  0.74403246
   0.06553569  0.20217491  0.34487831
   0.43778109  0.78126723  0.12422699
   0.44443338  0.12528694  0.78848939
   0.05560733  0.20270035  0.21193931
   0.06667031  0.36096198  0.16690560
   0.93997049  0.78540523  0.25598137
   0.56469814  0.20809342  0.69968184
   0.69030249  0.95861213  0.69968181
   0.68412103  0.28738030  0.38894778
   0.43886460  0.95738497  0.56542617
   0.81988111  0.37435287  0.78828892
   0.68961316  0.28530577  0.25601037
   0.18885198  0.45776372  0.56544450
   0.06705127  0.86209159  0.16686033
   0.18744938  0.29196671  0.61079049
   0.56597428  0.70222549  0.34487152
   0.31519595  0.20820230  0.69969390
   0.56466612  0.54330440  0.87547514
   0.06368639  0.70757174  0.56550661
   0.69463940  0.62515772  0.78850051
   0.30861322  0.53805934  0.38905550
   0.18852741  0.62204091  0.52138405
   0.56285156  0.87029443  0.43449613
   0.43883596  0.45788060  0.56547324
   0.43577320  0.29143163  0.74402469
   0.80478646  0.87196527  0.30035248
   0.81592397  0.70246110  0.34484617
   0.43376849  0.46377113  0.83314734
   0.68783498  0.95566085  0.47873012
   0.69024387  0.45821598  0.69962883
   0.56329629  0.87208255  0.52143362
   0.55901065  0.37527704  0.65494962
   0.80933680  0.87563867  0.65489463
   0.81328494  0.37084742  0.43458231
   0.81533302  0.53515997  0.25598324
   0.68359806  0.46307594  0.83304385
   0.18793337  0.78187536  0.12437002
   0.06437978  0.04253698  0.87551588
   0.30894725  0.37545966  0.65504123
   0.31548541  0.20171465  0.34475810
   0.81128198  0.54259850  0.74399853
   0.68409232  0.96320048  0.83312353
   0.55929097  0.87585976  0.65492512
   0.31388892  0.70751010  0.56547808
   0.31319990  0.53471329  0.12420690
   0.68070046  0.95286667  0.21178959
   0.31381767  0.20785742  0.56541425
   0.31078246  0.54233930  0.74407978
   0.68867251  0.95738336  0.56551769
   0.43795324  0.79154616  0.61075851
   0.69159118  0.61226344  0.16695122
   0.30416408  0.87190038  0.30032205
   0.31275623  0.70556456  0.47870723
   0.93751023  0.29197150  0.61080197
   0.42899338  0.62209927  0.30027887
   0.81659735  0.86235192  0.16694881
   0.55579624  0.20258589  0.21178051
   0.94147321  0.61327548  0.16703715
   0.94078115  0.79588381  0.87561362
   0.56966887  0.37398903  0.78829505
   0.06357820  0.37249965  0.52141704
   0.56327795  0.37238664  0.52141751
   0.67954500  0.12180082  0.30033896
   0.43319153  0.96291613  0.83318641
   0.18791723  0.95543568  0.47867460
   0.82039832  0.87471394  0.78829168
   0.31253588  0.37088330  0.43462107
   0.93748319  0.79162706  0.61087842
   0.43791489  0.29214554  0.61080409
   0.19052785  0.45219204  0.34477192
   0.43906188  0.28017584  0.12452196
   0.68962641  0.78533631  0.25601661
   0.19054968  0.95852872  0.69965068
   0.19100232  0.29547512  0.87567129
   0.18410286  0.12541507  0.65503837
   0.93442112  0.12557236  0.65494273
   0.30566923  0.20261648  0.21193197
   0.05904856  0.03697363  0.38894709
   0.43968581  0.95875001  0.69963583
   0.06240394  0.54194057  0.61079736
   0.94035236  0.28530410  0.25600420
   0.56300809  0.54197501  0.61070243
   0.93870727  0.95750113  0.56550868
   0.67960594  0.62191006  0.30036794
   0.93843195  0.62029514  0.43454999
   0.94496804  0.62554247  0.78843880
   0.56493402  0.70877210  0.69958096
   0.05967248  0.71331055  0.83328441
   0.92951003  0.12210819  0.30032711
   0.94062878  0.45868157  0.69960179
   0.43907105  0.78586183  0.25593636
   0.32030820  0.37391372  0.78831975
   0.43076658  0.45211720  0.21180532
   0.18854298  0.12221059  0.52139218
   0.81559197  0.70909352  0.69960760
   0.06229102  0.04169297  0.61086692
   0.55913185  0.21291088  0.83314394
   0.31349602  0.87199290  0.52137173
   0.68783691  0.28075507  0.12416659
   0.18003679  0.95160913  0.21207557
   0.68785422  0.29212956  0.61074896
   0.31253966  0.04167563  0.61085418
   0.94539269  0.12463301  0.78835811
   0.44086377  0.79680531  0.87568715
   0.81129065  0.04199558  0.74398101
   0.43838226  0.12221787  0.52141752
   0.18391723  0.62590260  0.65498947
   0.31474127  0.70856736  0.69961942
   0.93469112  0.27954080  0.12468906
   0.43759384  0.45595603  0.47874428
   0.06304705  0.70558578  0.47868018
   0.93827362  0.12043373  0.43453763
   0.42897850  0.12184932  0.30028273
   0.18776404  0.12045364  0.43451562
   0.56475960  0.04248804  0.87549328
   0.18867018  0.95736901  0.56546698
   0.68827523  0.78184258  0.12436933
   0.56429976  0.53303453  0.12453253
   0.30884913  0.03688105  0.38899008
   0.69219340  0.11295017  0.16717173
   0.80629416  0.20311302  0.21196371
   0.06531660  0.53538228  0.25595444
   0.56254618  0.70550953  0.47874033
   0.06366352  0.20779886  0.56546250
   0.55426987  0.37190445  0.30028314
   0.44075950  0.95187265  0.34489219
   0.18461665  0.96324004  0.83320244
   0.44143437  0.61286997  0.16689478
   0.93078559  0.45271423  0.21200744
   0.06216129  0.53343553  0.12455007
   0.81351300  0.37234767  0.52141866
   0.92960452  0.62208001  0.30033116
   0.31431863  0.03567944  0.25600612
   0.06355519  0.87197146  0.52137808
   0.18465878  0.46426809  0.83327173
   0.44122115  0.11241991  0.16666394
   0.31343788  0.37248796  0.52138925
   0.44525103  0.62487062  0.78837992
   0.06487131  0.03559346  0.25602383
   0.56364461  0.70752143  0.56553513
   0.17948378  0.62204226  0.30032353
   0.69480238  0.12475807  0.78834855
   0.18131528  0.45128445  0.21173240
   0.93409604  0.78698166  0.38897147
   0.69306426  0.29625049  0.87569104
   0.68776919  0.79152791  0.61075423
   0.43962243  0.45785778  0.69962335
   0.80942699  0.37555192  0.65482604
   0.68830859  0.62213595  0.52142767
   0.05923109  0.87570312  0.65498341
   0.07043022  0.87489878  0.78826525
   0.05923493  0.37548030  0.65493888
   0.68782769  0.45572534  0.47874434
   0.18971117  0.78579489  0.25594947
   0.43773812  0.12019577  0.43454059
   0.81141282  0.03326126  0.12437924
   0.93862725  0.62205904  0.52140413
   0.06326841  0.87039852  0.43450167
   0.81109040  0.53356596  0.12445347
   0.44093633  0.45231914  0.34486092
   0.81585115  0.20176769  0.34481110
   0.31539449  0.70223655  0.34485693
   0.68406654  0.12549557  0.65493702
   0.55425197  0.87178359  0.30036301
   0.06116662  0.54244492  0.74403334
   0.93536839  0.78090060  0.12462774
   0.80655591  0.70234073  0.21190929
   0.05490895  0.87231843  0.30021107
   0.17966629  0.12275489  0.30026475
   0.06565877  0.70213017  0.34486463
   0.81273784  0.04160032  0.61079066
   0.06302309  0.37103612  0.43455884
   0.56595762  0.20194460  0.34481732
   0.80440149  0.37189489  0.30035948
   0.43760119  0.95549363  0.47873288
   0.55891938  0.53796902  0.38898414
   0.06299165  0.20575364  0.47872092
   0.31994405  0.87550315  0.78832039
   0.94045220  0.95839174  0.69969817
   0.05455277  0.37199333  0.30031124
   0.68459795  0.62614213  0.65485402
   0.68859737  0.45780434  0.56554203
   0.43047007  0.95274396  0.21189067
   0.31264272  0.20583777  0.47873499
   0.43401772  0.12570300  0.65507899
   0.68796444  0.62064028  0.43450161
   0.81501387  0.20787874  0.69957614
   0.81296855  0.70548391  0.47873042
   0.56297932  0.37081871  0.43459774
   0.93805817  0.95551588  0.47871606
   0.56278866  0.20577983  0.47877206
   0.18781851  0.62047846  0.43455531
   0.31083548  0.04221910  0.74395296
   0.93445161  0.62621215  0.65485052
   0.55924228  0.71346928  0.83327299
   0.30424349  0.37208334  0.30019819
   0.55537331  0.70253020  0.21187540
   0.18788509  0.45584430  0.47870968
   0.31481846  0.04152792  0.87555875
   0.19026335  0.45810899  0.69961252
   0.81456163  0.54380853  0.87555313
   0.18348007  0.28764287  0.38905733
   0.43780951  0.62081579  0.43446661
   0.05592101  0.70275648  0.21201984
   0.56413136  0.03348996  0.12434462
   0.81640827  0.36254841  0.16698423
   0.80865054  0.71390440  0.83313225
   0.07097173  0.37431664  0.78831009
   0.44229679  0.29583832  0.87556123
   0.31428782  0.03347187  0.12430554
   0.68832057  0.12033254  0.43450618
   0.19051732  0.95213007  0.34488423
   0.05934026  0.21300812  0.83324739
   0.56293675  0.04168928  0.61083455
   0.68094287  0.45270875  0.21183119
   0.18623270  0.79212374  0.74401355
   0.81315647  0.87043290  0.43450200
   0.43387536  0.78765431  0.38905263
   0.43951059  0.28538564  0.25600259
   0.06480332  0.54358484  0.87558257
   0.56066219  0.04231476  0.74406144
   0.19356167  0.79663699  0.87585503
   0.93800466  0.45570348  0.47869154
   0.80916433  0.53807224  0.38898761
   0.81364787  0.20782498  0.56551337
   0.19477777  0.62515379  0.78834885
   0.93158311  0.95302789  0.21194516
   0.06533996  0.70896040  0.69964901
   0.31444190  0.53551820  0.25604404
   0.30621768  0.70227508  0.21204200
   0.56603436  0.86325574  0.16688194
   0.56085187  0.54217108  0.74397980
   0.69083424  0.45246762  0.34486952
   0.94129215  0.29617803  0.87573824
   0.56430213  0.03555392  0.25600456
   0.19234131  0.11272132  0.16644527
   0.30849489  0.71490955  0.83398574
   0.31768647  0.86021092  0.16619647
   0.93666699  0.29139656  0.74399302
   0.05854729  0.53833117  0.38893898
   0.19231248  0.61004890  0.16618291
   0.18751959  0.27924522  0.12475873
Direct configuration=     3
   0.06123185  0.03365770  0.12456890
   0.81416196  0.04201940  0.87556425
   0.19532847  0.12537027  0.78839737
   0.43392148  0.28731527  0.38896776
   0.31614546  0.36033680  0.16673017
   0.80940039  0.21239927  0.83306395
   0.18381657  0.78723069  0.38902021
   0.56372494  0.20777779  0.56547184
   0.06134655  0.04173364  0.74403802
   0.81349570  0.87212001  0.52143422
   0.18667070  0.29149041  0.74399622
   0.94081080  0.45238562  0.34476968
   0.93424680  0.28745469  0.38897319
   0.43826864  0.62211068  0.52144501
   0.18736122  0.79151965  0.61081628
   0.55917125  0.03694890  0.38895669
   0.93409472  0.96277906  0.83318393
   0.31401102  0.54411503  0.87552937
   0.68567456  0.29116537  0.74394700
   0.94081586  0.95226743  0.34477864
   0.81285975  0.20576034  0.47873895
   0.81252379  0.54203798  0.61074432
   0.31270965  0.87037346  0.43450423
   0.81519636  0.03535243  0.25599337
   0.69101997  0.95174246  0.34486765
   0.94283237  0.11444849  0.16696834
   0.93848955  0.12226938  0.52144805
   0.56414113  0.53531693  0.25591698
   0.69207231  0.79616738  0.87560232
   0.56635583  0.36246476  0.16691231
   0.43567955  0.79247150  0.74398240
   0.81358978  0.70747573  0.56557312
   0.56968816  0.87508737  0.78832908
   0.68833942  0.12229378  0.52144521
   0.18939428  0.28565047  0.25599221
   0.93428082  0.46319109  0.83304487
   0.06582279  0.20796855  0.69959538
   0.80892117  0.03708396  0.38890743
   0.30959685  0.21322993  0.83307761
   0.43414050  0.62594773  0.65500246
   0.31269936  0.54207072  0.61070108
   0.93858750  0.45767688  0.56551249
   0.68641463  0.79255126  0.74405392
   0.30887093  0.87570003  0.65508016
   0.68398599  0.78771415  0.38894984
   0.93684360  0.79232205  0.74400478
   0.06539483  0.20213971  0.34483882
   0.43785233  0.78142229  0.12423187
   0.44422909  0.12533195  0.78847078
   0.05572826  0.20268813  0.21194406
   0.06655258  0.36096479  0.16694929
   0.93994378  0.78541690  0.25597466
   0.56454260  0.20802870  0.69967289
   0.69020781  0.95867438  0.69966958
   0.68421650  0.28736004  0.38892910
   0.43887508  0.95731309  0.56542736
   0.81971581  0.37434673  0.78826964
   0.68953530  0.28529397  0.25600057
   0.18884339  0.45778003  0.56544674
   0.06691892  0.86228535  0.16688726
   0.18737136  0.29199420  0.61078944
   0.56590091  0.70229888  0.34486227
   0.31514805  0.20815850  0.69968726
   0.56451511  0.54363952  0.87545130
   0.06367052  0.70752952  0.56552011
   0.69451595  0.62525701  0.78849197
   0.30861722  0.53816552  0.38905263
   0.18853871  0.62205751  0.52139880
   0.56281843  0.87025876  0.43451145
   0.43884511  0.45792049  0.56548025
   0.43578224  0.29132300  0.74400691
   0.80498012  0.87191637  0.30037365
   0.81582787  0.70253141  0.34482743
   0.43381173  0.46369580  0.83314091
   0.68783436  0.95560273  0.47875506
   0.69013396  0.45817608  0.69961000
   0.56325851  0.87209720  0.52145873
   0.55905241  0.37523190  0.65495321
   0.80944719  0.87564589  0.65489508
   0.81336535  0.37092474  0.43461419
   0.81528049  0.53514065  0.25597494
   0.68363419  0.46308775  0.83303446
   0.18793541  0.78217176  0.12435701
   0.06441684  0.04248476  0.87550113
   0.30898335  0.37540202  0.65506823
   0.31529382  0.20171966  0.34472197
   0.81139553  0.54267934  0.74398197
   0.68414183  0.96312615  0.83313326
   0.55937710  0.87589760  0.65492792
   0.31390572  0.70746547  0.56548552
   0.31334121  0.53451290  0.12421473
   0.68080225  0.95285661  0.21181848
   0.31382416  0.20789251  0.56540961
   0.31077366  0.54228726  0.74404278
   0.68864638  0.95731437  0.56553621
   0.43800122  0.79148854  0.61074176
   0.69149089  0.61230642  0.16694300
   0.30423570  0.87186069  0.30031827
   0.31272904  0.70551195  0.47872485
   0.93746181  0.29200001  0.61079513
   0.42905737  0.62206386  0.30027799
   0.81662681  0.86245232  0.16693844
   0.55583850  0.20259452  0.21179877
   0.94143943  0.61325682  0.16704736
   0.94075505  0.79589116  0.87560023
   0.56943601  0.37390731  0.78827898
   0.06360067  0.37260000  0.52143770
   0.56323028  0.37246831  0.52144121
   0.67971189  0.12174344  0.30034731
   0.43326146  0.96288913  0.83318719
   0.18794002  0.95535450  0.47868606
   0.82030313  0.87477199  0.78827204
   0.31242856  0.37097656  0.43466198
   0.93743590  0.79157952  0.61087572
   0.43796974  0.29220407  0.61079301
   0.19035017  0.45227724  0.34473624
   0.43911731  0.28011297  0.12454700
   0.68953100  0.78532357  0.25601078
   0.19051611  0.95854167  0.69964482
   0.19103058  0.29538743  0.87564353
   0.18415872  0.12534612  0.65506853
   0.93453106  0.12551058  0.65494764
   0.30574769  0.20263222  0.21193196
   0.05912333  0.03687663  0.38892939
   0.43956367  0.95885296  0.69962617
   0.06232709  0.54196608  0.61079177
   0.94030966  0.28532195  0.25599735
   0.56306092  0.54201578  0.61067796
   0.93867957  0.95744988  0.56552593
   0.67977988  0.62186549  0.30038818
   0.93850877  0.62028738  0.43456820
   0.94489810  0.62567100  0.78841327
   0.56483182  0.70883432  0.69956344
   0.05983329  0.71335051  0.83328654
   0.92969846  0.12205894  0.30033992
   0.94069460  0.45873848  0.69958099
   0.43885675  0.78585520  0.25593804
   0.32019543  0.37377703  0.78830662
   0.43081133  0.45205040  0.21181613
   0.18855927  0.12226835  0.52140798
   0.81562796  0.70922213  0.69959374
   0.06221460  0.04164299  0.61086969
   0.55914677  0.21279644  0.83311973
   0.31348872  0.87199038  0.52138938
   0.68790785  0.28077543  0.12416098
   0.18010815  0.95160027  0.21208021
   0.68787261  0.29218088  0.61073610
   0.31252761  0.04162770  0.61085939
   0.94534081  0.12453724  0.78833638
   0.44076672  0.79677173  0.87568459
   0.81139080  0.04192418  0.74396285
   0.43835795  0.12227012  0.52144046
   0.18394020  0.62592993  0.65500558
   0.31460735  0.70859452  0.69961096
   0.93466013  0.27955810  0.12469817
   0.43753687  0.45596656  0.47877293
   0.06309827  0.70551852  0.47869298
   0.93831537  0.12045576  0.43456160
   0.42905351  0.12180123  0.30027624
   0.18772361  0.12042254  0.43454471
   0.56466485  0.04238917  0.87547753
   0.18864188  0.95730650  0.56547177
   0.68827547  0.78197086  0.12434877
   0.56436408  0.53293410  0.12453700
   0.30886856  0.03675699  0.38897938
   0.69210162  0.11307813  0.16715033
   0.80649786  0.20310752  0.21198238
   0.06525227  0.53537120  0.25595584
   0.56248686  0.70545133  0.47876375
   0.06362117  0.20780850  0.56547054
   0.55437676  0.37187021  0.30028643
   0.44061437  0.95186586  0.34487473
   0.18476679  0.96318835  0.83319839
   0.44137841  0.61289717  0.16690398
   0.93094901  0.45261247  0.21201908
   0.06201224  0.53323873  0.12454428
   0.81351172  0.37243126  0.52144291
   0.92979790  0.62205104  0.30034195
   0.31412646  0.03570103  0.25600948
   0.06356454  0.87197125  0.52139281
   0.18483195  0.46422501  0.83327088
   0.44107524  0.11251673  0.16665825
   0.31342551  0.37257986  0.52140766
   0.44510704  0.62489251  0.78837884
   0.06481637  0.03563592  0.25601876
   0.56361887  0.70747412  0.56555689
   0.17960796  0.62200584  0.30031760
   0.69461092  0.12473278  0.78832788
   0.18139031  0.45113962  0.21174900
   0.93418308  0.78695829  0.38895306
   0.69289372  0.29606451  0.87566065
   0.68777275  0.79146235  0.61073930
   0.43946813  0.45776372  0.69961481
   0.80954343  0.37552916  0.65480606
   0.68827420  0.62215335  0.52145427
   0.05931174  0.87570665  0.65500076
   0.07033421  0.87499876  0.78823980
   0.05931886  0.37545004  0.65494239
   0.68782874  0.45568267  0.47877250
   0.18959462  0.78578338  0.25595983
   0.43765646  0.12016353  0.43456816
   0.81149026  0.03320977  0.12436823
   0.93865191  0.62207236  0.52142536
   0.06330442  0.87035865  0.43452443
   0.81112791  0.53340807  0.12444753
   0.44080377  0.45240187  0.34482731