<?xml version="1.0" encoding="ISO-8859-1"?>
<modeling>
 <generator>
  <i name="program" type="string">vasp </i>
  <i name="version" type="string">5.4.4.18Apr17-6-g9f103f2a35  </i>
  <i name="subversion" type="string">(build Sep 27 2018 12:46:37) complex + VL-xray_ parallel </i>
  <i name="platform" type="string">LLNL_Quartz_ifc </i>
  <i name="date" type="string">2021 09 27 </i>
  <i name="time" type="string">00:18:54 </i>
 </generator>
 <incar>
  <i type="int" name="ISTART">     2</i>
  <i type="string" name="PREC">accurate</i>
  <i type="string" name="ALGO"> Fast</i>
  <i type="int" name="ICHARG">     2</i>
  <i type="int" name="INIWAV">     1</i>
  <i type="int" name="NELM">   100</i>
  <i type="int" name="NELMIN">     4</i>
  <i type="int" name="IBRION">     2</i>
  <i name="EDIFF">      0.00000100</i>
  <i type="int" name="NSW">     5</i>
  <i type="int" name="ISIF">     2</i>
  <i type="int" name="ISYM">     2</i>
  <i name="ENCUT">    450.00000000</i>
  <i name="POTIM">      0.25000000</i>
  <i type="string" name="LREAL"> Auto</i>
  <i type="int" name="ISMEAR">     0</i>
  <i name="SIGMA">      0.15000000</i>
  <i type="logical" name="LWAVE"> F  </i>
  <i type="logical" name="LCHARG"> F  </i>
  <i type="int" name="ICORELEVEL">     0</i>
  <i type="int" name="CLNT">     1</i>
  <i type="int" name="CLN">     1</i>
  <i type="int" name="INCAR     ">     0</i>
  <i name="CLZ">      0.00000000</i>
  <v type="int" name="KPOINT_BSE">    -1     0     0     0</v>
  <i type="int" name="NELM">   100</i>
 </incar>
 <structure name="primitive_cell" >
  <crystal>
   <varray name="basis" >
    <v>       9.72667804       0.00000000       0.00000000 </v>
    <v>       0.00000000       8.42355028       0.00000000 </v>
    <v>       0.00000000       0.00000000      45.00000000 </v>
   </varray>
   <i name="volume">   3686.99226691 </i>
   <varray name="rec_basis" >
    <v>       0.10281002       0.00000000       0.00000000 </v>
    <v>       0.00000000       0.11871479       0.00000000 </v>
    <v>       0.00000000       0.00000000       0.02222222 </v>
   </varray>
  </crystal>
  <varray name="positions" >
   <v>       0.06178862       0.02950565       0.12409830 </v>
   <v>       0.18333656       0.11236672       0.16650479 </v>
   <v>       0.05603742      -0.13441086       0.16663214 </v>
   <v>       0.18598115      -0.21157076       0.12407249 </v>
   <v>      -0.06594073      -0.21129927       0.12442774 </v>
   <v>      -0.18633035       0.03107982       0.12406415 </v>
   <v>      -0.06903916       0.11458357       0.16688432 </v>
   <v>       0.31137909       0.03070739       0.12411241 </v>
   <v>       0.18503880       0.28683290       0.12417105 </v>
   <v>      -0.06572329       0.28708889       0.12403094 </v>
   <v>       0.30606359      -0.13506190       0.16580322 </v>
   <v>       0.05540313       0.36556370       0.16668252 </v>
   <v>      -0.19267464      -0.13646965       0.16681156 </v>
   <v>       0.43280488       0.11199731       0.16655392 </v>
   <v>      -0.05987374      -0.04596541       0.21125163 </v>
   <v>       0.18212035      -0.38649143       0.16663475 </v>
   <v>       0.30724625       0.36446258       0.16664033 </v>
   <v>       0.43506829      -0.21262889       0.12412001 </v>
   <v>       0.18987614      -0.04510113       0.21172303 </v>
   <v>       0.06496977       0.20435358       0.21116527 </v>
   <v>      -0.06740864      -0.38703203       0.16674070 </v>
   <v>      -0.31545101      -0.21210593       0.12441498 </v>
   <v>       0.06176827      -0.47021026       0.12405263 </v>
   <v>      -0.19468283       0.36589797       0.16604801 </v>
   <v>      -0.31759348       0.11407194       0.16691816 </v>
   <v>       0.43490259       0.28689326       0.12415416 </v>
   <v>      -0.31394372       0.28699119       0.12397201 </v>
   <v>       0.06711517      -0.29531604       0.21129334 </v>
   <v>      -0.18457968       0.20399502       0.21115572 </v>
   <v>      -0.18658190      -0.47057916       0.12402910 </v>
   <v>      -0.43746634       0.03236994       0.12437043 </v>
   <v>       0.31243247      -0.46975797       0.12402580 </v>
   <v>       0.31575909       0.20577220       0.21125985 </v>
   <v>      -0.18418399      -0.29610287       0.21140105 </v>
   <v>      -0.44337985      -0.13707156       0.16632379 </v>
   <v>       0.43167761      -0.38671870       0.16625071 </v>
   <v>      -0.31071809      -0.04523491       0.21173211 </v>
   <v>       0.31442716      -0.29608588       0.21224168 </v>
   <v>      -0.31741175      -0.38771542       0.16640611 </v>
   <v>       0.44027058      -0.04436193       0.21207574 </v>
   <v>       0.18977818       0.45346617       0.21120375 </v>
   <v>      -0.06024457       0.45380487       0.21169883 </v>
   <v>      -0.44357581       0.36558917       0.16659343 </v>
   <v>       0.05889670       0.03735813       0.25572954 </v>
   <v>       0.18371372      -0.21221215       0.25556140 </v>
   <v>      -0.06653931      -0.21233121       0.25558630 </v>
   <v>       0.30956733       0.03782860       0.25547921 </v>
   <v>      -0.43373632       0.20320578       0.21150832 </v>
   <v>      -0.19012210       0.03833968       0.25596667 </v>
   <v>      -0.43735881      -0.47099586       0.12453521 </v>
   <v>       0.18404940       0.28815461       0.25592510 </v>
   <v>      -0.06579952       0.28823776       0.25590387 </v>
   <v>      -0.31099750       0.45400501       0.21176568 </v>
   <v>       0.43968966       0.45376828       0.21138980 </v>
   <v>      -0.43302141      -0.29565292       0.21195479 </v>
   <v>       0.05953399      -0.46225297       0.25569758 </v>
   <v>       0.43343952      -0.21215372       0.25569554 </v>
   <v>      -0.31645761      -0.21177832       0.25583557 </v>
   <v>       0.43365212       0.28825005       0.25581767 </v>
   <v>      -0.31568366       0.28803099       0.25606716 </v>
   <v>       0.30874755      -0.46211717       0.25559634 </v>
   <v>      -0.19113639      -0.46219688       0.25600612 </v>
   <v>      -0.44002014       0.03791869       0.25548472 </v>
   <v>      -0.05505644       0.12253698       0.30000243 </v>
   <v>       0.06962024      -0.12644411       0.30025615 </v>
   <v>       0.19452053       0.12325000       0.30021223 </v>
   <v>      -0.17920827      -0.12608126       0.30020213 </v>
   <v>       0.31916483      -0.12647093       0.30002646 </v>
   <v>       0.06932115       0.37446887       0.30005521 </v>
   <v>      -0.44186930      -0.46216346       0.25557692 </v>
   <v>      -0.05552662      -0.37632269       0.29985211 </v>
   <v>      -0.30493212       0.12345647       0.30030249 </v>
   <v>       0.19469864      -0.37690653       0.30024918 </v>
   <v>      -0.18043943       0.37359039       0.30002415 </v>
   <v>       0.32011106       0.37221487       0.30010718 </v>
   <v>       0.44394974       0.12352920       0.30044216 </v>
   <v>      -0.30535518      -0.37590053       0.30003950 </v>
   <v>      -0.42991731      -0.12657386       0.30028903 </v>
   <v>       0.44576673      -0.37640804       0.30016683 </v>
   <v>      -0.43055654       0.37209660       0.30017048 </v>
   <v>       0.18371046      -0.04769068       0.34491625 </v>
   <v>      -0.06606364      -0.04855972       0.34476688 </v>
   <v>       0.05898597       0.20333980       0.34489569 </v>
   <v>       0.05860229      -0.29777444       0.34490992 </v>
   <v>       0.30899181       0.20274026       0.34462536 </v>
   <v>      -0.19091931       0.20272033       0.34496951 </v>
   <v>       0.30914263      -0.29780619       0.34478097 </v>
   <v>       0.43363656      -0.04746456       0.34491201 </v>
   <v>      -0.19142561      -0.29732040       0.34491186 </v>
   <v>      -0.31683341      -0.04841414       0.34466828 </v>
   <v>       0.18358928       0.45238739       0.34493140 </v>
   <v>      -0.06633455       0.45237411       0.34481967 </v>
   <v>      -0.44098903       0.20281070       0.34472283 </v>
   <v>       0.06579039       0.03792619      -0.12383789 </v>
   <v>       0.43375757       0.45254351       0.34499785 </v>
   <v>      -0.31635483       0.45238981       0.34497301 </v>
   <v>      -0.44080024      -0.29738666       0.34490327 </v>
   <v>       0.18860704      -0.20424086      -0.12390727 </v>
   <v>      -0.06210042      -0.20473230      -0.12416513 </v>
   <v>      -0.18803454       0.04048451      -0.12400464 </v>
   <v>       0.31563530       0.04004185      -0.12403022 </v>
   <v>       0.18896231       0.29646415      -0.12374527 </v>
   <v>      -0.06428728       0.29798705      -0.12424470 </v>
   <v>       0.43643810      -0.20329580      -0.12378747 </v>
   <v>       0.06474134      -0.46034514      -0.12388815 </v>
   <v>      -0.31521440      -0.20311296      -0.12410684 </v>
   <v>       0.06650367       0.03813896       0.38910499 </v>
   <v>       0.43730444       0.29781673      -0.12349976 </v>
   <v>      -0.31470000       0.29892686      -0.12380680 </v>
   <v>       0.31494193      -0.45971741      -0.12369869 </v>
   <v>      -0.05866087      -0.21235751       0.38878184 </v>
   <v>       0.19317023      -0.21261934       0.38872061 </v>
   <v>      -0.18774961      -0.46055173      -0.12409827 </v>
   <v>      -0.18200384       0.03948753       0.38912790 </v>
   <v>      -0.05897055       0.28663890       0.38888069 </v>
   <v>       0.31639824       0.03716245       0.38882292 </v>
   <v>      -0.43747188       0.04067942      -0.12399321 </v>
   <v>       0.19107354       0.28755321       0.38884859 </v>
   <v>      -0.30835764      -0.21200084       0.38891399 </v>
   <v>       0.06727230      -0.46184164       0.38906578 </v>
   <v>      -0.30844292       0.28725365       0.38893387 </v>
   <v>       0.44140469      -0.21228451       0.38908460 </v>
   <v>       0.44151761       0.28757026       0.38908269 </v>
   <v>      -0.18373645      -0.46231069       0.38885452 </v>
   <v>      -0.43783082      -0.45931349      -0.12395994 </v>
   <v>       0.31600213      -0.46165120       0.38888905 </v>
   <v>      -0.43348476       0.03794780       0.38899796 </v>
   <v>      -0.05737033      -0.03485130      -0.16514117 </v>
   <v>       0.06605415       0.21552239      -0.16562787 </v>
   <v>       0.19097639      -0.03735315      -0.16627427 </v>
   <v>       0.06513446      -0.28272881      -0.16594132 </v>
   <v>      -0.18248466       0.21491311      -0.16611778 </v>
   <v>       0.31658943       0.21302061      -0.16644545 </v>
   <v>      -0.43359277      -0.46207881       0.38907084 </v>
   <v>      -0.18328987      -0.28477036      -0.16650899 </v>
   <v>      -0.30836796      -0.03780511      -0.16640047 </v>
   <v>       0.31741412      -0.28724852      -0.16682239 </v>
   <v>      -0.05786838       0.46401074      -0.16587390 </v>
   <v>       0.44266271      -0.03681260      -0.16666954 </v>
   <v>       0.19187913       0.46281355      -0.16648098 </v>
   <v>       0.18737134       0.12054483       0.43416352 </v>
   <v>       0.06166413      -0.12873419       0.43442713 </v>
   <v>      -0.43379571       0.21360294      -0.16666183 </v>
   <v>      -0.06337631       0.11954004       0.43428627 </v>
   <v>      -0.30823159       0.46209789      -0.16667440 </v>
   <v>       0.44184265       0.46264419      -0.16653595 </v>
   <v>      -0.43418339      -0.28669986      -0.16679243 </v>
   <v>      -0.18834390      -0.12942851       0.43426839 </v>
   <v>       0.31161386      -0.12965040       0.43430553 </v>
   <v>       0.06308049       0.37089406       0.43431348 </v>
   <v>       0.18682049      -0.37999143       0.43428647 </v>
   <v>      -0.06289287      -0.37937376       0.43442670 </v>
   <v>      -0.31231441       0.12000913       0.43421628 </v>
   <v>       0.43694958       0.12075775       0.43429660 </v>
   <v>      -0.18846405       0.37158527       0.43417855 </v>
   <v>       0.31282884       0.37062353       0.43437121 </v>
   <v>       0.43640223      -0.37899654       0.43424813 </v>
   <v>      -0.31219154      -0.37955055       0.43442184 </v>
   <v>      -0.43815419      -0.12951523       0.43422444 </v>
   <v>      -0.43839855       0.37071144       0.43418795 </v>
   <v>       0.06078167      -0.12564917      -0.21146918 </v>
   <v>       0.18421947       0.12324138      -0.21126221 </v>
   <v>      -0.06517651       0.12406170      -0.21123302 </v>
   <v>       0.31074446      -0.12729486      -0.21140802 </v>
   <v>      -0.19043351      -0.12623054      -0.21153653 </v>
   <v>       0.05908834       0.37497056      -0.21132184 </v>
   <v>       0.18506654      -0.37745722      -0.21137129 </v>
   <v>      -0.06646947      -0.37517460      -0.21142105 </v>
   <v>       0.43471005       0.12247181      -0.21103078 </v>
   <v>       0.30930904       0.37399911      -0.21118574 </v>
   <v>      -0.31585120       0.12252648      -0.21148341 </v>
   <v>      -0.19049432       0.37516677      -0.21127904 </v>
   <v>       0.43378178      -0.37729382      -0.21097454 </v>
   <v>      -0.31665680      -0.37664716      -0.21127104 </v>
   <v>      -0.43955516      -0.12672132      -0.21130365 </v>
   <v>      -0.06314969      -0.04482177       0.47842462 </v>
   <v>       0.18730568      -0.04429358       0.47853177 </v>
   <v>       0.06234118       0.20545124       0.47839358 </v>
   <v>      -0.44070982       0.37328986      -0.21120256 </v>
   <v>       0.06206593      -0.29435309       0.47830081 </v>
   <v>      -0.18774061       0.20566945       0.47846065 </v>
   <v>       0.31237641       0.20558468       0.47860728 </v>
   <v>      -0.18792692      -0.29447997       0.47847745 </v>
   <v>       0.31198309      -0.29455348       0.47848864 </v>
   <v>       0.43709735      -0.04457911       0.47848810 </v>
   <v>      -0.31288340      -0.04461630       0.47853857 </v>
   <v>      -0.06275398       0.45508881       0.47842352 </v>
   <v>       0.18720884       0.45541975       0.47852751 </v>
   <v>      -0.43790872       0.20535894       0.47849014 </v>
   <v>      -0.31321081       0.45530554       0.47841448 </v>
   <v>       0.43727223       0.45582699       0.47837478 </v>
   <v>      -0.43792135      -0.29456611       0.47843819 </v>
   <v>       0.06514586       0.03983154      -0.25572814 </v>
   <v>      -0.06022105      -0.20964317      -0.25539006 </v>
   <v>       0.18922152      -0.20869018      -0.25547946 </v>
   <v>      -0.18451149       0.04048592      -0.25553409 </v>
   <v>      -0.06063988       0.29032651      -0.25553337 </v>
   <v>       0.31463979       0.04153167      -0.25572953 </v>
   <v>       0.19015643       0.29066763      -0.25552817 </v>
   <v>       0.06456367      -0.46015778      -0.25560057 </v>
   <v>      -0.31021071      -0.20820637      -0.25561715 </v>
   <v>       0.43928646      -0.20801671      -0.25554500 </v>
   <v>      -0.30969784       0.29124644      -0.25556382 </v>
   <v>       0.43972264       0.29185939      -0.25571647 </v>
   <v>      -0.18452099      -0.46005339      -0.25567669 </v>
   <v>       0.31445821      -0.45896548      -0.25565201 </v>
   <v>      -0.43451241       0.04091924      -0.25562873 </v>
   <v>       0.06150464      -0.12887725      -0.47872601 </v>
   <v>      -0.06343824       0.12142810      -0.47871677 </v>
   <v>       0.18652399       0.12158252      -0.47868295 </v>
   <v>      -0.18853930      -0.12897249      -0.47872700 </v>
   <v>       0.31179547      -0.12850341      -0.47870312 </v>
   <v>       0.06167394       0.37134515      -0.47878016 </v>
   <v>      -0.43480695      -0.45853409      -0.25586022 </v>
   <v>       0.18644096      -0.37875226      -0.47871017 </v>
   <v>      -0.06348055      -0.37859443      -0.47871194 </v>
   <v>      -0.31301243       0.12134607      -0.47869716 </v>
   <v>       0.43663150       0.12122299      -0.47867178 </v>
   <v>      -0.18849493       0.37119136      -0.47872866 </v>
   <v>       0.31149262       0.37156480      -0.47868792 </v>
   <v>       0.43650381      -0.37860238      -0.47878343 </v>
   <v>      -0.31351031      -0.37895862      -0.47875328 </v>
   <v>      -0.43816843      -0.12833680      -0.47866543 </v>
   <v>      -0.43831208       0.37142723      -0.47868491 </v>
   <v>       0.18555360      -0.04259722      -0.30017445 </v>
   <v>      -0.06446497      -0.04221535      -0.30034018 </v>
   <v>       0.06070622       0.20746707      -0.30023433 </v>
   <v>       0.06099368      -0.29289220      -0.30026918 </v>
   <v>       0.31071719       0.20717286      -0.30008419 </v>
   <v>      -0.18902879       0.20738225      -0.30014865 </v>
   <v>       0.31079224      -0.29299543      -0.30020727 </v>
   <v>      -0.18909925      -0.29244450      -0.30022486 </v>
   <v>       0.43549267      -0.04241873      -0.30026929 </v>
   <v>      -0.31433212      -0.04268897      -0.30022803 </v>
   <v>       0.18574665       0.45768860      -0.30017383 </v>
   <v>      -0.06414347       0.45781502      -0.30025358 </v>
   <v>      -0.43954110       0.20711898      -0.30015849 </v>
   <v>      -0.31483006       0.45758567      -0.30015358 </v>
   <v>       0.43587347       0.45748082      -0.30026321 </v>
   <v>      -0.43922766      -0.29258600      -0.30024179 </v>
   <v>       0.18729335      -0.04296349      -0.43458668 </v>
   <v>      -0.06347897      -0.04293264      -0.43443394 </v>
   <v>       0.06205928       0.20749786      -0.43460150 </v>
   <v>       0.06218513      -0.29311158      -0.43450297 </v>
   <v>      -0.18837419       0.20748827      -0.43454716 </v>
   <v>       0.31178292       0.20680702      -0.43450691 </v>
   <v>       0.31141962      -0.29263403      -0.43460132 </v>
   <v>      -0.18847115      -0.29310506      -0.43453458 </v>
   <v>       0.43704916      -0.04256251      -0.43462924 </v>
   <v>      -0.31296890      -0.04302345      -0.43453632 </v>
   <v>       0.18716786       0.45711550      -0.43453952 </v>
   <v>      -0.06339528       0.45680920      -0.43449558 </v>
   <v>      -0.43795771       0.20704580      -0.43449550 </v>
   <v>      -0.31315074       0.45740708      -0.43460665 </v>
   <v>       0.43687518       0.45693242      -0.43447092 </v>
   <v>      -0.43759429      -0.29285005      -0.43445729 </v>
   <v>       0.06615395      -0.12541008      -0.34503965 </v>
   <v>      -0.05864867       0.12470136      -0.34500049 </v>
   <v>       0.19113580       0.12520466      -0.34497205 </v>
   <v>      -0.18376779      -0.12538652      -0.34502451 </v>
   <v>       0.31625430      -0.12534662      -0.34496974 </v>
   <v>       0.06603290       0.37411172      -0.34505179 </v>
   <v>      -0.05892391      -0.37501194      -0.34495712 </v>
   <v>       0.19108848      -0.37511501      -0.34491908 </v>
   <v>      -0.30877783       0.12489463      -0.34505720 </v>
   <v>      -0.18365940       0.37472664      -0.34507329 </v>
   <v>       0.44115872       0.12453943      -0.34508240 </v>
   <v>       0.31608918       0.37461058      -0.34503084 </v>
   <v>      -0.30876269      -0.37521764      -0.34481680 </v>
   <v>      -0.43383855      -0.12534198      -0.34497668 </v>
   <v>       0.44117356      -0.37479804      -0.34499854 </v>
   <v>      -0.43386720       0.37469430      -0.34494118 </v>
   <v>       0.05908321       0.03858943      -0.38917706 </v>
   <v>       0.18405126      -0.21155645      -0.38916571 </v>
   <v>      -0.06594829      -0.21154144      -0.38918314 </v>
   <v>       0.30889220       0.03835803      -0.38899266 </v>
   <v>      -0.19101060       0.03865312      -0.38908197 </v>
   <v>       0.18418546       0.28870018      -0.38909669 </v>
   <v>      -0.06596820       0.28871654      -0.38900585 </v>
   <v>       0.05895941      -0.46159743      -0.38911713 </v>
   <v>       0.43403099      -0.21133696      -0.38913408 </v>
   <v>      -0.31608433      -0.21141775      -0.38920088 </v>
   <v>       0.43396380       0.28862286      -0.38913470 </v>
   <v>      -0.31592836       0.28885694      -0.38903318 </v>
   <v>       0.30917608      -0.46156246      -0.38915742 </v>
   <v>      -0.19078205      -0.46082578      -0.38901795 </v>
   <v>      -0.44083621       0.03902642      -0.38898442 </v>
   <v>      -0.44099578      -0.46132646      -0.38903974 </v>
  </varray>
 </structure>
 <varray name="primitive_index" >
  <v type="int" >        1 </v>
  <v type="int" >      125 </v>
  <v type="int" >       60 </v>
  <v type="int" >       83 </v>
  <v type="int" >       44 </v>
  <v type="int" >      202 </v>
  <v type="int" >       26 </v>
  <v type="int" >      256 </v>
  <v type="int" >      111 </v>
  <v type="int" >      155 </v>
  <v type="int" >      277 </v>
  <v type="int" >       51 </v>
  <v type="int" >      102 </v>
  <v type="int" >      182 </v>
  <v type="int" >      212 </v>
  <v type="int" >       20 </v>
  <v type="int" >      108 </v>
  <v type="int" >      170 </v>
  <v type="int" >      146 </v>
  <v type="int" >       50 </v>
  <v type="int" >      104 </v>
  <v type="int" >      163 </v>
  <v type="int" >      176 </v>
  <v type="int" >      284 </v>
  <v type="int" >      166 </v>
  <v type="int" >      117 </v>
  <v type="int" >      145 </v>
  <v type="int" >      250 </v>
  <v type="int" >      167 </v>
  <v type="int" >      205 </v>
  <v type="int" >      114 </v>
  <v type="int" >       91 </v>
  <v type="int" >      249 </v>
  <v type="int" >      213 </v>
  <v type="int" >      192 </v>
  <v type="int" >      174 </v>
  <v type="int" >       92 </v>
  <v type="int" >      276 </v>
  <v type="int" >       97 </v>
  <v type="int" >      229 </v>
  <v type="int" >      189 </v>
  <v type="int" >      175 </v>
  <v type="int" >       30 </v>
  <v type="int" >      185 </v>
  <v type="int" >      200 </v>
  <v type="int" >       52 </v>
  <v type="int" >      179 </v>
  <v type="int" >      103 </v>
  <v type="int" >       24 </v>
  <v type="int" >      283 </v>
  <v type="int" >      112 </v>
  <v type="int" >      127 </v>
  <v type="int" >      261 </v>
  <v type="int" >      139 </v>
  <v type="int" >      288 </v>
  <v type="int" >      168 </v>
  <v type="int" >      137 </v>
  <v type="int" >      118 </v>
  <v type="int" >      265 </v>
  <v type="int" >       58 </v>
  <v type="int" >      275 </v>
  <v type="int" >       81 </v>
  <v type="int" >      221 </v>
  <v type="int" >      135 </v>
  <v type="int" >      214 </v>
  <v type="int" >      215 </v>
  <v type="int" >       72 </v>
  <v type="int" >       98 </v>
  <v type="int" >      226 </v>
  <v type="int" >       28 </v>
  <v type="int" >      178 </v>
  <v type="int" >      109 </v>
  <v type="int" >      263 </v>
  <v type="int" >      220 </v>
  <v type="int" >      242 </v>
  <v type="int" >      159 </v>
  <v type="int" >      130 </v>
  <v type="int" >      210 </v>
  <v type="int" >      101 </v>
  <v type="int" >      171 </v>
  <v type="int" >      258 </v>
  <v type="int" >      194 </v>
  <v type="int" >       47 </v>
  <v type="int" >      216 </v>
  <v type="int" >       86 </v>
  <v type="int" >      207 </v>
  <v type="int" >      208 </v>
  <v type="int" >      172 </v>
  <v type="int" >       73 </v>
  <v type="int" >       25 </v>
  <v type="int" >      116 </v>
  <v type="int" >       12 </v>
  <v type="int" >      219 </v>
  <v type="int" >      282 </v>
  <v type="int" >      206 </v>
  <v type="int" >       48 </v>
  <v type="int" >      164 </v>
  <v type="int" >      268 </v>
  <v type="int" >      281 </v>
  <v type="int" >       14 </v>
  <v type="int" >      245 </v>
  <v type="int" >      120 </v>
  <v type="int" >      280 </v>
  <v type="int" >      150 </v>
  <v type="int" >      266 </v>
  <v type="int" >       29 </v>
  <v type="int" >      124 </v>
  <v type="int" >      255 </v>
  <v type="int" >      191 </v>
  <v type="int" >       18 </v>
  <v type="int" >      190 </v>
  <v type="int" >      287 </v>
  <v type="int" >      231 </v>
  <v type="int" >      279 </v>
  <v type="int" >       13 </v>
  <v type="int" >      165 </v>
  <v type="int" >      161 </v>
  <v type="int" >      248 </v>
  <v type="int" >       45 </v>
  <v type="int" >      273 </v>
  <v type="int" >       84 </v>
  <v type="int" >      264 </v>
  <v type="int" >        4 </v>
  <v type="int" >      123 </v>
  <v type="int" >       64 </v>
  <v type="int" >       67 </v>
  <v type="int" >       16 </v>
  <v type="int" >      286 </v>
  <v type="int" >      259 </v>
  <v type="int" >        7 </v>
  <v type="int" >      134 </v>
  <v type="int" >        6 </v>
  <v type="int" >       39 </v>
  <v type="int" >      222 </v>
  <v type="int" >      253 </v>
  <v type="int" >       88 </v>
  <v type="int" >        5 </v>
  <v type="int" >       36 </v>
  <v type="int" >      110 </v>
  <v type="int" >      181 </v>
  <v type="int" >      160 </v>
  <v type="int" >      285 </v>
  <v type="int" >      143 </v>
  <v type="int" >      158 </v>
  <v type="int" >       82 </v>
  <v type="int" >       74 </v>
  <v type="int" >      241 </v>
  <v type="int" >      235 </v>
  <v type="int" >       23 </v>
  <v type="int" >      218 </v>
  <v type="int" >      238 </v>
  <v type="int" >      131 </v>
  <v type="int" >      257 </v>
  <v type="int" >      201 </v>
  <v type="int" >       80 </v>
  <v type="int" >      113 </v>
  <v type="int" >      278 </v>
  <v type="int" >      232 </v>
  <v type="int" >       69 </v>
  <v type="int" >      251 </v>
  <v type="int" >      197 </v>
  <v type="int" >        3 </v>
  <v type="int" >      149 </v>
  <v type="int" >      224 </v>
  <v type="int" >       55 </v>
  <v type="int" >      254 </v>
  <v type="int" >      272 </v>
  <v type="int" >      132 </v>
  <v type="int" >       49 </v>
  <v type="int" >      138 </v>
  <v type="int" >      188 </v>
  <v type="int" >       57 </v>
  <v type="int" >      184 </v>
  <v type="int" >       66 </v>
  <v type="int" >       33 </v>
  <v type="int" >      236 </v>
  <v type="int" >       94 </v>
  <v type="int" >      223 </v>
  <v type="int" >      106 </v>
  <v type="int" >      157 </v>
  <v type="int" >       21 </v>
  <v type="int" >      230 </v>
  <v type="int" >      234 </v>
  <v type="int" >       99 </v>
  <v type="int" >      105 </v>
  <v type="int" >       75 </v>
  <v type="int" >      269 </v>
  <v type="int" >      244 </v>
  <v type="int" >      237 </v>
  <v type="int" >      199 </v>
  <v type="int" >      156 </v>
  <v type="int" >      169 </v>
  <v type="int" >        9 </v>
  <v type="int" >       46 </v>
  <v type="int" >      262 </v>
  <v type="int" >      151 </v>
  <v type="int" >      187 </v>
  <v type="int" >      239 </v>
  <v type="int" >       11 </v>
  <v type="int" >      211 </v>
  <v type="int" >       43 </v>
  <v type="int" >       31 </v>
  <v type="int" >       19 </v>
  <v type="int" >       71 </v>
  <v type="int" >       87 </v>
  <v type="int" >      243 </v>
  <v type="int" >      267 </v>
  <v type="int" >       27 </v>
  <v type="int" >       17 </v>
  <v type="int" >      140 </v>
  <v type="int" >       10 </v>
  <v type="int" >      144 </v>
  <v type="int" >      107 </v>
  <v type="int" >      270 </v>
  <v type="int" >       68 </v>
  <v type="int" >      203 </v>
  <v type="int" >       34 </v>
  <v type="int" >      119 </v>
  <v type="int" >      177 </v>
  <v type="int" >      183 </v>
  <v type="int" >      252 </v>
  <v type="int" >      195 </v>
  <v type="int" >       77 </v>
  <v type="int" >      247 </v>
  <v type="int" >      173 </v>
  <v type="int" >      225 </v>
  <v type="int" >       37 </v>
  <v type="int" >      274 </v>
  <v type="int" >       63 </v>
  <v type="int" >      233 </v>
  <v type="int" >      154 </v>
  <v type="int" >      141 </v>
  <v type="int" >       38 </v>
  <v type="int" >       54 </v>
  <v type="int" >      246 </v>
  <v type="int" >      152 </v>
  <v type="int" >       53 </v>
  <v type="int" >       76 </v>
  <v type="int" >      193 </v>
  <v type="int" >      133 </v>
  <v type="int" >      162 </v>
  <v type="int" >      129 </v>
  <v type="int" >       62 </v>
  <v type="int" >       65 </v>
  <v type="int" >      271 </v>
  <v type="int" >       93 </v>
  <v type="int" >       90 </v>
  <v type="int" >       32 </v>
  <v type="int" >       56 </v>
  <v type="int" >       95 </v>
  <v type="int" >       59 </v>
  <v type="int" >       42 </v>
  <v type="int" >        8 </v>
  <v type="int" >      228 </v>
  <v type="int" >       70 </v>
  <v type="int" >      186 </v>
  <v type="int" >      196 </v>
  <v type="int" >      122 </v>
  <v type="int" >      121 </v>
  <v type="int" >       79 </v>
  <v type="int" >        2 </v>
  <v type="int" >      198 </v>
  <v type="int" >      240 </v>
  <v type="int" >      153 </v>
  <v type="int" >      209 </v>
  <v type="int" >       35 </v>
  <v type="int" >      204 </v>
  <v type="int" >       85 </v>
  <v type="int" >      227 </v>
  <v type="int" >       89 </v>
  <v type="int" >       40 </v>
  <v type="int" >       78 </v>
  <v type="int" >      142 </v>
  <v type="int" >       15 </v>
  <v type="int" >      136 </v>
  <v type="int" >      148 </v>
  <v type="int" >      217 </v>
  <v type="int" >       61 </v>
  <v type="int" >      100 </v>
  <v type="int" >      126 </v>
  <v type="int" >       96 </v>
  <v type="int" >      180 </v>
  <v type="int" >      115 </v>
  <v type="int" >      147 </v>
  <v type="int" >       41 </v>
  <v type="int" >       22 </v>
  <v type="int" >      260 </v>
  <v type="int" >      128 </v>
 </varray>
 <kpoints>
  <generation param="Gamma">
   <v type="int" name="divisions">       4        4        1 </v>
   <v name="usershift">      0.00000000       0.00000000       0.00000000 </v>
   <v name="genvec1">      0.25000000       0.00000000       0.00000000 </v>
   <v name="genvec2">      0.00000000       0.25000000       0.00000000 </v>
   <v name="genvec3">      0.00000000       0.00000000       1.00000000 </v>
   <v name="shift">      0.00000000       0.00000000       0.00000000 </v>
  </generation>
  <varray name="kpointlist" >
   <v>       0.00000000       0.00000000       0.00000000 </v>
   <v>       0.25000000       0.00000000       0.00000000 </v>
   <v>       0.50000000       0.00000000       0.00000000 </v>
   <v>       0.00000000       0.25000000       0.00000000 </v>
   <v>       0.25000000       0.25000000       0.00000000 </v>
   <v>       0.50000000       0.25000000       0.00000000 </v>
   <v>      -0.25000000       0.25000000       0.00000000 </v>
   <v>       0.00000000       0.50000000       0.00000000 </v>
   <v>       0.25000000       0.50000000       0.00000000 </v>
   <v>       0.50000000       0.50000000       0.00000000 </v>
  </varray>
  <varray name="weights" >
   <v>       0.06250000 </v>
   <v>       0.12500000 </v>
   <v>       0.06250000 </v>
   <v>       0.12500000 </v>
   <v>       0.12500000 </v>
   <v>       0.12500000 </v>
   <v>       0.12500000 </v>
   <v>       0.06250000 </v>
   <v>       0.12500000 </v>
   <v>       0.06250000 </v>
  </varray>
 </kpoints>
 <parameters>
  <separator name="general" >
   <i type="string" name="SYSTEM">unknown system</i>
   <i type="logical" name="LCOMPAT"> F  </i>
  </separator>
  <separator name="electronic" >
   <i type="string" name="PREC">accura</i>
   <i name="ENMAX">    450.00000000</i>
   <i name="ENAUG">    838.43500000</i>
   <i name="EDIFF">      0.00000100</i>
   <i type="int" name="IALGO">    68</i>
   <i type="int" name="IWAVPR">    11</i>
   <i type="int" name="NBANDS">  1386</i>
   <i name="NELECT">   2290.00000000</i>
   <i type="int" name="TURBO">     0</i>
   <i type="int" name="IRESTART">     0</i>
   <i type="int" name="NREBOOT">     0</i>
   <i type="int" name="NMIN">     0</i>
   <i name="EREF">      0.00000000</i>
   <separator name="electronic smearing" >
    <i type="int" name="ISMEAR">     0</i>
    <i name="SIGMA">      0.15000000</i>
    <i name="KSPACING">      0.50000000</i>
    <i type="logical" name="KGAMMA"> T  </i>
   </separator>
   <separator name="electronic projectors" >
    <i type="logical" name="LREAL"> T  </i>
    <v name="ROPT">     -0.00025000     -0.00025000</v>
    <i type="int" name="LMAXPAW">  -100</i>
    <i type="int" name="LMAXMIX">     2</i>
    <i type="logical" name="NLSPLINE"> F  </i>
   </separator>
   <separator name="electronic startup" >
    <i type="int" name="ISTART">     0</i>
    <i type="int" name="ICHARG">     2</i>
    <i type="int" name="INIWAV">     1</i>
   </separator>
   <separator name="electronic spin" >
    <i type="int" name="ISPIN">     1</i>
    <i type="logical" name="LNONCOLLINEAR"> F  </i>
    <v name="MAGMOM">      1.00000000      1.00000000      1.00000000      1.00000000      1.00000000      1.00000000      1.00000000      1.00000000      1.00000000      1.00000000      1.00000000      1.00000000      1.00000000      1.00000000      1.00000000      1.00000000      1.00000000      1.00000000      1.00000000      1.00000000
      1.00000000      1.00000000      1.00000000      1.00000000      1.00000000      1.00000000      1.00000000      1.00000000      1.00000000      1.00000000      1.00000000      1.00000000      1.00000000      1.00000000      1.00000000      1.00000000      1.00000000      1.00000000      1.00000000      1.00000000
      1.00000000      1.00000000      1.00000000      1.00000000      1.00000000      1.00000000      1.00000000      1.00000000      1.00000000      1.00000000      1.00000000      1.00000000      1.00000000      1.00000000      1.00000000      1.00000000      1.00000000      1.00000000      1.00000000      1.00000000
      1.00000000      1.00000000      1.00000000      1.00000000      1.00000000      1.00000000      1.00000000      1.00000000      1.00000000      1.00000000      1.00000000      1.00000000      1.00000000      1.00000000      1.00000000      1.00000000      1.00000000      1.00000000      1.00000000      1.00000000
      1.00000000      1.00000000      1.00000000      1.00000000      1.00000000      1.00000000      1.00000000      1.00000000      1.00000000      1.00000000      1.00000000      1.00000000      1.00000000      1.00000000      1.00000000      1.00000000      1.00000000      1.00000000      1.00000000      1.00000000
      1.00000000      1.00000000      1.00000000      1.00000000      1.00000000      1.00000000      1.00000000      1.00000000      1.00000000      1.00000000      1.00000000      1.00000000      1.00000000      1.00000000      1.00000000      1.00000000      1.00000000      1.00000000      1.00000000      1.00000000
      1.00000000      1.00000000      1.00000000      1.00000000      1.00000000      1.00000000      1.00000000      1.00000000      1.00000000      1.00000000      1.00000000      1.00000000      1.00000000      1.00000000      1.00000000      1.00000000      1.00000000      1.00000000      1.00000000      1.00000000
      1.00000000      1.00000000      1.00000000      1.00000000      1.00000000      1.00000000      1.00000000      1.00000000      1.00000000      1.00000000      1.00000000      1.00000000      1.00000000      1.00000000      1.00000000      1.00000000      1.00000000      1.00000000      1.00000000      1.00000000
      1.00000000      1.00000000      1.00000000      1.00000000      1.00000000      1.00000000      1.00000000      1.00000000      1.00000000      1.00000000      1.00000000      1.00000000      1.00000000      1.00000000      1.00000000      1.00000000      1.00000000      1.00000000      1.00000000      1.00000000
      1.00000000      1.00000000      1.00000000      1.00000000      1.00000000      1.00000000      1.00000000      1.00000000      1.00000000      1.00000000      1.00000000      1.00000000      1.00000000      1.00000000      1.00000000      1.00000000      1.00000000      1.00000000      1.00000000      1.00000000
      1.00000000      1.00000000      1.00000000      1.00000000      1.00000000      1.00000000      1.00000000      1.00000000      1.00000000      1.00000000      1.00000000      1.00000000      1.00000000      1.00000000      1.00000000      1.00000000      1.00000000      1.00000000      1.00000000      1.00000000
      1.00000000      1.00000000      1.00000000      1.00000000      1.00000000      1.00000000      1.00000000      1.00000000      1.00000000      1.00000000      1.00000000      1.00000000      1.00000000      1.00000000      1.00000000      1.00000000      1.00000000      1.00000000      1.00000000      1.00000000
      1.00000000      1.00000000      1.00000000      1.00000000      1.00000000      1.00000000      1.00000000      1.00000000      1.00000000      1.00000000      1.00000000      1.00000000      1.00000000      1.00000000      1.00000000      1.00000000      1.00000000      1.00000000      1.00000000      1.00000000
      1.00000000      1.00000000      1.00000000      1.00000000      1.00000000      1.00000000      1.00000000      1.00000000      1.00000000      1.00000000      1.00000000      1.00000000      1.00000000      1.00000000      1.00000000      1.00000000      1.00000000      1.00000000      1.00000000      1.00000000
      1.00000000      1.00000000      1.00000000      1.00000000      1.00000000      1.00000000      1.00000000      1.00000000</v>
    <i name="NUPDOWN">     -1.00000000</i>
    <i type="logical" name="LSORBIT"> F  </i>
    <v name="SAXIS">      0.00000000      0.00000000      1.00000000</v>
    <i type="logical" name="LSPIRAL"> F  </i>
    <v name="QSPIRAL">      0.00000000      0.00000000      0.00000000</v>
    <i type="logical" name="LZEROZ"> F  </i>
   </separator>
   <separator name="electronic exchange-correlation" >
    <i type="logical" name="LASPH"> F  </i>
    <i type="logical" name="LMETAGGA"> F  </i>
   </separator>
   <separator name="electronic convergence" >
    <i type="int" name="NELM">   100</i>
    <i type="int" name="NELMDL">     0</i>
    <i type="int" name="NELMIN">     4</i>
    <i name="ENINI">    450.00000000</i>
    <separator name="electronic convergence detail" >
     <i type="logical" name="LDIAG"> T  </i>
     <i type="logical" name="LSUBROT"> F  </i>
     <i name="WEIMIN">      0.00100000</i>
     <i name="EBREAK">      0.00000000</i>
     <i name="DEPER">      0.30000000</i>
     <i type="int" name="NRMM">     4</i>
     <i name="TIME">      0.40000000</i>
    </separator>
   </separator>
   <separator name="electronic mixer" >
    <i name="AMIX">      0.40000000</i>
    <i name="BMIX">      1.00000000</i>
    <i name="AMIN">      0.10000000</i>
    <i name="AMIX_MAG">      1.60000000</i>
    <i name="BMIX_MAG">      1.00000000</i>
    <separator name="electronic mixer details" >
     <i type="int" name="IMIX">     4</i>
     <i type="logical" name="MIXFIRST"> F  </i>
     <i type="int" name="MAXMIX">   -45</i>
     <i name="WC">    100.00000000</i>
     <i type="int" name="INIMIX">     1</i>
     <i type="int" name="MIXPRE">     1</i>
     <i type="int" name="MREMOVE">     5</i>
    </separator>
   </separator>
   <separator name="electronic dipolcorrection" >
    <i type="logical" name="LDIPOL"> F  </i>
    <i type="logical" name="LMONO"> F  </i>
    <i type="int" name="IDIPOL">     0</i>
    <i name="EPSILON">      1.00000000</i>
    <v name="DIPOL">   -100.00000000   -100.00000000   -100.00000000</v>
    <i name="EFIELD">      0.00000000</i>
   </separator>
  </separator>
  <separator name="grids" >
   <i type="int" name="NGX">    70</i>
   <i type="int" name="NGY">    60</i>
   <i type="int" name="NGZ">   320</i>
   <i type="int" name="NGXF">   140</i>
   <i type="int" name="NGYF">   120</i>
   <i type="int" name="NGZF">   640</i>
   <i type="logical" name="ADDGRID"> F  </i>
  </separator>
  <separator name="ionic" >
   <i type="int" name="NSW">     5</i>
   <i type="int" name="IBRION">     2</i>
   <i type="int" name="MDALGO">     0</i>
   <i type="int" name="ISIF">     2</i>
   <i name="PSTRESS">      0.00000000</i>
   <i name="EDIFFG">      0.00001000</i>
   <i type="int" name="NFREE">     1</i>
   <i name="POTIM">      0.25000000</i>
   <i name="SMASS">     -3.00000000</i>
   <i name="SCALEE">      1.00000000</i>
  </separator>
  <separator name="ionic md" >
   <i name="TEBEG">      0.00010000</i>
   <i name="TEEND">      0.00010000</i>
   <i type="int" name="NBLOCK">     1</i>
   <i type="int" name="KBLOCK">     5</i>
   <i type="int" name="NPACO">   256</i>
   <i name="APACO">     16.00000000</i>
  </separator>
  <separator name="symmetry" >
   <i type="int" name="ISYM">     2</i>
   <i name="SYMPREC">      0.00001000</i>
  </separator>
  <separator name="dos" >
   <i type="int" name="LORBIT">     0</i>
   <v name="RWIGS">     -1.00000000     -1.00000000</v>
   <i type="int" name="NEDOS">   301</i>
   <i name="EMIN">     10.00000000</i>
   <i name="EMAX">    -10.00000000</i>
   <i name="EFERMI">      0.00000000</i>
  </separator>
  <separator name="writing" >
   <i type="int" name="NWRITE">     2</i>
   <i type="logical" name="LWAVE"> F  </i>
   <i type="logical" name="LDOWNSAMPLE"> F  </i>
   <i type="logical" name="LCHARG"> F  </i>
   <i type="logical" name="LPARD"> F  </i>
   <i type="logical" name="LVTOT"> F  </i>
   <i type="logical" name="LVHAR"> F  </i>
   <i type="logical" name="LELF"> F  </i>
   <i type="logical" name="LOPTICS"> F  </i>
   <v name="STM">      0.00000000      0.00000000      0.00000000      0.00000000      0.00000000      0.00000000      0.00000000</v>
  </separator>
  <separator name="performance" >
   <i type="int" name="NPAR">    14</i>
   <i type="int" name="NSIM">     4</i>
   <i type="int" name="NBLK">    -1</i>
   <i type="logical" name="LPLANE"> T  </i>
   <i type="logical" name="LSCALAPACK"> T  </i>
   <i type="logical" name="LSCAAWARE"> T  </i>
   <i type="logical" name="LSCALU"> F  </i>
   <i type="logical" name="LASYNC"> F  </i>
   <i type="logical" name="LORBITALREAL"> F  </i>
  </separator>
  <separator name="miscellaneous" >
   <i type="int" name="IDIOT">     3</i>
   <i type="int" name="ISPECIAL">     0</i>
   <i type="logical" name="LMUSIC"> F  </i>
   <v name="POMASS">     55.84700000     54.93800000</v>
   <v name="DARWINR">      0.00000000      0.00000000</v>
   <v name="DARWINV">      1.00000000      1.00000000</v>
   <i type="logical" name="LCORR"> T  </i>
  </separator>
  <i type="logical" name="GGA_COMPAT"> T  </i>
  <i type="logical" name="LBERRY"> F  </i>
  <i type="int" name="ICORELEVEL">     0</i>
  <i type="logical" name="LDAU"> F  </i>
  <i type="int" name="I_CONSTRAINED_M">     0</i>
  <separator name="electronic exchange-correlation" >
   <i type="string" name="GGA">--</i>
   <i type="int" name="VOSKOWN">     0</i>
   <i type="logical" name="LHFCALC"> F  </i>
   <i type="string" name="PRECFOCK"></i>
   <i type="logical" name="LSYMGRAD"> F  </i>
   <i type="logical" name="LHFONE"> F  </i>
   <i type="logical" name="LRHFCALC"> F  </i>
   <i type="logical" name="LTHOMAS"> F  </i>
   <i type="logical" name="LMODELHF"> F  </i>
   <i name="ENCUT4O">     -1.00000000</i>
   <i type="int" name="EXXOEP">     0</i>
   <i type="int" name="FOURORBIT">     0</i>
   <i name="AEXX">      0.00000000</i>
   <i name="HFALPHA">      0.00000000</i>
   <i name="MCALPHA">      0.00000000</i>
   <i name="ALDAX">      1.00000000</i>
   <i name="AGGAX">      1.00000000</i>
   <i name="ALDAC">      1.00000000</i>
   <i name="AGGAC">      1.00000000</i>
   <i type="int" name="NKREDX">     1</i>
   <i type="int" name="NKREDY">     1</i>
   <i type="int" name="NKREDZ">     1</i>
   <i type="logical" name="SHIFTRED"> F  </i>
   <i type="logical" name="ODDONLY"> F  </i>
   <i type="logical" name="EVENONLY"> F  </i>
   <i type="int" name="LMAXFOCK">     0</i>
   <i type="int" name="NMAXFOCKAE">     0</i>
   <i type="logical" name="LFOCKAEDFT"> F  </i>
   <i name="HFSCREEN">      0.00000000</i>
   <i name="HFSCREENC">      0.00000000</i>
   <i type="int" name="NBANDSGWLOW">     0</i>
  </separator>
  <separator name="vdW DFT" >
   <i type="logical" name="LUSE_VDW"> F  </i>
   <i name="Zab_VDW">     -0.84910000</i>
   <i name="PARAM1">      0.12340000</i>
   <i name="PARAM2">      1.00000000</i>
   <i name="PARAM3">      0.00000000</i>
  </separator>
  <separator name="model GW" >
   <i type="int" name="MODEL_GW">     0</i>
   <i name="MODEL_EPS0">      7.68123389</i>
   <i name="MODEL_ALPHA">      1.00000000</i>
  </separator>
  <separator name="linear response parameters" >
   <i type="logical" name="LEPSILON"> F  </i>
   <i type="logical" name="LRPA"> F  </i>
   <i type="logical" name="LNABLA"> F  </i>
   <i type="logical" name="LVEL"> F  </i>
   <i type="int" name="KINTER">     0</i>
   <i name="CSHIFT">      0.10000000</i>
   <i name="OMEGAMAX">     -1.00000000</i>
   <i name="DEG_THRESHOLD">      0.00200000</i>
   <i name="RTIME">     -0.10000000</i>
   <i name="WPLASMAI">      0.00000000</i>
   <v name="DFIELD">      0.00000000      0.00000000      0.00000000</v>
   <v name="WPLASMA">      0.00000000      0.00000000      0.00000000      0.00000000      0.00000000      0.00000000      0.00000000      0.00000000      0.00000000</v>
  </separator>
  <separator name="orbital magnetization" >
   <i type="logical" name="NUCIND"> F  </i>
   <v name="MAGPOS">      0.00000000      0.00000000      0.00000000</v>
   <i type="logical" name="LNICSALL"> T  </i>
   <i type="logical" name="ORBITALMAG"> F  </i>
   <i type="logical" name="LMAGBLOCH"> F  </i>
   <i type="logical" name="LCHIMAG"> F  </i>
   <i type="logical" name="LGAUGE"> T  </i>
   <i type="int" name="MAGATOM">     0</i>
   <v name="MAGDIPOL">      0.00000000      0.00000000      0.00000000</v>
   <v name="AVECCONST">      0.00000000      0.00000000      0.00000000</v>
  </separator>
  <separator name="response functions" >
   <i type="logical" name="LADDER"> F  </i>
   <i type="logical" name="LRPAFORCE"> F  </i>
   <i type="logical" name="LFXC"> F  </i>
   <i type="logical" name="LHARTREE"> T  </i>
   <i type="int" name="IBSE">     0</i>
   <v type="int" name="KPOINT">    -1     0     0     0</v>
   <i type="logical" name="LTCTE"> F  </i>
   <i type="logical" name="LTETE"> F  </i>
   <i type="logical" name="LTRIPLET"> F  </i>
   <i type="logical" name="LFXCEPS"> F  </i>
   <i type="logical" name="LFXHEG"> F  </i>
   <i type="int" name="NATURALO">     2</i>
   <i type="logical" name="L2ORDER"> F  </i>
   <i type="logical" name="LMP2LT"> F  </i>
   <i type="logical" name="LUSEW"> F  </i>
   <i name="ENCUTGW">     -2.00000000</i>
   <i name="ENCUTGWSOFT">     -2.00000000</i>
   <i name="ENCUTLF">     -1.00000000</i>
   <i type="int" name="LMAXMP2">    -1</i>
   <i name="SCISSOR">      0.00000000</i>
   <i type="int" name="NOMEGA">     0</i>
   <i type="int" name="NOMEGAR">     0</i>
   <i type="int" name="NBANDSGW">    -1</i>
   <i type="int" name="NBANDSO">    -1</i>
   <i type="int" name="NBANDSV">    -1</i>
   <i type="int" name="NELM">   100</i>
   <i type="int" name="NELMHF">     1</i>
   <i type="int" name="DIM">     3</i>
   <i type="int" name="ANTIRES">     0</i>
   <i name="OMEGAMAX">    -30.00000000</i>
   <i name="OMEGAMIN">    -30.00000000</i>
   <i name="OMEGATL">   -200.00000000</i>
   <i type="int" name="OMEGAGRID">   140</i>
   <i name="CSHIFT">     -0.10000000</i>
   <i type="logical" name="SELFENERGY"> F  </i>
   <i type="logical" name="LSPECTRAL"> F  </i>
   <i type="logical" name="LSPECTRALGW"> F  </i>
   <i type="logical" name="LSINGLES"> F  </i>
   <i type="logical" name="LFERMIGW"> F  </i>
   <i type="logical" name="ODDONLYGW"> F  </i>
   <i type="logical" name="EVENONLYGW"> F  </i>
   <i type="int" name="NKREDLFX">     1</i>
   <i type="int" name="NKREDLFY">     1</i>
   <i type="int" name="NKREDLFZ">     1</i>
   <i type="int" name="MAXMEM">  2800</i>
   <i type="int" name="TELESCOPE">     0</i>
   <i type="int" name="TAUPAR">     1</i>
   <i type="int" name="OMEGAPAR">    -1</i>
   <i name="LAMBDA">      1.00000000</i>
  </separator>
  <separator name="External order field" >
   <i name="OFIELD_KAPPA">      0.00000000</i>
   <v name="OFIELD_K">      0.00000000      0.00000000      0.00000000</v>
   <i name="OFIELD_Q6_NEAR">      0.00000000</i>
   <i name="OFIELD_Q6_FAR">      0.00000000</i>
   <i name="OFIELD_A">      0.00000000</i>
  </separator>
 </parameters>
 <atominfo>
  <atoms>     288 </atoms>
  <types>       2 </types>
  <array name="atoms" >
   <dimension dim="1">ion</dimension>
   <field type="string">element</field>
   <field type="int">atomtype</field>
   <set>
    <rc><c>Fe</c><c>   1</c></rc>
    <rc><c>Fe</c><c>   1</c></rc>
    <rc><c>Fe</c><c>   1</c></rc>
    <rc><c>Fe</c><c>   1</c></rc>
    <rc><c>Fe</c><c>   1</c></rc>
    <rc><c>Fe</c><c>   1</c></rc>
    <rc><c>Fe</c><c>   1</c></rc>
    <rc><c>Fe</c><c>   1</c></rc>
    <rc><c>Fe</c><c>   1</c></rc>
    <rc><c>Fe</c><c>   1</c></rc>
    <rc><c>Fe</c><c>   1</c></rc>
    <rc><c>Fe</c><c>   1</c></rc>
    <rc><c>Fe</c><c>   1</c></rc>
    <rc><c>Fe</c><c>   1</c></rc>
    <rc><c>Fe</c><c>   1</c></rc>
    <rc><c>Fe</c><c>   1</c></rc>
    <rc><c>Fe</c><c>   1</c></rc>
    <rc><c>Fe</c><c>   1</c></rc>
    <rc><c>Fe</c><c>   1</c></rc>
    <rc><c>Fe</c><c>   1</c></rc>
    <rc><c>Fe</c><c>   1</c></rc>
    <rc><c>Fe</c><c>   1</c></rc>
    <rc><c>Fe</c><c>   1</c></rc>
    <rc><c>Fe</c><c>   1</c></rc>
    <rc><c>Fe</c><c>   1</c></rc>
    <rc><c>Fe</c><c>   1</c></rc>
    <rc><c>Fe</c><c>   1</c></rc>
    <rc><c>Fe</c><c>   1</c></rc>
    <rc><c>Fe</c><c>   1</c></rc>
    <rc><c>Fe</c><c>   1</c></rc>
    <rc><c>Fe</c><c>   1</c></rc>
    <rc><c>Fe</c><c>   1</c></rc>
    <rc><c>Fe</c><c>   1</c></rc>
    <rc><c>Fe</c><c>   1</c></rc>
    <rc><c>Fe</c><c>   1</c></rc>
    <rc><c>Fe</c><c>   1</c></rc>
    <rc><c>Fe</c><c>   1</c></rc>
    <rc><c>Fe</c><c>   1</c></rc>
    <rc><c>Fe</c><c>   1</c></rc>
    <rc><c>Fe</c><c>   1</c></rc>
    <rc><c>Fe</c><c>   1</c></rc>
    <rc><c>Fe</c><c>   1</c></rc>
    <rc><c>Fe</c><c>   1</c></rc>
    <rc><c>Fe</c><c>   1</c></rc>
    <rc><c>Fe</c><c>   1</c></rc>
    <rc><c>Fe</c><c>   1</c></rc>
    <rc><c>Fe</c><c>   1</c></rc>
    <rc><c>Fe</c><c>   1</c></rc>
    <rc><c>Fe</c><c>   1</c></rc>
    <rc><c>Fe</c><c>   1</c></rc>
    <rc><c>Fe</c><c>   1</c></rc>
    <rc><c>Fe</c><c>   1</c></rc>
    <rc><c>Fe</c><c>   1</c></rc>
    <rc><c>Fe</c><c>   1</c></rc>
    <rc><c>Fe</c><c>   1</c></rc>
    <rc><c>Fe</c><c>   1</c></rc>
    <rc><c>Fe</c><c>   1</c></rc>
    <rc><c>Fe</c><c>   1</c></rc>
    <rc><c>Fe</c><c>   1</c></rc>
    <rc><c>Fe</c><c>   1</c></rc>
    <rc><c>Fe</c><c>   1</c></rc>
    <rc><c>Fe</c><c>   1</c></rc>
    <rc><c>Fe</c><c>   1</c></rc>
    <rc><c>Fe</c><c>   1</c></rc>
    <rc><c>Fe</c><c>   1</c></rc>
    <rc><c>Fe</c><c>   1</c></rc>
    <rc><c>Fe</c><c>   1</c></rc>
    <rc><c>Fe</c><c>   1</c></rc>
    <rc><c>Fe</c><c>   1</c></rc>
    <rc><c>Fe</c><c>   1</c></rc>
    <rc><c>Fe</c><c>   1</c></rc>
    <rc><c>Fe</c><c>   1</c></rc>
    <rc><c>Fe</c><c>   1</c></rc>
    <rc><c>Fe</c><c>   1</c></rc>
    <rc><c>Fe</c><c>   1</c></rc>
    <rc><c>Fe</c><c>   1</c></rc>
    <rc><c>Fe</c><c>   1</c></rc>
    <rc><c>Fe</c><c>   1</c></rc>
    <rc><c>Fe</c><c>   1</c></rc>
    <rc><c>Fe</c><c>   1</c></rc>
    <rc><c>Fe</c><c>   1</c></rc>
    <rc><c>Fe</c><c>   1</c></rc>
    <rc><c>Fe</c><c>   1</c></rc>
    <rc><c>Fe</c><c>   1</c></rc>
    <rc><c>Fe</c><c>   1</c></rc>
    <rc><c>Fe</c><c>   1</c></rc>
    <rc><c>Fe</c><c>   1</c></rc>
    <rc><c>Fe</c><c>   1</c></rc>
    <rc><c>Fe</c><c>   1</c></rc>
    <rc><c>Fe</c><c>   1</c></rc>
    <rc><c>Fe</c><c>   1</c></rc>
    <rc><c>Fe</c><c>   1</c></rc>
    <rc><c>Fe</c><c>   1</c></rc>
    <rc><c>Fe</c><c>   1</c></rc>
    <rc><c>Fe</c><c>   1</c></rc>
    <rc><c>Fe</c><c>   1</c></rc>
    <rc><c>Fe</c><c>   1</c></rc>
    <rc><c>Fe</c><c>   1</c></rc>
    <rc><c>Fe</c><c>   1</c></rc>
    <rc><c>Fe</c><c>   1</c></rc>
    <rc><c>Fe</c><c>   1</c></rc>
    <rc><c>Fe</c><c>   1</c></rc>
    <rc><c>Fe</c><c>   1</c></rc>
    <rc><c>Fe</c><c>   1</c></rc>
    <rc><c>Fe</c><c>   1</c></rc>
    <rc><c>Fe</c><c>   1</c></rc>
    <rc><c>Fe</c><c>   1</c></rc>
    <rc><c>Fe</c><c>   1</c></rc>
    <rc><c>Fe</c><c>   1</c></rc>
    <rc><c>Fe</c><c>   1</c></rc>
    <rc><c>Fe</c><c>   1</c></rc>
    <rc><c>Fe</c><c>   1</c></rc>
    <rc><c>Fe</c><c>   1</c></rc>
    <rc><c>Fe</c><c>   1</c></rc>
    <rc><c>Fe</c><c>   1</c></rc>
    <rc><c>Fe</c><c>   1</c></rc>
    <rc><c>Fe</c><c>   1</c></rc>
    <rc><c>Fe</c><c>   1</c></rc>
    <rc><c>Fe</c><c>   1</c></rc>
    <rc><c>Fe</c><c>   1</c></rc>
    <rc><c>Fe</c><c>   1</c></rc>
    <rc><c>Fe</c><c>   1</c></rc>
    <rc><c>Fe</c><c>   1</c></rc>
    <rc><c>Fe</c><c>   1</c></rc>
    <rc><c>Fe</c><c>   1</c></rc>
    <rc><c>Fe</c><c>   1</c></rc>
    <rc><c>Fe</c><c>   1</c></rc>
    <rc><c>Fe</c><c>   1</c></rc>
    <rc><c>Fe</c><c>   1</c></rc>
    <rc><c>Fe</c><c>   1</c></rc>
    <rc><c>Fe</c><c>   1</c></rc>
    <rc><c>Fe</c><c>   1</c></rc>
    <rc><c>Fe</c><c>   1</c></rc>
    <rc><c>Fe</c><c>   1</c></rc>
    <rc><c>Fe</c><c>   1</c></rc>
    <rc><c>Fe</c><c>   1</c></rc>
    <rc><c>Fe</c><c>   1</c></rc>
    <rc><c>Fe</c><c>   1</c></rc>
    <rc><c>Fe</c><c>   1</c></rc>
    <rc><c>Fe</c><c>   1</c></rc>
    <rc><c>Fe</c><c>   1</c></rc>
    <rc><c>Fe</c><c>   1</c></rc>
    <rc><c>Fe</c><c>   1</c></rc>
    <rc><c>Fe</c><c>   1</c></rc>
    <rc><c>Fe</c><c>   1</c></rc>
    <rc><c>Fe</c><c>   1</c></rc>
    <rc><c>Fe</c><c>   1</c></rc>
    <rc><c>Fe</c><c>   1</c></rc>
    <rc><c>Fe</c><c>   1</c></rc>
    <rc><c>Fe</c><c>   1</c></rc>
    <rc><c>Fe</c><c>   1</c></rc>
    <rc><c>Fe</c><c>   1</c></rc>
    <rc><c>Fe</c><c>   1</c></rc>
    <rc><c>Fe</c><c>   1</c></rc>
    <rc><c>Fe</c><c>   1</c></rc>
    <rc><c>Fe</c><c>   1</c></rc>
    <rc><c>Fe</c><c>   1</c></rc>
    <rc><c>Fe</c><c>   1</c></rc>
    <rc><c>Fe</c><c>   1</c></rc>
    <rc><c>Fe</c><c>   1</c></rc>
    <rc><c>Fe</c><c>   1</c></rc>
    <rc><c>Fe</c><c>   1</c></rc>
    <rc><c>Fe</c><c>   1</c></rc>
    <rc><c>Fe</c><c>   1</c></rc>
    <rc><c>Fe</c><c>   1</c></rc>
    <rc><c>Fe</c><c>   1</c></rc>
    <rc><c>Fe</c><c>   1</c></rc>
    <rc><c>Fe</c><c>   1</c></rc>
    <rc><c>Fe</c><c>   1</c></rc>
    <rc><c>Fe</c><c>   1</c></rc>
    <rc><c>Fe</c><c>   1</c></rc>
    <rc><c>Fe</c><c>   1</c></rc>
    <rc><c>Fe</c><c>   1</c></rc>
    <rc><c>Fe</c><c>   1</c></rc>
    <rc><c>Fe</c><c>   1</c></rc>
    <rc><c>Fe</c><c>   1</c></rc>
    <rc><c>Fe</c><c>   1</c></rc>
    <rc><c>Fe</c><c>   1</c></rc>
    <rc><c>Fe</c><c>   1</c></rc>
    <rc><c>Fe</c><c>   1</c></rc>
    <rc><c>Fe</c><c>   1</c></rc>
    <rc><c>Fe</c><c>   1</c></rc>
    <rc><c>Fe</c><c>   1</c></rc>
    <rc><c>Fe</c><c>   1</c></rc>
    <rc><c>Fe</c><c>   1</c></rc>
    <rc><c>Fe</c><c>   1</c></rc>
    <rc><c>Fe</c><c>   1</c></rc>
    <rc><c>Fe</c><c>   1</c></rc>
    <rc><c>Fe</c><c>   1</c></rc>
    <rc><c>Fe</c><c>   1</c></rc>
    <rc><c>Fe</c><c>   1</c></rc>
    <rc><c>Fe</c><c>   1</c></rc>
    <rc><c>Fe</c><c>   1</c></rc>
    <rc><c>Fe</c><c>   1</c></rc>
    <rc><c>Fe</c><c>   1</c></rc>
    <rc><c>Fe</c><c>   1</c></rc>
    <rc><c>Fe</c><c>   1</c></rc>
    <rc><c>Fe</c><c>   1</c></rc>
    <rc><c>Fe</c><c>   1</c></rc>
    <rc><c>Fe</c><c>   1</c></rc>
    <rc><c>Fe</c><c>   1</c></rc>
    <rc><c>Fe</c><c>   1</c></rc>
    <rc><c>Fe</c><c>   1</c></rc>
    <rc><c>Fe</c><c>   1</c></rc>
    <rc><c>Fe</c><c>   1</c></rc>
    <rc><c>Fe</c><c>   1</c></rc>
    <rc><c>Fe</c><c>   1</c></rc>
    <rc><c>Fe</c><c>   1</c></rc>
    <rc><c>Fe</c><c>   1</c></rc>
    <rc><c>Fe</c><c>   1</c></rc>
    <rc><c>Fe</c><c>   1</c></rc>
    <rc><c>Fe</c><c>   1</c></rc>
    <rc><c>Fe</c><c>   1</c></rc>
    <rc><c>Fe</c><c>   1</c></rc>
    <rc><c>Fe</c><c>   1</c></rc>
    <rc><c>Fe</c><c>   1</c></rc>
    <rc><c>Fe</c><c>   1</c></rc>
    <rc><c>Fe</c><c>   1</c></rc>
    <rc><c>Fe</c><c>   1</c></rc>
    <rc><c>Fe</c><c>   1</c></rc>
    <rc><c>Fe</c><c>   1</c></rc>
    <rc><c>Fe</c><c>   1</c></rc>
    <rc><c>Fe</c><c>   1</c></rc>
    <rc><c>Fe</c><c>   1</c></rc>
    <rc><c>Fe</c><c>   1</c></rc>
    <rc><c>Fe</c><c>   1</c></rc>
    <rc><c>Fe</c><c>   1</c></rc>
    <rc><c>Fe</c><c>   1</c></rc>
    <rc><c>Fe</c><c>   1</c></rc>
    <rc><c>Fe</c><c>   1</c></rc>
    <rc><c>Fe</c><c>   1</c></rc>
    <rc><c>Fe</c><c>   1</c></rc>
    <rc><c>Fe</c><c>   1</c></rc>
    <rc><c>Fe</c><c>   1</c></rc>
    <rc><c>Fe</c><c>   1</c></rc>
    <rc><c>Fe</c><c>   1</c></rc>
    <rc><c>Fe</c><c>   1</c></rc>
    <rc><c>Fe</c><c>   1</c></rc>
    <rc><c>Fe</c><c>   1</c></rc>
    <rc><c>Fe</c><c>   1</c></rc>
    <rc><c>Fe</c><c>   1</c></rc>
    <rc><c>Fe</c><c>   1</c></rc>
    <rc><c>Fe</c><c>   1</c></rc>
    <rc><c>Fe</c><c>   1</c></rc>
    <rc><c>Fe</c><c>   1</c></rc>
    <rc><c>Fe</c><c>   1</c></rc>
    <rc><c>Fe</c><c>   1</c></rc>
    <rc><c>Fe</c><c>   1</c></rc>
    <rc><c>Fe</c><c>   1</c></rc>
    <rc><c>Fe</c><c>   1</c></rc>
    <rc><c>Fe</c><c>   1</c></rc>
    <rc><c>Fe</c><c>   1</c></rc>
    <rc><c>Fe</c><c>   1</c></rc>
    <rc><c>Fe</c><c>   1</c></rc>
    <rc><c>Fe</c><c>   1</c></rc>
    <rc><c>Fe</c><c>   1</c></rc>
    <rc><c>Fe</c><c>   1</c></rc>
    <rc><c>Fe</c><c>   1</c></rc>
    <rc><c>Fe</c><c>   1</c></rc>
    <rc><c>Fe</c><c>   1</c></rc>
    <rc><c>Fe</c><c>   1</c></rc>
    <rc><c>Fe</c><c>   1</c></rc>
    <rc><c>Fe</c><c>   1</c></rc>
    <rc><c>Fe</c><c>   1</c></rc>
    <rc><c>Fe</c><c>   1</c></rc>
    <rc><c>Fe</c><c>   1</c></rc>
    <rc><c>Fe</c><c>   1</c></rc>
    <rc><c>Fe</c><c>   1</c></rc>
    <rc><c>Fe</c><c>   1</c></rc>
    <rc><c>Fe</c><c>   1</c></rc>
    <rc><c>Fe</c><c>   1</c></rc>
    <rc><c>Fe</c><c>   1</c></rc>
    <rc><c>Fe</c><c>   1</c></rc>
    <rc><c>Fe</c><c>   1</c></rc>
    <rc><c>Mn</c><c>   2</c></rc>
    <rc><c>Mn</c><c>   2</c></rc>
    <rc><c>Mn</c><c>   2</c></rc>
    <rc><c>Mn</c><c>   2</c></rc>
    <rc><c>Mn</c><c>   2</c></rc>
    <rc><c>Mn</c><c>   2</c></rc>
    <rc><c>Mn</c><c>   2</c></rc>
    <rc><c>Mn</c><c>   2</c></rc>
    <rc><c>Mn</c><c>   2</c></rc>
    <rc><c>Mn</c><c>   2</c></rc>
    <rc><c>Mn</c><c>   2</c></rc>
    <rc><c>Mn</c><c>   2</c></rc>
    <rc><c>Mn</c><c>   2</c></rc>
    <rc><c>Mn</c><c>   2</c></rc>
   </set>
  </array>
  <array name="atomtypes" >
   <dimension dim="1">type</dimension>
   <field type="int">atomspertype</field>
   <field type="string">element</field>
   <field>mass</field>
   <field>valence</field>
   <field type="string">pseudopotential</field>
   <set>
    <rc><c> 274</c><c>Fe</c><c>     55.84700000</c><c>      8.00000000</c><c>  PAW_PBE Fe_GW 31Mar2010               </c></rc>
    <rc><c>  14</c><c>Mn</c><c>     54.93800000</c><c>      7.00000000</c><c>  PAW_PBE Mn_GW 31Mar2010               </c></rc>
   </set>
  </array>
 </atominfo>
 <structure name="initialpos" >
  <crystal>
   <varray name="basis" >
    <v>       9.72667804       0.00000000       0.00000000 </v>
    <v>       0.00000000       8.42355028       0.00000000 </v>
    <v>       0.00000000       0.00000000      45.00000000 </v>
   </varray>
   <i name="volume">   3686.99226691 </i>
   <varray name="rec_basis" >
    <v>       0.10281002       0.00000000       0.00000000 </v>
    <v>       0.00000000       0.11871479       0.00000000 </v>
    <v>       0.00000000       0.00000000       0.02222222 </v>
   </varray>
  </crystal>
  <varray name="positions" >
   <v>       0.06178862       0.02950565       0.12409830 </v>
   <v>       0.31625430       0.87465338       0.65503026 </v>
   <v>       0.18421947       0.12324138       0.78873779 </v>
   <v>       0.44151761       0.28757026       0.38908269 </v>
   <v>       0.31741412       0.71275148       0.83317761 </v>
   <v>       0.81751534       0.21491311       0.83388222 </v>
   <v>       0.19097639       0.96264685       0.83372573 </v>
   <v>       0.56204229       0.20704580       0.56550450 </v>
   <v>       0.06514586       0.03983154       0.74427186 </v>
   <v>       0.81146070       0.87102751       0.52127300 </v>
   <v>       0.19015643       0.29066763       0.74447183 </v>
   <v>       0.93366545       0.45237411       0.34481967 </v>
   <v>       0.94102945       0.28663890       0.38888069 </v>
   <v>       0.81196546       0.04048451       0.87599536 </v>
   <v>       0.18405126       0.78844355       0.61083429 </v>
   <v>       0.56651524       0.03794780       0.38899796 </v>
   <v>       0.93656176       0.12142810       0.52128323 </v>
   <v>       0.31494193       0.54028259       0.87630131 </v>
   <v>       0.69030216       0.29124644       0.74443618 </v>
   <v>       0.18212035       0.61350857       0.16663475 </v>
   <v>       0.81225939       0.20566945       0.47846065 </v>
   <v>       0.80921795       0.53917422       0.61098205 </v>
   <v>       0.31161386       0.87034960       0.43430553 </v>
   <v>       0.80987790       0.03833968       0.25596667 </v>
   <v>       0.68316659       0.95158586       0.34466828 </v>
   <v>       0.93096084       0.11458357       0.16688432 </v>
   <v>       0.06150464       0.87112275       0.52127399 </v>
   <v>       0.55813070       0.53783654       0.25557692 </v>
   <v>       0.68478560       0.79688704       0.87589316 </v>
   <v>       0.55642419       0.36558917       0.16659343 </v>
   <v>       0.43928646       0.79198329       0.74445500 </v>
   <v>       0.81152885       0.70689494       0.56546542 </v>
   <v>       0.56044484       0.87327868       0.78869635 </v>
   <v>       0.68698757       0.12134607       0.52130284 </v>
   <v>       0.81634060       0.37472664       0.65492671 </v>
   <v>       0.94213162       0.46401074       0.83412610 </v>
   <v>       0.06070622       0.20746707       0.69976567 </v>
   <v>       0.43549267       0.95758127       0.69973071 </v>
   <v>       0.31658943       0.21302061       0.83355455 </v>
   <v>       0.44117356       0.62520196       0.65500146 </v>
   <v>       0.30917608       0.53843754       0.61084258 </v>
   <v>       0.93660472       0.45680920       0.56550442 </v>
   <v>       0.68978929       0.79179363       0.74438285 </v>
   <v>       0.93405927       0.78870073       0.12442774 </v>
   <v>       0.69164236       0.78799916       0.38891399 </v>
   <v>       0.93977895       0.79035683       0.74460994 </v>
   <v>       0.05898597       0.20333980       0.34489569 </v>
   <v>       0.68364517       0.45238981       0.34497301 </v>
   <v>       0.43471005       0.12247181       0.78896922 </v>
   <v>       0.06496977       0.20435358       0.21116527 </v>
   <v>       0.05540313       0.36556370       0.16668252 </v>
   <v>       0.93346069       0.78766879       0.25558630 </v>
   <v>       0.56045890       0.20711898       0.69984151 </v>
   <v>       0.68566788       0.95731103       0.69977197 </v>
   <v>       0.80956649       0.87376946       0.78846347 </v>
   <v>       0.43704916       0.95743749       0.56537076 </v>
   <v>       0.80950568       0.37516677       0.78872096 </v>
   <v>       0.68431634       0.28803099       0.25606716 </v>
   <v>       0.18716786       0.45711550       0.56546048 </v>
   <v>       0.05603742       0.86558914       0.16663214 </v>
   <v>       0.18418546       0.28870018       0.61090331 </v>
   <v>       0.06205928       0.20749786       0.56539850 </v>
   <v>       0.31071719       0.20717286       0.69991581 </v>
   <v>       0.56216918       0.54068651       0.87604006 </v>
   <v>       0.06218513       0.70688842       0.56549703 </v>
   <v>       0.68334320       0.62335284       0.78872896 </v>
   <v>       0.31600213       0.53834880       0.38888905 </v>
   <v>       0.18644096       0.62124774       0.52128983 </v>
   <v>       0.56184581       0.87048477       0.43422444 </v>
   <v>       0.43687518       0.45693242       0.56552908 </v>
   <v>       0.43972264       0.29185939       0.74428353 </v>
   <v>       0.82079173       0.87391874       0.30020213 </v>
   <v>       0.80857439       0.70267960       0.34491186 </v>
   <v>       0.44184265       0.46264419       0.83346405 </v>
   <v>       0.68711660       0.95538370       0.47853857 </v>
   <v>       0.68516994       0.45758567       0.69984642 </v>
   <v>       0.56183157       0.87166320       0.52133457 </v>
   <v>       0.56613280       0.37469430       0.65505882 </v>
   <v>       0.81623221       0.87461348       0.65497549 </v>
   <v>       0.81153595       0.37158527       0.43417855 </v>
   <v>       0.80886361       0.53780312       0.25600612 </v>
   <v>       0.69176841       0.46209789       0.83332560 </v>
   <v>       0.18598115       0.78842924       0.12407249 </v>
   <v>       0.69155708       0.28725365       0.38893387 </v>
   <v>       0.31608918       0.37461058       0.65496916 </v>
   <v>       0.30899181       0.20274026       0.34462536 </v>
   <v>       0.81547901       0.53994661       0.74432331 </v>
   <v>       0.69163204       0.96219489       0.83359953 </v>
   <v>       0.56616145       0.87465802       0.65502332 </v>
   <v>       0.31141962       0.70736597       0.56539868 </v>
   <v>       0.31243247       0.53024203       0.12402580 </v>
   <v>       0.68928191       0.95476509       0.21173211 </v>
   <v>       0.31178292       0.20680702       0.56549309 </v>
   <v>       0.18730568       0.95570642       0.47853177 </v>
   <v>       0.68703110       0.95697655       0.56546368 </v>
   <v>       0.43403099       0.78866304       0.61086592 </v>
   <v>       0.68258825       0.61228458       0.16640611 </v>
   <v>       0.31916483       0.87352907       0.30002646 </v>
   <v>       0.31198309       0.70544652       0.47848864 </v>
   <v>       0.93403180       0.28871654       0.61099415 </v>
   <v>       0.44576673       0.62359196       0.30016683 </v>
   <v>       0.80732536       0.86353035       0.16681156 </v>
   <v>       0.56626368       0.20320578       0.21150832 </v>
   <v>       0.93259136       0.61296797       0.16674070 </v>
   <v>       0.43709735       0.95542089       0.47848810 </v>
   <v>       0.55929018       0.37328986       0.78879744 </v>
   <v>       0.06167394       0.37134515       0.52121984 </v>
   <v>       0.30724625       0.36446258       0.16664033 </v>
   <v>       0.69506788       0.12345647       0.30030249 </v>
   <v>       0.44266271       0.96318740       0.83333046 </v>
   <v>       0.18503880       0.28683290       0.12417105 </v>
   <v>       0.18404940       0.28815461       0.25592510 </v>
   <v>       0.31282884       0.37062353       0.43437121 </v>
   <v>       0.56253366       0.03236994       0.12437043 </v>
   <v>       0.43396380       0.28862286       0.61086530 </v>
   <v>       0.18358928       0.45238739       0.34493140 </v>
   <v>       0.43490259       0.28689326       0.12415416 </v>
   <v>       0.68354239       0.78822168       0.25583557 </v>
   <v>       0.43663150       0.12122299       0.52132822 </v>
   <v>       0.18896231       0.29646415       0.87625473 </v>
   <v>       0.19113580       0.12520466       0.65502795 </v>
   <v>       0.94135133       0.12470136       0.65499951 </v>
   <v>       0.81626355       0.53768931       0.38885452 </v>
   <v>       0.06650367       0.03813896       0.38910499 </v>
   <v>       0.18333656       0.11236672       0.16650479 </v>
   <v>       0.05895941       0.53840257       0.61088287 </v>
   <v>       0.93420048       0.28823776       0.25590387 </v>
   <v>       0.55900422       0.53867354       0.61096026 </v>
   <v>       0.93652103       0.95706736       0.56556606 </v>
   <v>       0.69464482       0.62409947       0.30003950 </v>
   <v>       0.93710713       0.62062624       0.43442670 </v>
   <v>       0.93353053       0.62482540       0.78857895 </v>
   <v>       0.56077234       0.70741400       0.69975821 </v>
   <v>       0.06513446       0.71727119       0.83405868 </v>
   <v>       0.94494356       0.12253698       0.30000243 </v>
   <v>       0.93405171       0.78845856       0.61081686 </v>
   <v>       0.43343952       0.78784628       0.25569554 </v>
   <v>       0.30930904       0.37399911       0.78881426 </v>
   <v>       0.43968966       0.45376828       0.21138980 </v>
   <v>       0.18652399       0.12158252       0.52131705 </v>
   <v>       0.81090075       0.70755550       0.69977514 </v>
   <v>       0.05908321       0.03858943       0.61082294 </v>
   <v>       0.56620429       0.21360294       0.83333817 </v>
   <v>       0.31179547       0.87149659       0.52129688 </v>
   <v>       0.68605628       0.28699119       0.12397201 </v>
   <v>       0.18987614       0.95489887       0.21172303 </v>
   <v>       0.68407164       0.28885694       0.61096682 </v>
   <v>       0.30889220       0.03835803       0.61100734 </v>
   <v>       0.93482349       0.12406170       0.78876698 </v>
   <v>       0.43643810       0.79670420       0.87621253 </v>
   <v>       0.81548851       0.04048592       0.74446591 </v>
   <v>       0.93585653       0.45781502       0.69974642 </v>
   <v>       0.19108848       0.62488499       0.65508092 </v>
   <v>       0.31079224       0.70700457       0.69979273 </v>
   <v>       0.93427671       0.28708889       0.12403094 </v>
   <v>       0.43727223       0.45582699       0.47837478 </v>
   <v>       0.06206593       0.70564691       0.47830081 </v>
   <v>       0.93662369       0.11954004       0.43428627 </v>
   <v>       0.44394974       0.12352920       0.30044216 </v>
   <v>       0.18737134       0.12054483       0.43416352 </v>
   <v>       0.56252812       0.04067942       0.87600679 </v>
   <v>       0.18729335       0.95703651       0.56541332 </v>
   <v>       0.68454899       0.78789407       0.12441498 </v>
   <v>       0.55919976       0.70261334       0.34490327 </v>
   <v>       0.31639824       0.03716245       0.38882292 </v>
   <v>       0.68240652       0.11407194       0.16691816 </v>
   <v>       0.81542032       0.20399502       0.21115572 </v>
   <v>       0.05953399       0.53774703       0.25569758 </v>
   <v>       0.56207865       0.70543389       0.47843819 </v>
   <v>       0.43506829       0.78737111       0.12412001 </v>
   <v>       0.56944346       0.37209660       0.30017048 </v>
   <v>       0.43363656       0.95253544       0.34491201 </v>
   <v>       0.18555360       0.95740278       0.69982555 </v>
   <v>       0.43167761       0.61328130       0.16625071 </v>
   <v>       0.93975543       0.45380487       0.21169883 </v>
   <v>       0.06176827       0.52978974       0.12405263 </v>
   <v>       0.81150507       0.37119136       0.52127134 </v>
   <v>       0.94447338       0.62367731       0.29985211 </v>
   <v>       0.30956733       0.03782860       0.25547921 </v>
   <v>       0.68391567       0.78858225       0.61079912 </v>
   <v>       0.19187913       0.46281355       0.83351902 </v>
   <v>       0.43280488       0.11199731       0.16655392 </v>
   <v>       0.31149262       0.37156480       0.52131208 </v>
   <v>       0.43378178       0.62270618       0.78902546 </v>
   <v>       0.05889670       0.03735813       0.25572954 </v>
   <v>       0.56240571       0.70714995       0.56554271 </v>
   <v>       0.93936012       0.29032651       0.74446663 </v>
   <v>       0.68414880       0.12252648       0.78851659 </v>
   <v>       0.18977818       0.45346617       0.21120375 </v>
   <v>       0.94133913       0.78764249       0.38878184 </v>
   <v>       0.68530000       0.29892686       0.87619320 </v>
   <v>       0.55662015       0.86292844       0.16632379 </v>
   <v>       0.43587347       0.45748082       0.69973679 </v>
   <v>       0.93393636       0.95144028       0.34476688 </v>
   <v>       0.68648969       0.62104138       0.52124672 </v>
   <v>       0.06615395       0.87458992       0.65496035 </v>
   <v>       0.06078167       0.87435083       0.78853082 </v>
   <v>       0.06603290       0.37411172       0.65494821 </v>
   <v>       0.68678919       0.45530554       0.47841448 </v>
   <v>       0.18371372       0.78778785       0.25556140 </v>
   <v>       0.43694958       0.12075775       0.43429660 </v>
   <v>       0.81366965       0.03107982       0.12406415 </v>
   <v>       0.93651945       0.62140557       0.52128806 </v>
   <v>       0.44115872       0.12453943       0.65491760 </v>
   <v>       0.81341810       0.52942084       0.12402910 </v>
   <v>       0.43375757       0.45254351       0.34499785 </v>
   <v>       0.80908069       0.20272033       0.34496951 </v>
   <v>       0.30914263       0.70219381       0.34478097 </v>
   <v>       0.69122217       0.12489463       0.65494280 </v>
   <v>       0.57008269       0.87342614       0.30028903 </v>
   <v>       0.06456367       0.53984222       0.74439943 </v>
   <v>       0.94012626       0.95403459       0.21125163 </v>
   <v>       0.81581601       0.70389713       0.21140105 </v>
   <v>       0.06962024       0.87355589       0.30025615 </v>
   <v>       0.19452053       0.12325000       0.30021223 </v>
   <v>       0.05860229       0.70222556       0.34490992 </v>
   <v>       0.80898940       0.03865312       0.61091803 </v>
   <v>       0.06308049       0.37089406       0.43431348 </v>
   <v>       0.55901097       0.20281070       0.34472283 </v>
   <v>       0.81956057       0.37359039       0.30002415 </v>
   <v>       0.55997986       0.03791869       0.25548472 </v>
   <v>       0.56640723       0.53792119       0.38907084 </v>
   <v>       0.06234118       0.20545124       0.47839358 </v>
   <v>       0.31074446       0.87270514       0.78859198 </v>
   <v>       0.93553503       0.95778465       0.69965982 </v>
   <v>       0.06932115       0.37446887       0.30005521 </v>
   <v>       0.69123731       0.62478236       0.65518320 </v>
   <v>       0.68684926       0.45740708       0.56539335 </v>
   <v>       0.44027058       0.95563807       0.21207574 </v>
   <v>       0.31237641       0.20558468       0.47860728 </v>
   <v>       0.81225039       0.53944827       0.87590173 </v>
   <v>       0.68780846       0.62044945       0.43442184 </v>
   <v>       0.81097121       0.20738225       0.69985135 </v>
   <v>       0.81207308       0.70552003       0.47847745 </v>
   <v>       0.81165610       0.87057149       0.43426839 </v>
   <v>       0.93685031       0.95517823       0.47842462 </v>
   <v>       0.56209128       0.20535894       0.47849014 </v>
   <v>       0.18682049       0.62000857       0.43428647 </v>
   <v>       0.31463979       0.04153167       0.74427047 </v>
   <v>       0.94107609       0.62498806       0.65504288 </v>
   <v>       0.56581661       0.71330014       0.83320757 </v>
   <v>       0.32011106       0.37221487       0.30010718 </v>
   <v>       0.31445821       0.54103452       0.74434799 </v>
   <v>       0.18720884       0.45541975       0.47852751 </v>
   <v>       0.31563530       0.04004185       0.87596978 </v>
   <v>       0.18574665       0.45768860       0.69982617 </v>
   <v>       0.56168792       0.37142723       0.52131509 </v>
   <v>       0.19107354       0.28755321       0.38884859 </v>
   <v>       0.31575909       0.20577220       0.21125985 </v>
   <v>       0.06711517       0.70468396       0.21129334 </v>
   <v>       0.56160145       0.37071144       0.43418795 </v>
   <v>       0.43650381       0.62139762       0.52121657 </v>
   <v>       0.81671013       0.71522964       0.83349101 </v>
   <v>       0.05908834       0.37497056       0.78867816 </v>
   <v>       0.43730444       0.29781673       0.87650024 </v>
   <v>       0.31137909       0.03070739       0.12411241 </v>
   <v>       0.68768559       0.12000913       0.43421628 </v>
   <v>       0.18371046       0.95230932       0.34491625 </v>
   <v>       0.06605415       0.21552239       0.83437213 </v>
   <v>       0.55916379       0.03902642       0.61101558 </v>
   <v>       0.68900250       0.45400501       0.21176568 </v>
   <v>       0.18922152       0.79130982       0.74452054 </v>
   <v>       0.19469864       0.62309347       0.30024918 </v>
   <v>       0.44140469       0.78771549       0.38908460 </v>
   <v>       0.43365212       0.28825005       0.25581767 </v>
   <v>       0.06474134       0.53965486       0.87611185 </v>
   <v>       0.56548759       0.04091924       0.74437127 </v>
   <v>       0.18860704       0.79575914       0.87609273 </v>
   <v>       0.93724602       0.45508881       0.47842352 </v>
   <v>       0.56519305       0.54146591       0.74413978 </v>
   <v>       0.81162581       0.20748827       0.56545284 </v>
   <v>       0.18506654       0.62254278       0.78862871 </v>
   <v>       0.06727230       0.53815836       0.38906578 </v>
   <v>       0.06099368       0.70710780       0.69973082 </v>
   <v>       0.30874755       0.53788283       0.25559634 </v>
   <v>       0.31442716       0.70391412       0.21224168 </v>
   <v>       0.30606359       0.86493810       0.16580322 </v>
   <v>       0.43640223       0.62100346       0.43424813 </v>
   <v>       0.81799616       0.03948753       0.38912790 </v>
   <v>       0.93571272       0.29798705       0.87575530 </v>
   <v>       0.93789958       0.79526770       0.87583487 </v>
   <v>       0.06579039       0.03792619       0.87616211 </v>
   <v>       0.56264119       0.52900414       0.12453521 </v>
   <v>       0.80531717       0.36589797       0.16604801 </v>
   <v>       0.06166413       0.87126581       0.43442713 </v>
   <v>       0.94262967       0.96514870       0.83485883 </v>
   <v>       0.19317023       0.78738066       0.38872061 </v>
   <v>       0.56697859       0.70434708       0.21195479 </v>
  </varray>
 </structure>
 <calculation>
  <scstep>
   <time name="dav">   54.17   54.18</time>
   <time name="total">   54.32   54.36</time>
   <energy>
    <i name="alphaZ">  16293.21160653 </i>
    <i name="ewald"> 730887.95719226 </i>
    <i name="hartreedc">-921405.55870769 </i>
    <i name="XCdc">  -6512.81058665 </i>
    <i name="pawpsdc"> 162273.92519768 </i>
    <i name="pawaedc">-159623.75899949 </i>
    <i name="eentropy">     -1.08030425 </i>
    <i name="bandstr">  38489.46232426 </i>
    <i name="atom"> 168671.76673737 </i>
    <i name="e_fr_energy">  29073.11446002 </i>
    <i name="e_wo_entrp">  29074.19476428 </i>
    <i name="e_0_energy">  29073.65461215 </i>
   </energy>
  </scstep>
  <scstep>
   <time name="dav">   53.80   53.82</time>
   <time name="total">   53.81   53.83</time>
   <energy>
    <i name="e_fr_energy">   1187.44989163 </i>
    <i name="e_wo_entrp">   1188.94568447 </i>
    <i name="e_0_energy">   1188.19778805 </i>
   </energy>
  </scstep>
  <scstep>
   <time name="dav">   70.62   70.66</time>
   <time name="total">   70.63   70.67</time>
   <energy>
    <i name="e_fr_energy">  -1949.44643096 </i>
    <i name="e_wo_entrp">  -1945.90315616 </i>
    <i name="e_0_energy">  -1947.67479356 </i>
   </energy>
  </scstep>
  <scstep>
   <time name="dav">   88.36   88.40</time>
   <time name="total">   88.36   88.40</time>
   <energy>
    <i name="e_fr_energy">  -2619.00505256 </i>
    <i name="e_wo_entrp">  -2615.46877940 </i>
    <i name="e_0_energy">  -2617.23691598 </i>
   </energy>
  </scstep>
  <scstep>
   <time name="dav">   85.00   85.04</time>
   <time name="total">   87.09   87.13</time>
   <energy>
    <i name="e_fr_energy">  -2738.52995844 </i>
    <i name="e_wo_entrp">  -2734.86973421 </i>
    <i name="e_0_energy">  -2736.69984633 </i>
   </energy>
  </scstep>
  <scstep>
   <time name="diag">    8.25    8.25</time>
   <time name="diis">   36.98   36.98</time>
   <time name="orth">    2.31    2.31</time>
   <time name="total">   49.63   49.66</time>
   <energy>
    <i name="e_fr_energy">  -5237.22609981 </i>
    <i name="e_wo_entrp">  -5234.52749287 </i>
    <i name="e_0_energy">  -5235.87679634 </i>
   </energy>
  </scstep>
  <scstep>
   <time name="diag">    8.28    8.28</time>
   <time name="diis">   22.97   22.97</time>
   <time name="orth">    2.30    2.30</time>
   <time name="total">   35.61   35.65</time>
[...]
       <r>     5.8552     0.0000  2772.0000 </r>
       <r>     5.8979     0.0000  2772.0000 </r>
       <r>     5.9407     0.0000  2772.0000 </r>
       <r>     5.9834     0.0000  2772.0000 </r>
       <r>     6.0262     0.0000  2772.0000 </r>
       <r>     6.0689     0.0000  2772.0000 </r>
       <r>     6.1117     0.0000  2772.0000 </r>
       <r>     6.1544     0.0000  2772.0000 </r>
       <r>     6.1972     0.0000  2772.0000 </r>
       <r>     6.2399     0.0000  2772.0000 </r>
       <r>     6.2827     0.0000  2772.0000 </r>
       <r>     6.3254     0.0000  2772.0000 </r>
       <r>     6.3682     0.0000  2772.0000 </r>
       <r>     6.4109     0.0000  2772.0000 </r>
       <r>     6.4537     0.0000  2772.0000 </r>
       <r>     6.4964     0.0000  2772.0000 </r>
       <r>     6.5392     0.0000  2772.0000 </r>
       <r>     6.5819     0.0000  2772.0000 </r>
       <r>     6.6247     0.0000  2772.0000 </r>
       <r>     6.6675     0.0000  2772.0000 </r>
       <r>     6.7102     0.0000  2772.0000 </r>
       <r>     6.7530     0.0000  2772.0000 </r>
       <r>     6.7957     0.0000  2772.0000 </r>
      </set>
     </set>
    </array>
   </total>
  </dos>
 </calculation>
 <structure name="finalpos" >
  <crystal>
   <varray name="basis" >
    <v>       9.72667804       0.00000000       0.00000000 </v>
    <v>       0.00000000       8.42355028       0.00000000 </v>
    <v>       0.00000000       0.00000000      45.00000000 </v>
   </varray>
   <i name="volume">   3686.99226691 </i>
   <varray name="rec_basis" >
    <v>       0.10281002       0.00000000       0.00000000 </v>
    <v>       0.00000000       0.11871479       0.00000000 </v>
    <v>       0.00000000       0.00000000       0.02222222 </v>
   </varray>
  </crystal>
  <varray name="positions" >
   <v>       0.06127951       0.03313919       0.12444171 </v>
   <v>       0.31368233       0.87399178       0.65502329 </v>
   <v>       0.18672383       0.12472796       0.78841093 </v>
   <v>       0.44006925       0.28797034       0.38929267 </v>
   <v>       0.31471803       0.71100571       0.83350931 </v>
   <v>       0.81593822       0.21253142       0.83383560 </v>
   <v>       0.18933407       0.96168603       0.83397091 </v>
   <v>       0.56182218       0.20622323       0.56570195 </v>
   <v>       0.06337934       0.04118351       0.74415274 </v>
   <v>       0.81171253       0.87230430       0.52161748 </v>
   <v>       0.18828453       0.29119560       0.74427147 </v>
   <v>       0.93703385       0.45402748       0.34487940 </v>
   <v>       0.93932690       0.28767860       0.38920536 </v>
   <v>       0.81240917       0.04489588       0.87594948 </v>
   <v>       0.18610655       0.78932372       0.61055688 </v>
   <v>       0.56422916       0.03802834       0.38927613 </v>
   <v>       0.93684599       0.12254304       0.52154230 </v>
   <v>       0.31393228       0.54426505       0.87574778 </v>
   <v>       0.68850172       0.29126360       0.74425184 </v>
   <v>       0.18485634       0.61648652       0.16645025 </v>
   <v>       0.81222754       0.20478383       0.47830326 </v>
   <v>       0.81102936       0.53936677       0.61060829 </v>
   <v>       0.31278385       0.87136266       0.43420810 </v>
   <v>       0.81184136       0.03733175       0.25588731 </v>
   <v>       0.68705821       0.95390520       0.34490390 </v>
   <v>       0.93363441       0.11622029       0.16663017 </v>
   <v>       0.06178336       0.87241240       0.52149138 </v>
   <v>       0.56152631       0.53763965       0.25577631 </v>
   <v>       0.68720578       0.79434029       0.87562792 </v>
   <v>       0.55890974       0.36679351       0.16626721 </v>
   <v>       0.43845191       0.79165700       0.74423646 </v>
   <v>       0.81177117       0.70625920       0.56567544 </v>
   <v>       0.56160117       0.87432781       0.78834531 </v>
   <v>       0.68678082       0.12237629       0.52154085 </v>
   <v>       0.81354845       0.37398790       0.65503060 </v>
   <v>       0.94029143       0.46212872       0.83393354 </v>
   <v>       0.06184216       0.20740565       0.69979354 </v>
   <v>       0.43691126       0.95708482       0.69974723 </v>
   <v>       0.31422240       0.21135354       0.83385459 </v>
   <v>       0.43860920       0.62410722       0.65496825 </v>
   <v>       0.31109354       0.53947985       0.61059825 </v>
   <v>       0.93685148       0.45617941       0.56568940 </v>
   <v>       0.68855667       0.79134179       0.74419164 </v>
   <v>       0.93418865       0.78359378       0.12469957 </v>
   <v>       0.68979966       0.78768015       0.38920481 </v>
   <v>       0.93857100       0.79103129       0.74421082 </v>
   <v>       0.06222878       0.20422494       0.34485461 </v>
   <v>       0.68741849       0.45371240       0.34486384 </v>
   <v>       0.43644418       0.12477234       0.78852213 </v>
   <v>       0.06298918       0.20312134       0.21152605 </v>
   <v>       0.05777680       0.36656123       0.16625879 </v>
   <v>       0.93651016       0.78767031       0.25574015 </v>
   <v>       0.56186529       0.20726686       0.69980786 </v>
   <v>       0.68697242       0.95735950       0.69981901 </v>
   <v>       0.81129571       0.87456598       0.78838107 </v>
   <v>       0.43673689       0.95617943       0.56569757 </v>
   <v>       0.81149837       0.37464046       0.78844297 </v>
   <v>       0.68673761       0.28718578       0.25590732 </v>
   <v>       0.18665785       0.45623377       0.56567943 </v>
   <v>       0.05893675       0.86681523       0.16640905 </v>
   <v>       0.18600936       0.28932680       0.61058456 </v>
   <v>       0.06165848       0.20617471       0.56567363 </v>
   <v>       0.31198725       0.20733188       0.69979470 </v>
   <v>       0.56402862       0.54516503       0.87567473 </v>
   <v>       0.06166355       0.70613002       0.56567607 </v>
   <v>       0.68628951       0.62470853       0.78831503 </v>
   <v>       0.31446636       0.53750182       0.38926978 </v>
   <v>       0.18680149       0.62234076       0.52161943 </v>
   <v>       0.56250412       0.87142549       0.43414179 </v>
   <v>       0.43682991       0.45624065       0.56570981 </v>
   <v>       0.43840659       0.29180588       0.74419844 </v>
   <v>       0.81571114       0.87257123       0.30024448 </v>
   <v>       0.81207833       0.70345884       0.34493588 </v>
   <v>       0.44006903       0.46077455       0.83371653 </v>
   <v>       0.68713084       0.95463437       0.47832022 </v>
   <v>       0.68694946       0.45737858       0.69981230 </v>
   <v>       0.56160244       0.87245567       0.52156692 </v>
   <v>       0.56363929       0.37401494       0.65504267 </v>
   <v>       0.81366755       0.87399187       0.65499087 </v>
   <v>       0.81188602       0.37065636       0.43412901 </v>
   <v>       0.81169427       0.53700742       0.25592241 </v>
   <v>       0.68989976       0.46161210       0.83372527 </v>
   <v>       0.18557085       0.78355111       0.12426550 </v>
   <v>       0.68919280       0.28772899       0.38920618 </v>
   <v>       0.31360550       0.37414416       0.65499342 </v>
   <v>       0.31216886       0.20387474       0.34496581 </v>
   <v>       0.81346476       0.54116685       0.74415681 </v>
   <v>       0.69015866       0.96104215       0.83381744 </v>
   <v>       0.56365210       0.87420050       0.65501016 </v>
   <v>       0.31184270       0.70622324       0.56565717 </v>
   <v>       0.31014720       0.53370747       0.12424884 </v>
   <v>       0.68825291       0.95392699       0.21169768 </v>
   <v>       0.31184188       0.20623526       0.56571498 </v>
   <v>       0.18740183       0.95480943       0.47833482 </v>
   <v>       0.68680650       0.95612553       0.56571122 </v>
   <v>       0.43600505       0.78940069       0.61057164 </v>
   <v>       0.68298160       0.61480066       0.16641409 </v>
   <v>       0.31548988       0.87212014       0.30023543 </v>
   <v>       0.31191652       0.70489791       0.47824318 </v>
   <v>       0.93600877       0.28944207       0.61056109 </v>
   <v>       0.44076980       0.62178427       0.30025944 </v>
   <v>       0.80879742       0.86573899       0.16659290 </v>
   <v>       0.56396023       0.20276349       0.21178842 </v>
   <v>       0.93446990       0.61508697       0.16660895 </v>
   <v>       0.43718257       0.95463063       0.47828415 </v>
   <v>       0.56144667       0.37410097       0.78838599 </v>
   <v>       0.06169991       0.37241626       0.52151780 </v>
   <v>       0.30867970       0.36611573       0.16620739 </v>
   <v>       0.69093935       0.12178928       0.30032224 </v>
   <v>       0.44043041       0.96103981       0.83363906 </v>
   <v>       0.18509329       0.28327159       0.12454342 </v>
   <v>       0.18666789       0.28670903       0.25585790 </v>
   <v>       0.31261580       0.37109410       0.43416280 </v>
   <v>       0.56073024       0.03356201       0.12445386 </v>
   <v>       0.43604976       0.28940597       0.61056447 </v>
   <v>       0.18703404       0.45393220       0.34487854 </v>
   <v>       0.43380476       0.28302553       0.12457072 </v>
   <v>       0.68669275       0.78769009       0.25596664 </v>
   <v>       0.43686993       0.12252735       0.52152301 </v>
   <v>       0.18968852       0.29390875       0.87596774 </v>
   <v>       0.18867250       0.12404518       0.65503611 </v>
   <v>       0.93864671       0.12391111       0.65503957 </v>
   <v>       0.81440881       0.53760839       0.38920025 </v>
   <v>       0.06474929       0.03804526       0.38927807 </v>
   <v>       0.18387778       0.11516482       0.16654942 </v>
   <v>       0.06100212       0.53944127       0.61059291 </v>
   <v>       0.93666524       0.28716792       0.25582200 </v>
   <v>       0.56102851       0.53942602       0.61058793 </v>
   <v>       0.93693950       0.95628865       0.56565397 </v>
   <v>       0.69063510       0.62223358       0.30036717 </v>
   <v>       0.93747046       0.62096055       0.43407679 </v>
   <v>       0.93633735       0.62598981       0.78839211 </v>
   <v>       0.56190244       0.70723524       0.69976375 </v>
   <v>       0.06432574       0.71326592       0.83381908 </v>
   <v>       0.94077793       0.12247489       0.30024371 </v>
   <v>       0.93600146       0.78942989       0.61056931 </v>
   <v>       0.43691624       0.78748544       0.25598770 </v>
   <v>       0.31166615       0.37403963       0.78836585 </v>
   <v>       0.43844327       0.45399658       0.21163041 </v>
   <v>       0.18661684       0.12254438       0.52154383 </v>
   <v>       0.81199814       0.70731798       0.69980662 </v>
   <v>       0.06107056       0.03952902       0.61057418 </v>
   <v>       0.56451212       0.21134728       0.83352695 </v>
   <v>       0.31187615       0.87242616       0.52163761 </v>
   <v>       0.68587666       0.28301102       0.12433091 </v>
   <v>       0.18823841       0.95471332       0.21169071 </v>
   <v>       0.68610904       0.28947628       0.61058886 </v>
   <v>       0.31098795       0.03936040       0.61057708 </v>
   <v>       0.93667603       0.12595487       0.78858487 </v>
   <v>       0.43808383       0.79323327       0.87568368 </v>
   <v>       0.81373002       0.04130178       0.74410203 </v>
   <v>       0.93694430       0.45724102       0.69980485 </v>
   <v>       0.18859416       0.62391632       0.65502309 </v>
   <v>       0.31191983       0.70729023       0.69983692 </v>
   <v>       0.93439105       0.28307922       0.12434671 </v>
   <v>       0.43723544       0.45438846       0.47829203 </v>
   <v>       0.06222861       0.70429009       0.47836218 </v>
   <v>       0.93737131       0.12096690       0.43417078 </v>
   <v>       0.44095964       0.12136637       0.30024981 </v>
   <v>       0.18712357       0.12099316       0.43413492 </v>
   <v>       0.56404020       0.04450789       0.87568214 </v>
   <v>       0.18668367       0.95625019       0.56568903 </v>
   <v>       0.68506033       0.78417425       0.12463442 </v>
   <v>       0.56237528       0.70372077       0.34496142 </v>
   <v>       0.31470273       0.03771021       0.38922373 </v>
   <v>       0.68477427       0.11604969       0.16671002 </v>
   <v>       0.81395619       0.20296114       0.21163528 </v>
   <v>       0.06133503       0.53752500       0.25567081 </v>
   <v>       0.56237450       0.70485979       0.47828966 </v>
   <v>       0.43463487       0.78386989       0.12421136 </v>
   <v>       0.56546885       0.37168568       0.30034090 </v>
   <v>       0.43702702       0.95395147       0.34487822 </v>
   <v>       0.18693610       0.95727823       0.69980352 </v>
   <v>       0.43387403       0.61591966       0.16634022 </v>
   <v>       0.93842641       0.45331341       0.21176545 </v>
   <v>       0.06060980       0.53266047       0.12437252 </v>
   <v>       0.81179481       0.37245888       0.52151254 </v>
   <v>       0.94082480       0.62260686       0.30012751 </v>
   <v>       0.31173146       0.03716822       0.25582237 </v>
   <v>       0.68596820       0.78932260       0.61058584 </v>
   <v>       0.19015402       0.46183696       0.83390784 </v>
   <v>       0.43449818       0.11476468       0.16665439 </v>
   <v>       0.31177418       0.37243311       0.52157688 </v>
   <v>       0.43633905       0.62453623       0.78853268 </v>
   <v>       0.06140410       0.03744869       0.25580088 </v>
   <v>       0.56166850       0.70620908       0.56568049 </v>
   <v>       0.93854983       0.29105793       0.74421761 </v>
   <v>       0.68620283       0.12500544       0.78831792 </v>
   <v>       0.18753455       0.45350978       0.21156372 </v>
   <v>       0.93905540       0.78731188       0.38923813 </v>
   <v>       0.68711058       0.29476558       0.87578392 </v>
   <v>       0.55738779       0.86571692       0.16639951 </v>
   <v>       0.43688888       0.45715887       0.69976154 </v>
   <v>       0.93752028       0.95366197       0.34486557 </v>
   <v>       0.68682316       0.62223606       0.52152546 </v>
   <v>       0.06365333       0.87396918       0.65500251 </v>
   <v>       0.06202966       0.87463692       0.78851089 </v>
   <v>       0.06373950       0.37405465       0.65502672 </v>
   <v>       0.68706516       0.45467839       0.47820603 </v>
   <v>       0.18647941       0.78782035       0.25593658 </v>
   <v>       0.43735324       0.12116259       0.43422124 </v>
   <v>       0.81105988       0.03383741       0.12451188 </v>
   <v>       0.93664863       0.62225492       0.52152956 </v>
   <v>       0.43867428       0.12412511       0.65503907 </v>
   <v>       0.81226984       0.53315111       0.12412833 </v>
   <v>       0.43741024       0.45390834       0.34493194 </v>
   <v>       0.81228815       0.20361626       0.34492904 </v>
   <v>       0.31246396       0.70367476       0.34486182 </v>
   <v>       0.68858468       0.12418695       0.65501450 </v>
   <v>       0.56568838       0.87190646       0.30028217 </v>
   <v>       0.06342512       0.54089386       0.74416736 </v>
   <v>       0.93842478       0.95410885       0.21163295 </v>
   <v>       0.81367127       0.70313154       0.21169510 </v>
   <v>       0.06552664       0.87216201       0.30032120 </v>
   <v>       0.19050664       0.12234127       0.30012400 </v>
   <v>       0.06214493       0.70373242       0.34489551 </v>
   <v>       0.81110201       0.03940770       0.61058196 </v>
   <v>       0.06254494       0.37064003       0.43415259 </v>
   <v>       0.56244849       0.20381783       0.34494768 </v>
   <v>       0.81563525       0.37252537       0.30022495 </v>
   <v>       0.56225559       0.03773286       0.25588437 </v>
   <v>       0.56420546       0.53726257       0.38925422 </v>
   <v>       0.06218707       0.20454317       0.47830637 </v>
   <v>       0.31189828       0.87405633       0.78828659 </v>
   <v>       0.93699488       0.95737614       0.69973276 </v>
   <v>       0.06593183       0.37226955       0.30026668 </v>
   <v>       0.68859403       0.62406348       0.65503499 </v>
   <v>       0.68676019       0.45611795       0.56567180 </v>
   <v>       0.43838654       0.95426030       0.21180475 </v>
   <v>       0.31214742       0.20461421       0.47830946 </v>
   <v>       0.81261271       0.54446549       0.87568643 </v>
   <v>       0.68781232       0.62062798       0.43410120 </v>
   <v>       0.81198440       0.20743687       0.69980432 </v>
   <v>       0.81224597       0.70464343       0.47832347 </v>
   <v>       0.81183269       0.87135890       0.43426512 </v>
   <v>       0.93710232       0.95462997       0.47835238 </v>
   <v>       0.56228589       0.20461495       0.47834076 </v>
   <v>       0.18709284       0.62071065       0.43419525 </v>
   <v>       0.31336655       0.04157678       0.74424660 </v>
   <v>       0.93872158       0.62408584       0.65500627 </v>
   <v>       0.56436477       0.71080233       0.83345908 </v>
   <v>       0.31570168       0.37194207       0.30034231 </v>
   <v>       0.31336398       0.54114917       0.74424131 </v>
   <v>       0.18742032       0.45471504       0.47827231 </v>
   <v>       0.31538462       0.04531322       0.87569730 </v>
   <v>       0.18684351       0.45733296       0.69983299 </v>
   <v>       0.56184603       0.37236606       0.52155793 </v>
   <v>       0.18925779       0.28780308       0.38925975 </v>
   <v>       0.31324755       0.20317729       0.21154626 </v>
   <v>       0.06414356       0.70309919       0.21152085 </v>
   <v>       0.56250476       0.37092896       0.43418974 </v>
   <v>       0.43678895       0.62242127       0.52145108 </v>
   <v>       0.81486468       0.71306252       0.83354953 </v>
   <v>       0.06180899       0.37505453       0.78853060 </v>
   <v>       0.43779591       0.29379896       0.87584909 </v>
   <v>       0.31101664       0.03345191       0.12413784 </v>
   <v>       0.68782212       0.12151852       0.43423379 </v>
   <v>       0.18715827       0.95364590       0.34489264 </v>
   <v>       0.06406627       0.21191881       0.83386989 </v>
   <v>       0.56109051       0.03945826       0.61058170 </v>
   <v>       0.68814888       0.45307284       0.21171943 </v>
   <v>       0.18843102       0.79110009       0.74416984 </v>
   <v>       0.19068698       0.62207583       0.30021635 </v>
   <v>       0.43986616       0.78745494       0.38926153 </v>
   <v>       0.43675775       0.28724868       0.25580166 </v>
   <v>       0.06553513       0.54416883       0.87580959 </v>
   <v>       0.56367125       0.04177200       0.74421840 </v>
   <v>       0.18883376       0.79323672       0.87583017 </v>
   <v>       0.93711344       0.45466463       0.47825283 </v>
   <v>       0.56347937       0.54154158       0.74413986 </v>
   <v>       0.81187415       0.20623989       0.56569235 </v>
   <v>       0.18663047       0.62483831       0.78838183 </v>
   <v>       0.06488532       0.53810775       0.38930966 </v>
   <v>       0.06201187       0.70740981       0.69976066 </v>
   <v>       0.31153578       0.53717640       0.25569017 </v>
   <v>       0.31258153       0.70281640       0.21184402 </v>
   <v>       0.30813218       0.86611416       0.16587983 </v>
   <v>       0.43685920       0.62087513       0.43412341 </v>
   <v>       0.81524962       0.03776906       0.38922713 </v>
   <v>       0.93672741       0.29442975       0.87579422 </v>
   <v>       0.93755737       0.79201645       0.87600388 </v>
   <v>       0.06552378       0.04311915       0.87599075 </v>
   <v>       0.56147656       0.53298479       0.12460255 </v>
   <v>       0.80783108       0.36640139       0.16582461 </v>
   <v>       0.06182837       0.87179575       0.43426968 </v>
   <v>       0.94114344       0.96261830       0.83424687 </v>
   <v>       0.19016941       0.78684834       0.38900589 </v>
   <v>       0.56474081       0.70321202       0.21185229 </v>
  </varray>
 </structure>
</modeling>
