       N       E                     dE             d eps       ncg     rms          rms(c)
DAV:   1     0.303313362892E+05    0.30331E+05   -0.91515E+05 13790   0.214E+03
DAV:   2     0.156257464055E+04   -0.28769E+05   -0.28191E+05 13700   0.619E+02
DAV:   3    -0.188295376775E+04   -0.34455E+04   -0.30081E+04 19160   0.300E+02
DAV:   4    -0.261085530952E+04   -0.72790E+03   -0.66441E+03 25130   0.105E+02
DAV:   5    -0.274377409060E+04   -0.13292E+03   -0.12447E+03 23890   0.430E+01    0.208E+02
RMM:   6    -0.621705601265E+04   -0.34733E+04   -0.14052E+04 23997   0.270E+02    0.721E+02
RMM:   7    -0.495812985950E+04    0.12589E+04   -0.55402E+03 24635   0.113E+02    0.483E+02
RMM:   8    -0.118213916103E+05   -0.68633E+04   -0.31039E+04 24347   0.428E+02    0.137E+03
RMM:   9    -0.143841695795E+05   -0.25628E+04   -0.25889E+04 24603   0.234E+02    0.113E+03
RMM:  10    -0.839395914611E+04    0.59902E+04   -0.11494E+04 23832   0.222E+02    0.824E+02
RMM:  11    -0.122941017656E+05   -0.39001E+04   -0.13734E+04 22459   0.214E+02    0.983E+02
RMM:  12    -0.835207722144E+04    0.39420E+04   -0.73777E+03 23043   0.141E+02    0.708E+02
RMM:  13    -0.701514352169E+04    0.13369E+04   -0.39579E+03 21559   0.104E+02    0.606E+02
RMM:  14    -0.682054728919E+04    0.19460E+03   -0.31320E+03 14180   0.119E+02    0.596E+02
RMM:  15    -0.338871614367E+04    0.34318E+04   -0.19778E+03 20719   0.123E+02    0.447E+02
RMM:  16    -0.391457240721E+04   -0.52586E+03   -0.31089E+03 23106   0.783E+01    0.448E+02
RMM:  17    -0.331317852086E+04    0.60139E+03   -0.23292E+03 22965   0.958E+01    0.355E+02
RMM:  18    -0.292883266180E+04    0.38435E+03   -0.17009E+03 18658   0.764E+01    0.313E+02
RMM:  19    -0.231002853774E+04    0.61880E+03   -0.24470E+03 23113   0.754E+01    0.216E+02
RMM:  20    -0.234791312533E+04   -0.37885E+02   -0.15707E+03 24420   0.629E+01    0.217E+02
RMM:  21    -0.253132073471E+04   -0.18341E+03   -0.15548E+03 22525   0.543E+01    0.167E+02
RMM:  22    -0.242895684239E+04    0.10236E+03   -0.11768E+03 24858   0.419E+01    0.142E+02
RMM:  23    -0.242689543403E+04    0.20614E+01   -0.96470E+02 23099   0.330E+01    0.121E+02
RMM:  24    -0.244559836875E+04   -0.18703E+02   -0.83482E+02 23025   0.252E+01    0.945E+01
RMM:  25    -0.246474193084E+04   -0.19144E+02   -0.71419E+02 22888   0.199E+01    0.100E+02
RMM:  26    -0.246867384076E+04   -0.39319E+01   -0.53293E+02 22570   0.145E+01    0.962E+01
RMM:  27    -0.246000372504E+04    0.86701E+01   -0.40371E+02 21354   0.118E+01    0.993E+01
RMM:  28    -0.247215150889E+04   -0.12148E+02   -0.37378E+02 23220   0.736E+00    0.109E+02
RMM:  29    -0.258192426801E+04   -0.10977E+03   -0.44029E+02 20868   0.919E+00    0.141E+02
RMM:  30    -0.252257052957E+04    0.59354E+02   -0.20936E+02 16731   0.115E+01    0.150E+02
RMM:  31    -0.246611426346E+04    0.56456E+02   -0.13546E+02 22016   0.619E+00    0.142E+02
RMM:  32    -0.243647579844E+04    0.29638E+02   -0.51754E+01 21338   0.336E+00    0.133E+02
RMM:  33    -0.242317314487E+04    0.13303E+02   -0.24638E+01 16801   0.542E+00    0.127E+02
RMM:  34    -0.240206279435E+04    0.21110E+02   -0.23503E+01 20207   0.409E+00    0.113E+02
RMM:  35    -0.238003125862E+04    0.22032E+02   -0.17039E+01 17285   0.441E+00    0.974E+01
RMM:  36    -0.235608870139E+04    0.23943E+02   -0.32890E+01 18051   0.622E+00    0.736E+01
RMM:  37    -0.234609941494E+04    0.99893E+01   -0.36420E+01 17382   0.733E+00    0.606E+01
RMM:  38    -0.235417575138E+04   -0.80763E+01   -0.52103E+01 21135   0.612E+00    0.672E+01
RMM:  39    -0.235469928538E+04   -0.52353E+00   -0.20112E+01 19294   0.406E+00    0.675E+01
RMM:  40    -0.235969028164E+04   -0.49910E+01   -0.12960E+01 20522   0.289E+00    0.737E+01
RMM:  41    -0.235858906073E+04    0.11012E+01   -0.45164E+00 16388   0.282E+00    0.735E+01
RMM:  42    -0.235565148925E+04    0.29376E+01   -0.21464E+00 16033   0.200E+00    0.707E+01
RMM:  43    -0.235023561186E+04    0.54159E+01   -0.14254E+00 15983   0.173E+00    0.633E+01
RMM:  44    -0.234635344854E+04    0.38822E+01   -0.35868E+00 19326   0.221E+00    0.574E+01
RMM:  45    -0.235052684531E+04   -0.41734E+01   -0.15864E+01 18692   0.432E+00    0.602E+01
RMM:  46    -0.235015006166E+04    0.37678E+00   -0.13389E+01 21088   0.305E+00    0.581E+01
RMM:  47    -0.234274953300E+04    0.74005E+01   -0.53213E+00 16389   0.333E+00    0.491E+01
RMM:  48    -0.233764495308E+04    0.51046E+01   -0.35840E+00 14280   0.377E+00    0.410E+01
RMM:  49    -0.233720611024E+04    0.43884E+00   -0.51181E+00 19719   0.249E+00    0.397E+01
RMM:  50    -0.233763240331E+04   -0.42629E+00   -0.33809E+00 19030   0.199E+00    0.402E+01
RMM:  51    -0.240242463468E+04   -0.64792E+02   -0.71205E+01 16134   0.124E+01    0.106E+02
RMM:  52    -0.240098731032E+04    0.14373E+01   -0.41735E+01 16838   0.923E+00    0.105E+02
RMM:  53    -0.239356803650E+04    0.74193E+01   -0.34921E+01 21819   0.341E+00    0.101E+02
RMM:  54    -0.239354129768E+04    0.26739E-01   -0.91110E+00 15105   0.449E+00    0.103E+02
RMM:  55    -0.242834173413E+04   -0.34800E+02   -0.26501E+01 15715   0.756E+00    0.122E+02
RMM:  56    -0.241550259079E+04    0.12839E+02   -0.98174E+01 19970   0.104E+01    0.114E+02
RMM:  57    -0.245469192298E+04   -0.39189E+02   -0.73001E+01 20840   0.635E+00    0.135E+02
RMM:  58    -0.245806165471E+04   -0.33697E+01   -0.35793E+01 22138   0.294E+00    0.140E+02
RMM:  59    -0.245956127465E+04   -0.14996E+01   -0.14893E+01 21176   0.162E+00    0.144E+02
RMM:  60    -0.249006506600E+04   -0.30504E+02   -0.20216E+01 18529   0.377E+00    0.160E+02
RMM:  61    -0.239134877067E+04    0.98716E+02   -0.61594E+01 15279   0.120E+01    0.104E+02
RMM:  62    -0.238716240949E+04    0.41864E+01   -0.71964E+01 19218   0.925E+00    0.100E+02
RMM:  63    -0.238239208369E+04    0.47703E+01   -0.40987E+01 20950   0.553E+00    0.973E+01
RMM:  64    -0.237653905053E+04    0.58530E+01   -0.17033E+01 19859   0.330E+00    0.938E+01
RMM:  65    -0.237775721688E+04   -0.12182E+01   -0.11425E+01 14285   0.660E+00    0.955E+01
RMM:  66    -0.242541465511E+04   -0.47657E+02   -0.35530E+01 13789   0.120E+01    0.126E+02
RMM:  67    -0.239439204086E+04    0.31023E+02   -0.50247E+01 21084   0.501E+00    0.104E+02
RMM:  68    -0.238104917632E+04    0.13343E+02   -0.12796E+01 14807   0.650E+00    0.951E+01
RMM:  69    -0.236547884522E+04    0.15570E+02   -0.22653E+01 14431   0.898E+00    0.799E+01
RMM:  70    -0.234916815722E+04    0.16311E+02   -0.23634E+01 14196   0.941E+00    0.620E+01
RMM:  71    -0.237864661362E+04   -0.29478E+02   -0.39016E+01 14602   0.115E+01    0.898E+01
RMM:  72    -0.235465845447E+04    0.23988E+02   -0.20902E+01 13843   0.920E+00    0.651E+01
RMM:  73    -0.234669640609E+04    0.79620E+01   -0.15290E+01 14066   0.780E+00    0.565E+01
RMM:  74    -0.234444333374E+04    0.22531E+01   -0.18020E+01 16985   0.534E+00    0.527E+01
RMM:  75    -0.234336058680E+04    0.10827E+01   -0.67479E+00 16528   0.347E+00    0.503E+01
RMM:  76    -0.234306191374E+04    0.29867E+00   -0.10493E+01 13812   0.671E+00    0.507E+01
RMM:  77    -0.234196072823E+04    0.11012E+01   -0.63813E+00 13701   0.630E+00    0.477E+01
RMM:  78    -0.234085735946E+04    0.11034E+01   -0.25409E+00 14334   0.326E+00    0.455E+01
RMM:  79    -0.233885322567E+04    0.20041E+01   -0.22789E+00 16221   0.208E+00    0.420E+01
RMM:  80    -0.233851550680E+04    0.33772E+00   -0.94527E-01 15528   0.153E+00    0.411E+01
RMM:  81    -0.234681955718E+04   -0.83041E+01   -0.69552E+00 14036   0.541E+00    0.550E+01
RMM:  82    -0.234092993648E+04    0.58896E+01   -0.31556E+00 13700   0.485E+00    0.455E+01
RMM:  83    -0.233878126660E+04    0.21487E+01   -0.10616E+00 14361   0.203E+00    0.416E+01
RMM:  84    -0.233835586245E+04    0.42540E+00   -0.15175E+00 13993   0.265E+00    0.403E+01
RMM:  85    -0.233654953358E+04    0.18063E+01   -0.17185E+00 13957   0.289E+00    0.362E+01
RMM:  86    -0.234521619249E+04   -0.86667E+01   -0.11144E+01 14167   0.665E+00    0.524E+01
RMM:  87    -0.233388348348E+04    0.11333E+02   -0.52400E+00 13700   0.595E+00    0.288E+01
RMM:  88    -0.233218123330E+04    0.17023E+01   -0.31449E+00 14048   0.388E+00    0.230E+01
RMM:  89    -0.233136790440E+04    0.81333E+00   -0.30196E+00 14698   0.316E+00    0.185E+01
RMM:  90    -0.233121353571E+04    0.15437E+00   -0.25910E+00 16791   0.202E+00    0.171E+01
RMM:  91    -0.233224940484E+04   -0.10359E+01   -0.15694E+00 15141   0.210E+00    0.222E+01
RMM:  92    -0.233144982856E+04    0.79958E+00   -0.55807E-01 14342   0.155E+00    0.179E+01
RMM:  93    -0.233127352300E+04    0.17631E+00   -0.67069E-01 16619   0.107E+00    0.167E+01
RMM:  94    -0.233100539566E+04    0.26813E+00   -0.62091E-01 15590   0.122E+00    0.144E+01
RMM:  95    -0.233078786313E+04    0.21753E+00   -0.39631E-01 14665   0.120E+00    0.124E+01
RMM:  96    -0.233573652495E+04   -0.49487E+01   -0.76822E+00 13982   0.554E+00    0.311E+01
RMM:  97    -0.233089058520E+04    0.48459E+01   -0.26974E+00 13700   0.460E+00    0.120E+01
RMM:  98    -0.233039821715E+04    0.49237E+00   -0.60381E-01 14232   0.158E+00    0.811E+00
RMM:  99    -0.233047319084E+04   -0.74974E-01   -0.94571E-01 16827   0.125E+00    0.830E+00
RMM: 100    -0.233038792265E+04    0.85268E-01   -0.43674E-01 15102   0.112E+00    0.694E+00
RMM: 101    -0.233045175711E+04   -0.63834E-01   -0.65171E-01 15793   0.123E+00    0.697E+00
RMM: 102    -0.233035178075E+04    0.99976E-01   -0.25982E-01 14061   0.108E+00    0.582E+00
RMM: 103    -0.233027867077E+04    0.73110E-01   -0.15258E-01 13979   0.884E-01    0.458E+00
RMM: 104    -0.233023774403E+04    0.40927E-01   -0.11659E-01 14488   0.701E-01    0.363E+00
RMM: 105    -0.233021993331E+04    0.17811E-01   -0.16411E-01 14755   0.742E-01    0.306E+00
RMM: 106    -0.233037226402E+04   -0.15233E+00   -0.55772E-01 15432   0.118E+00    0.580E+00
RMM: 107    -0.233021024485E+04    0.16202E+00   -0.14290E-01 13709   0.891E-01    0.227E+00
RMM: 108    -0.233020591756E+04    0.43273E-02   -0.87677E-02 15783   0.454E-01    0.222E+00
RMM: 109    -0.233021566211E+04   -0.97446E-02   -0.46403E-02 14773   0.390E-01    0.248E+00
RMM: 110    -0.233020275792E+04    0.12904E-01   -0.39934E-02 14759   0.366E-01    0.186E+00
RMM: 111    -0.233027866766E+04   -0.75910E-01   -0.88158E-02 14529   0.555E-01    0.412E+00
RMM: 112    -0.233020037100E+04    0.78297E-01   -0.33955E-02 13712   0.449E-01    0.148E+00
RMM: 113    -0.233019572121E+04    0.46498E-02   -0.16936E-02 14257   0.278E-01    0.134E+00
RMM: 114    -0.233019337092E+04    0.23503E-02   -0.19403E-02 15415   0.225E-01    0.106E+00
RMM: 115    -0.233019122246E+04    0.21485E-02   -0.92245E-03 14278   0.205E-01    0.864E-01
RMM: 116    -0.233019208101E+04   -0.85854E-03   -0.11856E-02 15621   0.169E-01    0.889E-01
RMM: 117    -0.233018869222E+04    0.33888E-02   -0.47969E-03 14649   0.134E-01    0.406E-01
RMM: 118    -0.233018958940E+04   -0.89717E-03   -0.64861E-03 17626   0.897E-02    0.509E-01
RMM: 119    -0.233018884543E+04    0.74397E-03   -0.21317E-03 15514   0.734E-02    0.310E-01
RMM: 120    -0.233018877546E+04    0.69964E-04   -0.17514E-03 17535   0.515E-02    0.250E-01
RMM: 121    -0.233018911513E+04   -0.33967E-03   -0.12554E-03 14765   0.662E-02    0.326E-01
RMM: 122    -0.233018868112E+04    0.43401E-03   -0.57290E-04 14170   0.546E-02    0.166E-01
RMM: 123    -0.233018875010E+04   -0.68980E-04   -0.57034E-04 15799   0.347E-02    0.157E-01
RMM: 124    -0.233018883043E+04   -0.80329E-04   -0.43983E-04 16995   0.263E-02    0.166E-01
RMM: 125    -0.233018883896E+04   -0.85320E-05   -0.25376E-04 15289   0.242E-02    0.138E-01
RMM: 126    -0.233018885954E+04   -0.20584E-04   -0.22872E-04 14371   0.297E-02    0.137E-01
RMM: 127    -0.233018882919E+04    0.30351E-04   -0.88871E-05 12705   0.227E-02    0.770E-02
RMM: 128    -0.233018883746E+04   -0.82649E-05   -0.70688E-05 10638   0.100E-02
   1 F= -.23301888E+04 E0= -.23274325E+04  d E =-.233019E+04
       N       E                     dE             d eps       ncg     rms          rms(c)
DAV:   1    -0.233018900771E+04   -0.17852E-03   -0.35531E-02 15200   0.201E-01    0.466E-02
RMM:   2    -0.233019826916E+04   -0.92614E-02   -0.19034E-03 14423   0.827E-02    0.132E+00
RMM:   3    -0.233019230429E+04    0.59649E-02   -0.11177E-03 18628   0.404E-02    0.723E-01
RMM:   4    -0.233019369009E+04   -0.13858E-02   -0.53525E-04 13944   0.438E-02    0.897E-01
RMM:   5    -0.233019015236E+04    0.35377E-02   -0.37708E-04 13795   0.387E-02    0.421E-01
RMM:   6    -0.233018930520E+04    0.84716E-03   -0.38323E-04 14688   0.346E-02    0.193E-01
RMM:   7    -0.233019017447E+04   -0.86927E-03   -0.99501E-04 16898   0.432E-02    0.434E-01
RMM:   8    -0.233018945468E+04    0.71978E-03   -0.41527E-04 13970   0.393E-02    0.224E-01
RMM:   9    -0.233018920816E+04    0.24652E-03   -0.16342E-04 13458   0.301E-02    0.114E-01
RMM:  10    -0.233018917275E+04    0.35417E-04   -0.89866E-05 11936   0.144E-02    0.755E-02
RMM:  11    -0.233018916760E+04    0.51488E-05   -0.45597E-05 10220   0.118E-02
   2 F= -.23301892E+04 E0= -.23274327E+04  d E =-.330141E-03
       N       E                     dE             d eps       ncg     rms          rms(c)
DAV:   1    -0.233018918297E+04   -0.10225E-04   -0.32002E-01 14540   0.598E-01    0.113E-01
RMM:   2    -0.233019791773E+04   -0.87348E-02   -0.92723E-03 13992   0.200E-01    0.124E+00
RMM:   3    -0.233021161232E+04   -0.13695E-01   -0.59527E-03 19490   0.895E-02    0.198E+00
RMM:   4    -0.233019940762E+04    0.12205E-01   -0.15742E-03 13705   0.913E-02    0.135E+00
RMM:   5    -0.233019263982E+04    0.67678E-02   -0.12840E-03 17540   0.502E-02    0.708E-01
RMM:   6    -0.233019177164E+04    0.86817E-03   -0.11357E-03 13823   0.644E-02    0.627E-01
RMM:   7    -0.233019425663E+04   -0.24850E-02   -0.35848E-03 16901   0.792E-02    0.910E-01
RMM:   8    -0.233019105519E+04    0.32014E-02   -0.16588E-03 14466   0.755E-02    0.502E-01
RMM:   9    -0.233019001534E+04    0.10398E-02   -0.79479E-04 13721   0.629E-02    0.299E-01
RMM:  10    -0.233018974914E+04    0.26620E-03   -0.56253E-04 16518   0.317E-02    0.189E-01
RMM:  11    -0.233018972541E+04    0.23731E-04   -0.36552E-04 16110   0.274E-02    0.185E-01
RMM:  12    -0.233018965695E+04    0.68462E-04   -0.24576E-04 14592   0.274E-02    0.127E-01
RMM:  13    -0.233018958644E+04    0.70507E-04   -0.86659E-05 12498   0.219E-02    0.750E-02
RMM:  14    -0.233018957429E+04    0.12152E-04   -0.39501E-05  9719   0.125E-02    0.569E-02
RMM:  15    -0.233018957880E+04   -0.45133E-05   -0.46119E-05 10117   0.129E-02
   3 F= -.23301896E+04 E0= -.23274329E+04  d E =-.741345E-03
       N       E                     dE             d eps       ncg     rms          rms(c)
DAV:   1    -0.233018971433E+04   -0.14004E-03   -0.86583E-02 14460   0.312E-01    0.561E-02
RMM:   2    -0.233019580239E+04   -0.60881E-02   -0.22274E-03 13739   0.105E-01    0.107E+00
RMM:   3    -0.233019271369E+04    0.30887E-02   -0.11560E-03 19936   0.351E-02    0.700E-01
RMM:   4    -0.233019259585E+04    0.11784E-03   -0.57304E-04 13638   0.511E-02    0.707E-01
RMM:   5    -0.233019077525E+04    0.18206E-02   -0.47034E-04 15842   0.321E-02    0.399E-01
RMM:   6    -0.233019047269E+04    0.30256E-03   -0.38479E-04 13940   0.368E-02    0.346E-01
RMM:   7    -0.233019062342E+04   -0.15074E-03   -0.90670E-04 17481   0.405E-02    0.375E-01
RMM:   8    -0.233019037380E+04    0.24962E-03   -0.47673E-04 14208   0.391E-02    0.290E-01
RMM:   9    -0.233019000842E+04    0.36538E-03   -0.22616E-04 13568   0.350E-02    0.187E-01
RMM:  10    -0.233018986753E+04    0.14089E-03   -0.84064E-05 12249   0.202E-02    0.990E-02
RMM:  11    -0.233018984640E+04    0.21126E-04   -0.55756E-05 10372   0.137E-02    0.805E-02
RMM:  12    -0.233018983079E+04    0.15612E-04   -0.67211E-05 11079   0.138E-02    0.515E-02
RMM:  13    -0.233018982589E+04    0.48958E-05   -0.29578E-05  8378   0.122E-02
   4 F= -.23301898E+04 E0= -.23274331E+04  d E =-.247091E-03
       N       E                     dE             d eps       ncg     rms          rms(c)
DAV:   1    -0.233018970630E+04    0.12449E-03   -0.77979E-01 14020   0.933E-01    0.149E-01
RMM:   2    -0.233030514197E+04   -0.11544E+00   -0.20861E-02 14480   0.283E-01    0.471E+00
RMM:   3    -0.233020537147E+04    0.99771E-01   -0.57267E-03 14429   0.150E-01    0.142E+00
RMM:   4    -0.233019336810E+04    0.12003E-01   -0.27844E-03 13723   0.124E-01    0.674E-01
RMM:   5    -0.233022602658E+04   -0.32658E-01   -0.32111E-03 18517   0.684E-02    0.256E+00
RMM:   6    -0.233019682352E+04    0.29203E-01   -0.36514E-03 14537   0.106E-01    0.100E+00
RMM:   7    -0.233020896109E+04   -0.12138E-01   -0.78351E-03 16071   0.125E-01    0.188E+00
RMM:   8    -0.233019198531E+04    0.16976E-01   -0.25618E-03 13706   0.115E-01    0.431E-01
RMM:   9    -0.233019050097E+04    0.14843E-02   -0.11943E-03 13739   0.827E-02    0.180E-01
RMM:  10    -0.233019060661E+04   -0.10564E-03   -0.12494E-03 15131   0.583E-02    0.222E-01
RMM:  11    -0.233019051113E+04    0.95479E-04   -0.58124E-04 14239   0.463E-02    0.178E-01
RMM:  12    -0.233019037184E+04    0.13929E-03   -0.24279E-04 14073   0.317E-02    0.846E-02
RMM:  13    -0.233019036698E+04    0.48636E-05   -0.22856E-04 13808   0.148E-02    0.667E-02
RMM:  14    -0.233019036403E+04    0.29556E-05   -0.46964E-05 10163   0.106E-02
   5 F= -.23301904E+04 E0= -.23274335E+04  d E =-.785223E-03
       N       E                     dE             d eps       ncg     rms          rms(c)
DAV:   1    -0.233018811313E+04    0.22539E-02   -0.31184E+00 13800   0.187E+00    0.276E-01
RMM:   2    -0.233036395994E+04   -0.17585E+00   -0.55993E-02 14038   0.502E-01    0.585E+00
RMM:   3    -0.233026369971E+04    0.10026E+00   -0.21640E-02 18797   0.197E-01    0.349E+00
RMM:   4    -0.233025805568E+04    0.56440E-02   -0.81127E-03 13798   0.184E-01    0.342E+00
RMM:   5    -0.233020318263E+04    0.54873E-01   -0.60617E-03 14234   0.144E-01    0.134E+00
RMM:   6    -0.233021024965E+04   -0.70670E-02   -0.11401E-02 13814   0.211E-01    0.192E+00
RMM:   7    -0.233023511975E+04   -0.24870E-01   -0.28531E-02 18037   0.208E-01    0.286E+00
RMM:   8    -0.233019569934E+04    0.39420E-01   -0.87675E-03 13702   0.206E-01    0.803E-01
RMM:   9    -0.233019138569E+04    0.43137E-02   -0.33905E-03 13722   0.134E-01    0.410E-01
RMM:  10    -0.233019176352E+04   -0.37783E-03   -0.37627E-03 18119   0.723E-02    0.473E-01
RMM:  11    -0.233019169131E+04    0.72213E-04   -0.22136E-03 15900   0.696E-02    0.421E-01
RMM:  12    -0.233019096043E+04    0.73088E-03   -0.93389E-04 14098   0.586E-02    0.240E-01
RMM:  13    -0.233019088460E+04    0.75830E-04   -0.10258E-03 18471   0.328E-02    0.191E-01
RMM:  14    -0.233019084029E+04    0.44313E-04   -0.36238E-04 15665   0.290E-02    0.164E-01
RMM:  15    -0.233019074187E+04    0.98417E-04   -0.11142E-04 12964   0.231E-02    0.918E-02
RMM:  16    -0.233019072236E+04    0.19513E-04   -0.53374E-05 10589   0.136E-02    0.718E-02
RMM:  17    -0.233019071491E+04    0.74460E-05   -0.38984E-05  9678   0.118E-02
   6 F= -.23301907E+04 E0= -.23274336E+04  d E =-.113611E-02
       N       E                     dE             d eps       ncg     rms          rms(c)
DAV:   1    -0.233019075499E+04   -0.32630E-04   -0.16198E-02 14380   0.138E-01    0.389E-02
RMM:   2    -0.233020480323E+04   -0.14048E-01   -0.21796E-03 16033   0.683E-02    0.162E+00
RMM:   3    -0.233019320880E+04    0.11594E-01   -0.70302E-04 15607   0.450E-02    0.606E-01
RMM:   4    -0.233019440586E+04   -0.11971E-02   -0.45556E-04 14101   0.390E-02    0.803E-01
RMM:   5    -0.233019172730E+04    0.26786E-02   -0.26237E-04 13791   0.324E-02    0.412E-01
RMM:   6    -0.233019104840E+04    0.67890E-03   -0.37602E-04 13818   0.384E-02    0.223E-01
RMM:   7    -0.233019117989E+04   -0.13149E-03   -0.79951E-04 15410   0.439E-02    0.263E-01
RMM:   8    -0.233019098442E+04    0.19547E-03   -0.31195E-04 14062   0.343E-02    0.189E-01
RMM:   9    -0.233019092135E+04    0.63067E-04   -0.14598E-04 13294   0.270E-02    0.163E-01
RMM:  10    -0.233019081261E+04    0.10874E-03   -0.68699E-05 10790   0.140E-02    0.853E-02
RMM:  11    -0.233019079336E+04    0.19255E-04   -0.33127E-05  9343   0.909E-03    0.660E-02
RMM:  12    -0.233019078230E+04    0.11051E-04   -0.29726E-05  8434   0.101E-02    0.463E-02
RMM:  13    -0.233019077476E+04    0.75409E-05   -0.18077E-05  7701   0.912E-03
   7 F= -.23301908E+04 E0= -.23274337E+04  d E =-.598484E-04
       N       E                     dE             d eps       ncg     rms          rms(c)
DAV:   1    -0.233019086378E+04   -0.81478E-04   -0.14579E-01 13920   0.403E-01    0.597E-02
RMM:   2    -0.233019784518E+04   -0.69814E-02   -0.25044E-03 13931   0.108E-01    0.117E+00
RMM:   3    -0.233019355735E+04    0.42878E-02   -0.84387E-04 17764   0.427E-02    0.647E-01
RMM:   4    -0.233019413951E+04   -0.58216E-03   -0.32793E-04 13590   0.368E-02    0.746E-01
RMM:   5    -0.233019176019E+04    0.23793E-02   -0.23793E-04 14065   0.283E-02    0.350E-01
RMM:   6    -0.233019193527E+04   -0.17508E-03   -0.52703E-04 14404   0.405E-02    0.423E-01
RMM:   7    -0.233019243045E+04   -0.49517E-03   -0.10468E-03 16322   0.462E-02    0.495E-01
RMM:   8    -0.233019119661E+04    0.12338E-02   -0.39313E-04 13624   0.435E-02    0.173E-01
RMM:   9    -0.233019105134E+04    0.14526E-03   -0.16465E-04 13537   0.310E-02    0.114E-01
RMM:  10    -0.233019100283E+04    0.48518E-04   -0.67014E-05 10971   0.158E-02    0.687E-02
RMM:  11    -0.233019099161E+04    0.11212E-04   -0.53287E-05 10122   0.122E-02    0.500E-02
RMM:  12    -0.233019099465E+04   -0.30390E-05   -0.54263E-05 10553   0.136E-02
   8 F= -.23301910E+04 E0= -.23274340E+04  d E =-.279738E-03
       N       E                     dE             d eps       ncg     rms          rms(c)
DAV:   1    -0.233019090359E+04    0.88028E-04   -0.58332E-01 13800   0.806E-01    0.121E-01
RMM:   2    -0.233023573089E+04   -0.44827E-01   -0.11762E-02 14093   0.231E-01    0.296E+00
RMM:   3    -0.233020101076E+04    0.34720E-01   -0.32335E-03 15154   0.104E-01    0.117E+00
RMM:   4    -0.233019499892E+04    0.60118E-02   -0.14393E-03 13697   0.862E-02    0.785E-01
RMM:   5    -0.233019833455E+04   -0.33356E-02   -0.13855E-03 19400   0.408E-02    0.112E+00
RMM:   6    -0.233019354107E+04    0.47935E-02   -0.25151E-03 13732   0.103E-01    0.581E-01
RMM:   7    -0.233019239603E+04    0.11450E-02   -0.18583E-03 14048   0.903E-02    0.396E-01
RMM:   8    -0.233019368060E+04   -0.12846E-02   -0.70404E-04 13730   0.548E-02    0.656E-01
RMM:   9    -0.233019158984E+04    0.20908E-02   -0.35311E-04 13666   0.450E-02    0.175E-01
RMM:  10    -0.233019141645E+04    0.17339E-03   -0.28299E-04 13950   0.347E-02    0.914E-02
RMM:  11    -0.233019152827E+04   -0.11181E-03   -0.33141E-04 15826   0.270E-02    0.171E-01
RMM:  12    -0.233019145746E+04    0.70810E-04   -0.11609E-04 12919   0.223E-02    0.124E-01
RMM:  13    -0.233019138188E+04    0.75573E-04   -0.50158E-05 10453   0.167E-02    0.527E-02
RMM:  14    -0.233019137705E+04    0.48307E-05   -0.23153E-05  8473   0.876E-03
   9 F= -.23301914E+04 E0= -.23274344E+04  d E =-.662137E-03
       N       E                     dE             d eps       ncg     rms          rms(c)
DAV:   1    -0.233019018630E+04    0.11956E-02   -0.23327E+00 13700   0.161E+00    0.227E-01
RMM:   2    -0.233027725275E+04   -0.87066E-01   -0.37467E-02 13960   0.426E-01    0.410E+00
RMM:   3    -0.233021974653E+04    0.57506E-01   -0.10380E-02 17430   0.160E-01    0.210E+00
RMM:   4    -0.233023237436E+04   -0.12628E-01   -0.38083E-03 13769   0.129E-01    0.270E+00
RMM:   5    -0.233019999177E+04    0.32383E-01   -0.34229E-03 15556   0.936E-02    0.106E+00
RMM:   6    -0.233020101270E+04   -0.10209E-02   -0.80415E-03 13784   0.181E-01    0.120E+00
RMM:   7    -0.233020663814E+04   -0.56254E-02   -0.57106E-03 13774   0.160E-01    0.163E+00
RMM:   8    -0.233019599085E+04    0.10647E-01   -0.21850E-03 13791   0.999E-02    0.812E-01
RMM:   9    -0.233019277783E+04    0.32130E-02   -0.10610E-03 13700   0.850E-02    0.339E-01
RMM:  10    -0.233019269208E+04    0.85758E-04   -0.65178E-04 13825   0.521E-02    0.350E-01
RMM:  11    -0.233019240480E+04    0.28728E-03   -0.87002E-04 15316   0.481E-02    0.245E-01
RMM:  12    -0.233019218290E+04    0.22189E-03   -0.32622E-04 13676   0.416E-02    0.169E-01
RMM:  13    -0.233019212517E+04    0.57727E-04   -0.16713E-04 13939   0.241E-02    0.140E-01
RMM:  14    -0.233019211517E+04    0.10004E-04   -0.17635E-04 14834   0.184E-02    0.128E-01
RMM:  15    -0.233019204848E+04    0.66693E-04   -0.61149E-05 11119   0.166E-02    0.535E-02
RMM:  16    -0.233019203240E+04    0.16076E-04   -0.24059E-05  8003   0.120E-02    0.218E-02
RMM:  17    -0.233019203347E+04   -0.10717E-05   -0.15083E-05  7758   0.774E-03
  10 F= -.23301920E+04 E0= -.23274351E+04  d E =-.131856E-02
       N       E                     dE             d eps       ncg     rms          rms(c)
DAV:   1    -0.233018543192E+04    0.66005E-02   -0.93290E+00 13700   0.322E+00    0.444E-01
RMM:   2    -0.233039302388E+04   -0.20759E+00   -0.14056E-01 13953   0.830E-01    0.636E+00
RMM:   3    -0.233029302391E+04    0.10000E+00   -0.39633E-02 18447   0.289E-01    0.401E+00
RMM:   4    -0.233025479764E+04    0.38226E-01   -0.12599E-02 13712   0.244E-01    0.328E+00
RMM:   5    -0.233024920520E+04    0.55924E-02   -0.14414E-02 18718   0.141E-01    0.310E+00
RMM:   6    -0.233022113178E+04    0.28073E-01   -0.27089E-02 13777   0.329E-01    0.211E+00
RMM:   7    -0.233020228640E+04    0.18845E-01   -0.13467E-02 13711   0.276E-01    0.121E+00
RMM:   8    -0.233019573598E+04    0.65504E-02   -0.40388E-03 13700   0.175E-01    0.687E-01
RMM:   9    -0.233019871316E+04   -0.29772E-02   -0.19457E-03 14823   0.726E-02    0.104E+00
RMM:  10    -0.233019430861E+04    0.44045E-02   -0.24553E-03 13721   0.105E-01    0.443E-01
RMM:  11    -0.233019392905E+04    0.37957E-03   -0.13986E-03 13727   0.852E-02    0.421E-01
RMM:  12    -0.233019356716E+04    0.36188E-03   -0.59719E-04 13778   0.549E-02    0.339E-01
RMM:  13    -0.233019325210E+04    0.31507E-03   -0.29685E-04 13859   0.367E-02    0.251E-01
RMM:  14    -0.233019315661E+04    0.95490E-04   -0.38639E-04 14795   0.334E-02    0.205E-01
RMM:  15    -0.233019297696E+04    0.17965E-03   -0.16539E-04 13639   0.272E-02    0.868E-02
RMM:  16    -0.233019294363E+04    0.33328E-04   -0.74724E-05 11940   0.179E-02    0.443E-02
RMM:  17    -0.233019294653E+04   -0.29063E-05   -0.54824E-05 10537   0.126E-02
  11 F= -.23301929E+04 E0= -.23274362E+04  d E =-.223162E-02
       N       E                     dE             d eps       ncg     rms          rms(c)
DAV:   1    -0.233019355088E+04   -0.60725E-03   -0.32844E-01 13800   0.606E-01    0.103E-01
RMM:   2    -0.233019750244E+04   -0.39516E-02   -0.72398E-03 13799   0.175E-01    0.802E-01
RMM:   3    -0.233021868534E+04   -0.21183E-01   -0.27696E-03 16731   0.821E-02    0.212E+00
RMM:   4    -0.233019682183E+04    0.21864E-01   -0.87428E-04 13773   0.611E-02    0.634E-01
RMM:   5    -0.233019925387E+04   -0.24320E-02   -0.79631E-04 13908   0.557E-02    0.992E-01
RMM:   6    -0.233019583704E+04    0.34168E-02   -0.98383E-04 15239   0.525E-02    0.601E-01
RMM:   7    -0.233019819759E+04   -0.23606E-02   -0.20446E-03 14765   0.753E-02    0.881E-01
RMM:   8    -0.233019536915E+04    0.28284E-02   -0.16303E-03 15056   0.690E-02    0.490E-01
RMM:   9    -0.233019419407E+04    0.11751E-02   -0.66909E-04 13698   0.616E-02    0.235E-01
RMM:  10    -0.233019397195E+04    0.22211E-03   -0.31082E-04 13833   0.364E-02    0.145E-01
RMM:  11    -0.233019392981E+04    0.42144E-04   -0.30899E-04 15839   0.240E-02    0.108E-01
RMM:  12    -0.233019395778E+04   -0.27970E-04   -0.24624E-04 14580   0.266E-02    0.120E-01
RMM:  13    -0.233019389569E+04    0.62088E-04   -0.84583E-05 12157   0.211E-02    0.695E-02
RMM:  14    -0.233019387605E+04    0.19640E-04   -0.31667E-05  9192   0.120E-02    0.378E-02
RMM:  15    -0.233019387946E+04   -0.34112E-05   -0.28817E-05  8913   0.108E-02
  12 F= -.23301939E+04 E0= -.23274375E+04  d E =-.932929E-03
       N       E                     dE             d eps       ncg     rms          rms(c)
DAV:   1    -0.233019319254E+04    0.68351E-03   -0.16431E+00 13700   0.136E+00    0.215E-01
RMM:   2    -0.233023948825E+04   -0.46296E-01   -0.31886E-02 13848   0.370E-01    0.285E+00
RMM:   3    -0.233023621260E+04    0.32756E-02   -0.17137E-02 20618   0.122E-01    0.273E+00
RMM:   4    -0.233019901931E+04    0.37193E-01   -0.61620E-03 13701   0.188E-01    0.796E-01
RMM:   5    -0.233020586510E+04   -0.68458E-02   -0.68602E-03 18534   0.108E-01    0.142E+00
RMM:   6    -0.233022998116E+04   -0.24116E-01   -0.86891E-03 19632   0.107E-01    0.259E+00
RMM:   7    -0.233020930678E+04    0.20674E-01   -0.74632E-03 14601   0.150E-01    0.155E+00
RMM:   8    -0.233020169318E+04    0.76136E-02   -0.52645E-03 14034   0.138E-01    0.107E+00
RMM:   9    -0.233019595439E+04    0.57388E-02   -0.24190E-03 13708   0.117E-01    0.451E-01
RMM:  10    -0.233019559548E+04    0.35891E-03   -0.18288E-03 14780   0.742E-02    0.407E-01
RMM:  11    -0.233019579621E+04   -0.20073E-03   -0.20606E-03 16066   0.675E-02    0.436E-01
RMM:  12    -0.233019502378E+04    0.77243E-03   -0.77586E-04 13725   0.603E-02    0.211E-01
RMM:  13    -0.233019481218E+04    0.21160E-03   -0.33215E-04 13748   0.403E-02    0.121E-01
RMM:  14    -0.233019479940E+04    0.12779E-04   -0.32143E-04 16745   0.225E-02    0.983E-02
RMM:  15    -0.233019481422E+04   -0.14820E-04   -0.21129E-04 14907   0.235E-02    0.103E-01
RMM:  16    -0.233019476712E+04    0.47100E-04   -0.80843E-05 12170   0.195E-02    0.527E-02
RMM:  17    -0.233019475965E+04    0.74740E-05   -0.39796E-05  9862   0.114E-02
  13 F= -.23301948E+04 E0= -.23274390E+04  d E =-.181311E-02
       N       E                     dE             d eps       ncg     rms          rms(c)
DAV:   1    -0.233019502674E+04   -0.25962E-03   -0.33186E-01 13800   0.609E-01    0.935E-02
RMM:   2    -0.233020274111E+04   -0.77144E-02   -0.59197E-03 13861   0.163E-01    0.117E+00
RMM:   3    -0.233020061935E+04    0.21218E-02   -0.26017E-03 19591   0.576E-02    0.966E-01
RMM:   4    -0.233020730938E+04   -0.66900E-02   -0.98393E-04 13855   0.638E-02    0.146E+00
RMM:   5    -0.233019675864E+04    0.10551E-01   -0.62292E-04 14029   0.475E-02    0.470E-01
RMM:   6    -0.233019726558E+04   -0.50694E-03   -0.11854E-03 15555   0.534E-02    0.606E-01
RMM:   7    -0.233019749517E+04   -0.22958E-03   -0.19565E-03 14955   0.749E-02    0.602E-01
RMM:   8    -0.233019669529E+04    0.79987E-03   -0.11832E-03 14604   0.614E-02    0.478E-01
RMM:   9    -0.233019554720E+04    0.11481E-02   -0.44783E-04 13673   0.507E-02    0.188E-01
RMM:  10    -0.233019542354E+04    0.12366E-03   -0.21079E-04 13805   0.291E-02    0.137E-01
RMM:  11    -0.233019539240E+04    0.31140E-04   -0.25947E-04 15920   0.227E-02    0.106E-01
RMM:  12    -0.233019537470E+04    0.17698E-04   -0.13955E-04 13809   0.210E-02    0.882E-02
RMM:  13    -0.233019533971E+04    0.34996E-04   -0.54715E-05 10532   0.153E-02    0.426E-02
RMM:  14    -0.233019533851E+04    0.12006E-05   -0.28768E-05  8690   0.100E-02
  14 F= -.23301953E+04 E0= -.23274398E+04  d E =-.578859E-03
       N       E                     dE             d eps       ncg     rms          rms(c)
DAV:   1    -0.233019352713E+04    0.18126E-02   -0.29864E+00 13700   0.183E+00    0.274E-01
RMM:   2    -0.233029743807E+04   -0.10391E+00   -0.53641E-02 13914   0.493E-01    0.422E+00
RMM:   3    -0.233024185360E+04    0.55584E-01   -0.22644E-02 19160   0.187E-01    0.287E+00
RMM:   4    -0.233028356636E+04   -0.41713E-01   -0.78043E-03 13764   0.186E-01    0.394E+00
RMM:   5    -0.233020639739E+04    0.77169E-01   -0.53718E-03 15089   0.124E-01    0.124E+00
RMM:   6    -0.233020839176E+04   -0.19944E-02   -0.80680E-03 13924   0.171E-01    0.148E+00
RMM:   7    -0.233024311044E+04   -0.34719E-01   -0.22931E-02 16718   0.207E-01    0.296E+00
RMM:   8    -0.233020318324E+04    0.39927E-01   -0.78479E-03 13931   0.177E-01    0.102E+00
RMM:   9    -0.233019673781E+04    0.64454E-02   -0.37545E-03 13714   0.147E-01    0.344E-01
RMM:  10    -0.233019664137E+04    0.96439E-04   -0.32572E-03 16538   0.812E-02    0.312E-01
RMM:  11    -0.233019678275E+04   -0.14137E-03   -0.20057E-03 15740   0.671E-02    0.333E-01
RMM:  12    -0.233019638557E+04    0.39717E-03   -0.61393E-04 14115   0.481E-02    0.210E-01
RMM:  13    -0.233019629158E+04    0.93996E-04   -0.64481E-04 17565   0.290E-02    0.148E-01
RMM:  14    -0.233019628453E+04    0.70420E-05   -0.33053E-04 16378   0.244E-02    0.141E-01
RMM:  15    -0.233019625521E+04    0.29327E-04   -0.18778E-04 14440   0.229E-02    0.114E-01
RMM:  16    -0.233019620398E+04    0.51224E-04   -0.67211E-05 11543   0.180E-02    0.737E-02
RMM:  17    -0.233019619655E+04    0.74350E-05   -0.43525E-05 10079   0.103E-02
  15 F= -.23301962E+04 E0= -.23274410E+04  d E =-.143690E-02
       N       E                     dE             d eps       ncg     rms          rms(c)
DAV:   1    -0.233019625277E+04   -0.48788E-04   -0.84343E-01 13700   0.968E-01    0.145E-01
RMM:   2    -0.233028997960E+04   -0.93727E-01   -0.17744E-02 14166   0.275E-01    0.412E+00
RMM:   3    -0.233020647570E+04    0.83504E-01   -0.54262E-03 16400   0.125E-01    0.112E+00
RMM:   4    -0.233022805900E+04   -0.21583E-01   -0.31253E-03 15231   0.903E-02    0.239E+00
RMM:   5    -0.233019938157E+04    0.28677E-01   -0.26201E-03 13708   0.115E-01    0.533E-01
RMM:   6    -0.233020256351E+04   -0.31819E-02   -0.58616E-03 14375   0.139E-01    0.964E-01
RMM:   7    -0.233020164007E+04    0.92344E-03   -0.36121E-03 14251   0.114E-01    0.902E-01
RMM:   8    -0.233019819737E+04    0.34427E-02   -0.13746E-03 13706   0.883E-02    0.457E-01
RMM:   9    -0.233019760219E+04    0.59518E-03   -0.56761E-04 13769   0.514E-02    0.340E-01
RMM:  10    -0.233019776808E+04   -0.16589E-03   -0.66881E-04 17235   0.318E-02    0.400E-01
RMM:  11    -0.233019724998E+04    0.51810E-03   -0.40286E-04 14985   0.330E-02    0.226E-01
RMM:  12    -0.233019706399E+04    0.18599E-03   -0.29654E-04 13877   0.343E-02    0.133E-01
RMM:  13    -0.233019696846E+04    0.95535E-04   -0.11592E-04 13200   0.250E-02    0.662E-02
RMM:  14    -0.233019695697E+04    0.11488E-04   -0.61633E-05 10693   0.133E-02    0.462E-02
RMM:  15    -0.233019695833E+04   -0.13622E-05   -0.44064E-05  9860   0.131E-02
  16 F= -.23301970E+04 E0= -.23274415E+04  d E =-.761784E-03
       N       E                     dE             d eps       ncg     rms          rms(c)
DAV:   1    -0.233019391685E+04    0.30401E-02   -0.46140E+00 13700   0.226E+00    0.324E-01
RMM:   2    -0.233056937633E+04   -0.37546E+00   -0.84454E-02 14059   0.614E-01    0.816E+00
RMM:   3    -0.233023531288E+04    0.33406E+00   -0.24399E-02 16923   0.255E-01    0.229E+00
RMM:   4    -0.233033954356E+04   -0.10423E+00   -0.13563E-02 15530   0.181E-01    0.508E+00
RMM:   5    -0.233021162282E+04    0.12792E+00   -0.11908E-02 13711   0.239E-01    0.132E+00
RMM:   6    -0.233024178689E+04   -0.30164E-01   -0.24579E-02 15887   0.242E-01    0.284E+00
RMM:   7    -0.233024995831E+04   -0.81714E-02   -0.29634E-02 15456   0.267E-01    0.297E+00
RMM:   8    -0.233021175075E+04    0.38208E-01   -0.11070E-02 13702   0.228E-01    0.154E+00
RMM:   9    -0.233019990654E+04    0.11844E-01   -0.49417E-03 13730   0.166E-01    0.617E-01
RMM:  10    -0.233019910335E+04    0.80319E-03   -0.35425E-03 14994   0.993E-02    0.518E-01
RMM:  11    -0.233019901220E+04    0.91149E-04   -0.40833E-03 16186   0.934E-02    0.475E-01
RMM:  12    -0.233019815401E+04    0.85819E-03   -0.15530E-03 13920   0.802E-02    0.262E-01
RMM:  13    -0.233019782888E+04    0.32513E-03   -0.87150E-04 14766   0.517E-02    0.143E-01
RMM:  14    -0.233019785862E+04   -0.29740E-04   -0.82504E-04 18597   0.289E-02    0.136E-01
RMM:  15    -0.233019785791E+04    0.70978E-06   -0.32495E-04 15127   0.298E-02    0.132E-01
RMM:  16    -0.233019778217E+04    0.75745E-04   -0.11436E-04 13095   0.225E-02    0.616E-02
RMM:  17    -0.233019778025E+04    0.19126E-05   -0.89401E-05 12190   0.126E-02
  17 F= -.23301978E+04 E0= -.23274416E+04  d E =-.158371E-02
       N       E                     dE             d eps       ncg     rms          rms(c)
DAV:   1    -0.233019774930E+04    0.32867E-04   -0.79533E-01 13700   0.940E-01    0.135E-01
RMM:   2    -0.233030239967E+04   -0.10465E+00   -0.15033E-02 14107   0.255E-01    0.433E+00
RMM:   3    -0.233020832907E+04    0.94071E-01   -0.40574E-03 16145   0.110E-01    0.112E+00
RMM:   4    -0.233021508527E+04   -0.67562E-02   -0.26484E-03 14608   0.922E-02    0.173E+00
RMM:   5    -0.233020171422E+04    0.13371E-01   -0.32622E-03 13712   0.125E-01    0.750E-01
RMM:   6    -0.233020813422E+04   -0.64200E-02   -0.64770E-03 16410   0.118E-01    0.133E+00
RMM:   7    -0.233020734728E+04    0.78694E-03   -0.40987E-03 14011   0.121E-01    0.125E+00
RMM:   8    -0.233020082196E+04    0.65253E-02   -0.20110E-03 13727   0.950E-02    0.614E-01
RMM:   9    -0.233019884092E+04    0.19810E-02   -0.93243E-04 13707   0.743E-02    0.279E-01
RMM:  10    -0.233019853622E+04    0.30470E-03   -0.53404E-04 14369   0.431E-02    0.168E-01
RMM:  11    -0.233019862684E+04   -0.90620E-04   -0.79399E-04 16564   0.401E-02    0.197E-01
RMM:  12    -0.233019848480E+04    0.14204E-03   -0.27157E-04 13702   0.325E-02    0.119E-01
RMM:  13    -0.233019842845E+04    0.56354E-04   -0.20130E-04 14778   0.198E-02    0.588E-02
RMM:  14    -0.233019842695E+04    0.15001E-05   -0.77848E-05 11770   0.125E-02
  18 F= -.23301984E+04 E0= -.23274422E+04  d E =-.646694E-03
       N       E                     dE             d eps       ncg     rms          rms(c)
DAV:   1    -0.233019345175E+04    0.49767E-02   -0.71568E+00 13700   0.282E+00    0.383E-01
RMM:   2    -0.233044481838E+04   -0.25137E+00   -0.10482E-01 13957   0.709E-01    0.658E+00
RMM:   3    -0.233023940239E+04    0.20542E+00   -0.27072E-02 18401   0.240E-01    0.252E+00
RMM:   4    -0.233034480411E+04   -0.10540E+00   -0.12675E-02 14978   0.184E-01    0.512E+00
RMM:   5    -0.233022010491E+04    0.12470E+00   -0.11745E-02 13787   0.217E-01    0.177E+00
RMM:   6    -0.233023217468E+04   -0.12070E-01   -0.26390E-02 14351   0.289E-01    0.238E+00
RMM:   7    -0.233025073992E+04   -0.18565E-01   -0.18554E-02 13927   0.275E-01    0.310E+00
RMM:   8    -0.233020897144E+04    0.41768E-01   -0.74510E-03 13847   0.181E-01    0.120E+00
RMM:   9    -0.233020074821E+04    0.82232E-02   -0.39700E-03 13703   0.163E-01    0.475E-01
RMM:  10    -0.233020102640E+04   -0.27819E-03   -0.33400E-03 14213   0.109E-01    0.540E-01
RMM:  11    -0.233020134540E+04   -0.31900E-03   -0.26002E-03 14883   0.872E-02    0.593E-01
RMM:  12    -0.233019967311E+04    0.16723E-02   -0.92728E-04 13703   0.709E-02    0.226E-01
RMM:  13    -0.233019953468E+04    0.13843E-03   -0.61090E-04 15624   0.370E-02    0.167E-01
RMM:  14    -0.233019957166E+04   -0.36985E-04   -0.57205E-04 17574   0.303E-02    0.183E-01
RMM:  15    -0.233019944158E+04    0.13008E-03   -0.18243E-04 13822   0.272E-02    0.968E-02
RMM:  16    -0.233019941718E+04    0.24402E-04   -0.13104E-04 13651   0.177E-02    0.676E-02
RMM:  17    -0.233019941945E+04   -0.22702E-05   -0.77747E-05 11816   0.133E-02
  19 F= -.23301994E+04 E0= -.23274432E+04  d E =-.163920E-02
       N       E                     dE             d eps       ncg     rms          rms(c)
DAV:   1    -0.233019896372E+04    0.45346E-03   -0.15671E+00 13700   0.132E+00    0.180E-01
RMM:   2    -0.233024730673E+04   -0.48343E-01   -0.22916E-02 13934   0.332E-01    0.293E+00
RMM:   3    -0.233020967558E+04    0.37631E-01   -0.62672E-03 19230   0.102E-01    0.121E+00
RMM:   4    -0.233023231555E+04   -0.22640E-01   -0.33503E-03 14814   0.948E-02    0.240E+00
RMM:   5    -0.233020233061E+04    0.29985E-01   -0.33743E-03 13703   0.126E-01    0.478E-01
RMM:   6    -0.233021184190E+04   -0.95113E-02   -0.86588E-03 15132   0.149E-01    0.143E+00
RMM:   7    -0.233020373102E+04    0.81109E-02   -0.33836E-03 13991   0.119E-01    0.745E-01
RMM:   8    -0.233020301272E+04    0.71830E-03   -0.15243E-03 13769   0.846E-02    0.707E-01
RMM:   9    -0.233020092243E+04    0.20903E-02   -0.71260E-04 13962   0.528E-02    0.336E-01
RMM:  10    -0.233020049241E+04    0.43001E-03   -0.72914E-04 15073   0.442E-02    0.206E-01
RMM:  11    -0.233020065725E+04   -0.16483E-03   -0.84712E-04 16083   0.428E-02    0.271E-01
RMM:  12    -0.233020039864E+04    0.25861E-03   -0.31446E-04 13703   0.371E-02    0.150E-01
RMM:  13    -0.233020030577E+04    0.92868E-04   -0.14777E-04 13526   0.271E-02    0.951E-02
RMM:  14    -0.233020029948E+04    0.62946E-05   -0.13435E-04 13367   0.151E-02    0.852E-02
RMM:  15    -0.233020028523E+04    0.14251E-04   -0.78231E-05 12003   0.155E-02    0.658E-02
RMM:  16    -0.233020026560E+04    0.19629E-04   -0.31362E-05  8842   0.130E-02    0.304E-02
RMM:  17    -0.233020026454E+04    0.10611E-05   -0.16451E-05  8016   0.767E-03
  20 F= -.23302003E+04 E0= -.23274444E+04  d E =-.845086E-03
       N       E                     dE             d eps       ncg     rms          rms(c)
DAV:   1    -0.233019390035E+04    0.63652E-02   -0.89341E+00 13700   0.314E+00    0.426E-01
RMM:   2    -0.233030694007E+04   -0.11304E+00   -0.12551E-01 13939   0.783E-01    0.434E+00
RMM:   3    -0.233025723419E+04    0.49706E-01   -0.35438E-02 19482   0.232E-01    0.314E+00
RMM:   4    -0.233041207933E+04   -0.15485E+00   -0.13462E-02 14140   0.221E-01    0.616E+00
RMM:   5    -0.233022043207E+04    0.19165E+00   -0.11735E-02 14166   0.207E-01    0.157E+00
RMM:   6    -0.233025456242E+04   -0.34130E-01   -0.34317E-02 14896   0.305E-01    0.302E+00
RMM:   7    -0.233025230903E+04    0.22534E-02   -0.22025E-02 13880   0.296E-01    0.308E+00
RMM:   8    -0.233021909719E+04    0.33212E-01   -0.10007E-02 13819   0.205E-01    0.173E+00
RMM:   9    -0.233020437700E+04    0.14720E-01   -0.50380E-03 13707   0.177E-01    0.684E-01
RMM:  10    -0.233020349488E+04    0.88212E-03   -0.35463E-03 14183   0.115E-01    0.651E-01
RMM:  11    -0.233020360203E+04   -0.10714E-03   -0.44522E-03 15703   0.105E-01    0.644E-01
RMM:  12    -0.233020176640E+04    0.18356E-02   -0.14512E-03 13700   0.888E-02    0.307E-01
RMM:  13    -0.233020144932E+04    0.31708E-03   -0.70244E-04 14228   0.520E-02    0.215E-01
RMM:  14    -0.233020146319E+04   -0.13869E-04   -0.80885E-04 17276   0.358E-02    0.205E-01
RMM:  15    -0.233020130562E+04    0.15757E-03   -0.31722E-04 14637   0.312E-02    0.109E-01
RMM:  16    -0.233020126021E+04    0.45412E-04   -0.18386E-04 14561   0.213E-02    0.582E-02
RMM:  17    -0.233020126700E+04   -0.67931E-05   -0.12224E-04 13303   0.140E-02    0.602E-02
RMM:  18    -0.233020126289E+04    0.41199E-05   -0.47683E-05 10350   0.144E-02
  21 F= -.23302013E+04 E0= -.23274462E+04  d E =-.184343E-02
       N       E                     dE             d eps       ncg     rms          rms(c)
DAV:   1    -0.233020018875E+04    0.10783E-02   -0.25018E+00 13700   0.166E+00    0.225E-01
RMM:   2    -0.233028766367E+04   -0.87475E-01   -0.37171E-02 13958   0.420E-01    0.404E+00
RMM:   3    -0.233022161828E+04    0.66045E-01   -0.97814E-03 18631   0.140E-01    0.176E+00
RMM:   4    -0.233024136254E+04   -0.19744E-01   -0.38058E-03 14522   0.110E-01    0.264E+00
RMM:   5    -0.233021164222E+04    0.29720E-01   -0.43134E-03 13803   0.131E-01    0.117E+00
RMM:   6    -0.233021488441E+04   -0.32422E-02   -0.89785E-03 14342   0.168E-01    0.151E+00
RMM:   7    -0.233023124467E+04   -0.16360E-01   -0.14605E-02 16503   0.166E-01    0.232E+00
RMM:   8    -0.233020559461E+04    0.25650E-01   -0.49365E-03 13717   0.157E-01    0.648E-01
RMM:   9    -0.233020249658E+04    0.30980E-02   -0.20589E-03 13749   0.105E-01    0.246E-01
RMM:  10    -0.233020248415E+04    0.12427E-04   -0.18317E-03 15921   0.639E-02    0.241E-01
RMM:  11    -0.233020293247E+04   -0.44833E-03   -0.18149E-03 17098   0.540E-02    0.365E-01
RMM:  12    -0.233020242177E+04    0.51070E-03   -0.51764E-04 13780   0.453E-02    0.190E-01
RMM:  13    -0.233020225933E+04    0.16245E-03   -0.36385E-04 14872   0.322E-02    0.107E-01
RMM:  14    -0.233020226165E+04   -0.23157E-05   -0.31675E-04 16774   0.183E-02    0.993E-02
RMM:  15    -0.233020223704E+04    0.24606E-04   -0.11435E-04 13249   0.184E-02    0.713E-02
RMM:  16    -0.233020221328E+04    0.23757E-04   -0.37808E-05  9461   0.131E-02    0.293E-02
RMM:  17    -0.233020221323E+04    0.50408E-07   -0.21492E-05  8291   0.845E-03
  22 F= -.23302022E+04 E0= -.23274472E+04  d E =-.950347E-03
       N       E                     dE             d eps       ncg     rms          rms(c)
DAV:   1    -0.233018474146E+04    0.17472E-01   -0.22508E+01 13700   0.498E+00    0.682E-01
RMM:   2    -0.233069117843E+04   -0.50644E+00   -0.32937E-01 13943   0.127E+00    0.968E+00
RMM:   3    -0.233030025124E+04    0.39093E+00   -0.78921E-02 18473   0.409E-01    0.375E+00
RMM:   4    -0.233070803233E+04   -0.40778E+00   -0.36289E-02 13973   0.377E-01    0.957E+00
RMM:   5    -0.233029824509E+04    0.40979E+00   -0.47158E-02 17075   0.300E-01    0.374E+00
RMM:   6    -0.233031955192E+04   -0.21307E-01   -0.78558E-02 14071   0.518E-01    0.444E+00
RMM:   7    -0.233027995708E+04    0.39595E-01   -0.45210E-02 13720   0.482E-01    0.365E+00
RMM:   8    -0.233024655108E+04    0.33406E-01   -0.18232E-02 13816   0.276E-01    0.272E+00
RMM:   9    -0.233021104813E+04    0.35503E-01   -0.11201E-02 13703   0.262E-01    0.110E+00
RMM:  10    -0.233021219375E+04   -0.11456E-02   -0.11164E-02 13840   0.213E-01    0.120E+00
RMM:  11    -0.233021078962E+04    0.14041E-02   -0.89707E-03 14228   0.176E-01    0.111E+00
RMM:  12    -0.233020467778E+04    0.61118E-02   -0.31550E-03 13701   0.139E-01    0.427E-01
RMM:  13    -0.233020388910E+04    0.78868E-03   -0.13588E-03 14285   0.718E-02    0.266E-01
RMM:  14    -0.233020396493E+04   -0.75832E-04   -0.15670E-03 16613   0.544E-02    0.279E-01
RMM:  15    -0.233020369056E+04    0.27438E-03   -0.58534E-04 14205   0.466E-02    0.152E-01
RMM:  16    -0.233020362430E+04    0.66261E-04   -0.42807E-04 15778   0.303E-02    0.913E-02
RMM:  17    -0.233020366110E+04   -0.36807E-04   -0.33261E-04 16371   0.256E-02    0.112E-01
RMM:  18    -0.233020362362E+04    0.37484E-04   -0.13363E-04 13484   0.229E-02    0.704E-02
RMM:  19    -0.233020360600E+04    0.17619E-04   -0.69816E-05 11455   0.152E-02    0.418E-02
RMM:  20    -0.233020360671E+04   -0.71013E-06   -0.42066E-05 10108   0.978E-03
  23 F= -.23302036E+04 E0= -.23274488E+04  d E =-.234383E-02
       N       E                     dE             d eps       ncg     rms          rms(c)
DAV:   1    -0.233020222401E+04    0.13820E-02   -0.29715E+00 13700   0.181E+00    0.238E-01
RMM:   2    -0.233025169924E+04   -0.49475E-01   -0.39534E-02 13949   0.439E-01    0.297E+00
RMM:   3    -0.233022178949E+04    0.29910E-01   -0.97049E-03 19590   0.118E-01    0.170E+00
RMM:   4    -0.233021192438E+04    0.98651E-02   -0.41209E-03 13704   0.139E-01    0.113E+00
RMM:   5    -0.233026809648E+04   -0.56172E-01   -0.11129E-02 17187   0.134E-01    0.334E+00
RMM:   6    -0.233021604256E+04    0.52054E-01   -0.95773E-03 15148   0.166E-01    0.128E+00
RMM:   7    -0.233021262171E+04    0.34208E-02   -0.58904E-03 13729   0.170E-01    0.120E+00
RMM:   8    -0.233021087169E+04    0.17500E-02   -0.25997E-03 14076   0.967E-02    0.106E+00
RMM:   9    -0.233020557208E+04    0.52996E-02   -0.15531E-03 13701   0.959E-02    0.389E-01
RMM:  10    -0.233020527732E+04    0.29476E-03   -0.15189E-03 13957   0.767E-02    0.332E-01
RMM:  11    -0.233020501979E+04    0.25753E-03   -0.12720E-03 15147   0.581E-02    0.264E-01
RMM:  12    -0.233020474831E+04    0.27148E-03   -0.44895E-04 14028   0.426E-02    0.154E-01
RMM:  13    -0.233020474975E+04   -0.14385E-05   -0.49985E-04 18028   0.192E-02    0.142E-01
RMM:  14    -0.233020473434E+04    0.15406E-04   -0.14295E-04 13939   0.170E-02    0.129E-01
RMM:  15    -0.233020465923E+04    0.75111E-04   -0.56291E-05 10683   0.162E-02    0.527E-02
RMM:  16    -0.233020464524E+04    0.13998E-04   -0.24420E-05  8377   0.111E-02    0.256E-02
RMM:  17    -0.233020464729E+04   -0.20497E-05   -0.20825E-05  8227   0.935E-03
  24 F= -.23302046E+04 E0= -.23274498E+04  d E =-.104057E-02
       N       E                     dE             d eps       ncg     rms          rms(c)
DAV:   1    -0.233018382116E+04    0.20824E-01   -0.26736E+01 13700   0.543E+00    0.743E-01
RMM:   2    -0.233048700513E+04   -0.30318E+00   -0.38061E-01 13945   0.137E+00    0.749E+00
RMM:   3    -0.233038706419E+04    0.99941E-01   -0.96206E-02 19166   0.419E-01    0.541E+00
RMM:   4    -0.233029127062E+04    0.95794E-01   -0.36902E-02 13721   0.407E-01    0.376E+00
RMM:   5    -0.233093241234E+04   -0.64114E+00   -0.77986E-02 19445   0.292E-01    0.115E+01
RMM:   6    -0.233030873585E+04    0.62368E+00   -0.74756E-02 14073   0.510E-01    0.366E+00
RMM:   7    -0.233025555988E+04    0.53176E-01   -0.51370E-02 13708   0.526E-01    0.281E+00
RMM:   8    -0.233026238941E+04   -0.68295E-02   -0.21676E-02 13702   0.355E-01    0.324E+00
RMM:   9    -0.233023881343E+04    0.23576E-01   -0.17409E-02 15113   0.215E-01    0.239E+00
RMM:  10    -0.233021859398E+04    0.20219E-01   -0.19734E-02 13734   0.297E-01    0.137E+00
RMM:  11    -0.233021294391E+04    0.56501E-02   -0.86783E-03 13731   0.212E-01    0.108E+00
RMM:  12    -0.233020799534E+04    0.49486E-02   -0.36167E-03 13747   0.141E-01    0.551E-01
RMM:  13    -0.233020697134E+04    0.10240E-02   -0.20998E-03 14756   0.809E-02    0.376E-01
RMM:  14    -0.233020689660E+04    0.74741E-04   -0.20570E-03 16030   0.646E-02    0.333E-01
RMM:  15    -0.233020654164E+04    0.35496E-03   -0.92324E-04 14916   0.529E-02    0.205E-01
RMM:  16    -0.233020639757E+04    0.14407E-03   -0.49130E-04 15196   0.365E-02    0.125E-01
RMM:  17    -0.233020642437E+04   -0.26800E-04   -0.51407E-04 18087   0.259E-02    0.125E-01
RMM:  18    -0.233020640999E+04    0.14377E-04   -0.21272E-04 14611   0.247E-02    0.101E-01
RMM:  19    -0.233020638124E+04    0.28748E-04   -0.10545E-04 12949   0.177E-02    0.652E-02
RMM:  20    -0.233020638318E+04   -0.19415E-05   -0.76428E-05 11439   0.110E-02
  25 F= -.23302064E+04 E0= -.23274513E+04  d E =-.277647E-02
       N       E                     dE             d eps       ncg     rms          rms(c)
DAV:   1    -0.233020447417E+04    0.19071E-02   -0.36880E+00 13700   0.202E+00    0.276E-01
RMM:   2    -0.233034850292E+04   -0.14403E+00   -0.55236E-02 13940   0.510E-01    0.506E+00
RMM:   3    -0.233023235908E+04    0.11614E+00   -0.16247E-02 19368   0.161E-01    0.193E+00
RMM:   4    -0.233027681532E+04   -0.44456E-01   -0.74653E-03 14124   0.164E-01    0.351E+00
RMM:   5    -0.233022274741E+04    0.54068E-01   -0.74778E-03 13790   0.175E-01    0.163E+00
RMM:   6    -0.233022095582E+04    0.17916E-02   -0.12464E-02 14782   0.195E-01    0.148E+00
RMM:   7    -0.233025683232E+04   -0.35877E-01   -0.19128E-02 15582   0.208E-01    0.308E+00
RMM:   8    -0.233021448278E+04    0.42350E-01   -0.61725E-03 13753   0.171E-01    0.968E-01
RMM:   9    -0.233021009650E+04    0.43863E-02   -0.29350E-03 13715   0.131E-01    0.684E-01
RMM:  10    -0.233020931644E+04    0.78006E-03   -0.24222E-03 15329   0.778E-02    0.578E-01
RMM:  11    -0.233020869660E+04    0.61985E-03   -0.22267E-03 15959   0.702E-02    0.460E-01
RMM:  12    -0.233020788041E+04    0.81619E-03   -0.98822E-04 14028   0.618E-02    0.256E-01
RMM:  13    -0.233020771463E+04    0.16577E-03   -0.64198E-04 15027   0.412E-02    0.198E-01
RMM:  14    -0.233020771914E+04   -0.45049E-05   -0.55580E-04 18297   0.255E-02    0.192E-01
RMM:  15    -0.233020758976E+04    0.12938E-03   -0.17333E-04 14250   0.223E-02    0.108E-01
RMM:  16    -0.233020755007E+04    0.39696E-04   -0.68199E-05 11627   0.169E-02    0.705E-02
RMM:  17    -0.233020754663E+04    0.34382E-05   -0.40513E-05  9938   0.107E-02
  26 F= -.23302075E+04 E0= -.23274526E+04  d E =-.116344E-02
       N       E                     dE             d eps       ncg     rms          rms(c)
DAV:   1    -0.233020649294E+04    0.10571E-02   -0.17424E+00 13700   0.139E+00    0.194E-01
RMM:   2    -0.233024814859E+04   -0.41656E-01   -0.25686E-02 13940   0.350E-01    0.277E+00
RMM:   3    -0.233022608445E+04    0.22064E-01   -0.78122E-03 19571   0.107E-01    0.176E+00
RMM:   4    -0.233023929990E+04   -0.13215E-01   -0.36228E-03 14078   0.116E-01    0.238E+00
RMM:   5    -0.233021398109E+04    0.25319E-01   -0.31255E-03 14178   0.104E-01    0.930E-01
RMM:   6    -0.233021382238E+04    0.15871E-03   -0.50011E-03 13987   0.135E-01    0.994E-01
RMM:   7    -0.233022941730E+04   -0.15595E-01   -0.10512E-02 16233   0.143E-01    0.199E+00
RMM:   8    -0.233021181181E+04    0.17605E-01   -0.31906E-03 13777   0.118E-01    0.766E-01
RMM:   9    -0.233020929102E+04    0.25208E-02   -0.17162E-03 13787   0.932E-02    0.492E-01
RMM:  10    -0.233020855546E+04    0.73556E-03   -0.95682E-04 14603   0.553E-02    0.353E-01
RMM:  11    -0.233020841397E+04    0.14149E-03   -0.13535E-03 16643   0.503E-02    0.296E-01
RMM:  12    -0.233020810393E+04    0.31004E-03   -0.46609E-04 13932   0.422E-02    0.182E-01
RMM:  13    -0.233020802472E+04    0.79211E-04   -0.33298E-04 15522   0.259E-02    0.136E-01
RMM:  14    -0.233020801482E+04    0.99007E-05   -0.21095E-04 15314   0.193E-02    0.125E-01
RMM:  15    -0.233020795078E+04    0.64035E-04   -0.82696E-05 12172   0.175E-02    0.599E-02
RMM:  16    -0.233020793263E+04    0.18155E-04   -0.28684E-05  8623   0.127E-02    0.278E-02
RMM:  17    -0.233020793242E+04    0.21025E-06   -0.15630E-05  8023   0.744E-03
  27 F= -.23302079E+04 E0= -.23274531E+04  d E =-.154923E-02
       N       E                     dE             d eps       ncg     rms          rms(c)
DAV:   1    -0.233020755659E+04    0.37604E-03   -0.11708E+00 13700   0.114E+00    0.159E-01
RMM:   2    -0.233021575840E+04   -0.82018E-02   -0.17467E-02 13929   0.288E-01    0.121E+00
RMM:   3    -0.233022479950E+04   -0.90411E-02   -0.54608E-03 19081   0.996E-02    0.169E+00
RMM:   4    -0.233021385088E+04    0.10949E-01   -0.14347E-03 13735   0.778E-02    0.943E-01
RMM:   5    -0.233022852083E+04   -0.14670E-01   -0.23671E-03 17931   0.598E-02    0.189E+00
RMM:   6    -0.233021205959E+04    0.16461E-01   -0.21649E-03 13879   0.893E-02    0.711E-01
RMM:   7    -0.233022102569E+04   -0.89661E-02   -0.59273E-03 16441   0.107E-01    0.152E+00
RMM:   8    -0.233021058128E+04    0.10444E-01   -0.27684E-03 13797   0.109E-01    0.531E-01
RMM:   9    -0.233020887721E+04    0.17041E-02   -0.11831E-03 13704   0.865E-02    0.245E-01
RMM:  10    -0.233020873147E+04    0.14574E-03   -0.53859E-04 14106   0.452E-02    0.193E-01
RMM:  11    -0.233020882871E+04   -0.97240E-04   -0.76078E-04 16274   0.375E-02    0.230E-01
RMM:  12    -0.233020868400E+04    0.14470E-03   -0.36550E-04 14301   0.350E-02    0.150E-01
RMM:  13    -0.233020857033E+04    0.11368E-03   -0.17142E-04 13759   0.272E-02    0.704E-02
RMM:  14    -0.233020856337E+04    0.69542E-05   -0.14653E-04 13212   0.138E-02    0.552E-02
RMM:  15    -0.233020856708E+04   -0.37079E-05   -0.57107E-05 11107   0.131E-02
  28 F= -.23302086E+04 E0= -.23274539E+04  d E =-.634662E-03
       N       E                     dE             d eps       ncg     rms          rms(c)
DAV:   1    -0.233020845250E+04    0.11087E-03   -0.31197E-01 13720   0.589E-01    0.889E-02
RMM:   2    -0.233025929956E+04   -0.50847E-01   -0.60624E-03 14052   0.162E-01    0.306E+00
RMM:   3    -0.233021249038E+04    0.46809E-01   -0.20558E-03 16978   0.718E-02    0.618E-01
RMM:   4    -0.233021447992E+04   -0.19895E-02   -0.14511E-03 13708   0.842E-02    0.976E-01
RMM:   5    -0.233021522692E+04   -0.74699E-03   -0.18094E-03 17197   0.573E-02    0.112E+00
RMM:   6    -0.233021176848E+04    0.34584E-02   -0.18718E-03 14112   0.808E-02    0.731E-01
RMM:   7    -0.233021443637E+04   -0.26679E-02   -0.34095E-03 16509   0.810E-02    0.101E+00
RMM:   8    -0.233020943480E+04    0.50016E-02   -0.11956E-03 13714   0.777E-02    0.307E-01
RMM:   9    -0.233020889164E+04    0.54315E-03   -0.55809E-04 13717   0.548E-02    0.178E-01
RMM:  10    -0.233020885098E+04    0.40659E-04   -0.40859E-04 15600   0.305E-02    0.153E-01
RMM:  11    -0.233020885365E+04   -0.26695E-05   -0.37151E-04 15545   0.281E-02    0.144E-01
RMM:  12    -0.233020880032E+04    0.53335E-04   -0.15315E-04 13462   0.237E-02    0.107E-01
RMM:  13    -0.233020873858E+04    0.61740E-04   -0.68854E-05 11288   0.181E-02    0.401E-02
RMM:  14    -0.233020873946E+04   -0.87731E-06   -0.47971E-05 10317   0.872E-03
  29 F= -.23302087E+04 E0= -.23274543E+04  d E =-.807040E-03
       N       E                     dE             d eps       ncg     rms          rms(c)
DAV:   1    -0.233020877615E+04   -0.37573E-04   -0.16318E-01 13800   0.428E-01    0.778E-02
RMM:   2    -0.233024135982E+04   -0.32584E-01   -0.48001E-03 14100   0.141E-01    0.245E+00
RMM:   3    -0.233021275408E+04    0.28606E-01   -0.26684E-03 18896   0.614E-02    0.707E-01
RMM:   4    -0.233021462364E+04   -0.18696E-02   -0.15484E-03 13708   0.909E-02    0.103E+00
RMM:   5    -0.233021045970E+04    0.41639E-02   -0.11881E-03 18092   0.449E-02    0.483E-01
RMM:   6    -0.233021079207E+04   -0.33237E-03   -0.10465E-03 14613   0.561E-02    0.574E-01
RMM:   7    -0.233021289511E+04   -0.21030E-02   -0.21106E-03 16060   0.660E-02    0.866E-01
RMM:   8    -0.233020982026E+04    0.30748E-02   -0.85140E-04 13816   0.594E-02    0.358E-01
RMM:   9    -0.233020915964E+04    0.66062E-03   -0.39751E-04 13676   0.483E-02    0.198E-01
RMM:  10    -0.233020898337E+04    0.17627E-03   -0.22461E-04 14784   0.251E-02    0.959E-02
RMM:  11    -0.233020900019E+04   -0.16821E-04   -0.22546E-04 14951   0.229E-02    0.106E-01
RMM:  12    -0.233020897488E+04    0.25309E-04   -0.11075E-04 12697   0.190E-02    0.811E-02
RMM:  13    -0.233020894765E+04    0.27231E-04   -0.41977E-05  9754   0.144E-02    0.465E-02
RMM:  14    -0.233020894439E+04    0.32571E-05   -0.21561E-05  8447   0.852E-03
  30 F= -.23302089E+04 E0= -.23274544E+04  d E =-.204935E-03
       N       E                     dE             d eps       ncg     rms          rms(c)
DAV:   1    -0.233020891852E+04    0.29130E-04   -0.43418E-02 13860   0.222E-01    0.466E-02
RMM:   2    -0.233021926891E+04   -0.10350E-01   -0.15854E-03 14163   0.788E-02    0.139E+00
RMM:   3    -0.233021092763E+04    0.83413E-02   -0.97152E-04 18909   0.363E-02    0.543E-01
RMM:   4    -0.233021235014E+04   -0.14225E-02   -0.54174E-04 13657   0.494E-02    0.781E-01
RMM:   5    -0.233020959452E+04    0.27556E-02   -0.38598E-04 15088   0.325E-02    0.308E-01
RMM:   6    -0.233020950287E+04    0.91646E-04   -0.40751E-04 14763   0.348E-02    0.316E-01
RMM:   7    -0.233021018352E+04   -0.68065E-03   -0.94293E-04 17344   0.407E-02    0.468E-01
RMM:   8    -0.233020934286E+04    0.84066E-03   -0.39897E-04 13886   0.389E-02    0.245E-01
RMM:   9    -0.233020907758E+04    0.26528E-03   -0.18552E-04 13495   0.311E-02    0.142E-01
RMM:  10    -0.233020900106E+04    0.76523E-04   -0.78643E-05 11789   0.180E-02    0.829E-02
RMM:  11    -0.233020898099E+04    0.20066E-04   -0.53805E-05 10261   0.118E-02    0.569E-02
RMM:  12    -0.233020898054E+04    0.45344E-06   -0.61809E-05 11041   0.136E-02
  31 F= -.23302090E+04 E0= -.23274544E+04  d E =-.241079E-03
       N       E                     dE             d eps       ncg     rms          rms(c)
DAV:   1    -0.233020899673E+04   -0.15742E-04   -0.12547E-01 13780   0.375E-01    0.643E-02
RMM:   2    -0.233022010912E+04   -0.11112E-01   -0.32788E-03 13856   0.123E-01    0.141E+00
RMM:   3    -0.233021043849E+04    0.96706E-02   -0.10957E-03 17517   0.485E-02    0.439E-01
RMM:   4    -0.233021621001E+04   -0.57715E-02   -0.66607E-04 13800   0.540E-02    0.113E+00
RMM:   5    -0.233021025637E+04    0.59536E-02   -0.54628E-04 16948   0.327E-02    0.419E-01
RMM:   6    -0.233021014989E+04    0.10647E-03   -0.47505E-04 14027   0.410E-02    0.443E-01
RMM:   7    -0.233020976827E+04    0.38162E-03   -0.89897E-04 14756   0.502E-02    0.327E-01
RMM:   8    -0.233020992888E+04   -0.16061E-03   -0.65382E-04 14728   0.439E-02    0.375E-01
RMM:   9    -0.233020936387E+04    0.56502E-03   -0.27508E-04 13616   0.390E-02    0.199E-01
RMM:  10    -0.233020915714E+04    0.20673E-03   -0.10397E-04 12480   0.214E-02    0.846E-02
RMM:  11    -0.233020913816E+04    0.18984E-04   -0.82094E-05 11333   0.158E-02    0.624E-02
RMM:  12    -0.233020914064E+04   -0.24885E-05   -0.92379E-05 12324   0.152E-02
  32 F= -.23302091E+04 E0= -.23274545E+04  d E =-.160109E-03
       N       E                     dE             d eps       ncg     rms          rms(c)
DAV:   1    -0.233020879776E+04    0.34039E-03   -0.49409E-01 13700   0.744E-01    0.118E-01
RMM:   2    -0.233029593924E+04   -0.87141E-01   -0.12653E-02 14255   0.229E-01    0.401E+00
RMM:   3    -0.233021855711E+04    0.77382E-01   -0.34124E-03 15021   0.111E-01    0.113E+00
RMM:   4    -0.233022599438E+04   -0.74373E-02   -0.21387E-03 14677   0.806E-02    0.173E+00
RMM:   5    -0.233021283218E+04    0.13162E-01   -0.19450E-03 13739   0.950E-02    0.752E-01
RMM:   6    -0.233021499768E+04   -0.21655E-02   -0.33194E-03 14901   0.965E-02    0.104E+00
RMM:   7    -0.233021643411E+04   -0.14364E-02   -0.42789E-03 15189   0.108E-01    0.111E+00
RMM:   8    -0.233021121936E+04    0.52148E-02   -0.19606E-03 13733   0.942E-02    0.541E-01
RMM:   9    -0.233020945681E+04    0.17625E-02   -0.90961E-04 13709   0.770E-02    0.189E-01
RMM:  10    -0.233020940314E+04    0.53670E-04   -0.51073E-04 15342   0.343E-02    0.173E-01
RMM:  11    -0.233020939749E+04    0.56493E-05   -0.42190E-04 15337   0.317E-02    0.160E-01
RMM:  12    -0.233020933111E+04    0.66378E-04   -0.22349E-04 14072   0.275E-02    0.114E-01
RMM:  13    -0.233020926767E+04    0.63442E-04   -0.96347E-05 12507   0.210E-02    0.560E-02
RMM:  14    -0.233020926091E+04    0.67621E-05   -0.68101E-05 11050   0.114E-02
  33 F= -.23302093E+04 E0= -.23274547E+04  d E =-.280372E-03
       N       E                     dE             d eps       ncg     rms          rms(c)
DAV:   1    -0.233020922552E+04    0.42155E-04   -0.20341E-01 13720   0.477E-01    0.793E-02
RMM:   2    -0.233023982645E+04   -0.30601E-01   -0.48507E-03 13905   0.146E-01    0.236E+00
RMM:   3    -0.233021252543E+04    0.27301E-01   -0.20883E-03 18515   0.595E-02    0.640E-01
RMM:   4    -0.233021799145E+04   -0.54660E-02   -0.13949E-03 13848   0.807E-02    0.127E+00
RMM:   5    -0.233021107707E+04    0.69144E-02   -0.10524E-03 16016   0.528E-02    0.493E-01
RMM:   6    -0.233021122597E+04   -0.14890E-03   -0.12927E-03 14682   0.625E-02    0.562E-01
RMM:   7    -0.233021338289E+04   -0.21569E-02   -0.20439E-03 15647   0.695E-02    0.850E-01
RMM:   8    -0.233021046764E+04    0.29152E-02   -0.82383E-04 13737   0.582E-02    0.412E-01
RMM:   9    -0.233020954451E+04    0.92313E-03   -0.42899E-04 13695   0.515E-02    0.154E-01
RMM:  10    -0.233020945848E+04    0.86033E-04   -0.22694E-04 14901   0.246E-02    0.107E-01
RMM:  11    -0.233020947960E+04   -0.21122E-04   -0.24158E-04 15792   0.223E-02    0.117E-01
RMM:  12    -0.233020943573E+04    0.43873E-04   -0.98308E-05 12565   0.196E-02    0.751E-02
RMM:  13    -0.233020941001E+04    0.25711E-04   -0.43338E-05  9725   0.143E-02    0.402E-02
RMM:  14    -0.233020940711E+04    0.28998E-05   -0.19946E-05  8270   0.829E-03
  34 F= -.23302094E+04 E0= -.23274548E+04  d E =-.146207E-03
       N       E                     dE             d eps       ncg     rms          rms(c)
DAV:   1    -0.233020922201E+04    0.18800E-03   -0.28674E-01 13700   0.566E-01    0.893E-02
RMM:   2    -0.233023010390E+04   -0.20882E-01   -0.58471E-03 13985   0.161E-01    0.197E+00
RMM:   3    -0.233021418772E+04    0.15916E-01   -0.22313E-03 18149   0.660E-02    0.865E-01
RMM:   4    -0.233022186456E+04   -0.76768E-02   -0.11844E-03 14793   0.570E-02    0.149E+00
RMM:   5    -0.233021063093E+04    0.11234E-01   -0.90495E-04 13723   0.637E-02    0.374E-01
RMM:   6    -0.233021090936E+04   -0.27843E-03   -0.13653E-03 14300   0.679E-02    0.499E-01
RMM:   7    -0.233021150550E+04   -0.59614E-03   -0.18584E-03 15117   0.726E-02    0.604E-01
RMM:   8    -0.233021142739E+04    0.78114E-04   -0.80630E-04 14065   0.519E-02    0.598E-01
RMM:   9    -0.233020960588E+04    0.18215E-02   -0.35446E-04 13665   0.455E-02    0.130E-01
RMM:  10    -0.233020957512E+04    0.30766E-04   -0.24762E-04 14862   0.266E-02    0.143E-01
RMM:  11    -0.233020954180E+04    0.33320E-04   -0.24718E-04 15505   0.221E-02    0.110E-01
RMM:  12    -0.233020952729E+04    0.14509E-04   -0.12835E-04 13394   0.208E-02    0.981E-02
RMM:  13    -0.233020948455E+04    0.42733E-04   -0.48968E-05 10231   0.156E-02    0.536E-02
RMM:  14    -0.233020947966E+04    0.48978E-05   -0.26003E-05  8642   0.965E-03
  35 F= -.23302095E+04 E0= -.23274549E+04  d E =-.218748E-03
       N       E                     dE             d eps       ncg     rms          rms(c)
DAV:   1    -0.233020943038E+04    0.54172E-04   -0.16361E-01 13780   0.427E-01    0.765E-02
RMM:   2    -0.233026200311E+04   -0.52573E-01   -0.64985E-03 14598   0.151E-01    0.310E+00
RMM:   3    -0.233021483858E+04    0.47165E-01   -0.17955E-03 14446   0.856E-02    0.844E-01
RMM:   4    -0.233021854293E+04   -0.37043E-02   -0.13340E-03 15078   0.594E-02    0.126E+00
RMM:   5    -0.233021074782E+04    0.77951E-02   -0.12474E-03 13711   0.799E-02    0.400E-01
RMM:   6    -0.233021157179E+04   -0.82397E-03   -0.17996E-03 14878   0.723E-02    0.585E-01
RMM:   7    -0.233021047413E+04    0.10977E-02   -0.12880E-03 13904   0.731E-02    0.387E-01
RMM:   8    -0.233021101820E+04   -0.54407E-03   -0.56263E-04 13712   0.558E-02    0.521E-01
RMM:   9    -0.233020967993E+04    0.13383E-02   -0.17247E-04 13623   0.293E-02    0.125E-01
RMM:  10    -0.233020961420E+04    0.65727E-04   -0.13842E-04 13868   0.224E-02    0.991E-02
RMM:  11    -0.233020962891E+04   -0.14706E-04   -0.12423E-04 13528   0.176E-02    0.109E-01
RMM:  12    -0.233020959198E+04    0.36924E-04   -0.72416E-05 11659   0.175E-02    0.712E-02
RMM:  13    -0.233020957072E+04    0.21263E-04   -0.32293E-05  8954   0.139E-02    0.390E-02
RMM:  14    -0.233020956851E+04    0.22142E-05   -0.15371E-05  8023   0.768E-03
  36 F= -.23302096E+04 E0= -.23274550E+04  d E =-.888490E-04
       N       E                     dE             d eps       ncg     rms          rms(c)
DAV:   1    -0.233020950541E+04    0.65310E-04   -0.99189E-02 13800   0.333E-01    0.574E-02
RMM:   2    -0.233022754471E+04   -0.18039E-01   -0.28645E-03 14287   0.106E-01    0.183E+00
RMM:   3    -0.233021256908E+04    0.14976E-01   -0.92573E-04 15265   0.553E-02    0.663E-01
RMM:   4    -0.233021467644E+04   -0.21074E-02   -0.65547E-04 15077   0.411E-02    0.949E-01
RMM:   5    -0.233021036371E+04    0.43127E-02   -0.45346E-04 13666   0.449E-02    0.328E-01
RMM:   6    -0.233021051698E+04   -0.15326E-03   -0.56700E-04 13899   0.463E-02    0.417E-01
RMM:   7    -0.233021182675E+04   -0.13098E-02   -0.14830E-03 17118   0.512E-02    0.637E-01
RMM:   8    -0.233021003016E+04    0.17966E-02   -0.55114E-04 13839   0.480E-02    0.256E-01
RMM:   9    -0.233020968731E+04    0.34284E-03   -0.27275E-04 13653   0.397E-02    0.136E-01
RMM:  10    -0.233020964539E+04    0.41926E-04   -0.15392E-04 13909   0.177E-02    0.102E-01
RMM:  11    -0.233020962618E+04    0.19206E-04   -0.94018E-05 12280   0.152E-02    0.806E-02
RMM:  12    -0.233020961516E+04    0.11026E-04   -0.78978E-05 11975   0.153E-02    0.642E-02
RMM:  13    -0.233020959949E+04    0.15669E-04   -0.29430E-05  8589   0.127E-02    0.417E-02
RMM:  14    -0.233020959597E+04    0.35119E-05   -0.15565E-05  7744   0.786E-03
  37 F= -.23302096E+04 E0= -.23274550E+04  d E =-.116318E-03
       N       E                     dE             d eps       ncg     rms          rms(c)
DAV:   1    -0.233020951528E+04    0.84210E-04   -0.21722E-01 13700   0.491E-01    0.775E-02
RMM:   2    -0.233024770728E+04   -0.38192E-01   -0.56197E-03 14212   0.153E-01    0.266E+00
RMM:   3    -0.233021274421E+04    0.34963E-01   -0.15648E-03 14265   0.813E-02    0.587E-01
RMM:   4    -0.233021836258E+04   -0.56184E-02   -0.78555E-04 13757   0.602E-02    0.127E+00
RMM:   5    -0.233021205131E+04    0.63113E-02   -0.97576E-04 16695   0.423E-02    0.597E-01
RMM:   6    -0.233021151140E+04    0.53991E-03   -0.11223E-03 13741   0.689E-02    0.576E-01
RMM:   7    -0.233021343717E+04   -0.19258E-02   -0.24305E-03 17449   0.642E-02    0.822E-01
RMM:   8    -0.233021025139E+04    0.31858E-02   -0.89026E-04 13690   0.662E-02    0.288E-01
RMM:   9    -0.233020976421E+04    0.48718E-03   -0.35088E-04 13666   0.448E-02    0.123E-01
RMM:  10    -0.233020973475E+04    0.29454E-04   -0.26100E-04 16057   0.233E-02    0.100E-01
RMM:  11    -0.233020977496E+04   -0.40208E-04   -0.20036E-04 15119   0.215E-02    0.123E-01
RMM:  12    -0.233020970113E+04    0.73825E-04   -0.70354E-05 11295   0.181E-02    0.491E-02
RMM:  13    -0.233020969073E+04    0.10409E-04   -0.34899E-05  9456   0.106E-02    0.290E-02
RMM:  14    -0.233020969098E+04   -0.25600E-06   -0.17587E-05  7986   0.775E-03
  38 F= -.23302097E+04 E0= -.23274550E+04  d E =-.950064E-04
       N       E                     dE             d eps       ncg     rms          rms(c)
DAV:   1    -0.233020950037E+04    0.19035E-03   -0.27636E-01 13700   0.554E-01    0.839E-02
RMM:   2    -0.233021999035E+04   -0.10490E-01   -0.49611E-03 13952   0.151E-01    0.141E+00
RMM:   3    -0.233021409676E+04    0.58936E-02   -0.20071E-03 18561   0.608E-02    0.825E-01
RMM:   4    -0.233021131805E+04    0.27787E-02   -0.68234E-04 13660   0.583E-02    0.523E-01
RMM:   5    -0.233021428485E+04   -0.29668E-02   -0.80634E-04 19376   0.293E-02    0.902E-01
RMM:   6    -0.233021046197E+04    0.38229E-02   -0.65177E-04 13750   0.510E-02    0.329E-01
RMM:   7    -0.233021350467E+04   -0.30427E-02   -0.18894E-03 15960   0.626E-02    0.835E-01
RMM:   8    -0.233021058843E+04    0.29162E-02   -0.81995E-04 14453   0.528E-02    0.372E-01
RMM:   9    -0.233020987197E+04    0.71646E-03   -0.38511E-04 13691   0.471E-02    0.155E-01
RMM:  10    -0.233020978884E+04    0.83133E-04   -0.19603E-04 14175   0.254E-02    0.113E-01
RMM:  11    -0.233020977199E+04    0.16844E-04   -0.21613E-04 14919   0.212E-02    0.902E-02
RMM:  12    -0.233020977761E+04   -0.56212E-05   -0.15255E-04 14261   0.206E-02    0.931E-02
RMM:  13    -0.233020973643E+04    0.41180E-04   -0.47326E-05 10078   0.158E-02    0.426E-02
RMM:  14    -0.233020973069E+04    0.57452E-05   -0.21027E-05  8477   0.863E-03
  39 F= -.23302097E+04 E0= -.23274549E+04  d E =-.134714E-03
       N       E                     dE             d eps       ncg     rms          rms(c)
DAV:   1    -0.233020964699E+04    0.89446E-04   -0.21729E-01 13700   0.490E-01    0.759E-02
RMM:   2    -0.233023598508E+04   -0.26338E-01   -0.47843E-03 14050   0.145E-01    0.221E+00
RMM:   3    -0.233021284542E+04    0.23140E-01   -0.13963E-03 15596   0.674E-02    0.643E-01
RMM:   4    -0.233021874112E+04   -0.58957E-02   -0.91633E-04 15023   0.495E-02    0.127E+00
RMM:   5    -0.233021134796E+04    0.73932E-02   -0.72525E-04 13777   0.548E-02    0.461E-01
RMM:   6    -0.233021087781E+04    0.47015E-03   -0.10777E-03 13770   0.665E-02    0.437E-01
RMM:   7    -0.233021358080E+04   -0.27030E-02   -0.21045E-03 17697   0.589E-02    0.849E-01
RMM:   8    -0.233021077780E+04    0.28030E-02   -0.84317E-04 13693   0.597E-02    0.386E-01
RMM:   9    -0.233021000995E+04    0.76785E-03   -0.40246E-04 13657   0.479E-02    0.181E-01
RMM:  10    -0.233020984304E+04    0.16690E-03   -0.21042E-04 14269   0.267E-02    0.812E-02
RMM:  11    -0.233020985602E+04   -0.12977E-04   -0.26430E-04 16353   0.209E-02    0.860E-02
RMM:  12    -0.233020983894E+04    0.17085E-04   -0.10272E-04 12778   0.182E-02    0.642E-02
RMM:  13    -0.233020982231E+04    0.16630E-04   -0.38386E-05  9536   0.129E-02    0.356E-02
RMM:  14    -0.233020982090E+04    0.14096E-05   -0.20397E-05  8039   0.830E-03
  40 F= -.23302098E+04 E0= -.23274551E+04  d E =-.902095E-04
       N       E                     dE             d eps       ncg     rms          rms(c)
DAV:   1    -0.233020913596E+04    0.68635E-03   -0.93581E-01 13700   0.102E+00    0.145E-01
RMM:   2    -0.233027181445E+04   -0.62678E-01   -0.15663E-02 13979   0.270E-01    0.344E+00
RMM:   3    -0.233022016286E+04    0.51652E-01   -0.44205E-03 16928   0.108E-01    0.122E+00
RMM:   4    -0.233023036516E+04   -0.10202E-01   -0.20087E-03 14374   0.822E-02    0.192E+00
RMM:   5    -0.233021430951E+04    0.16056E-01   -0.19673E-03 13980   0.854E-02    0.793E-01
RMM:   6    -0.233021404066E+04    0.26884E-03   -0.37338E-03 13749   0.124E-01    0.862E-01
RMM:   7    -0.233022383883E+04   -0.97982E-02   -0.70753E-03 17801   0.110E-01    0.162E+00
RMM:   8    -0.233021162085E+04    0.12218E-01   -0.23016E-03 13704   0.105E-01    0.502E-01
RMM:   9    -0.233021019415E+04    0.14267E-02   -0.10773E-03 13736   0.725E-02    0.254E-01
RMM:  10    -0.233021002075E+04    0.17340E-03   -0.85283E-04 16818   0.413E-02    0.174E-01
RMM:  11    -0.233021001211E+04    0.86380E-05   -0.68091E-04 15584   0.387E-02    0.154E-01
RMM:  12    -0.233020995349E+04    0.58618E-04   -0.28675E-04 14344   0.313E-02    0.114E-01
RMM:  13    -0.233020990623E+04    0.47263E-04   -0.17726E-04 14181   0.201E-02    0.677E-02
RMM:  14    -0.233020990442E+04    0.18133E-05   -0.88355E-05 12150   0.121E-02
  41 F= -.23302099E+04 E0= -.23274550E+04  d E =-.173728E-03
       N       E                     dE             d eps       ncg     rms          rms(c)
DAV:   1    -0.233020988106E+04    0.25171E-04   -0.75777E-02 13800   0.291E-01    0.721E-02
RMM:   2    -0.233029882186E+04   -0.88941E-01   -0.71493E-03 15447   0.132E-01    0.407E+00
RMM:   3    -0.233021875107E+04    0.80071E-01   -0.22772E-03 14537   0.918E-02    0.105E+00
RMM:   4    -0.233022355425E+04   -0.48032E-02   -0.21008E-03 14126   0.887E-02    0.156E+00
RMM:   5    -0.233021316071E+04    0.10394E-01   -0.16120E-03 13806   0.839E-02    0.722E-01
RMM:   6    -0.233021407365E+04   -0.91294E-03   -0.30269E-03 15458   0.833E-02    0.879E-01
RMM:   7    -0.233021480502E+04   -0.73137E-03   -0.31427E-03 14873   0.962E-02    0.919E-01
RMM:   8    -0.233021133231E+04    0.34727E-02   -0.14638E-03 13727   0.809E-02    0.451E-01
RMM:   9    -0.233021013094E+04    0.12014E-02   -0.67984E-04 13700   0.676E-02    0.187E-01
RMM:  10    -0.233020999428E+04    0.13665E-03   -0.26472E-04 14797   0.277E-02    0.116E-01
RMM:  11    -0.233021003424E+04   -0.39959E-04   -0.28985E-04 16660   0.209E-02    0.140E-01
RMM:  12    -0.233020995899E+04    0.75250E-04   -0.10820E-04 13068   0.198E-02    0.707E-02
RMM:  13    -0.233020993782E+04    0.21169E-04   -0.49017E-05 10043   0.137E-02    0.395E-02
RMM:  14    -0.233020993655E+04    0.12742E-05   -0.25234E-05  8694   0.785E-03
  42 F= -.23302099E+04 E0= -.23274552E+04  d E =-.321330E-04
       N       E                     dE             d eps       ncg     rms          rms(c)
DAV:   1    -0.233020949200E+04    0.44583E-03   -0.68237E-01 13700   0.868E-01    0.121E-01
RMM:   2    -0.233024344908E+04   -0.33957E-01   -0.10714E-02 13945   0.228E-01    0.252E+00
RMM:   3    -0.233021465347E+04    0.28796E-01   -0.26437E-03 16718   0.860E-02    0.814E-01
RMM:   4    -0.233022626672E+04   -0.11613E-01   -0.12759E-03 14734   0.622E-02    0.172E+00
RMM:   5    -0.233021331945E+04    0.12947E-01   -0.13976E-03 14243   0.682E-02    0.683E-01
RMM:   6    -0.233021407831E+04   -0.75886E-03   -0.23912E-03 13889   0.964E-02    0.857E-01
RMM:   7    -0.233021805412E+04   -0.39758E-02   -0.44518E-03 16852   0.909E-02    0.121E+00
RMM:   8    -0.233021108367E+04    0.69704E-02   -0.15397E-03 13710   0.880E-02    0.372E-01
RMM:   9    -0.233021013569E+04    0.94798E-03   -0.63271E-04 13725   0.589E-02    0.147E-01
RMM:  10    -0.233021015644E+04   -0.20740E-04   -0.57870E-04 16328   0.346E-02    0.164E-01
RMM:  11    -0.233021024699E+04   -0.90555E-04   -0.50480E-04 16781   0.293E-02    0.195E-01
RMM:  12    -0.233021006869E+04    0.17830E-03   -0.14297E-04 13161   0.251E-02    0.823E-02
RMM:  13    -0.233021004388E+04    0.24815E-04   -0.10211E-04 12439   0.160E-02    0.574E-02
RMM:  14    -0.233021004018E+04    0.37018E-05   -0.45962E-05 10170   0.111E-02
  43 F= -.23302100E+04 E0= -.23274553E+04  d E =-.135759E-03
       N       E                     dE             d eps       ncg     rms          rms(c)
DAV:   1    -0.233021006646E+04   -0.22585E-04   -0.15052E-02 13840   0.132E-01    0.428E-02
RMM:   2    -0.233022671275E+04   -0.16646E-01   -0.22135E-03 14937   0.793E-02    0.174E+00
RMM:   3    -0.233021323278E+04    0.13480E-01   -0.79256E-04 16017   0.456E-02    0.714E-01
RMM:   4    -0.233021485599E+04   -0.16232E-02   -0.69076E-04 14478   0.457E-02    0.930E-01
RMM:   5    -0.233021104668E+04    0.38093E-02   -0.47621E-04 13714   0.451E-02    0.388E-01
RMM:   6    -0.233021063904E+04    0.40764E-03   -0.52322E-04 15012   0.381E-02    0.324E-01
RMM:   7    -0.233021122322E+04   -0.58417E-03   -0.97201E-04 15519   0.487E-02    0.449E-01
RMM:   8    -0.233021045648E+04    0.76674E-03   -0.50471E-04 14401   0.410E-02    0.233E-01
RMM:   9    -0.233021014106E+04    0.31542E-03   -0.20859E-04 13614   0.360E-02    0.104E-01
RMM:  10    -0.233021009127E+04    0.49783E-04   -0.84579E-05 11751   0.169E-02    0.567E-02
RMM:  11    -0.233021008863E+04    0.26478E-05   -0.50386E-05 10310   0.975E-03
  44 F= -.23302101E+04 E0= -.23274554E+04  d E =-.484516E-04
       N       E                     dE             d eps       ncg     rms          rms(c)
DAV:   1    -0.233021004318E+04    0.48090E-04   -0.13544E-01 13700   0.391E-01    0.933E-02
RMM:   2    -0.233023001494E+04   -0.19972E-01   -0.92972E-03 15366   0.160E-01    0.187E+00
RMM:   3    -0.233024034751E+04   -0.10333E-01   -0.43069E-03 18901   0.746E-02    0.237E+00
RMM:   4    -0.233021193575E+04    0.28412E-01   -0.20088E-03 13702   0.103E-01    0.415E-01
RMM:   5    -0.233021269028E+04   -0.75453E-03   -0.13219E-03 13972   0.711E-02    0.704E-01
RMM:   6    -0.233021252016E+04    0.17012E-03   -0.33111E-03 18187   0.729E-02    0.678E-01
RMM:   7    -0.233022600247E+04   -0.13482E-01   -0.32079E-03 18948   0.659E-02    0.171E+00
RMM:   8    -0.233021316715E+04    0.12835E-01   -0.16644E-03 14682   0.687E-02    0.661E-01
RMM:   9    -0.233021079841E+04    0.23687E-02   -0.96970E-04 13748   0.652E-02    0.330E-01
RMM:  10    -0.233021031029E+04    0.48812E-03   -0.81412E-04 15101   0.450E-02    0.175E-01
RMM:  11    -0.233021039690E+04   -0.86609E-04   -0.95303E-04 16617   0.431E-02    0.208E-01
RMM:  12    -0.233021020526E+04    0.19164E-03   -0.24200E-04 13622   0.331E-02    0.102E-01
RMM:  13    -0.233021017164E+04    0.33622E-04   -0.15824E-04 14472   0.184E-02    0.710E-02
RMM:  14    -0.233021016543E+04    0.62136E-05   -0.64511E-05 11232   0.109E-02
  45 F= -.23302102E+04 E0= -.23274554E+04  d E =-.125251E-03
       N       E                     dE             d eps       ncg     rms          rms(c)
DAV:   1    -0.233021016387E+04    0.77675E-05   -0.31692E-02 13800   0.190E-01    0.514E-02
RMM:   2    -0.233022591324E+04   -0.15749E-01   -0.26630E-03 14530   0.949E-02    0.167E+00
RMM:   3    -0.233021422775E+04    0.11685E-01   -0.11068E-03 17204   0.469E-02    0.843E-01
RMM:   4    -0.233021662069E+04   -0.23929E-02   -0.86546E-04 14467   0.515E-02    0.108E+00
RMM:   5    -0.233021125869E+04    0.53620E-02   -0.48525E-04 13675   0.459E-02    0.416E-01
RMM:   6    -0.233021086897E+04    0.38972E-03   -0.66693E-04 15327   0.407E-02    0.351E-01
RMM:   7    -0.233021092955E+04   -0.60585E-04   -0.95499E-04 14730   0.535E-02    0.352E-01
RMM:   8    -0.233021081821E+04    0.11135E-03   -0.55586E-04 14199   0.444E-02    0.329E-01
RMM:   9    -0.233021043648E+04    0.38173E-03   -0.22618E-04 13539   0.346E-02    0.198E-01
RMM:  10    -0.233021022841E+04    0.20807E-03   -0.10772E-04 12762   0.238E-02    0.862E-02
RMM:  11    -0.233021020874E+04    0.19666E-04   -0.69205E-05 11284   0.127E-02    0.625E-02
RMM:  12    -0.233021020216E+04    0.65801E-05   -0.48719E-05 10148   0.131E-02
  46 F= -.23302102E+04 E0= -.23274554E+04  d E =-.367326E-04
       N       E                     dE             d eps       ncg     rms          rms(c)
DAV:   1    -0.233021013818E+04    0.70562E-04   -0.87695E-02 13760   0.314E-01    0.609E-02
RMM:   2    -0.233021658550E+04   -0.64473E-02   -0.25330E-03 13735   0.112E-01    0.111E+00
RMM:   3    -0.233021583577E+04    0.74973E-03   -0.17226E-03 20561   0.386E-02    0.990E-01
RMM:   4    -0.233021119538E+04    0.46404E-02   -0.71682E-04 13646   0.599E-02    0.395E-01
RMM:   5    -0.233021246271E+04   -0.12673E-02   -0.76630E-04 16528   0.369E-02    0.633E-01
RMM:   6    -0.233021162351E+04    0.83920E-03   -0.67428E-04 17636   0.342E-02    0.498E-01
RMM:   7    -0.233021101900E+04    0.60451E-03   -0.75357E-04 14890   0.449E-02    0.365E-01
RMM:   8    -0.233021091229E+04    0.10671E-03   -0.71782E-04 15138   0.438E-02    0.346E-01
RMM:   9    -0.233021049192E+04    0.42037E-03   -0.30053E-04 13619   0.368E-02    0.215E-01
RMM:  10    -0.233021024568E+04    0.24624E-03   -0.13939E-04 13241   0.277E-02    0.732E-02
RMM:  11    -0.233021024321E+04    0.24694E-05   -0.13056E-04 12989   0.174E-02    0.746E-02
RMM:  12    -0.233021024461E+04   -0.14032E-05   -0.10595E-04 12798   0.156E-02    0.675E-02
RMM:  13    -0.233021022345E+04    0.21163E-04   -0.33641E-05  8921   0.135E-02    0.357E-02
RMM:  14    -0.233021021980E+04    0.36514E-05   -0.16586E-05  7698   0.773E-03
  47 F= -.23302102E+04 E0= -.23274553E+04  d E =-.543690E-04
