 288 288   0   0
  0.1280206E+02  0.9726678E-09  0.8423550E-09  0.4500000E-08  0.2500000E-15
  1.000000000000000E-004
  CAR 
 unknown system                          
      6.76548237     -6.01781815  301      4.29416005      1.00000000
     -6.018  0.0000E+00  0.0000E+00
     -5.975  0.0000E+00  0.0000E+00
     -5.933  0.0000E+00  0.0000E+00
     -5.890  0.0000E+00  0.0000E+00
     -5.847  0.0000E+00  0.0000E+00
     -5.805  0.0000E+00  0.0000E+00
     -5.762  0.0000E+00  0.0000E+00
     -5.720  0.0000E+00  0.0000E+00
     -5.677  0.0000E+00  0.0000E+00
     -5.634  0.0000E+00  0.0000E+00
     -5.592  0.0000E+00  0.0000E+00
     -5.549  0.0000E+00  0.0000E+00
     -5.506  0.0000E+00  0.0000E+00
     -5.464  0.0000E+00  0.0000E+00
     -5.421  0.0000E+00  0.0000E+00
     -5.379  0.1303E-15  0.5551E-17
     -5.336  0.3452E-14  0.1527E-15
     -5.293  0.7374E-13  0.3295E-14
     -5.251  0.1346E-11  0.6066E-13
     -5.208  0.2097E-10  0.9541E-12
     -5.166  0.2785E-09  0.1282E-10
     -5.123  0.3158E-08  0.1474E-09
     -5.080  0.3056E-07  0.1449E-08
     -5.038  0.2526E-06  0.1221E-07
     -4.995  0.1785E-05  0.8829E-07
     -4.953  0.1080E-04  0.5486E-06
     -4.910  0.5604E-04  0.2936E-05
     -4.867  0.2498E-03  0.1358E-04
     -4.825  0.9602E-03  0.5450E-04
     -4.782  0.3196E-02  0.1907E-03
     -4.739  0.9264E-02  0.5854E-03
     -4.697  0.2356E-01  0.1590E-02
     -4.654  0.5310E-01  0.3852E-02
     -4.612  0.1071E+00  0.8416E-02
     -4.569  0.1956E+00  0.1675E-01
     -4.526  0.3269E+00  0.3068E-01
     -4.484  0.5040E+00  0.5216E-01
     -4.441  0.7217E+00  0.8291E-01
     -4.399  0.9646E+00  0.1240E+00
     -4.356  0.1209E+01  0.1755E+00
     -4.313  0.1427E+01  0.2363E+00
     -4.271  0.1598E+01  0.3044E+00
     -4.228  0.1712E+01  0.3773E+00
     -4.186  0.1779E+01  0.4532E+00
     -4.143  0.1828E+01  0.5311E+00
     -4.100  0.1898E+01  0.6119E+00
     -4.058  0.2024E+01  0.6982E+00
     -4.015  0.2221E+01  0.7928E+00
     -3.972  0.2478E+01  0.8984E+00
     -3.930  0.2755E+01  0.1016E+01
     -3.887  0.2998E+01  0.1144E+01
     -3.845  0.3159E+01  0.1278E+01
     -3.802  0.3212E+01  0.1415E+01
     -3.759  0.3172E+01  0.1550E+01
     -3.717  0.3088E+01  0.1682E+01
     -3.674  0.3023E+01  0.1811E+01
     -3.632  0.3034E+01  0.1940E+01
     -3.589  0.3148E+01  0.2074E+01
     -3.546  0.3352E+01  0.2217E+01
     -3.504  0.3600E+01  0.2370E+01
     -3.461  0.3832E+01  0.2534E+01
     -3.419  0.4005E+01  0.2704E+01
     -3.376  0.4102E+01  0.2879E+01
     -3.333  0.4138E+01  0.3055E+01
     -3.291  0.4141E+01  0.3232E+01
     -3.248  0.4147E+01  0.3408E+01
     -3.205  0.4184E+01  0.3587E+01
     -3.163  0.4270E+01  0.3769E+01
     -3.120  0.4407E+01  0.3957E+01
     -3.078  0.4587E+01  0.4152E+01
     -3.035  0.4791E+01  0.4356E+01
     -2.992  0.4989E+01  0.4569E+01
     -2.950  0.5154E+01  0.4788E+01
     -2.907  0.5267E+01  0.5013E+01
     -2.865  0.5332E+01  0.5240E+01
     -2.822  0.5374E+01  0.5469E+01
     -2.779  0.5427E+01  0.5700E+01
     -2.737  0.5515E+01  0.5935E+01
     -2.694  0.5628E+01  0.6175E+01
     -2.652  0.5714E+01  0.6418E+01
     -2.609  0.5711E+01  0.6662E+01
     -2.566  0.5599E+01  0.6900E+01
     -2.524  0.5439E+01  0.7132E+01
     -2.481  0.5362E+01  0.7361E+01
     -2.438  0.5505E+01  0.7595E+01
     -2.396  0.5919E+01  0.7847E+01
     -2.353  0.6528E+01  0.8126E+01
     -2.311  0.7147E+01  0.8430E+01
     -2.268  0.7564E+01  0.8752E+01
     -2.225  0.7650E+01  0.9078E+01
     -2.183  0.7429E+01  0.9395E+01
     -2.140  0.7066E+01  0.9696E+01
     -2.098  0.6793E+01  0.9985E+01
     -2.055  0.6794E+01  0.1027E+02
     -2.012  0.7120E+01  0.1058E+02
     -1.970  0.7672E+01  0.1091E+02
     -1.927  0.8261E+01  0.1126E+02
     -1.885  0.8699E+01  0.1163E+02
     -1.842  0.8887E+01  0.1201E+02
     -1.799  0.8853E+01  0.1238E+02
     -1.757  0.8725E+01  0.1276E+02
     -1.714  0.8651E+01  0.1312E+02
     -1.671  0.8715E+01  0.1350E+02
     -1.629  0.8909E+01  0.1388E+02
     -1.586  0.9172E+01  0.1427E+02
     -1.544  0.9447E+01  0.1467E+02
     -1.501  0.9716E+01  0.1508E+02
     -1.458  0.9980E+01  0.1551E+02
     -1.416  0.1022E+02  0.1594E+02
     -1.373  0.1040E+02  0.1639E+02
     -1.331  0.1050E+02  0.1683E+02
     -1.288  0.1061E+02  0.1729E+02
     -1.245  0.1093E+02  0.1775E+02
     -1.203  0.1162E+02  0.1825E+02
     -1.160  0.1270E+02  0.1879E+02
     -1.118  0.1394E+02  0.1938E+02
     -1.075  0.1499E+02  0.2002E+02
     -1.032  0.1556E+02  0.2068E+02
     -0.990  0.1563E+02  0.2135E+02
     -0.947  0.1553E+02  0.2201E+02
     -0.904  0.1567E+02  0.2268E+02
     -0.862  0.1638E+02  0.2338E+02
     -0.819  0.1772E+02  0.2413E+02
     -0.777  0.1959E+02  0.2497E+02
     -0.734  0.2191E+02  0.2590E+02
     -0.691  0.2482E+02  0.2696E+02
     -0.649  0.2851E+02  0.2817E+02
     -0.606  0.3301E+02  0.2958E+02
     -0.564  0.3795E+02  0.3120E+02
     -0.521  0.4267E+02  0.3301E+02
     -0.478  0.4661E+02  0.3500E+02
     -0.436  0.4957E+02  0.3711E+02
     -0.393  0.5173E+02  0.3932E+02
     -0.351  0.5342E+02  0.4159E+02
     -0.308  0.5484E+02  0.4393E+02
     -0.265  0.5597E+02  0.4632E+02
     -0.223  0.5669E+02  0.4873E+02
     -0.180  0.5697E+02  0.5116E+02
     -0.137  0.5692E+02  0.5358E+02
     -0.095  0.5678E+02  0.5600E+02
     -0.052  0.5683E+02  0.5842E+02
     -0.010  0.5731E+02  0.6087E+02
      0.033  0.5841E+02  0.6336E+02
      0.076  0.6025E+02  0.6592E+02
      0.118  0.6282E+02  0.6860E+02
      0.161  0.6600E+02  0.7141E+02
      0.203  0.6961E+02  0.7438E+02
      0.246  0.7338E+02  0.7751E+02
      0.289  0.7703E+02  0.8079E+02
      0.331  0.8025E+02  0.8421E+02
      0.374  0.8284E+02  0.8774E+02
      0.416  0.8477E+02  0.9135E+02
      0.459  0.8613E+02  0.9502E+02
      0.502  0.8700E+02  0.9873E+02
      0.544  0.8739E+02  0.1024E+03
      0.587  0.8728E+02  0.1062E+03
      0.629  0.8673E+02  0.1099E+03
      0.672  0.8582E+02  0.1135E+03
      0.715  0.8457E+02  0.1171E+03
      0.757  0.8297E+02  0.1207E+03
      0.800  0.8105E+02  0.1241E+03
      0.843  0.7901E+02  0.1275E+03
      0.885  0.7725E+02  0.1308E+03
      0.928  0.7610E+02  0.1340E+03
      0.970  0.7571E+02  0.1372E+03
      1.013  0.7589E+02  0.1405E+03
      1.056  0.7623E+02  0.1437E+03
      1.098  0.7634E+02  0.1470E+03
      1.141  0.7602E+02  0.1502E+03
      1.183  0.7534E+02  0.1534E+03
      1.226  0.7451E+02  0.1566E+03
      1.269  0.7373E+02  0.1597E+03
      1.311  0.7305E+02  0.1629E+03
      1.354  0.7236E+02  0.1659E+03
      1.396  0.7145E+02  0.1690E+03
      1.439  0.7016E+02  0.1720E+03
      1.482  0.6853E+02  0.1749E+03
      1.524  0.6693E+02  0.1777E+03
      1.567  0.6592E+02  0.1806E+03
      1.610  0.6604E+02  0.1834E+03
      1.652  0.6745E+02  0.1862E+03
      1.695  0.6993E+02  0.1892E+03
      1.737  0.7300E+02  0.1923E+03
      1.780  0.7619E+02  0.1956E+03
      1.823  0.7923E+02  0.1990E+03
      1.865  0.8203E+02  0.2025E+03
      1.908  0.8454E+02  0.2061E+03
      1.950  0.8676E+02  0.2097E+03
      1.993  0.8873E+02  0.2135E+03
      2.036  0.9052E+02  0.2174E+03
      2.078  0.9214E+02  0.2213E+03
      2.121  0.9349E+02  0.2253E+03
      2.163  0.9458E+02  0.2293E+03
      2.206  0.9558E+02  0.2334E+03
      2.249  0.9690E+02  0.2375E+03
      2.291  0.9896E+02  0.2417E+03
      2.334  0.1020E+03  0.2461E+03
      2.377  0.1060E+03  0.2506E+03
      2.419  0.1105E+03  0.2553E+03
      2.462  0.1148E+03  0.2602E+03
      2.504  0.1186E+03  0.2653E+03
      2.547  0.1216E+03  0.2704E+03
      2.590  0.1239E+03  0.2757E+03
      2.632  0.1258E+03  0.2811E+03
      2.675  0.1277E+03  0.2865E+03
      2.717  0.1297E+03  0.2921E+03
      2.760  0.1319E+03  0.2977E+03
      2.803  0.1345E+03  0.3034E+03
      2.845  0.1373E+03  0.3093E+03
      2.888  0.1401E+03  0.3152E+03
      2.930  0.1418E+03  0.3213E+03
      2.973  0.1417E+03  0.3273E+03
      3.016  0.1389E+03  0.3332E+03
      3.058  0.1333E+03  0.3389E+03
      3.101  0.1255E+03  0.3442E+03
      3.144  0.1166E+03  0.3492E+03
      3.186  0.1078E+03  0.3538E+03
      3.229  0.1000E+03  0.3581E+03
      3.271  0.9400E+02  0.3621E+03
      3.314  0.8979E+02  0.3659E+03
      3.357  0.8713E+02  0.3696E+03
      3.399  0.8556E+02  0.3733E+03
      3.442  0.8468E+02  0.3769E+03
      3.484  0.8411E+02  0.3805E+03
      3.527  0.8357E+02  0.3840E+03
      3.570  0.8295E+02  0.3875E+03
      3.612  0.8248E+02  0.3911E+03
      3.655  0.8266E+02  0.3946E+03
      3.697  0.8400E+02  0.3982E+03
      3.740  0.8674E+02  0.4019E+03
      3.783  0.9063E+02  0.4057E+03
      3.825  0.9508E+02  0.4098E+03
      3.868  0.9940E+02  0.4140E+03
      3.911  0.1031E+03  0.4184E+03
      3.953  0.1060E+03  0.4229E+03
      3.996  0.1079E+03  0.4275E+03
      4.038  0.1089E+03  0.4322E+03
      4.081  0.1090E+03  0.4368E+03
      4.124  0.1084E+03  0.4414E+03
      4.166  0.1073E+03  0.4460E+03
      4.209  0.1061E+03  0.4505E+03
      4.251  0.1048E+03  0.4550E+03
      4.294  0.1036E+03  0.4594E+03
      4.337  0.1026E+03  0.4638E+03
      4.379  0.1020E+03  0.4681E+03
      4.422  0.1016E+03  0.4724E+03
      4.464  0.1011E+03  0.4767E+03
      4.507  0.1004E+03  0.4810E+03
      4.550  0.9928E+02  0.4853E+03
      4.592  0.9798E+02  0.4894E+03
      4.635  0.9705E+02  0.4936E+03
      4.678  0.9699E+02  0.4977E+03
      4.720  0.9803E+02  0.5019E+03
      4.763  0.1001E+03  0.5061E+03
      4.805  0.1027E+03  0.5105E+03
      4.848  0.1055E+03  0.5150E+03
      4.891  0.1078E+03  0.5196E+03
      4.933  0.1094E+03  0.5243E+03
      4.976  0.1099E+03  0.5289E+03
      5.018  0.1086E+03  0.5336E+03
      5.061  0.1047E+03  0.5380E+03
      5.104  0.9720E+02  0.5422E+03
      5.146  0.8542E+02  0.5458E+03
      5.189  0.6991E+02  0.5488E+03
      5.231  0.5251E+02  0.5510E+03
      5.274  0.3575E+02  0.5526E+03
      5.317  0.2184E+02  0.5535E+03
      5.359  0.1189E+02  0.5540E+03
      5.402  0.5733E+01  0.5542E+03
      5.445  0.2437E+01  0.5543E+03
      5.487  0.9095E+00  0.5544E+03
      5.530  0.2972E+00  0.5544E+03
      5.572  0.8478E-01  0.5544E+03
      5.615  0.2107E-01  0.5544E+03
      5.658  0.4552E-02  0.5544E+03
      5.700  0.8535E-03  0.5544E+03
      5.743  0.1386E-03  0.5544E+03
      5.785  0.1948E-04  0.5544E+03
      5.828  0.2365E-05  0.5544E+03
      5.871  0.2478E-06  0.5544E+03
      5.913  0.2237E-07  0.5544E+03
      5.956  0.1740E-08  0.5544E+03
      5.998  0.1164E-09  0.5544E+03
      6.041  0.6693E-11  0.5544E+03
      6.084  0.3299E-12  0.5544E+03
      6.126  0.1303E-13  0.5544E+03
      6.169  0.1954E-15  0.5544E+03
      6.212  0.0000E+00  0.5544E+03
      6.254  0.0000E+00  0.5544E+03
      6.297  0.0000E+00  0.5544E+03
      6.339  0.0000E+00  0.5544E+03
      6.382  0.0000E+00  0.5544E+03
      6.425  0.0000E+00  0.5544E+03
      6.467  0.0000E+00  0.5544E+03
      6.510  0.0000E+00  0.5544E+03
      6.552  0.0000E+00  0.5544E+03
      6.595  0.0000E+00  0.5544E+03
      6.638  0.0000E+00  0.5544E+03
      6.680  0.0000E+00  0.5544E+03
      6.723  0.0000E+00  0.5544E+03
      6.765  0.0000E+00  0.5544E+03
