<?xml version="1.0" encoding="ISO-8859-1"?>
<modeling>
 <generator>
  <i name="program" type="string">vasp </i>
  <i name="version" type="string">5.4.4.18Apr17-6-g9f103f2a35  </i>
  <i name="subversion" type="string">(build Sep 27 2018 12:46:37) complex + VL-xray_ parallel </i>
  <i name="platform" type="string">LLNL_Quartz_ifc </i>
  <i name="date" type="string">2021 09 26 </i>
  <i name="time" type="string">18:40:29 </i>
 </generator>
 <incar>
  <i type="int" name="ISTART">     2</i>
  <i type="string" name="PREC">accurate</i>
  <i type="string" name="ALGO"> Fast</i>
  <i type="int" name="ICHARG">     2</i>
  <i type="int" name="INIWAV">     1</i>
  <i type="int" name="NELM">   200</i>
  <i type="int" name="NELMIN">     4</i>
  <i type="int" name="IBRION">     2</i>
  <i name="EDIFF">      0.00000100</i>
  <i type="int" name="NSW">     5</i>
  <i type="int" name="ISIF">     2</i>
  <i type="int" name="ISYM">     2</i>
  <i name="ENCUT">    450.00000000</i>
  <i name="POTIM">      0.25000000</i>
  <i type="string" name="LREAL"> Auto</i>
  <i type="int" name="ISMEAR">     0</i>
  <i name="SIGMA">      0.15000000</i>
  <i type="logical" name="LWAVE"> F  </i>
  <i type="logical" name="LCHARG"> F  </i>
  <i type="int" name="ICORELEVEL">     0</i>
  <i type="int" name="CLNT">     1</i>
  <i type="int" name="CLN">     1</i>
  <i type="int" name="INCAR     ">     0</i>
  <i name="CLZ">      0.00000000</i>
  <v type="int" name="KPOINT_BSE">    -1     0     0     0</v>
  <i type="int" name="NELM">   200</i>
 </incar>
 <structure name="primitive_cell" >
  <crystal>
   <varray name="basis" >
    <v>       9.72667804       0.00000000       0.00000000 </v>
    <v>       0.00000000       8.42355028       0.00000000 </v>
    <v>       0.00000000       0.00000000      45.00000000 </v>
   </varray>
   <i name="volume">   3686.99226691 </i>
   <varray name="rec_basis" >
    <v>       0.10281002       0.00000000       0.00000000 </v>
    <v>       0.00000000       0.11871479       0.00000000 </v>
    <v>       0.00000000       0.00000000       0.02222222 </v>
   </varray>
  </crystal>
  <varray name="positions" >
   <v>       0.05389812      -0.29906391       0.21125001 </v>
   <v>      -0.05940094      -0.21235591       0.25513671 </v>
   <v>      -0.05855062      -0.38762782       0.16661430 </v>
   <v>       0.06531888      -0.46212551       0.25517595 </v>
   <v>      -0.07068676       0.45136329       0.21123208 </v>
   <v>       0.17882609       0.45155736       0.21139390 </v>
   <v>       0.06683715      -0.13759436       0.16657891 </v>
   <v>      -0.19598540      -0.29906595       0.21129204 </v>
   <v>       0.17909221      -0.04880526       0.21121445 </v>
   <v>       0.30421307      -0.29907694       0.21120441 </v>
   <v>      -0.07112322      -0.04844343       0.21127753 </v>
   <v>       0.19074068      -0.21252524       0.25529753 </v>
   <v>       0.19145512      -0.38848344       0.16647618 </v>
   <v>      -0.18377294      -0.46220204       0.25532580 </v>
   <v>      -0.18297226      -0.13735834       0.16659110 </v>
   <v>       0.06555727       0.03772594       0.25511202 </v>
   <v>       0.06742188       0.36254845       0.16657311 </v>
   <v>       0.31545400      -0.46227151       0.25513066 </v>
   <v>       0.31677656      -0.13810781       0.16662640 </v>
   <v>      -0.30903613      -0.21261491       0.25539432 </v>
   <v>      -0.30823060      -0.38754500       0.16669372 </v>
   <v>      -0.06431642      -0.21773327       0.12417154 </v>
   <v>      -0.05834896       0.11209067       0.16642908 </v>
   <v>      -0.05937479       0.28741918       0.25523048 </v>
   <v>      -0.18487729       0.03785467       0.25515460 </v>
   <v>       0.18603832      -0.21696591       0.12423777 </v>
   <v>      -0.18251203       0.36182711       0.16663149 </v>
   <v>       0.05738129      -0.47305526       0.12408626 </v>
   <v>       0.17844170      -0.37635383       0.29940912 </v>
   <v>      -0.32098949       0.45166637       0.21121725 </v>
   <v>       0.05478822       0.20087100       0.21120501 </v>
   <v>      -0.07203854      -0.37636524       0.29961525 </v>
   <v>       0.42931528       0.45151420       0.21151458 </v>
   <v>       0.42877701      -0.04844338       0.21136315 </v>
   <v>      -0.32105321      -0.04835419       0.21132507 </v>
   <v>       0.19096843       0.28734981       0.25525803 </v>
   <v>       0.19249678       0.11217331       0.16655729 </v>
   <v>       0.05287903      -0.12625142       0.29952003 </v>
   <v>       0.31565246       0.03771977       0.25531810 </v>
   <v>       0.44095703      -0.21249740       0.25532858 </v>
   <v>       0.44162156      -0.38875439       0.16649566 </v>
   <v>       0.31853111       0.36267951       0.16584440 </v>
   <v>       0.05767533       0.02643016       0.12397902 </v>
   <v>      -0.19130996      -0.47219206       0.12396283 </v>
   <v>       0.05283003       0.37379716       0.29956915 </v>
   <v>      -0.44560031      -0.29918196       0.21116636 </v>
   <v>      -0.19576880       0.20108152       0.21122816 </v>
   <v>       0.30475316       0.20065444       0.21119921 </v>
   <v>       0.30832963      -0.47375131       0.12396763 </v>
   <v>       0.30297367      -0.12625940       0.29956052 </v>
   <v>      -0.19677642      -0.12662223       0.29946590 </v>
   <v>      -0.43267096      -0.13798373       0.16658254 </v>
   <v>      -0.43434041      -0.46255601       0.25517458 </v>
   <v>      -0.30841689       0.11217141       0.16643533 </v>
   <v>      -0.30879287       0.28743770       0.25526338 </v>
   <v>      -0.31385396      -0.21729759       0.12417104 </v>
   <v>      -0.19225796       0.02690870       0.12389653 </v>
   <v>       0.30753850       0.02661785       0.12386833 </v>
   <v>      -0.06433581       0.28245671       0.12423295 </v>
   <v>       0.30284968       0.37395643       0.29960300 </v>
   <v>      -0.19702366       0.37347921       0.29948090 </v>
   <v>       0.18615776       0.28281288       0.12423788 </v>
   <v>       0.42849084      -0.37645111       0.29942167 </v>
   <v>      -0.32227235      -0.37635971       0.29964218 </v>
   <v>       0.43685853      -0.21672392       0.12420017 </v>
   <v>       0.17787304       0.12367802       0.29954984 </v>
   <v>      -0.07189773       0.12342161       0.29962325 </v>
   <v>       0.44073225       0.28732078       0.25505713 </v>
   <v>       0.44145842       0.11210461       0.16652445 </v>
   <v>      -0.43479037       0.03766680       0.25512915 </v>
   <v>      -0.43351098       0.36242138       0.16644775 </v>
   <v>       0.06486214      -0.29141669       0.34386883 </v>
   <v>      -0.31269347       0.28217663       0.12423107 </v>
   <v>      -0.44116669      -0.47234579       0.12383697 </v>
   <v>      -0.18539718      -0.29177273       0.34383297 </v>
   <v>      -0.06006406       0.45921822       0.34401300 </v>
   <v>      -0.44567416       0.20086330       0.21111279 </v>
   <v>      -0.44716760      -0.12623309       0.29962040 </v>
   <v>       0.18996859       0.45883470       0.34401088 </v>
   <v>       0.43612797       0.28306741       0.12402815 </v>
   <v>       0.42802432       0.12362667       0.29949365 </v>
   <v>      -0.05946390      -0.04082092       0.34411107 </v>
   <v>      -0.32178728       0.12370075       0.29943648 </v>
   <v>       0.31485818      -0.29124002       0.34397121 </v>
   <v>       0.18982583      -0.04119546       0.34397526 </v>
   <v>      -0.44096700       0.02663763       0.12399127 </v>
   <v>      -0.44691170       0.37371077       0.29960469 </v>
   <v>      -0.31043153       0.45892978       0.34390012 </v>
   <v>       0.06473766       0.20834747       0.34385738 </v>
   <v>      -0.31033361      -0.04109027       0.34397194 </v>
   <v>       0.43970171       0.45860167       0.34402632 </v>
   <v>       0.44008069      -0.04105604       0.34403897 </v>
   <v>      -0.18552763       0.20842035       0.34397247 </v>
   <v>      -0.43524272      -0.29120923       0.34396473 </v>
   <v>       0.31463719       0.20888035       0.34390534 </v>
   <v>       0.06156227      -0.45844796       0.38842206 </v>
   <v>      -0.06340170      -0.20879242       0.38847012 </v>
   <v>       0.18631866      -0.20918109       0.38826669 </v>
   <v>      -0.18882782      -0.45782601       0.38831273 </v>
   <v>       0.31131426      -0.45865700       0.38845225 </v>
   <v>       0.06156631       0.04136904       0.38843274 </v>
   <v>      -0.43505394       0.20893453       0.34399867 </v>
   <v>      -0.06351480       0.29128698       0.38848436 </v>
   <v>      -0.31330606      -0.20849829       0.38844003 </v>
   <v>       0.18615197       0.29115204       0.38838024 </v>
   <v>      -0.18887622       0.04183551       0.38828157 </v>
   <v>       0.43629439      -0.20879176       0.38840383 </v>
   <v>       0.31140159       0.04140016       0.38839442 </v>
   <v>      -0.31357897       0.29106525       0.38841134 </v>
   <v>      -0.43820995      -0.45852106       0.38849484 </v>
   <v>       0.43632366       0.29105009       0.38840785 </v>
   <v>      -0.43831851       0.04147885       0.38841100 </v>
   <v>      -0.06704648      -0.37505024       0.43315741 </v>
   <v>       0.18349221      -0.37498956       0.43309316 </v>
   <v>       0.05847791      -0.12512803       0.43306923 </v>
   <v>       0.05863697       0.37471739       0.43293966 </v>
   <v>      -0.19129709      -0.12479916       0.43304168 </v>
   <v>       0.30852794      -0.12505333       0.43304080 </v>
   <v>      -0.19136285       0.37511618       0.43306241 </v>
   <v>      -0.31614211      -0.37520860       0.43291869 </v>
   <v>       0.30882584       0.37493024       0.43289938 </v>
   <v>       0.43363674      -0.37501759       0.43292404 </v>
   <v>      -0.06650489       0.12499948       0.43310422 </v>
   <v>       0.18347981       0.12492886       0.43312487 </v>
   <v>      -0.44132530      -0.12516765       0.43304765 </v>
   <v>      -0.31619492       0.12484045       0.43288209 </v>
   <v>       0.43367440       0.12476330       0.43298614 </v>
   <v>      -0.44139508       0.37488602       0.43308661 </v>
   <v>       0.06792947      -0.28945754       0.47745669 </v>
   <v>      -0.05738191       0.46068657       0.47718719 </v>
   <v>      -0.18226125      -0.28923250       0.47746431 </v>
   <v>      -0.05741711      -0.03941791       0.47725004 </v>
   <v>       0.19272092       0.46076698       0.47747101 </v>
   <v>       0.31763748      -0.28967971       0.47730454 </v>
   <v>       0.19276991      -0.03934206       0.47742129 </v>
   <v>      -0.30718974       0.46071560       0.47741551 </v>
   <v>       0.06788835       0.21050627       0.47744810 </v>
   <v>      -0.30718695      -0.03936576       0.47741810 </v>
   <v>       0.44275236       0.46074356       0.47747707 </v>
   <v>       0.44273495      -0.03925273       0.47745669 </v>
   <v>      -0.18216159       0.21061851       0.47744840 </v>
   <v>      -0.43228947      -0.28932900       0.47744221 </v>
   <v>       0.31774866       0.21050400       0.47729206 </v>
   <v>      -0.43220591       0.21049290       0.47743089 </v>
   <v>       0.05720419      -0.46066873      -0.47746850 </v>
   <v>      -0.06781239      -0.21112198      -0.47750437 </v>
   <v>       0.18227744      -0.21066058      -0.47747465 </v>
   <v>      -0.19273895      -0.46066650      -0.47746618 </v>
   <v>       0.30714799      -0.46107635      -0.47756854 </v>
   <v>       0.05710432       0.03943175      -0.47747649 </v>
   <v>      -0.06752856       0.28846681      -0.47762434 </v>
   <v>      -0.31792765      -0.21108721      -0.47759731 </v>
   <v>       0.18240818       0.28927260      -0.47748589 </v>
   <v>       0.43223979      -0.21119821      -0.47769787 </v>
   <v>       0.30720017       0.03854969      -0.47768272 </v>
   <v>      -0.19268856       0.03942773      -0.47744212 </v>
   <v>      -0.31780881       0.28871185      -0.47763131 </v>
   <v>      -0.44277383      -0.46084488      -0.47752337 </v>
   <v>       0.43242790       0.28873947      -0.47768789 </v>
   <v>      -0.44272200       0.03921491      -0.47750792 </v>
   <v>       0.06724713      -0.27540218      -0.12421335 </v>
   <v>      -0.18391030      -0.27525089      -0.12353885 </v>
   <v>      -0.06030818       0.46705427      -0.12382806 </v>
   <v>       0.18865402       0.46673149      -0.12405612 </v>
   <v>      -0.06095176      -0.03228066      -0.12382384 </v>
   <v>       0.19040748      -0.03304802      -0.12383089 </v>
   <v>       0.31857189      -0.27508408      -0.12403845 </v>
   <v>       0.06760055       0.22244132      -0.12382060 </v>
   <v>      -0.31025911       0.46684049      -0.12387394 </v>
   <v>      -0.31027172      -0.03214752      -0.12377552 </v>
   <v>       0.43934827       0.46692965      -0.12411126 </v>
   <v>       0.43975747      -0.03180052      -0.12385431 </v>
   <v>      -0.18402384       0.22385439      -0.12371305 </v>
   <v>      -0.43279091      -0.27522102      -0.12357590 </v>
   <v>       0.31808795       0.22351327      -0.12388479 </v>
   <v>      -0.05841268      -0.37478756      -0.43320375 </v>
   <v>       0.06657535      -0.12497548      -0.43312932 </v>
   <v>       0.19165232      -0.37499685      -0.43313969 </v>
   <v>      -0.18331692      -0.12496686      -0.43311503 </v>
   <v>       0.06663956       0.37484977      -0.43312136 </v>
   <v>       0.31651876      -0.12515955      -0.43315324 </v>
   <v>      -0.43203682       0.22445583      -0.12388150 </v>
   <v>      -0.30820953      -0.37499254      -0.43308810 </v>
   <v>      -0.18339934       0.37510428      -0.43309276 </v>
   <v>      -0.05844318       0.12520748      -0.43318331 </v>
   <v>       0.31663072       0.37487428      -0.43315071 </v>
   <v>       0.44144354      -0.37489606      -0.43316385 </v>
   <v>       0.19159923       0.12493808      -0.43310439 </v>
   <v>      -0.43347497      -0.12510074      -0.43314109 </v>
   <v>      -0.30826813       0.12510595      -0.43307556 </v>
   <v>       0.44163457       0.12498260      -0.43308666 </v>
   <v>      -0.43340757       0.37509617      -0.43319278 </v>
   <v>      -0.06628492      -0.36091393      -0.16560972 </v>
   <v>       0.18316459      -0.36086552      -0.16608324 </v>
   <v>       0.05823982      -0.11258594      -0.16642802 </v>
   <v>       0.05888491       0.38944053      -0.16624795 </v>
   <v>      -0.19113692      -0.11255676      -0.16634031 </v>
   <v>       0.30835600      -0.11284971      -0.16650505 </v>
   <v>      -0.19183901       0.38771795      -0.16652040 </v>
   <v>       0.30850304       0.38751662      -0.16649225 </v>
   <v>      -0.31656071      -0.36224290      -0.16650120 </v>
   <v>       0.43384428      -0.36207215      -0.16654370 </v>
   <v>      -0.06604994       0.13882229      -0.16634053 </v>
   <v>       0.18327096       0.13855127      -0.16640869 </v>
   <v>      -0.44137545      -0.11253263      -0.16654074 </v>
   <v>      -0.31671244       0.13768214      -0.16651115 </v>
   <v>       0.43359772       0.13795700      -0.16653776 </v>
   <v>      -0.44155324       0.38760717      -0.16651797 </v>
   <v>       0.06331463      -0.29154695      -0.38844911 </v>
   <v>      -0.06170050       0.45835961      -0.38839822 </v>
   <v>      -0.18656917      -0.29158573      -0.38838007 </v>
   <v>       0.18819423       0.45851204      -0.38848815 </v>
   <v>      -0.06184187      -0.04160703      -0.38848706 </v>
   <v>       0.18813880      -0.04141356      -0.38855399 </v>
   <v>       0.31333854      -0.29144624      -0.38847689 </v>
   <v>      -0.31161604       0.45861095      -0.38848257 </v>
   <v>       0.06343904       0.20848984      -0.38846127 </v>
   <v>      -0.31162116      -0.04120577      -0.38851815 </v>
   <v>       0.43842807       0.45842114      -0.38842052 </v>
   <v>       0.43852934      -0.04129047      -0.38841916 </v>
   <v>      -0.18661020       0.20839127      -0.38846423 </v>
   <v>      -0.43664152      -0.29155113      -0.38843591 </v>
   <v>       0.31299396       0.20832913      -0.38853356 </v>
   <v>      -0.05506803      -0.20045119      -0.21113263 </v>
   <v>       0.07050766      -0.45077731      -0.21136257 </v>
   <v>       0.19411772      -0.20042721      -0.21114625 </v>
   <v>      -0.43711707       0.20799199      -0.38866903 </v>
   <v>      -0.18020674      -0.45095896      -0.21113566 </v>
   <v>       0.32062509      -0.45086067      -0.21125600 </v>
   <v>       0.06969345       0.04972799      -0.21116484 </v>
   <v>      -0.30513149      -0.20079279      -0.21112999 </v>
   <v>      -0.05516547       0.29886036      -0.21130742 </v>
   <v>      -0.18064893       0.04961133      -0.21095160 </v>
   <v>       0.19498131       0.29926003      -0.21130603 </v>
   <v>       0.44489282      -0.20061237      -0.21119168 </v>
   <v>       0.32012104       0.04953504      -0.21115699 </v>
   <v>      -0.42988618      -0.45064550      -0.21094447 </v>
   <v>      -0.30493655       0.29905139      -0.21122539 </v>
   <v>       0.44444178       0.29926934      -0.21117780 </v>
   <v>      -0.43092493       0.04903570      -0.21091213 </v>
   <v>       0.05984394      -0.45936709      -0.34405588 </v>
   <v>      -0.06510814      -0.20935213      -0.34407188 </v>
   <v>       0.18471378      -0.20944891      -0.34413005 </v>
   <v>      -0.19019407      -0.45934204      -0.34412783 </v>
   <v>       0.30990935      -0.45911303      -0.34401785 </v>
   <v>       0.06022468       0.04049739      -0.34393272 </v>
   <v>      -0.06520641       0.29062787      -0.34417923 </v>
   <v>      -0.31547092      -0.20974378      -0.34412579 </v>
   <v>       0.18465785       0.29077655      -0.34410847 </v>
   <v>      -0.19015970       0.04057973      -0.34404908 </v>
   <v>       0.43474676      -0.20944349      -0.34408631 </v>
   <v>       0.30994237       0.04072362      -0.34406692 </v>
   <v>      -0.44019931      -0.45930082      -0.34408433 </v>
   <v>      -0.31495914       0.29085826      -0.34394563 </v>
   <v>       0.43514017       0.29077388      -0.34390855 </v>
   <v>      -0.44031732       0.04070041      -0.34414243 </v>
   <v>       0.05930282      -0.28770228      -0.25503129 </v>
   <v>      -0.06556218       0.46249071      -0.25505083 </v>
   <v>       0.18436357       0.46238440      -0.25507694 </v>
   <v>      -0.18994426      -0.28775590      -0.25519157 </v>
   <v>       0.30955179      -0.28771338      -0.25520063 </v>
   <v>      -0.06702745      -0.03826836      -0.25522108 </v>
   <v>       0.18418246      -0.03768884      -0.25526668 </v>
   <v>      -0.31578774       0.46277445      -0.25500260 </v>
   <v>       0.05948561       0.21251930      -0.25504617 </v>
   <v>       0.43467126       0.46274878      -0.25513207 </v>
   <v>      -0.31546804      -0.03733332      -0.25519756 </v>
   <v>       0.43373254      -0.03749805      -0.25543382 </v>
   <v>      -0.18971137       0.21163179      -0.25524771 </v>
   <v>       0.30969097       0.21233993      -0.25506926 </v>
   <v>      -0.44023137      -0.28767357      -0.25512296 </v>
   <v>      -0.43987297       0.21286855      -0.25515135 </v>
   <v>      -0.05319487      -0.37349647      -0.29948377 </v>
   <v>       0.07214339      -0.12357969      -0.29977746 </v>
   <v>       0.19714899      -0.37369022      -0.29967269 </v>
   <v>      -0.17798203      -0.12361397      -0.29957353 </v>
   <v>       0.07210767       0.37631564      -0.29956737 </v>
   <v>       0.32199659      -0.12364460      -0.29947402 </v>
   <v>      -0.17813780       0.37586684      -0.29972441 </v>
   <v>      -0.30293932      -0.37381791      -0.29950864 </v>
   <v>      -0.05280612       0.12635645      -0.29963076 </v>
   <v>       0.32224812       0.37629535      -0.29960843 </v>
   <v>       0.19710655       0.12623002      -0.29969950 </v>
   <v>       0.44709914      -0.37403585      -0.29955300 </v>
   <v>      -0.42850721      -0.12348553      -0.29942254 </v>
   <v>      -0.30253113       0.12642958      -0.29954588 </v>
   <v>       0.44719493       0.12626867      -0.29963651 </v>
   <v>      -0.42768308       0.37618154      -0.29972403 </v>
  </varray>
 </structure>
 <varray name="primitive_index" >
  <v type="int" >        1 </v>
  <v type="int" >      238 </v>
  <v type="int" >      193 </v>
  <v type="int" >      220 </v>
  <v type="int" >      242 </v>
  <v type="int" >       10 </v>
  <v type="int" >      208 </v>
  <v type="int" >       81 </v>
  <v type="int" >      109 </v>
  <v type="int" >      192 </v>
  <v type="int" >       71 </v>
  <v type="int" >       89 </v>
  <v type="int" >       35 </v>
  <v type="int" >      288 </v>
  <v type="int" >       32 </v>
  <v type="int" >      263 </v>
  <v type="int" >       55 </v>
  <v type="int" >      243 </v>
  <v type="int" >       58 </v>
  <v type="int" >      128 </v>
  <v type="int" >      117 </v>
  <v type="int" >      155 </v>
  <v type="int" >      158 </v>
  <v type="int" >      252 </v>
  <v type="int" >      222 </v>
  <v type="int" >      262 </v>
  <v type="int" >      183 </v>
  <v type="int" >      265 </v>
  <v type="int" >      162 </v>
  <v type="int" >      205 </v>
  <v type="int" >      160 </v>
  <v type="int" >       38 </v>
  <v type="int" >       28 </v>
  <v type="int" >       15 </v>
  <v type="int" >      161 </v>
  <v type="int" >       45 </v>
  <v type="int" >      126 </v>
  <v type="int" >      147 </v>
  <v type="int" >      278 </v>
  <v type="int" >      226 </v>
  <v type="int" >      227 </v>
  <v type="int" >      286 </v>
  <v type="int" >       48 </v>
  <v type="int" >       14 </v>
  <v type="int" >       26 </v>
  <v type="int" >      251 </v>
  <v type="int" >       70 </v>
  <v type="int" >       61 </v>
  <v type="int" >      197 </v>
  <v type="int" >      108 </v>
  <v type="int" >      277 </v>
  <v type="int" >      191 </v>
  <v type="int" >       33 </v>
  <v type="int" >       90 </v>
  <v type="int" >      203 </v>
  <v type="int" >       25 </v>
  <v type="int" >       99 </v>
  <v type="int" >       23 </v>
  <v type="int" >      133 </v>
  <v type="int" >       52 </v>
  <v type="int" >      104 </v>
  <v type="int" >      189 </v>
  <v type="int" >      100 </v>
  <v type="int" >      144 </v>
  <v type="int" >       83 </v>
  <v type="int" >      142 </v>
  <v type="int" >      145 </v>
  <v type="int" >        5 </v>
  <v type="int" >      143 </v>
  <v type="int" >      261 </v>
  <v type="int" >      122 </v>
  <v type="int" >      112 </v>
  <v type="int" >      267 </v>
  <v type="int" >       43 </v>
  <v type="int" >      118 </v>
  <v type="int" >      190 </v>
  <v type="int" >       63 </v>
  <v type="int" >      255 </v>
  <v type="int" >      120 </v>
  <v type="int" >      279 </v>
  <v type="int" >      169 </v>
  <v type="int" >       92 </v>
  <v type="int" >      170 </v>
  <v type="int" >      257 </v>
  <v type="int" >      254 </v>
  <v type="int" >      214 </v>
  <v type="int" >      124 </v>
  <v type="int" >       34 </v>
  <v type="int" >      153 </v>
  <v type="int" >       24 </v>
  <v type="int" >       95 </v>
  <v type="int" >      236 </v>
  <v type="int" >      172 </v>
  <v type="int" >      123 </v>
  <v type="int" >      258 </v>
  <v type="int" >      247 </v>
  <v type="int" >      198 </v>
  <v type="int" >      229 </v>
  <v type="int" >       86 </v>
  <v type="int" >       57 </v>
  <v type="int" >      246 </v>
  <v type="int" >       50 </v>
  <v type="int" >      273 </v>
  <v type="int" >      156 </v>
  <v type="int" >      105 </v>
  <v type="int" >       17 </v>
  <v type="int" >       79 </v>
  <v type="int" >      134 </v>
  <v type="int" >      232 </v>
  <v type="int" >      171 </v>
  <v type="int" >      248 </v>
  <v type="int" >      244 </v>
  <v type="int" >      282 </v>
  <v type="int" >      168 </v>
  <v type="int" >      211 </v>
  <v type="int" >      256 </v>
  <v type="int" >       46 </v>
  <v type="int" >      240 </v>
  <v type="int" >       29 </v>
  <v type="int" >       94 </v>
  <v type="int" >      215 </v>
  <v type="int" >      281 </v>
  <v type="int" >      285 </v>
  <v type="int" >      223 </v>
  <v type="int" >      239 </v>
  <v type="int" >      115 </v>
  <v type="int" >      184 </v>
  <v type="int" >      136 </v>
  <v type="int" >       62 </v>
  <v type="int" >      166 </v>
  <v type="int" >      268 </v>
  <v type="int" >      179 </v>
  <v type="int" >      132 </v>
  <v type="int" >      217 </v>
  <v type="int" >      176 </v>
  <v type="int" >      249 </v>
  <v type="int" >      185 </v>
  <v type="int" >       91 </v>
  <v type="int" >       19 </v>
  <v type="int" >      130 </v>
  <v type="int" >      206 </v>
  <v type="int" >      207 </v>
  <v type="int" >      175 </v>
  <v type="int" >       11 </v>
  <v type="int" >      178 </v>
  <v type="int" >      116 </v>
  <v type="int" >      107 </v>
  <v type="int" >      241 </v>
  <v type="int" >      230 </v>
  <v type="int" >      218 </v>
  <v type="int" >      209 </v>
  <v type="int" >       18 </v>
  <v type="int" >      225 </v>
  <v type="int" >      187 </v>
  <v type="int" >      266 </v>
  <v type="int" >       93 </v>
  <v type="int" >       87 </v>
  <v type="int" >      141 </v>
  <v type="int" >      111 </v>
  <v type="int" >      181 </v>
  <v type="int" >      283 </v>
  <v type="int" >      101 </v>
  <v type="int" >      151 </v>
  <v type="int" >      125 </v>
  <v type="int" >      274 </v>
  <v type="int" >      154 </v>
  <v type="int" >        2 </v>
  <v type="int" >      212 </v>
  <v type="int" >       27 </v>
  <v type="int" >      234 </v>
  <v type="int" >      173 </v>
  <v type="int" >       97 </v>
  <v type="int" >       41 </v>
  <v type="int" >      131 </v>
  <v type="int" >       39 </v>
  <v type="int" >       72 </v>
  <v type="int" >       12 </v>
  <v type="int" >      148 </v>
  <v type="int" >      276 </v>
  <v type="int" >      250 </v>
  <v type="int" >       40 </v>
  <v type="int" >       13 </v>
  <v type="int" >      264 </v>
  <v type="int" >      146 </v>
  <v type="int" >      259 </v>
  <v type="int" >      216 </v>
  <v type="int" >       21 </v>
  <v type="int" >      233 </v>
  <v type="int" >       98 </v>
  <v type="int" >      235 </v>
  <v type="int" >       68 </v>
  <v type="int" >       16 </v>
  <v type="int" >       59 </v>
  <v type="int" >       66 </v>
  <v type="int" >      177 </v>
  <v type="int" >        6 </v>
  <v type="int" >       75 </v>
  <v type="int" >        7 </v>
  <v type="int" >       73 </v>
  <v type="int" >      150 </v>
  <v type="int" >      271 </v>
  <v type="int" >      152 </v>
  <v type="int" >      129 </v>
  <v type="int" >      188 </v>
  <v type="int" >      174 </v>
  <v type="int" >      221 </v>
  <v type="int" >      269 </v>
  <v type="int" >      103 </v>
  <v type="int" >      180 </v>
  <v type="int" >      245 </v>
  <v type="int" >       82 </v>
  <v type="int" >      194 </v>
  <v type="int" >      201 </v>
  <v type="int" >       51 </v>
  <v type="int" >      280 </v>
  <v type="int" >      102 </v>
  <v type="int" >      228 </v>
  <v type="int" >        3 </v>
  <v type="int" >        4 </v>
  <v type="int" >      260 </v>
  <v type="int" >      167 </v>
  <v type="int" >       30 </v>
  <v type="int" >       77 </v>
  <v type="int" >      149 </v>
  <v type="int" >      284 </v>
  <v type="int" >       36 </v>
  <v type="int" >      275 </v>
  <v type="int" >      106 </v>
  <v type="int" >       60 </v>
  <v type="int" >       67 </v>
  <v type="int" >       88 </v>
  <v type="int" >      199 </v>
  <v type="int" >      253 </v>
  <v type="int" >       54 </v>
  <v type="int" >      114 </v>
  <v type="int" >       85 </v>
  <v type="int" >      121 </v>
  <v type="int" >      182 </v>
  <v type="int" >      127 </v>
  <v type="int" >       44 </v>
  <v type="int" >      196 </v>
  <v type="int" >      157 </v>
  <v type="int" >      113 </v>
  <v type="int" >       42 </v>
  <v type="int" >       49 </v>
  <v type="int" >      135 </v>
  <v type="int" >       69 </v>
  <v type="int" >      210 </v>
  <v type="int" >      200 </v>
  <v type="int" >      213 </v>
  <v type="int" >       53 </v>
  <v type="int" >      186 </v>
  <v type="int" >       31 </v>
  <v type="int" >       76 </v>
  <v type="int" >      159 </v>
  <v type="int" >      140 </v>
  <v type="int" >      204 </v>
  <v type="int" >      119 </v>
  <v type="int" >      110 </v>
  <v type="int" >      202 </v>
  <v type="int" >       84 </v>
  <v type="int" >      287 </v>
  <v type="int" >      237 </v>
  <v type="int" >      137 </v>
  <v type="int" >        9 </v>
  <v type="int" >       78 </v>
  <v type="int" >       80 </v>
  <v type="int" >       20 </v>
  <v type="int" >       96 </v>
  <v type="int" >       64 </v>
  <v type="int" >      272 </v>
  <v type="int" >      138 </v>
  <v type="int" >      164 </v>
  <v type="int" >      195 </v>
  <v type="int" >       74 </v>
  <v type="int" >      163 </v>
  <v type="int" >       65 </v>
  <v type="int" >      219 </v>
  <v type="int" >      231 </v>
  <v type="int" >       56 </v>
  <v type="int" >      139 </v>
  <v type="int" >      270 </v>
  <v type="int" >      165 </v>
  <v type="int" >        8 </v>
  <v type="int" >       22 </v>
  <v type="int" >      224 </v>
  <v type="int" >       37 </v>
  <v type="int" >       47 </v>
 </varray>
 <kpoints>
  <generation param="Gamma">
   <v type="int" name="divisions">       4        4        1 </v>
   <v name="usershift">      0.00000000       0.00000000       0.00000000 </v>
   <v name="genvec1">      0.25000000       0.00000000       0.00000000 </v>
   <v name="genvec2">      0.00000000       0.25000000       0.00000000 </v>
   <v name="genvec3">      0.00000000       0.00000000       1.00000000 </v>
   <v name="shift">      0.00000000       0.00000000       0.00000000 </v>
  </generation>
  <varray name="kpointlist" >
   <v>       0.00000000       0.00000000       0.00000000 </v>
   <v>       0.25000000       0.00000000       0.00000000 </v>
   <v>       0.50000000       0.00000000       0.00000000 </v>
   <v>       0.00000000       0.25000000       0.00000000 </v>
   <v>       0.25000000       0.25000000       0.00000000 </v>
   <v>       0.50000000       0.25000000       0.00000000 </v>
   <v>      -0.25000000       0.25000000       0.00000000 </v>
   <v>       0.00000000       0.50000000       0.00000000 </v>
   <v>       0.25000000       0.50000000       0.00000000 </v>
   <v>       0.50000000       0.50000000       0.00000000 </v>
  </varray>
  <varray name="weights" >
   <v>       0.06250000 </v>
   <v>       0.12500000 </v>
   <v>       0.06250000 </v>
   <v>       0.12500000 </v>
   <v>       0.12500000 </v>
   <v>       0.12500000 </v>
   <v>       0.12500000 </v>
   <v>       0.06250000 </v>
   <v>       0.12500000 </v>
   <v>       0.06250000 </v>
  </varray>
 </kpoints>
 <parameters>
  <separator name="general" >
   <i type="string" name="SYSTEM">unknown system</i>
   <i type="logical" name="LCOMPAT"> F  </i>
  </separator>
  <separator name="electronic" >
   <i type="string" name="PREC">accura</i>
   <i name="ENMAX">    450.00000000</i>
   <i name="ENAUG">    838.43500000</i>
   <i name="EDIFF">      0.00000100</i>
   <i type="int" name="IALGO">    68</i>
   <i type="int" name="IWAVPR">    11</i>
   <i type="int" name="NBANDS">  1386</i>
   <i name="NELECT">   2297.00000000</i>
   <i type="int" name="TURBO">     0</i>
   <i type="int" name="IRESTART">     0</i>
   <i type="int" name="NREBOOT">     0</i>
   <i type="int" name="NMIN">     0</i>
   <i name="EREF">      0.00000000</i>
   <separator name="electronic smearing" >
    <i type="int" name="ISMEAR">     0</i>
    <i name="SIGMA">      0.15000000</i>
    <i name="KSPACING">      0.50000000</i>
    <i type="logical" name="KGAMMA"> T  </i>
   </separator>
   <separator name="electronic projectors" >
    <i type="logical" name="LREAL"> T  </i>
    <v name="ROPT">     -0.00025000     -0.00025000</v>
    <i type="int" name="LMAXPAW">  -100</i>
    <i type="int" name="LMAXMIX">     2</i>
    <i type="logical" name="NLSPLINE"> F  </i>
   </separator>
   <separator name="electronic startup" >
    <i type="int" name="ISTART">     0</i>
    <i type="int" name="ICHARG">     2</i>
    <i type="int" name="INIWAV">     1</i>
   </separator>
   <separator name="electronic spin" >
    <i type="int" name="ISPIN">     1</i>
    <i type="logical" name="LNONCOLLINEAR"> F  </i>
    <v name="MAGMOM">      1.00000000      1.00000000      1.00000000      1.00000000      1.00000000      1.00000000      1.00000000      1.00000000      1.00000000      1.00000000      1.00000000      1.00000000      1.00000000      1.00000000      1.00000000      1.00000000      1.00000000      1.00000000      1.00000000      1.00000000
      1.00000000      1.00000000      1.00000000      1.00000000      1.00000000      1.00000000      1.00000000      1.00000000      1.00000000      1.00000000      1.00000000      1.00000000      1.00000000      1.00000000      1.00000000      1.00000000      1.00000000      1.00000000      1.00000000      1.00000000
      1.00000000      1.00000000      1.00000000      1.00000000      1.00000000      1.00000000      1.00000000      1.00000000      1.00000000      1.00000000      1.00000000      1.00000000      1.00000000      1.00000000      1.00000000      1.00000000      1.00000000      1.00000000      1.00000000      1.00000000
      1.00000000      1.00000000      1.00000000      1.00000000      1.00000000      1.00000000      1.00000000      1.00000000      1.00000000      1.00000000      1.00000000      1.00000000      1.00000000      1.00000000      1.00000000      1.00000000      1.00000000      1.00000000      1.00000000      1.00000000
      1.00000000      1.00000000      1.00000000      1.00000000      1.00000000      1.00000000      1.00000000      1.00000000      1.00000000      1.00000000      1.00000000      1.00000000      1.00000000      1.00000000      1.00000000      1.00000000      1.00000000      1.00000000      1.00000000      1.00000000
      1.00000000      1.00000000      1.00000000      1.00000000      1.00000000      1.00000000      1.00000000      1.00000000      1.00000000      1.00000000      1.00000000      1.00000000      1.00000000      1.00000000      1.00000000      1.00000000      1.00000000      1.00000000      1.00000000      1.00000000
      1.00000000      1.00000000      1.00000000      1.00000000      1.00000000      1.00000000      1.00000000      1.00000000      1.00000000      1.00000000      1.00000000      1.00000000      1.00000000      1.00000000      1.00000000      1.00000000      1.00000000      1.00000000      1.00000000      1.00000000
      1.00000000      1.00000000      1.00000000      1.00000000      1.00000000      1.00000000      1.00000000      1.00000000      1.00000000      1.00000000      1.00000000      1.00000000      1.00000000      1.00000000      1.00000000      1.00000000      1.00000000      1.00000000      1.00000000      1.00000000
      1.00000000      1.00000000      1.00000000      1.00000000      1.00000000      1.00000000      1.00000000      1.00000000      1.00000000      1.00000000      1.00000000      1.00000000      1.00000000      1.00000000      1.00000000      1.00000000      1.00000000      1.00000000      1.00000000      1.00000000
      1.00000000      1.00000000      1.00000000      1.00000000      1.00000000      1.00000000      1.00000000      1.00000000      1.00000000      1.00000000      1.00000000      1.00000000      1.00000000      1.00000000      1.00000000      1.00000000      1.00000000      1.00000000      1.00000000      1.00000000
      1.00000000      1.00000000      1.00000000      1.00000000      1.00000000      1.00000000      1.00000000      1.00000000      1.00000000      1.00000000      1.00000000      1.00000000      1.00000000      1.00000000      1.00000000      1.00000000      1.00000000      1.00000000      1.00000000      1.00000000
      1.00000000      1.00000000      1.00000000      1.00000000      1.00000000      1.00000000      1.00000000      1.00000000      1.00000000      1.00000000      1.00000000      1.00000000      1.00000000      1.00000000      1.00000000      1.00000000      1.00000000      1.00000000      1.00000000      1.00000000
      1.00000000      1.00000000      1.00000000      1.00000000      1.00000000      1.00000000      1.00000000      1.00000000      1.00000000      1.00000000      1.00000000      1.00000000      1.00000000      1.00000000      1.00000000      1.00000000      1.00000000      1.00000000      1.00000000      1.00000000
      1.00000000      1.00000000      1.00000000      1.00000000      1.00000000      1.00000000      1.00000000      1.00000000      1.00000000      1.00000000      1.00000000      1.00000000      1.00000000      1.00000000      1.00000000      1.00000000      1.00000000      1.00000000      1.00000000      1.00000000
      1.00000000      1.00000000      1.00000000      1.00000000      1.00000000      1.00000000      1.00000000      1.00000000</v>
    <i name="NUPDOWN">     -1.00000000</i>
    <i type="logical" name="LSORBIT"> F  </i>
    <v name="SAXIS">      0.00000000      0.00000000      1.00000000</v>
    <i type="logical" name="LSPIRAL"> F  </i>
    <v name="QSPIRAL">      0.00000000      0.00000000      0.00000000</v>
    <i type="logical" name="LZEROZ"> F  </i>
   </separator>
   <separator name="electronic exchange-correlation" >
    <i type="logical" name="LASPH"> F  </i>
    <i type="logical" name="LMETAGGA"> F  </i>
   </separator>
   <separator name="electronic convergence" >
    <i type="int" name="NELM">   200</i>
    <i type="int" name="NELMDL">     0</i>
    <i type="int" name="NELMIN">     4</i>
    <i name="ENINI">    450.00000000</i>
    <separator name="electronic convergence detail" >
     <i type="logical" name="LDIAG"> T  </i>
     <i type="logical" name="LSUBROT"> F  </i>
     <i name="WEIMIN">      0.00100000</i>
     <i name="EBREAK">      0.00000000</i>
     <i name="DEPER">      0.30000000</i>
     <i type="int" name="NRMM">     4</i>
     <i name="TIME">      0.40000000</i>
    </separator>
   </separator>
   <separator name="electronic mixer" >
    <i name="AMIX">      0.40000000</i>
    <i name="BMIX">      1.00000000</i>
    <i name="AMIN">      0.10000000</i>
    <i name="AMIX_MAG">      1.60000000</i>
    <i name="BMIX_MAG">      1.00000000</i>
    <separator name="electronic mixer details" >
     <i type="int" name="IMIX">     4</i>
     <i type="logical" name="MIXFIRST"> F  </i>
     <i type="int" name="MAXMIX">   -45</i>
     <i name="WC">    100.00000000</i>
     <i type="int" name="INIMIX">     1</i>
     <i type="int" name="MIXPRE">     1</i>
     <i type="int" name="MREMOVE">     5</i>
    </separator>
   </separator>
   <separator name="electronic dipolcorrection" >
    <i type="logical" name="LDIPOL"> F  </i>
    <i type="logical" name="LMONO"> F  </i>
    <i type="int" name="IDIPOL">     0</i>
    <i name="EPSILON">      1.00000000</i>
    <v name="DIPOL">   -100.00000000   -100.00000000   -100.00000000</v>
    <i name="EFIELD">      0.00000000</i>
   </separator>
  </separator>
  <separator name="grids" >
   <i type="int" name="NGX">    70</i>
   <i type="int" name="NGY">    60</i>
   <i type="int" name="NGZ">   320</i>
   <i type="int" name="NGXF">   140</i>
   <i type="int" name="NGYF">   120</i>
   <i type="int" name="NGZF">   640</i>
   <i type="logical" name="ADDGRID"> F  </i>
  </separator>
  <separator name="ionic" >
   <i type="int" name="NSW">     5</i>
   <i type="int" name="IBRION">     2</i>
   <i type="int" name="MDALGO">     0</i>
   <i type="int" name="ISIF">     2</i>
   <i name="PSTRESS">      0.00000000</i>
   <i name="EDIFFG">      0.00001000</i>
   <i type="int" name="NFREE">     1</i>
   <i name="POTIM">      0.25000000</i>
   <i name="SMASS">     -3.00000000</i>
   <i name="SCALEE">      1.00000000</i>
  </separator>
  <separator name="ionic md" >
   <i name="TEBEG">      0.00010000</i>
   <i name="TEEND">      0.00010000</i>
   <i type="int" name="NBLOCK">     1</i>
   <i type="int" name="KBLOCK">     5</i>
   <i type="int" name="NPACO">   256</i>
   <i name="APACO">     16.00000000</i>
  </separator>
  <separator name="symmetry" >
   <i type="int" name="ISYM">     2</i>
   <i name="SYMPREC">      0.00001000</i>
  </separator>
  <separator name="dos" >
   <i type="int" name="LORBIT">     0</i>
   <v name="RWIGS">     -1.00000000     -1.00000000</v>
   <i type="int" name="NEDOS">   301</i>
   <i name="EMIN">     10.00000000</i>
   <i name="EMAX">    -10.00000000</i>
   <i name="EFERMI">      0.00000000</i>
  </separator>
  <separator name="writing" >
   <i type="int" name="NWRITE">     2</i>
   <i type="logical" name="LWAVE"> F  </i>
   <i type="logical" name="LDOWNSAMPLE"> F  </i>
   <i type="logical" name="LCHARG"> F  </i>
   <i type="logical" name="LPARD"> F  </i>
   <i type="logical" name="LVTOT"> F  </i>
   <i type="logical" name="LVHAR"> F  </i>
   <i type="logical" name="LELF"> F  </i>
   <i type="logical" name="LOPTICS"> F  </i>
   <v name="STM">      0.00000000      0.00000000      0.00000000      0.00000000      0.00000000      0.00000000      0.00000000</v>
  </separator>
  <separator name="performance" >
   <i type="int" name="NPAR">    14</i>
   <i type="int" name="NSIM">     4</i>
   <i type="int" name="NBLK">    -1</i>
   <i type="logical" name="LPLANE"> T  </i>
   <i type="logical" name="LSCALAPACK"> T  </i>
   <i type="logical" name="LSCAAWARE"> T  </i>
   <i type="logical" name="LSCALU"> F  </i>
   <i type="logical" name="LASYNC"> F  </i>
   <i type="logical" name="LORBITALREAL"> F  </i>
  </separator>
  <separator name="miscellaneous" >
   <i type="int" name="IDIOT">     3</i>
   <i type="int" name="ISPECIAL">     0</i>
   <i type="logical" name="LMUSIC"> F  </i>
   <v name="POMASS">     55.84700000     54.93800000</v>
   <v name="DARWINR">      0.00000000      0.00000000</v>
   <v name="DARWINV">      1.00000000      1.00000000</v>
   <i type="logical" name="LCORR"> T  </i>
  </separator>
  <i type="logical" name="GGA_COMPAT"> T  </i>
  <i type="logical" name="LBERRY"> F  </i>
  <i type="int" name="ICORELEVEL">     0</i>
  <i type="logical" name="LDAU"> F  </i>
  <i type="int" name="I_CONSTRAINED_M">     0</i>
  <separator name="electronic exchange-correlation" >
   <i type="string" name="GGA">--</i>
   <i type="int" name="VOSKOWN">     0</i>
   <i type="logical" name="LHFCALC"> F  </i>
   <i type="string" name="PRECFOCK"></i>
   <i type="logical" name="LSYMGRAD"> F  </i>
   <i type="logical" name="LHFONE"> F  </i>
   <i type="logical" name="LRHFCALC"> F  </i>
   <i type="logical" name="LTHOMAS"> F  </i>
   <i type="logical" name="LMODELHF"> F  </i>
   <i name="ENCUT4O">     -1.00000000</i>
   <i type="int" name="EXXOEP">     0</i>
   <i type="int" name="FOURORBIT">     0</i>
   <i name="AEXX">      0.00000000</i>
   <i name="HFALPHA">      0.00000000</i>
   <i name="MCALPHA">      0.00000000</i>
   <i name="ALDAX">      1.00000000</i>
   <i name="AGGAX">      1.00000000</i>
   <i name="ALDAC">      1.00000000</i>
   <i name="AGGAC">      1.00000000</i>
   <i type="int" name="NKREDX">     1</i>
   <i type="int" name="NKREDY">     1</i>
   <i type="int" name="NKREDZ">     1</i>
   <i type="logical" name="SHIFTRED"> F  </i>
   <i type="logical" name="ODDONLY"> F  </i>
   <i type="logical" name="EVENONLY"> F  </i>
   <i type="int" name="LMAXFOCK">     0</i>
   <i type="int" name="NMAXFOCKAE">     0</i>
   <i type="logical" name="LFOCKAEDFT"> F  </i>
   <i name="HFSCREEN">      0.00000000</i>
   <i name="HFSCREENC">      0.00000000</i>
   <i type="int" name="NBANDSGWLOW">     0</i>
  </separator>
  <separator name="vdW DFT" >
   <i type="logical" name="LUSE_VDW"> F  </i>
   <i name="Zab_VDW">     -0.84910000</i>
   <i name="PARAM1">      0.12340000</i>
   <i name="PARAM2">      1.00000000</i>
   <i name="PARAM3">      0.00000000</i>
  </separator>
  <separator name="model GW" >
   <i type="int" name="MODEL_GW">     0</i>
   <i name="MODEL_EPS0">      7.68123389</i>
   <i name="MODEL_ALPHA">      1.00000000</i>
  </separator>
  <separator name="linear response parameters" >
   <i type="logical" name="LEPSILON"> F  </i>
   <i type="logical" name="LRPA"> F  </i>
   <i type="logical" name="LNABLA"> F  </i>
   <i type="logical" name="LVEL"> F  </i>
   <i type="int" name="KINTER">     0</i>
   <i name="CSHIFT">      0.10000000</i>
   <i name="OMEGAMAX">     -1.00000000</i>
   <i name="DEG_THRESHOLD">      0.00200000</i>
   <i name="RTIME">     -0.10000000</i>
   <i name="WPLASMAI">      0.00000000</i>
   <v name="DFIELD">      0.00000000      0.00000000      0.00000000</v>
   <v name="WPLASMA">      0.00000000      0.00000000      0.00000000      0.00000000      0.00000000      0.00000000      0.00000000      0.00000000      0.00000000</v>
  </separator>
  <separator name="orbital magnetization" >
   <i type="logical" name="NUCIND"> F  </i>
   <v name="MAGPOS">      0.00000000      0.00000000      0.00000000</v>
   <i type="logical" name="LNICSALL"> T  </i>
   <i type="logical" name="ORBITALMAG"> F  </i>
   <i type="logical" name="LMAGBLOCH"> F  </i>
   <i type="logical" name="LCHIMAG"> F  </i>
   <i type="logical" name="LGAUGE"> T  </i>
   <i type="int" name="MAGATOM">     0</i>
   <v name="MAGDIPOL">      0.00000000      0.00000000      0.00000000</v>
   <v name="AVECCONST">      0.00000000      0.00000000      0.00000000</v>
  </separator>
  <separator name="response functions" >
   <i type="logical" name="LADDER"> F  </i>
   <i type="logical" name="LRPAFORCE"> F  </i>
   <i type="logical" name="LFXC"> F  </i>
   <i type="logical" name="LHARTREE"> T  </i>
   <i type="int" name="IBSE">     0</i>
   <v type="int" name="KPOINT">    -1     0     0     0</v>
   <i type="logical" name="LTCTE"> F  </i>
   <i type="logical" name="LTETE"> F  </i>
   <i type="logical" name="LTRIPLET"> F  </i>
   <i type="logical" name="LFXCEPS"> F  </i>
   <i type="logical" name="LFXHEG"> F  </i>
   <i type="int" name="NATURALO">     2</i>
   <i type="logical" name="L2ORDER"> F  </i>
   <i type="logical" name="LMP2LT"> F  </i>
   <i type="logical" name="LUSEW"> F  </i>
   <i name="ENCUTGW">     -2.00000000</i>
   <i name="ENCUTGWSOFT">     -2.00000000</i>
   <i name="ENCUTLF">     -1.00000000</i>
   <i type="int" name="LMAXMP2">    -1</i>
   <i name="SCISSOR">      0.00000000</i>
   <i type="int" name="NOMEGA">     0</i>
   <i type="int" name="NOMEGAR">     0</i>
   <i type="int" name="NBANDSGW">    -1</i>
   <i type="int" name="NBANDSO">    -1</i>
   <i type="int" name="NBANDSV">    -1</i>
   <i type="int" name="NELM">   200</i>
   <i type="int" name="NELMHF">     1</i>
   <i type="int" name="DIM">     3</i>
   <i type="int" name="ANTIRES">     0</i>
   <i name="OMEGAMAX">    -30.00000000</i>
   <i name="OMEGAMIN">    -30.00000000</i>
   <i name="OMEGATL">   -200.00000000</i>
   <i type="int" name="OMEGAGRID">   140</i>
   <i name="CSHIFT">     -0.10000000</i>
   <i type="logical" name="SELFENERGY"> F  </i>
   <i type="logical" name="LSPECTRAL"> F  </i>
   <i type="logical" name="LSPECTRALGW"> F  </i>
   <i type="logical" name="LSINGLES"> F  </i>
   <i type="logical" name="LFERMIGW"> F  </i>
   <i type="logical" name="ODDONLYGW"> F  </i>
   <i type="logical" name="EVENONLYGW"> F  </i>
   <i type="int" name="NKREDLFX">     1</i>
   <i type="int" name="NKREDLFY">     1</i>
   <i type="int" name="NKREDLFZ">     1</i>
   <i type="int" name="MAXMEM">  2800</i>
   <i type="int" name="TELESCOPE">     0</i>
   <i type="int" name="TAUPAR">     1</i>
   <i type="int" name="OMEGAPAR">    -1</i>
   <i name="LAMBDA">      1.00000000</i>
  </separator>
  <separator name="External order field" >
   <i name="OFIELD_KAPPA">      0.00000000</i>
   <v name="OFIELD_K">      0.00000000      0.00000000      0.00000000</v>
   <i name="OFIELD_Q6_NEAR">      0.00000000</i>
   <i name="OFIELD_Q6_FAR">      0.00000000</i>
   <i name="OFIELD_A">      0.00000000</i>
  </separator>
 </parameters>
 <atominfo>
  <atoms>     288 </atoms>
  <types>       2 </types>
  <array name="atoms" >
   <dimension dim="1">ion</dimension>
   <field type="string">element</field>
   <field type="int">atomtype</field>
   <set>
    <rc><c>Fe</c><c>   1</c></rc>
    <rc><c>Fe</c><c>   1</c></rc>
    <rc><c>Fe</c><c>   1</c></rc>
    <rc><c>Fe</c><c>   1</c></rc>
    <rc><c>Fe</c><c>   1</c></rc>
    <rc><c>Fe</c><c>   1</c></rc>
    <rc><c>Fe</c><c>   1</c></rc>
    <rc><c>Fe</c><c>   1</c></rc>
    <rc><c>Fe</c><c>   1</c></rc>
    <rc><c>Fe</c><c>   1</c></rc>
    <rc><c>Fe</c><c>   1</c></rc>
    <rc><c>Fe</c><c>   1</c></rc>
    <rc><c>Fe</c><c>   1</c></rc>
    <rc><c>Fe</c><c>   1</c></rc>
    <rc><c>Fe</c><c>   1</c></rc>
    <rc><c>Fe</c><c>   1</c></rc>
    <rc><c>Fe</c><c>   1</c></rc>
    <rc><c>Fe</c><c>   1</c></rc>
    <rc><c>Fe</c><c>   1</c></rc>
    <rc><c>Fe</c><c>   1</c></rc>
    <rc><c>Fe</c><c>   1</c></rc>
    <rc><c>Fe</c><c>   1</c></rc>
    <rc><c>Fe</c><c>   1</c></rc>
    <rc><c>Fe</c><c>   1</c></rc>
    <rc><c>Fe</c><c>   1</c></rc>
    <rc><c>Fe</c><c>   1</c></rc>
    <rc><c>Fe</c><c>   1</c></rc>
    <rc><c>Fe</c><c>   1</c></rc>
    <rc><c>Fe</c><c>   1</c></rc>
    <rc><c>Fe</c><c>   1</c></rc>
    <rc><c>Fe</c><c>   1</c></rc>
    <rc><c>Fe</c><c>   1</c></rc>
    <rc><c>Fe</c><c>   1</c></rc>
    <rc><c>Fe</c><c>   1</c></rc>
    <rc><c>Fe</c><c>   1</c></rc>
    <rc><c>Fe</c><c>   1</c></rc>
    <rc><c>Fe</c><c>   1</c></rc>
    <rc><c>Fe</c><c>   1</c></rc>
    <rc><c>Fe</c><c>   1</c></rc>
    <rc><c>Fe</c><c>   1</c></rc>
    <rc><c>Fe</c><c>   1</c></rc>
    <rc><c>Fe</c><c>   1</c></rc>
    <rc><c>Fe</c><c>   1</c></rc>
    <rc><c>Fe</c><c>   1</c></rc>
    <rc><c>Fe</c><c>   1</c></rc>
    <rc><c>Fe</c><c>   1</c></rc>
    <rc><c>Fe</c><c>   1</c></rc>
    <rc><c>Fe</c><c>   1</c></rc>
    <rc><c>Fe</c><c>   1</c></rc>
    <rc><c>Fe</c><c>   1</c></rc>
    <rc><c>Fe</c><c>   1</c></rc>
    <rc><c>Fe</c><c>   1</c></rc>
    <rc><c>Fe</c><c>   1</c></rc>
    <rc><c>Fe</c><c>   1</c></rc>
    <rc><c>Fe</c><c>   1</c></rc>
    <rc><c>Fe</c><c>   1</c></rc>
    <rc><c>Fe</c><c>   1</c></rc>
    <rc><c>Fe</c><c>   1</c></rc>
    <rc><c>Fe</c><c>   1</c></rc>
    <rc><c>Fe</c><c>   1</c></rc>
    <rc><c>Fe</c><c>   1</c></rc>
    <rc><c>Fe</c><c>   1</c></rc>
    <rc><c>Fe</c><c>   1</c></rc>
    <rc><c>Fe</c><c>   1</c></rc>
    <rc><c>Fe</c><c>   1</c></rc>
    <rc><c>Fe</c><c>   1</c></rc>
    <rc><c>Fe</c><c>   1</c></rc>
    <rc><c>Fe</c><c>   1</c></rc>
    <rc><c>Fe</c><c>   1</c></rc>
    <rc><c>Fe</c><c>   1</c></rc>
    <rc><c>Fe</c><c>   1</c></rc>
    <rc><c>Fe</c><c>   1</c></rc>
    <rc><c>Fe</c><c>   1</c></rc>
    <rc><c>Fe</c><c>   1</c></rc>
    <rc><c>Fe</c><c>   1</c></rc>
    <rc><c>Fe</c><c>   1</c></rc>
    <rc><c>Fe</c><c>   1</c></rc>
    <rc><c>Fe</c><c>   1</c></rc>
    <rc><c>Fe</c><c>   1</c></rc>
    <rc><c>Fe</c><c>   1</c></rc>
    <rc><c>Fe</c><c>   1</c></rc>
    <rc><c>Fe</c><c>   1</c></rc>
    <rc><c>Fe</c><c>   1</c></rc>
    <rc><c>Fe</c><c>   1</c></rc>
    <rc><c>Fe</c><c>   1</c></rc>
    <rc><c>Fe</c><c>   1</c></rc>
    <rc><c>Fe</c><c>   1</c></rc>
    <rc><c>Fe</c><c>   1</c></rc>
    <rc><c>Fe</c><c>   1</c></rc>
    <rc><c>Fe</c><c>   1</c></rc>
    <rc><c>Fe</c><c>   1</c></rc>
    <rc><c>Fe</c><c>   1</c></rc>
    <rc><c>Fe</c><c>   1</c></rc>
    <rc><c>Fe</c><c>   1</c></rc>
    <rc><c>Fe</c><c>   1</c></rc>
    <rc><c>Fe</c><c>   1</c></rc>
    <rc><c>Fe</c><c>   1</c></rc>
    <rc><c>Fe</c><c>   1</c></rc>
    <rc><c>Fe</c><c>   1</c></rc>
    <rc><c>Fe</c><c>   1</c></rc>
    <rc><c>Fe</c><c>   1</c></rc>
    <rc><c>Fe</c><c>   1</c></rc>
    <rc><c>Fe</c><c>   1</c></rc>
    <rc><c>Fe</c><c>   1</c></rc>
    <rc><c>Fe</c><c>   1</c></rc>
    <rc><c>Fe</c><c>   1</c></rc>
    <rc><c>Fe</c><c>   1</c></rc>
    <rc><c>Fe</c><c>   1</c></rc>
    <rc><c>Fe</c><c>   1</c></rc>
    <rc><c>Fe</c><c>   1</c></rc>
    <rc><c>Fe</c><c>   1</c></rc>
    <rc><c>Fe</c><c>   1</c></rc>
    <rc><c>Fe</c><c>   1</c></rc>
    <rc><c>Fe</c><c>   1</c></rc>
    <rc><c>Fe</c><c>   1</c></rc>
    <rc><c>Fe</c><c>   1</c></rc>
    <rc><c>Fe</c><c>   1</c></rc>
    <rc><c>Fe</c><c>   1</c></rc>
    <rc><c>Fe</c><c>   1</c></rc>
    <rc><c>Fe</c><c>   1</c></rc>
    <rc><c>Fe</c><c>   1</c></rc>
    <rc><c>Fe</c><c>   1</c></rc>
    <rc><c>Fe</c><c>   1</c></rc>
    <rc><c>Fe</c><c>   1</c></rc>
    <rc><c>Fe</c><c>   1</c></rc>
    <rc><c>Fe</c><c>   1</c></rc>
    <rc><c>Fe</c><c>   1</c></rc>
    <rc><c>Fe</c><c>   1</c></rc>
    <rc><c>Fe</c><c>   1</c></rc>
    <rc><c>Fe</c><c>   1</c></rc>
    <rc><c>Fe</c><c>   1</c></rc>
    <rc><c>Fe</c><c>   1</c></rc>
    <rc><c>Fe</c><c>   1</c></rc>
    <rc><c>Fe</c><c>   1</c></rc>
    <rc><c>Fe</c><c>   1</c></rc>
    <rc><c>Fe</c><c>   1</c></rc>
    <rc><c>Fe</c><c>   1</c></rc>
    <rc><c>Fe</c><c>   1</c></rc>
    <rc><c>Fe</c><c>   1</c></rc>
    <rc><c>Fe</c><c>   1</c></rc>
    <rc><c>Fe</c><c>   1</c></rc>
    <rc><c>Fe</c><c>   1</c></rc>
    <rc><c>Fe</c><c>   1</c></rc>
    <rc><c>Fe</c><c>   1</c></rc>
    <rc><c>Fe</c><c>   1</c></rc>
    <rc><c>Fe</c><c>   1</c></rc>
    <rc><c>Fe</c><c>   1</c></rc>
    <rc><c>Fe</c><c>   1</c></rc>
    <rc><c>Fe</c><c>   1</c></rc>
    <rc><c>Fe</c><c>   1</c></rc>
    <rc><c>Fe</c><c>   1</c></rc>
    <rc><c>Fe</c><c>   1</c></rc>
    <rc><c>Fe</c><c>   1</c></rc>
    <rc><c>Fe</c><c>   1</c></rc>
    <rc><c>Fe</c><c>   1</c></rc>
    <rc><c>Fe</c><c>   1</c></rc>
    <rc><c>Fe</c><c>   1</c></rc>
    <rc><c>Fe</c><c>   1</c></rc>
    <rc><c>Fe</c><c>   1</c></rc>
    <rc><c>Fe</c><c>   1</c></rc>
    <rc><c>Fe</c><c>   1</c></rc>
    <rc><c>Fe</c><c>   1</c></rc>
    <rc><c>Fe</c><c>   1</c></rc>
    <rc><c>Fe</c><c>   1</c></rc>
    <rc><c>Fe</c><c>   1</c></rc>
    <rc><c>Fe</c><c>   1</c></rc>
    <rc><c>Fe</c><c>   1</c></rc>
    <rc><c>Fe</c><c>   1</c></rc>
    <rc><c>Fe</c><c>   1</c></rc>
    <rc><c>Fe</c><c>   1</c></rc>
    <rc><c>Fe</c><c>   1</c></rc>
    <rc><c>Fe</c><c>   1</c></rc>
    <rc><c>Fe</c><c>   1</c></rc>
    <rc><c>Fe</c><c>   1</c></rc>
    <rc><c>Fe</c><c>   1</c></rc>
    <rc><c>Fe</c><c>   1</c></rc>
    <rc><c>Fe</c><c>   1</c></rc>
    <rc><c>Fe</c><c>   1</c></rc>
    <rc><c>Fe</c><c>   1</c></rc>
    <rc><c>Fe</c><c>   1</c></rc>
    <rc><c>Fe</c><c>   1</c></rc>
    <rc><c>Fe</c><c>   1</c></rc>
    <rc><c>Fe</c><c>   1</c></rc>
    <rc><c>Fe</c><c>   1</c></rc>
    <rc><c>Fe</c><c>   1</c></rc>
    <rc><c>Fe</c><c>   1</c></rc>
    <rc><c>Fe</c><c>   1</c></rc>
    <rc><c>Fe</c><c>   1</c></rc>
    <rc><c>Fe</c><c>   1</c></rc>
    <rc><c>Fe</c><c>   1</c></rc>
    <rc><c>Fe</c><c>   1</c></rc>
    <rc><c>Fe</c><c>   1</c></rc>
    <rc><c>Fe</c><c>   1</c></rc>
    <rc><c>Fe</c><c>   1</c></rc>
    <rc><c>Fe</c><c>   1</c></rc>
    <rc><c>Fe</c><c>   1</c></rc>
    <rc><c>Fe</c><c>   1</c></rc>
    <rc><c>Fe</c><c>   1</c></rc>
    <rc><c>Fe</c><c>   1</c></rc>
    <rc><c>Fe</c><c>   1</c></rc>
    <rc><c>Fe</c><c>   1</c></rc>
    <rc><c>Fe</c><c>   1</c></rc>
    <rc><c>Fe</c><c>   1</c></rc>
    <rc><c>Fe</c><c>   1</c></rc>
    <rc><c>Fe</c><c>   1</c></rc>
    <rc><c>Fe</c><c>   1</c></rc>
    <rc><c>Fe</c><c>   1</c></rc>
    <rc><c>Fe</c><c>   1</c></rc>
    <rc><c>Fe</c><c>   1</c></rc>
    <rc><c>Fe</c><c>   1</c></rc>
    <rc><c>Fe</c><c>   1</c></rc>
    <rc><c>Fe</c><c>   1</c></rc>
    <rc><c>Fe</c><c>   1</c></rc>
    <rc><c>Fe</c><c>   1</c></rc>
    <rc><c>Fe</c><c>   1</c></rc>
    <rc><c>Fe</c><c>   1</c></rc>
    <rc><c>Fe</c><c>   1</c></rc>
    <rc><c>Fe</c><c>   1</c></rc>
    <rc><c>Fe</c><c>   1</c></rc>
    <rc><c>Fe</c><c>   1</c></rc>
    <rc><c>Fe</c><c>   1</c></rc>
    <rc><c>Fe</c><c>   1</c></rc>
    <rc><c>Fe</c><c>   1</c></rc>
    <rc><c>Fe</c><c>   1</c></rc>
    <rc><c>Fe</c><c>   1</c></rc>
    <rc><c>Fe</c><c>   1</c></rc>
    <rc><c>Fe</c><c>   1</c></rc>
    <rc><c>Fe</c><c>   1</c></rc>
    <rc><c>Fe</c><c>   1</c></rc>
    <rc><c>Fe</c><c>   1</c></rc>
    <rc><c>Fe</c><c>   1</c></rc>
    <rc><c>Fe</c><c>   1</c></rc>
    <rc><c>Fe</c><c>   1</c></rc>
    <rc><c>Fe</c><c>   1</c></rc>
    <rc><c>Fe</c><c>   1</c></rc>
    <rc><c>Fe</c><c>   1</c></rc>
    <rc><c>Fe</c><c>   1</c></rc>
    <rc><c>Fe</c><c>   1</c></rc>
    <rc><c>Fe</c><c>   1</c></rc>
    <rc><c>Fe</c><c>   1</c></rc>
    <rc><c>Fe</c><c>   1</c></rc>
    <rc><c>Fe</c><c>   1</c></rc>
    <rc><c>Fe</c><c>   1</c></rc>
    <rc><c>Fe</c><c>   1</c></rc>
    <rc><c>Fe</c><c>   1</c></rc>
    <rc><c>Fe</c><c>   1</c></rc>
    <rc><c>Fe</c><c>   1</c></rc>
    <rc><c>Fe</c><c>   1</c></rc>
    <rc><c>Fe</c><c>   1</c></rc>
    <rc><c>Fe</c><c>   1</c></rc>
    <rc><c>Fe</c><c>   1</c></rc>
    <rc><c>Fe</c><c>   1</c></rc>
    <rc><c>Fe</c><c>   1</c></rc>
    <rc><c>Fe</c><c>   1</c></rc>
    <rc><c>Fe</c><c>   1</c></rc>
    <rc><c>Fe</c><c>   1</c></rc>
    <rc><c>Fe</c><c>   1</c></rc>
    <rc><c>Fe</c><c>   1</c></rc>
    <rc><c>Fe</c><c>   1</c></rc>
    <rc><c>Fe</c><c>   1</c></rc>
    <rc><c>Fe</c><c>   1</c></rc>
    <rc><c>Fe</c><c>   1</c></rc>
    <rc><c>Fe</c><c>   1</c></rc>
    <rc><c>Fe</c><c>   1</c></rc>
    <rc><c>Fe</c><c>   1</c></rc>
    <rc><c>Fe</c><c>   1</c></rc>
    <rc><c>Fe</c><c>   1</c></rc>
    <rc><c>Fe</c><c>   1</c></rc>
    <rc><c>Fe</c><c>   1</c></rc>
    <rc><c>Fe</c><c>   1</c></rc>
    <rc><c>Fe</c><c>   1</c></rc>
    <rc><c>Fe</c><c>   1</c></rc>
    <rc><c>Fe</c><c>   1</c></rc>
    <rc><c>Fe</c><c>   1</c></rc>
    <rc><c>Fe</c><c>   1</c></rc>
    <rc><c>Fe</c><c>   1</c></rc>
    <rc><c>Fe</c><c>   1</c></rc>
    <rc><c>Fe</c><c>   1</c></rc>
    <rc><c>Fe</c><c>   1</c></rc>
    <rc><c>Fe</c><c>   1</c></rc>
    <rc><c>Fe</c><c>   1</c></rc>
    <rc><c>Mn</c><c>   2</c></rc>
    <rc><c>Mn</c><c>   2</c></rc>
    <rc><c>Mn</c><c>   2</c></rc>
    <rc><c>Mn</c><c>   2</c></rc>
    <rc><c>Mn</c><c>   2</c></rc>
    <rc><c>Mn</c><c>   2</c></rc>
    <rc><c>Mn</c><c>   2</c></rc>
   </set>
  </array>
  <array name="atomtypes" >
   <dimension dim="1">type</dimension>
   <field type="int">atomspertype</field>
   <field type="string">element</field>
   <field>mass</field>
   <field>valence</field>
   <field type="string">pseudopotential</field>
   <set>
    <rc><c> 281</c><c>Fe</c><c>     55.84700000</c><c>      8.00000000</c><c>  PAW_PBE Fe_GW 31Mar2010               </c></rc>
    <rc><c>   7</c><c>Mn</c><c>     54.93800000</c><c>      7.00000000</c><c>  PAW_PBE Mn_GW 31Mar2010               </c></rc>
   </set>
  </array>
 </atominfo>
 <structure name="initialpos" >
  <crystal>
   <varray name="basis" >
    <v>       9.72667804       0.00000000       0.00000000 </v>
    <v>       0.00000000       8.42355028       0.00000000 </v>
    <v>       0.00000000       0.00000000      45.00000000 </v>
   </varray>
   <i name="volume">   3686.99226691 </i>
   <varray name="rec_basis" >
    <v>       0.10281002       0.00000000       0.00000000 </v>
    <v>       0.00000000       0.11871479       0.00000000 </v>
    <v>       0.00000000       0.00000000       0.02222222 </v>
   </varray>
  </crystal>
  <varray name="positions" >
   <v>       0.05389812       0.70093609       0.21125001 </v>
   <v>       0.31857189       0.72491592       0.87596155 </v>
   <v>       0.68837884       0.95879423       0.61148185 </v>
   <v>       0.43842807       0.45842114       0.61157948 </v>
   <v>       0.44073225       0.28732078       0.25505713 </v>
   <v>       0.05888491       0.38944053       0.83375205 </v>
   <v>       0.30835600       0.88715029       0.83349495 </v>
   <v>       0.44709914       0.62596415       0.70044700 </v>
   <v>       0.05948561       0.21251930       0.74495383 </v>
   <v>       0.17882609       0.45155736       0.21139390 </v>
   <v>       0.56779409       0.21049290       0.47743089 </v>
   <v>       0.06657535       0.87502452       0.56687068 </v>
   <v>       0.56796318       0.22445583       0.87611850 </v>
   <v>       0.80869004       0.52780794       0.12396283 </v>
   <v>       0.42877701       0.95155662       0.21136315 </v>
   <v>       0.56659243       0.37509617       0.56680722 </v>
   <v>       0.81112378       0.04183551       0.38828157 </v>
   <v>       0.68207235       0.78891279       0.52240269 </v>
   <v>       0.44275236       0.46074356       0.47747707 </v>
   <v>       0.43373254       0.96250195       0.74456618 </v>
   <v>       0.44144354       0.62510394       0.56683615 </v>
   <v>       0.57149279       0.87651447       0.70057746 </v>
   <v>       0.30753850       0.02661785       0.12386833 </v>
   <v>       0.68966639       0.95890973       0.34397194 </v>
   <v>       0.68614604       0.78270241       0.12417104 </v>
   <v>       0.05283003       0.37379716       0.29956915 </v>
   <v>       0.68974089       0.46684049       0.87612606 </v>
   <v>       0.42931528       0.45151420       0.21151458 </v>
   <v>       0.80863715       0.37511618       0.43306241 </v>
   <v>       0.56335848       0.70844887       0.61156409 </v>
   <v>       0.55980069       0.54069918       0.65591567 </v>
   <v>       0.81702774       0.86264166       0.16659110 </v>
   <v>       0.56565959       0.53744399       0.25517458 </v>
   <v>       0.68956847       0.45892978       0.34390012 </v>
   <v>       0.19145512       0.61151656       0.16647618 </v>
   <v>       0.19411772       0.79957279       0.78885375 </v>
   <v>       0.44719493       0.12626867       0.70036349 </v>
   <v>       0.92796146       0.62363476       0.29961525 </v>
   <v>       0.31808795       0.22351327       0.87611521 </v>
   <v>       0.31651876       0.87484045       0.56684676 </v>
   <v>       0.81597616       0.22385439       0.87628695 </v>
   <v>       0.80980593       0.54065796       0.65587217 </v>
   <v>       0.55883331       0.52765421       0.12383697 </v>
   <v>       0.56907507       0.04903570       0.78908787 </v>
   <v>       0.19096843       0.28734981       0.25525803 </v>
   <v>       0.80870291       0.87520084       0.43304168 </v>
   <v>       0.57231692       0.37618154       0.70027597 </v>
   <v>       0.05767533       0.02643016       0.12397902 </v>
   <v>       0.30990935       0.54088697       0.65598215 </v>
   <v>       0.56494606       0.20893453       0.34399867 </v>
   <v>       0.18813880       0.95858644       0.61144601 </v>
   <v>       0.30284968       0.37395643       0.29960300 </v>
   <v>       0.43474676       0.79055651       0.65591369 </v>
   <v>       0.19498131       0.29926003       0.78869397 </v>
   <v>       0.06742188       0.36254845       0.16657311 </v>
   <v>       0.69706068       0.62618209       0.70049136 </v>
   <v>       0.31131426       0.54134300       0.38845225 </v>
   <v>       0.31677656       0.86189219       0.16662640 </v>
   <v>       0.93371508       0.63908607       0.83439028 </v>
   <v>       0.32062509       0.54913933       0.78874400 </v>
   <v>       0.30475316       0.20065444       0.21119921 </v>
   <v>       0.06792947       0.71054246       0.47745669 </v>
   <v>       0.55432584       0.20086330       0.21111279 </v>
   <v>       0.30969097       0.21233993       0.74493074 </v>
   <v>       0.07210767       0.37631564       0.70043263 </v>
   <v>       0.18316459       0.63913448       0.83391676 </v>
   <v>       0.06969345       0.04972799       0.78883516 </v>
   <v>       0.44163457       0.12498260       0.56691334 </v>
   <v>       0.93479359       0.29062787       0.65582077 </v>
   <v>       0.80423120       0.20108152       0.21122816 </v>
   <v>       0.92887678       0.95155657       0.21127753 </v>
   <v>       0.94158732       0.62521244       0.56679625 </v>
   <v>       0.80816099       0.38771795       0.83347960 </v>
   <v>       0.19714899       0.62630978       0.70032731 </v>
   <v>       0.80886308       0.88744324       0.83365969 </v>
   <v>       0.68504086       0.29085826       0.65605437 </v>
   <v>       0.31299396       0.20832913       0.61146644 </v>
   <v>       0.43467126       0.46274878       0.74486793 </v>
   <v>       0.43629439       0.79120824       0.38840383 </v>
   <v>       0.68453196       0.96266668       0.74480244 </v>
   <v>       0.80401460       0.70093405       0.21129204 </v>
   <v>       0.81343083       0.70841427       0.61161993 </v>
   <v>       0.43685853       0.78327608       0.12420017 </v>
   <v>       0.30955179       0.71228662       0.74479937 </v>
   <v>       0.32012104       0.04953504       0.78884301 </v>
   <v>       0.81117218       0.54217399       0.38831273 </v>
   <v>       0.68219119       0.28871185       0.52236869 </v>
   <v>       0.69486851       0.79920721       0.78887001 </v>
   <v>       0.19074068       0.78747476       0.25529753 </v>
   <v>       0.69158311       0.11217141       0.16643533 </v>
   <v>       0.69281305       0.96063424       0.47741810 </v>
   <v>       0.94053610       0.95917908       0.34411107 </v>
   <v>       0.80731144       0.03942773       0.52255788 </v>
   <v>       0.68385789       0.62479140       0.43291869 </v>
   <v>       0.43970171       0.45860167       0.34402632 </v>
   <v>       0.81028863       0.21163179       0.74475229 </v>
   <v>       0.43975747       0.96819948       0.87614569 </v>
   <v>       0.56652503       0.87489926       0.56685891 </v>
   <v>       0.80774204       0.02690870       0.12389653 </v>
   <v>       0.42849084       0.62354889       0.29942167 </v>
   <v>       0.81608970       0.72474911       0.87646115 </v>
   <v>       0.68838396       0.45861095       0.61151743 </v>
   <v>       0.55844676       0.38760717       0.83348203 </v>
   <v>       0.80297634       0.37347921       0.29948090 </v>
   <v>       0.18615197       0.29115204       0.38838024 </v>
   <v>       0.81979326       0.54904104       0.78886434 </v>
   <v>       0.18227744       0.78933942       0.52252535 </v>
   <v>       0.30297367       0.87374060       0.29956052 </v>
   <v>       0.17909221       0.95119474       0.21121445 </v>
   <v>       0.18436357       0.46238440       0.74492306 </v>
   <v>       0.43242790       0.28873947       0.52231211 </v>
   <v>       0.06486214       0.70858331       0.34386883 </v>
   <v>       0.18471378       0.79055109       0.65586995 </v>
   <v>       0.44489282       0.79938763       0.78880832 </v>
   <v>       0.68380508       0.12484045       0.43288209 </v>
   <v>       0.93218761       0.78887802       0.52249563 </v>
   <v>       0.69176940       0.61245500       0.16669372 </v>
   <v>       0.81460282       0.70822727       0.34383297 </v>
   <v>       0.93443782       0.46249071       0.74494917 </v>
   <v>       0.18996859       0.45883470       0.34401088 </v>
   <v>       0.57011382       0.54935450       0.78905553 </v>
   <v>       0.56648902       0.36242138       0.16644775 </v>
   <v>       0.56475728       0.70879077       0.34396473 </v>
   <v>       0.55308830       0.37371077       0.29960469 </v>
   <v>       0.18865402       0.46673149       0.87594388 </v>
   <v>       0.19249678       0.11217331       0.16655729 </v>
   <v>       0.44444178       0.29926934       0.78882220 </v>
   <v>       0.69096387       0.78738509       0.25539432 </v>
   <v>       0.93395006       0.13882229       0.83365947 </v>
   <v>       0.44273495       0.96074727       0.47745669 </v>
   <v>       0.56720909       0.72477898       0.87642410 </v>
   <v>       0.19272092       0.46076698       0.47747101 </v>
   <v>       0.93566419       0.28245671       0.12423295 </v>
   <v>       0.31140159       0.04140016       0.38839442 </v>
   <v>       0.06022468       0.04049739       0.65606728 </v>
   <v>       0.55860492       0.37488602       0.43308661 </v>
   <v>       0.68421226       0.46277445       0.74499740 </v>
   <v>       0.56012703       0.21286855       0.74484865 </v>
   <v>       0.94719388       0.12635645       0.70036924 </v>
   <v>       0.55968268       0.04070041       0.65585757 </v>
   <v>       0.55722617       0.53915512       0.52247663 </v>
   <v>       0.17787304       0.12367802       0.29954984 </v>
   <v>       0.44145842       0.11210461       0.16652445 </v>
   <v>       0.67772765       0.62364029       0.29964218 </v>
   <v>       0.92810227       0.12342161       0.29962325 </v>
   <v>       0.81660066       0.37510428       0.56690724 </v>
   <v>       0.05287903       0.87374858       0.29952003 </v>
   <v>       0.19165232       0.62500315       0.56686031 </v>
   <v>       0.94493197       0.79954881       0.78886737 </v>
   <v>       0.30850304       0.38751662       0.83350775 </v>
   <v>       0.93969182       0.46705427       0.87617194 </v>
   <v>       0.43384428       0.63792785       0.83345630 </v>
   <v>       0.06473766       0.20834747       0.34385738 </v>
   <v>       0.19040748       0.96695198       0.87616911 </v>
   <v>       0.93568358       0.78226673       0.12417154 </v>
   <v>       0.68669394       0.79150171       0.38844003 </v>
   <v>       0.93489186       0.79064787       0.65592812 </v>
   <v>       0.94165104       0.11209067       0.16642908 </v>
   <v>       0.43514017       0.29077388       0.65609145 </v>
   <v>       0.05478822       0.20087100       0.21120501 </v>
   <v>       0.67894679       0.95164581       0.21132507 </v>
   <v>       0.17844170       0.62364617       0.29940912 </v>
   <v>       0.82201797       0.87638603       0.70042647 </v>
   <v>       0.94680513       0.62650353       0.70051623 </v>
   <v>       0.19710655       0.12623002       0.70030050 </v>
   <v>       0.94261809       0.46068657       0.47718719 </v>
   <v>       0.81338980       0.20839127       0.61153577 </v>
   <v>       0.18349221       0.62501044       0.43309316 </v>
   <v>       0.42802432       0.12362667       0.29949365 </v>
   <v>       0.67821272       0.12370075       0.29943648 </v>
   <v>       0.56179005       0.54147894       0.38849484 </v>
   <v>       0.81447237       0.20842035       0.34397247 </v>
   <v>       0.43934827       0.46692965       0.87588874 </v>
   <v>       0.55862455       0.88746737       0.83345926 </v>
   <v>       0.31774866       0.21050400       0.47729206 </v>
   <v>       0.19276991       0.96065794       0.47742129 </v>
   <v>       0.05823982       0.88741406       0.83357198 </v>
   <v>       0.05720419       0.53933127       0.52253150 </v>
   <v>       0.94258289       0.96058209       0.47725004 </v>
   <v>       0.06331463       0.70845305       0.61155089 </v>
   <v>       0.55727800       0.03921491       0.52249208 </v>
   <v>       0.69506345       0.29905139       0.78877461 </v>
   <v>       0.81748797       0.36182711       0.16663149 </v>
   <v>       0.43367440       0.12476330       0.43298614 </v>
   <v>       0.06788835       0.21050627       0.47744810 </v>
   <v>       0.30994237       0.04072362       0.65593308 </v>
   <v>       0.43223979       0.78880179       0.52230213 </v>
   <v>       0.18327096       0.13855127       0.83359131 </v>
   <v>       0.18615776       0.28281288       0.12423788 </v>
   <v>       0.93993594       0.45921822       0.34401300 </v>
   <v>       0.56732904       0.86201627       0.16658254 </v>
   <v>       0.30421307       0.70092306       0.21120441 </v>
   <v>       0.94144938       0.61237218       0.16661430 </v>
   <v>       0.18819423       0.45851204       0.61151185 </v>
   <v>       0.07214339       0.87642031       0.70022254 </v>
   <v>       0.05984394       0.54063291       0.65594412 </v>
   <v>       0.30832963       0.52624869       0.12396763 </v>
   <v>       0.93659830       0.79120758       0.38847012 </v>
   <v>       0.94483453       0.29886036       0.78869258 </v>
   <v>       0.18465785       0.29077655       0.65589153 </v>
   <v>       0.93815813       0.95839297       0.61151294 </v>
   <v>       0.81005574       0.71224410       0.74480843 </v>
   <v>       0.69120713       0.28743770       0.25526338 </v>
   <v>       0.05930282       0.71229772       0.74496871 </v>
   <v>       0.67901051       0.45166637       0.21121725 </v>
   <v>       0.81783841       0.21061851       0.47744840 </v>
   <v>       0.56771053       0.71067100       0.47744221 </v>
   <v>       0.06683715       0.86240564       0.16657891 </v>
   <v>       0.93247144       0.28846681       0.52237566 </v>
   <v>       0.68452908       0.79025622       0.65587421 </v>
   <v>       0.05847791       0.87487197       0.43306923 </v>
   <v>       0.06760055       0.22244132       0.87617940 </v>
   <v>       0.80984030       0.04057973       0.65595092 </v>
   <v>       0.55903300       0.02663763       0.12399127 </v>
   <v>       0.30882584       0.37493024       0.43289938 </v>
   <v>       0.31663072       0.37487428       0.56684929 </v>
   <v>       0.31763748       0.71032029       0.47730454 </v>
   <v>       0.05710432       0.03943175       0.52252351 </v>
   <v>       0.32199659       0.87635540       0.70052598 </v>
   <v>       0.06531888       0.53787449       0.25517595 </v>
   <v>       0.68328756       0.13768214       0.83348885 </v>
   <v>       0.81512271       0.03785467       0.25515460 </v>
   <v>       0.18347981       0.12492886       0.43312487 </v>
   <v>       0.69746887       0.12642958       0.70045412 </v>
   <v>       0.18240818       0.28927260       0.52251411 </v>
   <v>       0.44095703       0.78750260       0.25532858 </v>
   <v>       0.44162156       0.61124561       0.16649566 </v>
   <v>       0.06343904       0.20848984       0.61153873 </v>
   <v>       0.18631866       0.79081891       0.38826669 </v>
   <v>       0.30714799       0.53892365       0.52243146 </v>
   <v>       0.82186220       0.37586684       0.70027559 </v>
   <v>       0.68642103       0.29106525       0.38841134 </v>
   <v>       0.19159923       0.12493808       0.56689561 </v>
   <v>       0.68972828       0.96785248       0.87622448 </v>
   <v>       0.69173187       0.12510595       0.56692444 </v>
   <v>       0.44008069       0.95894396       0.34403897 </v>
   <v>       0.18418246       0.96231116       0.74473332 </v>
   <v>       0.94059906       0.78764409       0.25513671 </v>
   <v>       0.55867470       0.87483235       0.43304765 </v>
   <v>       0.30852794       0.87494667       0.43304080 </v>
   <v>       0.80726105       0.53933350       0.52253382 </v>
   <v>       0.92931324       0.45136329       0.21123208 </v>
   <v>       0.31545400       0.53772849       0.25513066 </v>
   <v>       0.56168149       0.04147885       0.38841100 </v>
   <v>       0.93829950       0.45835961       0.61160178 </v>
   <v>       0.06156631       0.04136904       0.38843274 </v>
   <v>       0.06156227       0.54155204       0.38842206 </v>
   <v>       0.43632366       0.29105009       0.38840785 </v>
   <v>       0.69281026       0.46071560       0.47741551 </v>
   <v>       0.06663956       0.37484977       0.56687864 </v>
   <v>       0.55439969       0.70081804       0.21116636 </v>
   <v>       0.94062521       0.28741918       0.25523048 </v>
   <v>       0.81935107       0.04961133       0.78904840 </v>
   <v>       0.18982583       0.95880454       0.34397526 </v>
   <v>       0.55283240       0.87376691       0.29962040 </v>
   <v>       0.05863697       0.37471739       0.43293966 </v>
   <v>       0.31485818       0.70875998       0.34397121 </v>
   <v>       0.31463719       0.20888035       0.34390534 </v>
   <v>       0.94155682       0.12520748       0.56681669 </v>
   <v>       0.43852934       0.95870953       0.61158084 </v>
   <v>       0.56520963       0.03766680       0.25512915 </v>
   <v>       0.18603832       0.78303409       0.12423777 </v>
   <v>       0.06555727       0.03772594       0.25511202 </v>
   <v>       0.69179047       0.62500746       0.56691190 </v>
   <v>       0.05738129       0.52694474       0.12408626 </v>
   <v>       0.30720017       0.03854969       0.52231728 </v>
   <v>       0.68730653       0.28217663       0.12423107 </v>
   <v>       0.81773875       0.71076750       0.47746431 </v>
   <v>       0.43359772       0.13795700       0.83346224 </v>
   <v>       0.32224812       0.37629535       0.70039157 </v>
   <v>       0.68343929       0.63775710       0.83349880 </v>
   <v>       0.55976863       0.71232643       0.74487704 </v>
   <v>       0.93648520       0.29128698       0.38848436 </v>
   <v>       0.93904824       0.96771934       0.87617616 </v>
   <v>       0.56288293       0.20799199       0.61133097 </v>
   <v>       0.81668308       0.87503314       0.56688497 </v>
   <v>       0.80322358       0.87337777       0.29946590 </v>
   <v>       0.31565246       0.03771977       0.25531810 </v>
   <v>       0.43612797       0.28306741       0.12402815 </v>
   <v>       0.31333854       0.70855376       0.61152311 </v>
   <v>       0.43363674       0.62498241       0.43292404 </v>
   <v>       0.93295352       0.62494976       0.43315741 </v>
   <v>       0.06724713       0.72459782       0.87578665 </v>
   <v>       0.07050766       0.54922269       0.78863743 </v>
   <v>       0.93349511       0.12499948       0.43310422 </v>
   <v>       0.31853111       0.36267951       0.16584440 </v>
   <v>       0.93297255       0.96173164       0.74477892 </v>
   <v>       0.81622706       0.53779796       0.25532580 </v>
  </varray>
 </structure>
 <calculation>
  <scstep>
   <time name="dav">   54.24   54.25</time>
   <time name="total">   54.40   54.43</time>
   <energy>
    <i name="alphaZ">  16403.00255340 </i>
    <i name="ewald"> 716425.25402638 </i>
    <i name="hartreedc">-908095.10618037 </i>
    <i name="XCdc">  -6389.69798380 </i>
    <i name="pawpsdc"> 163151.95320885 </i>
    <i name="pawaedc">-160818.84594568 </i>
    <i name="eentropy">     -1.04608188 </i>
    <i name="bandstr">  38626.42412481 </i>
    <i name="atom"> 169914.59583762 </i>
    <i name="e_fr_energy">  29216.53355932 </i>
    <i name="e_wo_entrp">  29217.57964121 </i>
    <i name="e_0_energy">  29217.05660027 </i>
   </energy>
  </scstep>
  <scstep>
   <time name="dav">   53.91   53.94</time>
   <time name="total">   53.91   53.94</time>
   <energy>
    <i name="e_fr_energy">   1194.07302131 </i>
    <i name="e_wo_entrp">   1195.53927209 </i>
    <i name="e_0_energy">   1194.80614670 </i>
   </energy>
  </scstep>
  <scstep>
   <time name="dav">   70.83   70.88</time>
   <time name="total">   70.84   70.88</time>
   <energy>
    <i name="e_fr_energy">  -1939.19380191 </i>
    <i name="e_wo_entrp">  -1935.62079825 </i>
    <i name="e_0_energy">  -1937.40730008 </i>
   </energy>
  </scstep>
  <scstep>
   <time name="dav">   88.94   88.98</time>
   <time name="total">   88.95   88.99</time>
   <energy>
    <i name="e_fr_energy">  -2606.24427913 </i>
    <i name="e_wo_entrp">  -2602.62379520 </i>
    <i name="e_0_energy">  -2604.43403717 </i>
   </energy>
  </scstep>
  <scstep>
   <time name="dav">   84.67   84.71</time>
   <time name="total">   86.72   86.77</time>
   <energy>
    <i name="e_fr_energy">  -2726.59290740 </i>
    <i name="e_wo_entrp">  -2722.79919505 </i>
    <i name="e_0_energy">  -2724.69605123 </i>
   </energy>
  </scstep>
  <scstep>
   <time name="diag">    8.29    8.29</time>
   <time name="diis">   37.53   37.53</time>
   <time name="orth">    2.32    2.32</time>
   <time name="total">   50.38   50.42</time>
   <energy>
    <i name="e_fr_energy">  -5473.34899943 </i>
    <i name="e_wo_entrp">  -5469.89245856 </i>
    <i name="e_0_energy">  -5471.62072900 </i>
   </energy>
  </scstep>
  <scstep>
   <time name="diag">    8.32    8.32</time>
   <time name="diis">   26.18   26.18</time>
   <time name="orth">    2.30    2.30</time>
   <time name="total">   38.91   38.96</time>
[...]
       <r>     5.8280     0.0000  2772.0000 </r>
       <r>     5.8707     0.0000  2772.0000 </r>
       <r>     5.9133     0.0000  2772.0000 </r>
       <r>     5.9559     0.0000  2772.0000 </r>
       <r>     5.9985     0.0000  2772.0000 </r>
       <r>     6.0411     0.0000  2772.0000 </r>
       <r>     6.0837     0.0000  2772.0000 </r>
       <r>     6.1263     0.0000  2772.0000 </r>
       <r>     6.1689     0.0000  2772.0000 </r>
       <r>     6.2115     0.0000  2772.0000 </r>
       <r>     6.2542     0.0000  2772.0000 </r>
       <r>     6.2968     0.0000  2772.0000 </r>
       <r>     6.3394     0.0000  2772.0000 </r>
       <r>     6.3820     0.0000  2772.0000 </r>
       <r>     6.4246     0.0000  2772.0000 </r>
       <r>     6.4672     0.0000  2772.0000 </r>
       <r>     6.5098     0.0000  2772.0000 </r>
       <r>     6.5524     0.0000  2772.0000 </r>
       <r>     6.5950     0.0000  2772.0000 </r>
       <r>     6.6376     0.0000  2772.0000 </r>
       <r>     6.6803     0.0000  2772.0000 </r>
       <r>     6.7229     0.0000  2772.0000 </r>
       <r>     6.7655     0.0000  2772.0000 </r>
      </set>
     </set>
    </array>
   </total>
  </dos>
 </calculation>
 <structure name="finalpos" >
  <crystal>
   <varray name="basis" >
    <v>       9.72667804       0.00000000       0.00000000 </v>
    <v>       0.00000000       8.42355028       0.00000000 </v>
    <v>       0.00000000       0.00000000      45.00000000 </v>
   </varray>
   <i name="volume">   3686.99226691 </i>
   <varray name="rec_basis" >
    <v>       0.10281002       0.00000000       0.00000000 </v>
    <v>       0.00000000       0.11871479       0.00000000 </v>
    <v>       0.00000000       0.00000000       0.02222222 </v>
   </varray>
  </crystal>
  <varray name="positions" >
   <v>       0.05786530       0.70098580       0.21108749 </v>
   <v>       0.31664482       0.72009524       0.87584103 </v>
   <v>       0.68830803       0.95793636       0.61143979 </v>
   <v>       0.43835376       0.45809953       0.61146097 </v>
   <v>       0.43670690       0.28687785       0.25554721 </v>
   <v>       0.06064120       0.38743621       0.83420775 </v>
   <v>       0.31062354       0.88713642       0.83427005 </v>
   <v>       0.44236618       0.62660568       0.70037579 </v>
   <v>       0.06383476       0.21278245       0.74455813 </v>
   <v>       0.18262358       0.45137273       0.21127427 </v>
   <v>       0.56391558       0.20908600       0.47783044 </v>
   <v>       0.06416681       0.87485828       0.56686501 </v>
   <v>       0.56546536       0.21972716       0.87572242 </v>
   <v>       0.81018866       0.53026424       0.12451859 </v>
   <v>       0.43293123       0.95106933       0.21118695 </v>
   <v>       0.56428828       0.37465927       0.56676061 </v>
   <v>       0.81189347       0.04191670       0.38838238 </v>
   <v>       0.68598839       0.79091120       0.52215294 </v>
   <v>       0.43890218       0.45901828       0.47778555 </v>
   <v>       0.43797232       0.96293614       0.74455716 </v>
   <v>       0.43915498       0.62460092       0.56682550 </v>
   <v>       0.56747664       0.87629943       0.70032046 </v>
   <v>       0.31005371       0.03080967       0.12449140 </v>
   <v>       0.68674575       0.95780701       0.34402694 </v>
   <v>       0.68680828       0.77923265       0.12454286 </v>
   <v>       0.05767510       0.37322690       0.29960626 </v>
   <v>       0.68881938       0.47165667       0.87545439 </v>
   <v>       0.43302189       0.45140156       0.21114311 </v>
   <v>       0.81084371       0.37534489       0.43302907 </v>
   <v>       0.56326733       0.70806563       0.61147762 </v>
   <v>       0.56291999       0.54132149       0.65576933 </v>
   <v>       0.81419570       0.86388942       0.16599985 </v>
   <v>       0.56113159       0.53707418       0.25554605 </v>
   <v>       0.68666261       0.45793210       0.34411861 </v>
   <v>       0.18837191       0.61268066       0.16624442 </v>
   <v>       0.19188718       0.79908763       0.78869490 </v>
   <v>       0.44269162       0.12652137       0.70040861 </v>
   <v>       0.93289757       0.62320576       0.29968023 </v>
   <v>       0.31491161       0.21983745       0.87576473 </v>
   <v>       0.31406410       0.87466703       0.56676308 </v>
   <v>       0.81521983       0.21966610       0.87573459 </v>
   <v>       0.81293268       0.54168324       0.65578869 </v>
   <v>       0.55982825       0.53019711       0.12441025 </v>
   <v>       0.56700816       0.04971490       0.78890351 </v>
   <v>       0.18657988       0.28699687       0.25551418 </v>
   <v>       0.81075851       0.87533552       0.43305749 </v>
   <v>       0.56732576       0.37640596       0.70043220 </v>
   <v>       0.06032576       0.02976605       0.12441986 </v>
   <v>       0.31300822       0.54124713       0.65573340 </v>
   <v>       0.56186150       0.20801158       0.34417884 </v>
   <v>       0.18847899       0.95794795       0.61142737 </v>
   <v>       0.30771670       0.37354266       0.29963565 </v>
   <v>       0.43788978       0.79159307       0.65580558 </v>
   <v>       0.19188821       0.29841707       0.78887948 </v>
   <v>       0.06439907       0.36363792       0.16603217 </v>
   <v>       0.69217525       0.62659234       0.70034789 </v>
   <v>       0.31172511       0.54157084       0.38840661 </v>
   <v>       0.31419408       0.86340716       0.16593962 </v>
   <v>       0.93623739       0.63687020       0.83427238 </v>
   <v>       0.31748329       0.54951692       0.78884048 </v>
   <v>       0.30744781       0.20064002       0.21117093 </v>
   <v>       0.06396336       0.70888604       0.47789091 </v>
   <v>       0.55768806       0.20107051       0.21107454 </v>
   <v>       0.31365724       0.21335691       0.74444116 </v>
   <v>       0.06721284       0.37703624       0.70035147 </v>
   <v>       0.18589546       0.63711670       0.83398856 </v>
   <v>       0.06674884       0.05008593       0.78877600 </v>
   <v>       0.43901377       0.12469963       0.56681386 </v>
   <v>       0.93819940       0.29166226       0.65571517 </v>
   <v>       0.80767922       0.20156550       0.21107576 </v>
   <v>       0.93278999       0.95158597       0.21122446 </v>
   <v>       0.93902617       0.62488027       0.56677663 </v>
   <v>       0.81083830       0.38680866       0.83421255 </v>
   <v>       0.19219885       0.62674220       0.70034217 </v>
   <v>       0.81164724       0.88653147       0.83450040 </v>
   <v>       0.68805780       0.29121948       0.65577790 </v>
   <v>       0.31358828       0.20809010       0.61150610 </v>
   <v>       0.43807463       0.46279214       0.74442776 </v>
   <v>       0.43663978       0.79159788       0.38841804 </v>
   <v>       0.68765609       0.96280016       0.74456352 </v>
   <v>       0.80762583       0.70105714       0.21113314 </v>
   <v>       0.81313975       0.70804669       0.61142616 </v>
   <v>       0.43703528       0.77935475       0.12468643 </v>
   <v>       0.31309665       0.71298565       0.74445207 </v>
   <v>       0.31712312       0.04957556       0.78885185 </v>
   <v>       0.81170585       0.54160628       0.38843901 </v>
   <v>       0.68617004       0.29113293       0.52214618 </v>
   <v>       0.69187494       0.79919465       0.78884776 </v>
   <v>       0.18663318       0.78779972       0.25550406 </v>
   <v>       0.68882891       0.11283792       0.16615842 </v>
   <v>       0.68883289       0.95923491       0.47789684 </v>
   <v>       0.93676835       0.95824919       0.34409240 </v>
   <v>       0.81099053       0.04037437       0.52211623 </v>
   <v>       0.68502031       0.62505136       0.43307372 </v>
   <v>       0.43685859       0.45833400       0.34419126 </v>
   <v>       0.81335453       0.21324102       0.74454005 </v>
   <v>       0.43883799       0.97201844       0.87551813 </v>
   <v>       0.56426019       0.87445499       0.56675570 </v>
   <v>       0.81021854       0.02986422       0.12439087 </v>
   <v>       0.43237688       0.62341483       0.29968735 </v>
   <v>       0.81415244       0.72005929       0.87601739 </v>
   <v>       0.68815168       0.45785337       0.61140071 </v>
   <v>       0.56109901       0.38685397       0.83409944 </v>
   <v>       0.80756922       0.37314035       0.29963016 </v>
   <v>       0.18641839       0.29163216       0.38839117 </v>
   <v>       0.81643301       0.54923395       0.78897191 </v>
   <v>       0.18627901       0.79066999       0.52218847 </v>
   <v>       0.30763253       0.87347984       0.29968263 </v>
   <v>       0.18263599       0.95132884       0.21120793 </v>
   <v>       0.18845801       0.46301468       0.74441763 </v>
   <v>       0.43599371       0.29081258       0.52207086 </v>
   <v>       0.06214450       0.70851984       0.34420249 </v>
   <v>       0.18822550       0.79109795       0.65566938 </v>
   <v>       0.44174235       0.79937169       0.78869760 </v>
   <v>       0.68501849       0.12507344       0.43307335 </v>
   <v>       0.93619276       0.79027075       0.52217169 </v>
   <v>       0.68875129       0.61374762       0.16612966 </v>
   <v>       0.81185717       0.70873293       0.34426873 </v>
   <v>       0.93853341       0.46291616       0.74441178 </v>
   <v>       0.18683366       0.45821634       0.34413839 </v>
   <v>       0.56740734       0.54962524       0.78897750 </v>
   <v>       0.56458861       0.36380933       0.16582146 </v>
   <v>       0.56148518       0.70842989       0.34430284 </v>
   <v>       0.55797152       0.37328724       0.29960015 </v>
   <v>       0.18882969       0.47079193       0.87567176 </v>
   <v>       0.18904868       0.11311268       0.16605806 </v>
   <v>       0.44188239       0.29831313       0.78880130 </v>
   <v>       0.68627401       0.78734145       0.25552143 </v>
   <v>       0.93665424       0.13723393       0.83411037 </v>
   <v>       0.43894505       0.95905847       0.47780401 </v>
   <v>       0.56526453       0.71977636       0.87570527 </v>
   <v>       0.18864079       0.45898027       0.47779736 </v>
   <v>       0.93613076       0.27958266       0.12455092 </v>
   <v>       0.31158225       0.04156737       0.38845809 </v>
   <v>       0.06286597       0.04119209       0.65575511 </v>
   <v>       0.56107884       0.37517984       0.43304980 </v>
   <v>       0.68781751       0.46267668       0.74453863 </v>
   <v>       0.56334693       0.21341139       0.74443914 </v>
   <v>       0.94253723       0.12686742       0.70040745 </v>
   <v>       0.56322543       0.04119057       0.65577081 </v>
   <v>       0.56112180       0.54086518       0.52207793 </v>
   <v>       0.18274447       0.12324267       0.29958326 </v>
   <v>       0.43827423       0.11266418       0.16613002 </v>
   <v>       0.68241750       0.62336330       0.29965369 </v>
   <v>       0.93252060       0.12292924       0.29967096 </v>
   <v>       0.81412085       0.37479327       0.56684985 </v>
   <v>       0.05784130       0.87326445       0.29960828 </v>
   <v>       0.18904711       0.62474174       0.56686312 </v>
   <v>       0.94096306       0.79890002       0.78896579 </v>
   <v>       0.31139143       0.38684052       0.83403058 </v>
   <v>       0.93866094       0.47082415       0.87566103 </v>
   <v>       0.43705419       0.63653367       0.83391264 </v>
   <v>       0.06164147       0.20849885       0.34419232 </v>
   <v>       0.18966004       0.97180824       0.87547600 </v>
   <v>       0.93655677       0.77941709       0.12454721 </v>
   <v>       0.68640465       0.79175669       0.38839453 </v>
   <v>       0.93792157       0.79150538       0.65577415 </v>
   <v>       0.93884498       0.11291293       0.16611054 </v>
   <v>       0.43775556       0.29163331       0.65578505 </v>
   <v>       0.05814138       0.20112360       0.21105075 </v>
   <v>       0.68288368       0.95144225       0.21129926 </v>
   <v>       0.18250095       0.62353746       0.29969593 </v>
   <v>       0.81709133       0.87642381       0.70034432 </v>
   <v>       0.94245969       0.62671749       0.70039730 </v>
   <v>       0.19235475       0.12690517       0.70039820 </v>
   <v>       0.93915998       0.45872740       0.47783332 </v>
   <v>       0.81319933       0.20798648       0.61143888 </v>
   <v>       0.18677019       0.62502409       0.43303989 </v>
   <v>       0.43269490       0.12348868       0.29969889 </v>
   <v>       0.68242283       0.12297402       0.29966326 </v>
   <v>       0.56123325       0.54156799       0.38841953 </v>
   <v>       0.81196407       0.20807438       0.34423239 </v>
   <v>       0.43869285       0.47144317       0.87545284 </v>
   <v>       0.56106823       0.88634182       0.83432345 </v>
   <v>       0.31402895       0.20924702       0.47781207 </v>
   <v>       0.18856924       0.95912047       0.47783557 </v>
   <v>       0.06075165       0.88673734       0.83420533 </v>
   <v>       0.06113778       0.54038032       0.52202442 </v>
   <v>       0.93911776       0.95879344       0.47783883 </v>
   <v>       0.06332172       0.70791334       0.61141372 </v>
   <v>       0.56103136       0.04067824       0.52207637 </v>
   <v>       0.69195193       0.29826521       0.78883132 </v>
   <v>       0.81447604       0.36346390       0.16597454 </v>
   <v>       0.43577119       0.12490242       0.43303275 </v>
   <v>       0.06406572       0.20907226       0.47788182 </v>
   <v>       0.31308410       0.04136833       0.65575694 </v>
   <v>       0.43612616       0.79076546       0.52207739 </v>
   <v>       0.18652805       0.13724291       0.83398523 </v>
   <v>       0.18673175       0.27898605       0.12442311 </v>
   <v>       0.93672969       0.45841108       0.34410873 </v>
   <v>       0.56505654       0.86370588       0.16598723 </v>
   <v>       0.30757733       0.70073757       0.21110600 </v>
   <v>       0.93835371       0.61374354       0.16620659 </v>
   <v>       0.18846079       0.45814856       0.61143549 </v>
   <v>       0.06733648       0.87668255       0.70027937 </v>
   <v>       0.06302230       0.54144046       0.65584847 </v>
   <v>       0.31061767       0.53038595       0.12410625 </v>
   <v>       0.93637922       0.79210265       0.38843240 </v>
   <v>       0.94139052       0.29867877       0.78886377 </v>
   <v>       0.18804994       0.29143910       0.65579080 </v>
   <v>       0.93842184       0.95801524       0.61150948 </v>
   <v>       0.81351868       0.71297569       0.74457226 </v>
   <v>       0.68641269       0.28735204       0.25545108 </v>
   <v>       0.06384710       0.71292084       0.74447597 </v>
   <v>       0.68264898       0.45104380       0.21123178 </v>
   <v>       0.81382261       0.20898306       0.47781958 </v>
   <v>       0.56387652       0.70910590       0.47783456 </v>
   <v>       0.06384697       0.86358731       0.16601285 </v>
   <v>       0.93610871       0.29071675       0.52219592 </v>
   <v>       0.68770520       0.79147423       0.65579177 </v>
   <v>       0.06136868       0.87475151       0.43297295 </v>
   <v>       0.06531351       0.21886397       0.87589899 </v>
   <v>       0.81301971       0.04117567       0.65573337 </v>
   <v>       0.55995917       0.02979684       0.12444024 </v>
   <v>       0.31070175       0.37505469       0.43311365 </v>
   <v>       0.31404462       0.37470180       0.56675311 </v>
   <v>       0.31403779       0.70915898       0.47781123 </v>
   <v>       0.06129463       0.04048401       0.52203478 </v>
   <v>       0.31715195       0.87644545       0.70031261 </v>
   <v>       0.06183010       0.53684621       0.25552801 </v>
   <v>       0.68657004       0.13734940       0.83408586 </v>
   <v>       0.81151957       0.03675050       0.25556595 </v>
   <v>       0.18689455       0.12501989       0.43301761 </v>
   <v>       0.69214814       0.12642480       0.70034991 </v>
   <v>       0.18633717       0.29077901       0.52219345 </v>
   <v>       0.43672426       0.78741624       0.25548988 </v>
   <v>       0.43887415       0.61258344       0.16604766 </v>
   <v>       0.06321784       0.20799179       0.61139643 </v>
   <v>       0.18641665       0.79169793       0.38839955 </v>
   <v>       0.31117908       0.54081196       0.52209656 </v>
   <v>       0.81723863       0.37683604       0.70033579 </v>
   <v>       0.68646870       0.29203494       0.38841865 </v>
   <v>       0.18928040       0.12475264       0.56680101 </v>
   <v>       0.68869455       0.97213277       0.87556676 </v>
   <v>       0.68895315       0.12480585       0.56684329 </v>
   <v>       0.43689560       0.95847871       0.34416194 </v>
   <v>       0.18838191       0.96280602       0.74445651 </v>
   <v>       0.93688470       0.78775944       0.25552734 </v>
   <v>       0.56110821       0.87522773       0.43301724 </v>
   <v>       0.31088210       0.87502207       0.43303936 </v>
   <v>       0.81110587       0.54044466       0.52212810 </v>
   <v>       0.93284535       0.45129497       0.21134966 </v>
   <v>       0.31172687       0.53668814       0.25564444 </v>
   <v>       0.56121424       0.04166521       0.38842216 </v>
   <v>       0.93836343       0.45788217       0.61148410 </v>
   <v>       0.06160089       0.04180951       0.38844025 </v>
   <v>       0.06139280       0.54167854       0.38843105 </v>
   <v>       0.43657861       0.29167297       0.38841893 </v>
   <v>       0.68883398       0.45910194       0.47787699 </v>
   <v>       0.06419126       0.37486887       0.56688367 </v>
   <v>       0.55775949       0.70101322       0.21115391 </v>
   <v>       0.93674336       0.28698067       0.25551451 </v>
   <v>       0.81662627       0.04935964       0.78892557 </v>
   <v>       0.18697466       0.95816678       0.34411064 </v>
   <v>       0.55783970       0.87343348       0.29968046 </v>
   <v>       0.06133481       0.37494110       0.43301678 </v>
   <v>       0.31192301       0.70793519       0.34418658 </v>
   <v>       0.31185576       0.20806985       0.34416351 </v>
   <v>       0.93903981       0.12494012       0.56677744 </v>
   <v>       0.43815439       0.95803900       0.61146846 </v>
   <v>       0.56091691       0.03707395       0.25555657 </v>
   <v>       0.18608275       0.77920678       0.12460387 </v>
   <v>       0.06204754       0.03695651       0.25554055 </v>
   <v>       0.68896486       0.62470622       0.56686480 </v>
   <v>       0.06058629       0.53009666       0.12441988 </v>
   <v>       0.31110974       0.04109221       0.52208011 </v>
   <v>       0.68736742       0.27998797       0.12457924 </v>
   <v>       0.81387609       0.70900053       0.47786294 </v>
   <v>       0.43655657       0.13696035       0.83392201 </v>
   <v>       0.31757882       0.37638773       0.70036350 </v>
   <v>       0.68656810       0.63706673       0.83414863 </v>
   <v>       0.56337571       0.71285003       0.74454531 </v>
   <v>       0.93635622       0.29217748       0.38843589 </v>
   <v>       0.93798587       0.97218504       0.87555531 </v>
   <v>       0.56352804       0.20823436       0.61146788 </v>
   <v>       0.81404181       0.87487664       0.56689287 </v>
   <v>       0.80757150       0.87340331       0.29959542 </v>
   <v>       0.31119811       0.03695972       0.25551612 </v>
   <v>       0.43670812       0.27961964       0.12421036 </v>
   <v>       0.31334060       0.70791744       0.61146055 </v>
   <v>       0.43560177       0.62493143       0.43306409 </v>
   <v>       0.93583389       0.62504385       0.43309152 </v>
   <v>       0.06566076       0.71974527       0.87594335 </v>
   <v>       0.06705841       0.54938468       0.78880141 </v>
   <v>       0.93574533       0.12508770       0.43308952 </v>
   <v>       0.31497177       0.36339072       0.16560750 </v>
   <v>       0.93765916       0.96304982       0.74465709 </v>
   <v>       0.81196311       0.53681617       0.25540139 </v>
  </varray>
 </structure>
</modeling>
