unknown system                          
           1
     9.726678    0.000000    0.000000
     0.000000    8.423550    0.000000
     0.000000    0.000000   45.000000
   Fe   Mn
 281   7
Direct configuration=     1
   0.05389812  0.70093609  0.21125001
   0.31857189  0.72491592  0.87596155
   0.68837884  0.95879423  0.61148185
   0.43842807  0.45842114  0.61157948
   0.44073225  0.28732078  0.25505713
   0.05888491  0.38944053  0.83375205
   0.30835600  0.88715029  0.83349495
   0.44709914  0.62596415  0.70044700
   0.05948561  0.21251930  0.74495383
   0.17882609  0.45155736  0.21139390
   0.56779409  0.21049290  0.47743089
   0.06657535  0.87502452  0.56687068
   0.56796318  0.22445583  0.87611850
   0.80869004  0.52780794  0.12396283
   0.42877701  0.95155662  0.21136315
   0.56659243  0.37509617  0.56680722
   0.81112378  0.04183551  0.38828157
   0.68207235  0.78891279  0.52240269
   0.44275236  0.46074356  0.47747707
   0.43373254  0.96250195  0.74456618
   0.44144354  0.62510394  0.56683615
   0.57149279  0.87651447  0.70057746
   0.30753850  0.02661785  0.12386833
   0.68966639  0.95890973  0.34397194
   0.68614604  0.78270241  0.12417104
   0.05283003  0.37379716  0.29956915
   0.68974089  0.46684049  0.87612606
   0.42931528  0.45151420  0.21151458
   0.80863715  0.37511618  0.43306241
   0.56335848  0.70844887  0.61156409
   0.55980069  0.54069918  0.65591567
   0.81702774  0.86264166  0.16659110
   0.56565959  0.53744399  0.25517458
   0.68956847  0.45892978  0.34390012
   0.19145512  0.61151656  0.16647618
   0.19411772  0.79957279  0.78885375
   0.44719493  0.12626867  0.70036349
   0.92796146  0.62363476  0.29961525
   0.31808795  0.22351327  0.87611521
   0.31651876  0.87484045  0.56684676
   0.81597616  0.22385439  0.87628695
   0.80980593  0.54065796  0.65587217
   0.55883331  0.52765421  0.12383697
   0.56907507  0.04903570  0.78908787
   0.19096843  0.28734981  0.25525803
   0.80870291  0.87520084  0.43304168
   0.57231692  0.37618154  0.70027597
   0.05767533  0.02643016  0.12397902
   0.30990935  0.54088697  0.65598215
   0.56494606  0.20893453  0.34399867
   0.18813880  0.95858644  0.61144601
   0.30284968  0.37395643  0.29960300
   0.43474676  0.79055651  0.65591369
   0.19498131  0.29926003  0.78869397
   0.06742188  0.36254845  0.16657311
   0.69706068  0.62618209  0.70049136
   0.31131426  0.54134300  0.38845225
   0.31677656  0.86189219  0.16662640
   0.93371508  0.63908607  0.83439028
   0.32062509  0.54913933  0.78874400
   0.30475316  0.20065444  0.21119921
   0.06792947  0.71054246  0.47745669
   0.55432584  0.20086330  0.21111279
   0.30969097  0.21233993  0.74493074
   0.07210767  0.37631564  0.70043263
   0.18316459  0.63913448  0.83391676
   0.06969345  0.04972799  0.78883516
   0.44163457  0.12498260  0.56691334
   0.93479359  0.29062787  0.65582077
   0.80423120  0.20108152  0.21122816
   0.92887678  0.95155657  0.21127753
   0.94158732  0.62521244  0.56679625
   0.80816099  0.38771795  0.83347960
   0.19714899  0.62630978  0.70032731
   0.80886308  0.88744324  0.83365969
   0.68504086  0.29085826  0.65605437
   0.31299396  0.20832913  0.61146644
   0.43467126  0.46274878  0.74486793
   0.43629439  0.79120824  0.38840383
   0.68453196  0.96266668  0.74480244
   0.80401460  0.70093405  0.21129204
   0.81343083  0.70841427  0.61161993
   0.43685853  0.78327608  0.12420017
   0.30955179  0.71228662  0.74479937
   0.32012104  0.04953504  0.78884301
   0.81117218  0.54217399  0.38831273
   0.68219119  0.28871185  0.52236869
   0.69486851  0.79920721  0.78887001
   0.19074068  0.78747476  0.25529753
   0.69158311  0.11217141  0.16643533
   0.69281305  0.96063424  0.47741810
   0.94053610  0.95917908  0.34411107
   0.80731144  0.03942773  0.52255788
   0.68385789  0.62479140  0.43291869
   0.43970171  0.45860167  0.34402632
   0.81028863  0.21163179  0.74475229
   0.43975747  0.96819948  0.87614569
   0.56652503  0.87489926  0.56685891
   0.80774204  0.02690870  0.12389653
   0.42849084  0.62354889  0.29942167
   0.81608970  0.72474911  0.87646115
   0.68838396  0.45861095  0.61151743
   0.55844676  0.38760717  0.83348203
   0.80297634  0.37347921  0.29948090
   0.18615197  0.29115204  0.38838024
   0.81979326  0.54904104  0.78886434
   0.18227744  0.78933942  0.52252535
   0.30297367  0.87374060  0.29956052
   0.17909221  0.95119474  0.21121445
   0.18436357  0.46238440  0.74492306
   0.43242790  0.28873947  0.52231211
   0.06486214  0.70858331  0.34386883
   0.18471378  0.79055109  0.65586995
   0.44489282  0.79938763  0.78880832
   0.68380508  0.12484045  0.43288209
   0.93218761  0.78887802  0.52249563
   0.69176940  0.61245500  0.16669372
   0.81460282  0.70822727  0.34383297
   0.93443782  0.46249071  0.74494917
   0.18996859  0.45883470  0.34401088
   0.57011382  0.54935450  0.78905553
   0.56648902  0.36242138  0.16644775
   0.56475728  0.70879077  0.34396473
   0.55308830  0.37371077  0.29960469
   0.18865402  0.46673149  0.87594388
   0.19249678  0.11217331  0.16655729
   0.44444178  0.29926934  0.78882220
   0.69096387  0.78738509  0.25539432
   0.93395006  0.13882229  0.83365947
   0.44273495  0.96074727  0.47745669
   0.56720909  0.72477898  0.87642410
   0.19272092  0.46076698  0.47747101
   0.93566419  0.28245671  0.12423295
   0.31140159  0.04140016  0.38839442
   0.06022468  0.04049739  0.65606728
   0.55860492  0.37488602  0.43308661
   0.68421226  0.46277445  0.74499740
   0.56012703  0.21286855  0.74484865
   0.94719388  0.12635645  0.70036924
   0.55968268  0.04070041  0.65585757
   0.55722617  0.53915512  0.52247663
   0.17787304  0.12367802  0.29954984
   0.44145842  0.11210461  0.16652445
   0.67772765  0.62364029  0.29964218
   0.92810227  0.12342161  0.29962325
   0.81660066  0.37510428  0.56690724
   0.05287903  0.87374858  0.29952003
   0.19165232  0.62500315  0.56686031
   0.94493197  0.79954881  0.78886737
   0.30850304  0.38751662  0.83350775
   0.93969182  0.46705427  0.87617194
   0.43384428  0.63792785  0.83345630
   0.06473766  0.20834747  0.34385738
   0.19040748  0.96695198  0.87616911
   0.93568358  0.78226673  0.12417154
   0.68669394  0.79150171  0.38844003
   0.93489186  0.79064787  0.65592812
   0.94165104  0.11209067  0.16642908
   0.43514017  0.29077388  0.65609145
   0.05478822  0.20087100  0.21120501
   0.67894679  0.95164581  0.21132507
   0.17844170  0.62364617  0.29940912
   0.82201797  0.87638603  0.70042647
   0.94680513  0.62650353  0.70051623
   0.19710655  0.12623002  0.70030050
   0.94261809  0.46068657  0.47718719
   0.81338980  0.20839127  0.61153577
   0.18349221  0.62501044  0.43309316
   0.42802432  0.12362667  0.29949365
   0.67821272  0.12370075  0.29943648
   0.56179005  0.54147894  0.38849484
   0.81447237  0.20842035  0.34397247
   0.43934827  0.46692965  0.87588874
   0.55862455  0.88746737  0.83345926
   0.31774866  0.21050400  0.47729206
   0.19276991  0.96065794  0.47742129
   0.05823982  0.88741406  0.83357198
   0.05720419  0.53933127  0.52253150
   0.94258289  0.96058209  0.47725004
   0.06331463  0.70845305  0.61155089
   0.55727800  0.03921491  0.52249208
   0.69506345  0.29905139  0.78877461
   0.81748797  0.36182711  0.16663149
   0.43367440  0.12476330  0.43298614
   0.06788835  0.21050627  0.47744810
   0.30994237  0.04072362  0.65593308
   0.43223979  0.78880179  0.52230213
   0.18327096  0.13855127  0.83359131
   0.18615776  0.28281288  0.12423788
   0.93993594  0.45921822  0.34401300
   0.56732904  0.86201627  0.16658254
   0.30421307  0.70092306  0.21120441
   0.94144938  0.61237218  0.16661430
   0.18819423  0.45851204  0.61151185
   0.07214339  0.87642031  0.70022254
   0.05984394  0.54063291  0.65594412
   0.30832963  0.52624869  0.12396763
   0.93659830  0.79120758  0.38847012
   0.94483453  0.29886036  0.78869258
   0.18465785  0.29077655  0.65589153
   0.93815813  0.95839297  0.61151294
   0.81005574  0.71224410  0.74480843
   0.69120713  0.28743770  0.25526338
   0.05930282  0.71229772  0.74496871
   0.67901051  0.45166637  0.21121725
   0.81783841  0.21061851  0.47744840
   0.56771053  0.71067100  0.47744221
   0.06683715  0.86240564  0.16657891
   0.93247144  0.28846681  0.52237566
   0.68452908  0.79025622  0.65587421
   0.05847791  0.87487197  0.43306923
   0.06760055  0.22244132  0.87617940
   0.80984030  0.04057973  0.65595092
   0.55903300  0.02663763  0.12399127
   0.30882584  0.37493024  0.43289938
   0.31663072  0.37487428  0.56684929
   0.31763748  0.71032029  0.47730454
   0.05710432  0.03943175  0.52252351
   0.32199659  0.87635540  0.70052598
   0.06531888  0.53787449  0.25517595
   0.68328756  0.13768214  0.83348885
   0.81512271  0.03785467  0.25515460
   0.18347981  0.12492886  0.43312487
   0.69746887  0.12642958  0.70045412
   0.18240818  0.28927260  0.52251411
   0.44095703  0.78750260  0.25532858
   0.44162156  0.61124561  0.16649566
   0.06343904  0.20848984  0.61153873
   0.18631866  0.79081891  0.38826669
   0.30714799  0.53892365  0.52243146
   0.82186220  0.37586684  0.70027559
   0.68642103  0.29106525  0.38841134
   0.19159923  0.12493808  0.56689561
   0.68972828  0.96785248  0.87622448
   0.69173187  0.12510595  0.56692444
   0.44008069  0.95894396  0.34403897
   0.18418246  0.96231116  0.74473332
   0.94059906  0.78764409  0.25513671
   0.55867470  0.87483235  0.43304765
   0.30852794  0.87494667  0.43304080
   0.80726105  0.53933350  0.52253382
   0.92931324  0.45136329  0.21123208
   0.31545400  0.53772849  0.25513066
   0.56168149  0.04147885  0.38841100
   0.93829950  0.45835961  0.61160178
   0.06156631  0.04136904  0.38843274
   0.06156227  0.54155204  0.38842206
   0.43632366  0.29105009  0.38840785
   0.69281026  0.46071560  0.47741551
   0.06663956  0.37484977  0.56687864
   0.55439969  0.70081804  0.21116636
   0.94062521  0.28741918  0.25523048
   0.81935107  0.04961133  0.78904840
   0.18982583  0.95880454  0.34397526
   0.55283240  0.87376691  0.29962040
   0.05863697  0.37471739  0.43293966
   0.31485818  0.70875998  0.34397121
   0.31463719  0.20888035  0.34390534
   0.94155682  0.12520748  0.56681669
   0.43852934  0.95870953  0.61158084
   0.56520963  0.03766680  0.25512915
   0.18603832  0.78303409  0.12423777
   0.06555727  0.03772594  0.25511202
   0.69179047  0.62500746  0.56691190
   0.05738129  0.52694474  0.12408626
   0.30720017  0.03854969  0.52231728
   0.68730653  0.28217663  0.12423107
   0.81773875  0.71076750  0.47746431
   0.43359772  0.13795700  0.83346224
   0.32224812  0.37629535  0.70039157
   0.68343929  0.63775710  0.83349880
   0.55976863  0.71232643  0.74487704
   0.93648520  0.29128698  0.38848436
   0.93904824  0.96771934  0.87617616
   0.56288293  0.20799199  0.61133097
   0.81668308  0.87503314  0.56688497
   0.80322358  0.87337777  0.29946590
   0.31565246  0.03771977  0.25531810
   0.43612797  0.28306741  0.12402815
   0.31333854  0.70855376  0.61152311
   0.43363674  0.62498241  0.43292404
   0.93295352  0.62494976  0.43315741
   0.06724713  0.72459782  0.87578665
   0.07050766  0.54922269  0.78863743
   0.93349511  0.12499948  0.43310422
   0.31853111  0.36267951  0.16584440
   0.93297255  0.96173164  0.74477892
   0.81622706  0.53779796  0.25532580
Direct configuration=     2
   0.05446567  0.70094320  0.21122676
   0.31829620  0.72422627  0.87594431
   0.68836871  0.95867150  0.61147583
   0.43841744  0.45837514  0.61156252
   0.44015639  0.28725741  0.25512724
   0.05913616  0.38915379  0.83381724
   0.30868039  0.88714831  0.83360584
   0.44642205  0.62605593  0.70043681
   0.06010779  0.21255695  0.74489722
   0.17936936  0.45153095  0.21137678
   0.56723923  0.21029163  0.47748805
   0.06623079  0.87500073  0.56686987
   0.56760584  0.22377935  0.87606184
   0.80890443  0.52815934  0.12404234
   0.42937131  0.95148691  0.21133795
   0.56626280  0.37503367  0.56680055
   0.81123389  0.04184713  0.38829599
   0.68263258  0.78919868  0.52236696
   0.44220155  0.46049675  0.47752120
   0.43433908  0.96256407  0.74456489
   0.44111614  0.62503198  0.56683463
   0.57091824  0.87648370  0.70054069
   0.30789832  0.02721753  0.12395746
   0.68924856  0.95875197  0.34397981
   0.68624078  0.78220603  0.12422423
   0.05352317  0.37371558  0.29957446
   0.68960906  0.46752949  0.87602997
   0.42984555  0.45149808  0.21146143
   0.80895282  0.37514890  0.43305764
   0.56334544  0.70839404  0.61155172
   0.56024694  0.54078821  0.65589474
   0.81662259  0.86282016  0.16650651
   0.56501182  0.53739109  0.25522772
   0.68915276  0.45878705  0.34393138
   0.19101404  0.61168310  0.16644303
   0.19379862  0.79950338  0.78883103
   0.44655069  0.12630482  0.70036995
   0.92866761  0.62357338  0.29962455
   0.31763354  0.22298741  0.87606507
   0.31616760  0.87481564  0.56683479
   0.81586796  0.22325522  0.87620793
   0.81025324  0.54080464  0.65586023
   0.55897564  0.52801799  0.12391898
   0.56877938  0.04913287  0.78906150
   0.19034061  0.28729932  0.25529468
   0.80899698  0.87522010  0.43304394
   0.57160289  0.37621365  0.70029832
   0.05805450  0.02690739  0.12404209
   0.31035267  0.54093849  0.65594657
   0.56450479  0.20880249  0.34402444
   0.18818747  0.95849510  0.61144335
   0.30354596  0.37389724  0.29960767
   0.43519640  0.79070480  0.65589822
   0.19453881  0.29913944  0.78872051
   0.06698944  0.36270431  0.16649572
   0.69636177  0.62624078  0.70047084
   0.31137304  0.54137559  0.38844572
   0.31640711  0.86210892  0.16652815
   0.93407592  0.63876907  0.83437341
   0.32017562  0.54919335  0.78875781
   0.30513866  0.20065237  0.21119516
   0.06736208  0.71030550  0.47751881
   0.55480684  0.20089294  0.21110732
   0.31025838  0.21248542  0.74486070
   0.07140742  0.37641873  0.70042102
   0.18355526  0.63884582  0.83392703
   0.06927220  0.04977920  0.78882669
   0.44125964  0.12494212  0.56689911
   0.93528083  0.29077585  0.65580566
   0.80472447  0.20115076  0.21120636
   0.92943660  0.95156077  0.21126994
   0.94122093  0.62516492  0.56679345
   0.80854400  0.38758787  0.83358446
   0.19644083  0.62637164  0.70032944
   0.80926138  0.88731281  0.83377996
   0.68547246  0.29090994  0.65601482
   0.31307899  0.20829494  0.61147211
   0.43515815  0.46275498  0.74480496
   0.43634380  0.79126399  0.38840587
   0.68497889  0.96268578  0.74476826
   0.80453122  0.70095166  0.21126931
   0.81338919  0.70836168  0.61159221
   0.43688382  0.78271510  0.12426973
   0.31005891  0.71238663  0.74474969
   0.31969216  0.04954084  0.78884427
   0.81124852  0.54209278  0.38833080
   0.68276040  0.28905820  0.52233686
   0.69444026  0.79920541  0.78886683
   0.19015307  0.78752125  0.25532708
   0.69118910  0.11226676  0.16639571
   0.69224365  0.96043405  0.47748659
   0.93999709  0.95904605  0.34410840
   0.80783777  0.03956315  0.52249470
   0.68402419  0.62482859  0.43294087
   0.43929497  0.45856338  0.34404991
   0.81072723  0.21186200  0.74472192
   0.43962593  0.96874581  0.87605591
   0.56620102  0.87483570  0.56684414
   0.80809633  0.02733152  0.12396725
   0.42904677  0.62352971  0.29945968
   0.81581256  0.72407819  0.87639767
   0.68835073  0.45850257  0.61150073
   0.55882619  0.38749942  0.83357035
   0.80363339  0.37343073  0.29950225
   0.18619009  0.29122073  0.38838180
   0.81931254  0.54906864  0.78887973
   0.18284990  0.78952977  0.52247715
   0.30364016  0.87370329  0.29957798
   0.17959918  0.95121392  0.21121352
   0.18494931  0.46247457  0.74485075
   0.43293802  0.28903605  0.52227760
   0.06447336  0.70857423  0.34391656
   0.18521616  0.79062932  0.65584126
   0.44444212  0.79938535  0.78879248
   0.68397867  0.12487378  0.43290945
   0.93276058  0.78907727  0.52244928
   0.69133763  0.61263992  0.16661303
   0.81421003  0.70829961  0.34389531
   0.93502373  0.46255158  0.74487229
   0.18952011  0.45874624  0.34402912
   0.56972663  0.54939323  0.78904437
   0.56621715  0.36261994  0.16635815
   0.56428917  0.70873914  0.34401310
   0.55378689  0.37365018  0.29960404
   0.18867915  0.46731238  0.87590495
   0.19200350  0.11230769  0.16648587
   0.44407564  0.29913255  0.78881921
   0.69029294  0.78737885  0.25541251
   0.93433691  0.13859506  0.83372397
   0.44219277  0.96050568  0.47750638
   0.56693090  0.72406331  0.87632127
   0.19213722  0.46051138  0.47751770
   0.93573094  0.28204555  0.12427844
   0.31142744  0.04142408  0.38840353
   0.06060254  0.04059677  0.65602262
   0.55895884  0.37492806  0.43308134
   0.68472803  0.46276046  0.74493177
   0.56058767  0.21294621  0.74479007
   0.94652770  0.12642955  0.70037471
   0.56018950  0.04077053  0.65584516
   0.55778348  0.53939976  0.52241959
   0.17856994  0.12361574  0.29955462
   0.44100289  0.11218466  0.16646802
   0.67839858  0.62360067  0.29964383
   0.92873435  0.12335117  0.29963007
   0.81624590  0.37505979  0.56689903
   0.05358893  0.87367932  0.29953265
   0.19127962  0.62496575  0.56686071
   0.94436418  0.79945600  0.78888145
   0.30891625  0.38741990  0.83358254
   0.93954434  0.46759358  0.87609885
   0.43430349  0.63772840  0.83352158
   0.06429472  0.20836913  0.34390530
   0.19030055  0.96764671  0.87606995
   0.93580850  0.78185907  0.12422528
   0.68665255  0.79153819  0.38843352
   0.93532529  0.79077054  0.65590609
   0.94124961  0.11220830  0.16638351
   0.43551432  0.29089683  0.65604761
   0.05526792  0.20090714  0.21118294
   0.67951000  0.95161669  0.21132138
   0.17902242  0.62363062  0.29945015
   0.82131317  0.87639143  0.70041471
   0.94618347  0.62653414  0.70049922
   0.19642676  0.12632661  0.70031447
   0.94212337  0.46040629  0.47727963
   0.81336255  0.20833336  0.61152191
   0.18396116  0.62501239  0.43308554
   0.42869249  0.12360693  0.29952301
   0.67881501  0.12359679  0.29946893
   0.56171039  0.54149168  0.38848406
   0.81411354  0.20837086  0.34400965
   0.43925450  0.46757535  0.87582638
   0.55897414  0.88730635  0.83358289
   0.31721652  0.21032418  0.47736645
   0.19216896  0.96043799  0.47748055
   0.05859916  0.88731725  0.83366258
   0.05776692  0.53948135  0.52245896
   0.94208717  0.96032621  0.47733427
   0.06331565  0.70837584  0.61153126
   0.55781495  0.03942425  0.52243260
   0.69461832  0.29893892  0.78878272
   0.81705709  0.36206127  0.16653750
   0.43397436  0.12478320  0.43299281
   0.06734149  0.21030112  0.47751014
   0.31039183  0.04081585  0.65590788
   0.43279577  0.78908271  0.52226998
   0.18373692  0.13836410  0.83364766
   0.18623988  0.28226542  0.12426438
   0.93947725  0.45910275  0.34402669
   0.56700394  0.86225798  0.16649737
   0.30469436  0.70089653  0.21119034
   0.94100652  0.61256837  0.16655598
   0.18823236  0.45846004  0.61150093
   0.07145572  0.87645783  0.70023067
   0.06029864  0.54074844  0.65593044
   0.30865695  0.52684056  0.12398746
   0.93656696  0.79133563  0.38846472
   0.94434184  0.29883438  0.78871707
   0.18514312  0.29087134  0.65587712
   0.93819586  0.95833894  0.61151245
   0.81055114  0.71234876  0.74477465
   0.69052124  0.28742545  0.25529023
   0.05995292  0.71238686  0.74489822
   0.67953102  0.45157731  0.21121933
   0.81726391  0.21038455  0.47750150
   0.56716204  0.71044710  0.47749834
   0.06640938  0.86257468  0.16649793
   0.93299179  0.28878869  0.52234995
   0.68498345  0.79043047  0.65586242
   0.05889146  0.87485473  0.43305545
   0.06727337  0.22192954  0.87613929
   0.81029514  0.04066499  0.65591980
   0.55916549  0.02708959  0.12405550
   0.30909420  0.37494804  0.43293003
   0.31626075  0.37484961  0.56683553
   0.31712251  0.71015415  0.47737703
   0.05770378  0.03958229  0.52245359
   0.32130352  0.87636829  0.70049546
   0.06481978  0.53772739  0.25522632
   0.68375715  0.13763454  0.83357426
   0.81460725  0.03769671  0.25521345
   0.18396832  0.12494188  0.43310953
   0.69670769  0.12642889  0.70043921
   0.18297026  0.28948810  0.52246824
   0.44035150  0.78749025  0.25535166
   0.44122852  0.61143700  0.16643157
   0.06340740  0.20841859  0.61151838
   0.18633268  0.79094466  0.38828570
   0.30772467  0.53919379  0.52238355
   0.82120075  0.37600549  0.70028420
   0.68642785  0.29120397  0.38841239
   0.19126750  0.12491155  0.56688208
   0.68958040  0.96846482  0.87613039
   0.69133435  0.12506302  0.56691283
   0.43962504  0.95887740  0.34405656
   0.18478323  0.96238196  0.74469372
   0.94006769  0.78766059  0.25519259
   0.55902284  0.87488892  0.43304330
   0.30886472  0.87495746  0.43304059
   0.80781109  0.53949247  0.52247577
   0.92981854  0.45135351  0.21124891
   0.31492080  0.53757966  0.25520416
   0.56161464  0.04150551  0.38841259
   0.93830865  0.45829131  0.61158494
   0.06157126  0.04143205  0.38843382
   0.06153803  0.54157013  0.38842335
   0.43636014  0.29113919  0.38840944
   0.69224142  0.46048475  0.47748153
   0.06628931  0.37485251  0.56687936
   0.55488034  0.70084596  0.21116458
   0.94006987  0.28735645  0.25527112
   0.81896126  0.04957533  0.78903083
   0.18941795  0.95871330  0.34399462
   0.55354874  0.87371921  0.29962899
   0.05902293  0.37474939  0.43295069
   0.31443828  0.70864199  0.34400202
   0.31423928  0.20876440  0.34394227
   0.94119674  0.12516924  0.56681108
   0.43847570  0.95861360  0.61156476
   0.56459551  0.03758199  0.25519030
   0.18604468  0.78248656  0.12429014
   0.06505517  0.03761587  0.25517332
   0.69138624  0.62496437  0.56690516
   0.05783979  0.52739565  0.12413398
   0.30775947  0.03891342  0.52228335
   0.68731524  0.28186352  0.12428088
   0.81718616  0.71051472  0.47752134
   0.43402101  0.13781442  0.83352801
   0.32158014  0.37630856  0.70038755
   0.68388690  0.63765833  0.83359177
   0.56028466  0.71240134  0.74482958
   0.93646675  0.29141437  0.38847743
   0.93889626  0.96835819  0.87608734
   0.56297522  0.20802666  0.61135056
   0.81630522  0.87501075  0.56688610
   0.80384559  0.87338143  0.29948443
   0.31501522  0.03761104  0.25534643
   0.43621097  0.28257418  0.12405422
   0.31333883  0.70846273  0.61151416
   0.43391786  0.62497512  0.43294408
   0.93336558  0.62496322  0.43314798
   0.06702019  0.72390362  0.87580907
   0.07001421  0.54924586  0.78866089
   0.93381703  0.12501210  0.43310212
   0.31802192  0.36278126  0.16581051
   0.93364301  0.96192022  0.74476149
   0.81561706  0.53765750  0.25533661
Direct configuration=     3
   0.05616829  0.70096454  0.21115701
   0.31746915  0.72215735  0.87589258
   0.68833832  0.95830332  0.61145778
   0.43838555  0.45823711  0.61151166
   0.43842879  0.28706732  0.25533757
   0.05988992  0.38829359  0.83401282
   0.30965357  0.88714235  0.83393849
   0.44439077  0.62633125  0.70040625
   0.06197435  0.21266989  0.74472739
   0.18099915  0.45145171  0.21132544
   0.56557466  0.20968782  0.47765953
   0.06519709  0.87492939  0.56686744
   0.56653383  0.22174991  0.87589185
   0.80954760  0.52921353  0.12428085
   0.43115421  0.95127777  0.21126233
   0.56527391  0.37484616  0.56678055
   0.81156423  0.04188197  0.38833925
   0.68431325  0.79005636  0.52225977
   0.44054914  0.45975629  0.47765359
   0.43615870  0.96275041  0.74456102
   0.44013395  0.62481610  0.56683006
   0.56919460  0.87639141  0.70043039
   0.30897779  0.02901656  0.12422487
   0.68799509  0.95827871  0.34400341
   0.68652500  0.78071689  0.12438381
   0.05560256  0.37347084  0.29959039
   0.68921357  0.46959648  0.87574171
   0.43143634  0.45144974  0.21130201
   0.80989982  0.37524706  0.43304333
   0.56330632  0.70822957  0.61151461
   0.56158567  0.54105529  0.65583193
   0.81540714  0.86335567  0.16625276
   0.56306850  0.53723237  0.25538715
   0.68790563  0.45835887  0.34402515
   0.18969079  0.61218270  0.16634356
   0.19284132  0.79929516  0.78876285
   0.44461797  0.12641327  0.70038931
   0.93078608  0.62338927  0.29965244
   0.31627033  0.22140983  0.87591465
   0.31511411  0.87474122  0.56679887
   0.81554336  0.22145770  0.87597087
   0.81159517  0.54124466  0.65582440
   0.55940265  0.52910935  0.12416502
   0.56789231  0.04942436  0.78898237
   0.18845714  0.28714785  0.25540461
   0.80987920  0.87527791  0.43305073
   0.56946080  0.37630997  0.70036537
   0.05919200  0.02833908  0.12423128
   0.31168264  0.54109306  0.65583981
   0.56318096  0.20840638  0.34410177
   0.18833347  0.95822107  0.61143535
   0.30563477  0.37371966  0.29962168
   0.43654531  0.79114967  0.65585182
   0.19321132  0.29877766  0.78880013
   0.06569212  0.36317189  0.16626356
   0.69426506  0.62641685  0.70040926
   0.31154936  0.54147338  0.38842613
   0.31529877  0.86275911  0.16623340
   0.93515844  0.63781807  0.83432281
   0.31882724  0.54935540  0.78879921
   0.30629514  0.20064619  0.21118302
   0.06565992  0.70959460  0.47770517
   0.55624983  0.20098187  0.21109090
   0.31196061  0.21292188  0.74465059
   0.06930667  0.37672799  0.70038618
   0.18472729  0.63797983  0.83395785
   0.06800843  0.04993282  0.78880131
   0.44013485  0.12482067  0.56685641
   0.93674252  0.29121978  0.65576034
   0.80620428  0.20135847  0.21114095
   0.93111606  0.95157339  0.21124716
   0.94012174  0.62502236  0.56678503
   0.80969304  0.38719762  0.83389902
   0.19431634  0.62655723  0.70033581
   0.81045628  0.88692149  0.83414077
   0.68676726  0.29106496  0.65589616
   0.31333406  0.20819235  0.61148914
   0.43661880  0.46277359  0.74461605
   0.43649203  0.79143121  0.38841196
   0.68631970  0.96274306  0.74466572
   0.80608108  0.70100449  0.21120111
   0.81326426  0.70820392  0.61150905
   0.43695967  0.78103215  0.12447842
   0.31158029  0.71268663  0.74460063
   0.31840552  0.04955823  0.78884807
   0.81147756  0.54184913  0.38838499
   0.68446803  0.29009728  0.52224136
   0.69315548  0.79920002  0.78885728
   0.18839022  0.78766071  0.25541572
   0.69000706  0.11255281  0.16627687
   0.69053546  0.95983349  0.47769206
   0.93838005  0.95864696  0.34410038
   0.80941675  0.03996943  0.52230515
   0.68452307  0.62494016  0.43300741
   0.43807477  0.45844850  0.34412071
   0.81204305  0.21255265  0.74463084
   0.43923131  0.97038483  0.87578657
   0.56522901  0.87464503  0.56679985
   0.80915919  0.02859996  0.12417941
   0.43071457  0.62347217  0.29957370
   0.81498113  0.72206542  0.87620721
   0.68825104  0.45817744  0.61145064
   0.55996447  0.38717616  0.83383533
   0.80560455  0.37328530  0.29956631
   0.18630443  0.29142678  0.38838649
   0.81787040  0.54915143  0.78892589
   0.18456729  0.79010082  0.52233257
   0.30563964  0.87359138  0.29963039
   0.18112009  0.95127148  0.21121072
   0.18670655  0.46274507  0.74463383
   0.43446838  0.28992578  0.52217406
   0.06330701  0.70854699  0.34405976
   0.18672331  0.79086402  0.65575518
   0.44309000  0.79937851  0.78874497
   0.68449944  0.12497377  0.43299154
   0.93447950  0.78967499  0.52231026
   0.69004232  0.61319468  0.16637095
   0.81303166  0.70851663  0.34408233
   0.93678147  0.46273417  0.74464165
   0.18817467  0.45848085  0.34408385
   0.56856507  0.54950943  0.78901088
   0.56540153  0.36321562  0.16608936
   0.56288486  0.70858426  0.34415821
   0.55588266  0.37346841  0.29960209
   0.18875455  0.46905503  0.87578816
   0.19052365  0.11271085  0.16627161
   0.44297720  0.29872216  0.78881024
   0.68828016  0.78736012  0.25546706
   0.93549749  0.13791337  0.83391749
   0.44056623  0.95978088  0.47765544
   0.56609634  0.72191630  0.87601276
   0.19038612  0.45974456  0.47765776
   0.93593118  0.28081208  0.12441490
   0.31150497  0.04149584  0.38843086
   0.06173612  0.04089492  0.65588864
   0.56002059  0.37505415  0.43306554
   0.68627532  0.46271850  0.74473487
   0.56196958  0.21317918  0.74461431
   0.94452917  0.12664885  0.70039111
   0.56170997  0.04098090  0.65580792
   0.55945539  0.54013368  0.52224848
   0.18066065  0.12342890  0.29956896
   0.43963631  0.11242482  0.16629874
   0.68041135  0.62348179  0.29964877
   0.93063060  0.12313986  0.29965055
   0.81518162  0.37492631  0.56687440
   0.05571862  0.87347154  0.29957053
   0.19016152  0.62485356  0.56686192
   0.94266081  0.79917755  0.78892369
   0.31015588  0.38712973  0.83380693
   0.93910191  0.46921153  0.87587958
   0.43568111  0.63713005  0.83371743
   0.06296591  0.20843410  0.34404905
   0.18997977  0.96973091  0.87577249
   0.93618325  0.78063606  0.12438651
   0.68652839  0.79164762  0.38841399
   0.93662557  0.79113857  0.65584001
   0.94004531  0.11256119  0.16624680
   0.43663679  0.29126568  0.65591611
   0.05670702  0.20101555  0.21111673
   0.68119962  0.95152933  0.21131030
   0.18076455  0.62358397  0.29957324
   0.81919877  0.87640765  0.70037946
   0.94431851  0.62662597  0.70044817
   0.19438740  0.12661637  0.70035640
   0.94063923  0.45956546  0.47755693
   0.81328081  0.20815963  0.61148033
   0.18536799  0.62501825  0.43306268
   0.43069699  0.12354771  0.29961109
   0.68062190  0.12328489  0.29956625
   0.56147143  0.54152990  0.38845175
   0.81303703  0.20822237  0.34412120
   0.43897321  0.46951245  0.87563930
   0.56002291  0.88682329  0.83395378
   0.31562010  0.20978471  0.47758963
   0.19036613  0.95977814  0.47765835
   0.05967718  0.88702682  0.83393440
   0.05945513  0.53993158  0.52224133
   0.94060002  0.95955856  0.47758696
   0.06331869  0.70814421  0.61147240
   0.55942581  0.04005228  0.52225419
   0.69328293  0.29860151  0.78880706
   0.81576444  0.36276374  0.16625556
   0.43487426  0.12484291  0.43301281
   0.06570091  0.20968568  0.47769629
   0.31174018  0.04109255  0.65583228
   0.43446371  0.78992547  0.52217352
   0.18513479  0.13780258  0.83381672
   0.18648622  0.28062303  0.12434387
   0.93810121  0.45875635  0.34406778
   0.56602863  0.86298312  0.16624188
   0.30613822  0.70081692  0.21114810
   0.93967792  0.61315692  0.16638100
   0.18834677  0.45830405  0.61146816
   0.06939270  0.87657038  0.70025506
   0.06166271  0.54109502  0.65588938
   0.30963893  0.52861618  0.12404695
   0.93647294  0.79171977  0.38844853
   0.94286374  0.29875645  0.78879054
   0.18659893  0.29115569  0.65583389
   0.93830903  0.95817682  0.61151096
   0.81203736  0.71266274  0.74467329
   0.68846358  0.28738868  0.25537079
   0.06190323  0.71265429  0.74468674
   0.68109257  0.45131011  0.21122556
   0.81554042  0.20968265  0.47766080