 vasp.5.4.4.18Apr17-6-g9f103f2a35 (build Sep 27 2018 12:46:37) complex + VL-xray
 _
 executed on      LLNL_Quartz_ifc date 2021.09.27  00:56:33
 running on  448 total cores
 distrk:  each k-point on  112 cores,    4 groups
 distr:  one band on NCORES_PER_BAND=   8 cores,   14 groups


--------------------------------------------------------------------------------------------------------


 INCAR:
 POTCAR:    PAW_PBE Fe_GW 31Mar2010               
 POTCAR:    PAW_PBE Mn_GW 31Mar2010               

 ----------------------------------------------------------------------------- 
|                                                                             |
|           W    W    AA    RRRRR   N    N  II  N    N   GGGG   !!!           |
|           W    W   A  A   R    R  NN   N  II  NN   N  G    G  !!!           |
|           W    W  A    A  R    R  N N  N  II  N N  N  G       !!!           |
|           W WW W  AAAAAA  RRRRR   N  N N  II  N  N N  G  GGG   !            |
|           WW  WW  A    A  R   R   N   NN  II  N   NN  G    G                |
|           W    W  A    A  R    R  N    N  II  N    N   GGGG   !!!           |
|                                                                             |
|      For optimal performance we recommend to set                            |
|        NCORE= 4 - approx SQRT( number of cores)                             |
|      NCORE specifies how many cores store one orbital (NPAR=cpu/NCORE).     |
|      This setting can  greatly improve the performance of VASP for DFT.     |
|      The default,   NCORE=1            might be grossly inefficient         |
|      on modern multi-core architectures or massively parallel machines.     |
|      Do your own testing !!!!                                               |
|      Unfortunately you need to use the default for GW and RPA calculations. |
|      (for HF NCORE is supported but not extensively tested yet)             |
|                                                                             |
 ----------------------------------------------------------------------------- 


 ----------------------------------------------------------------------------- 
|                                                                             |
|           W    W    AA    RRRRR   N    N  II  N    N   GGGG   !!!           |
|           W    W   A  A   R    R  NN   N  II  NN   N  G    G  !!!           |
|           W    W  A    A  R    R  N N  N  II  N N  N  G       !!!           |
|           W WW W  AAAAAA  RRRRR   N  N N  II  N  N N  G  GGG   !            |
|           WW  WW  A    A  R   R   N   NN  II  N   NN  G    G                |
|           W    W  A    A  R    R  N    N  II  N    N   GGGG   !!!           |
|                                                                             |
|      You have enabled k-point parallelism (KPAR>1).                         |
|      This developmental code was originally  written by Paul Kent at ORNL,  |
|      and carefully double checked in Vienna.                                |
|      GW as well as linear response parallelism added by Martijn Marsman     |
|      and Georg Kresse.                                                      |
|      Carefully verify results versus KPAR=1.                                |
|      Report problems to Paul Kent and Vienna.                               |
|                                                                             |
 ----------------------------------------------------------------------------- 

 POTCAR:    PAW_PBE Fe_GW 31Mar2010               
   SHA256 =  2f8cc54f0048d2b8131fafa2fd9471601c7f588f91a54eba7a0e33760ec848ea Fe
   COPYR  = (c) Copyright 31Mar2010 Georg Kresse                                
   COPYR  = This file is part of the software VASP. Any use, copying, and all ot
   COPYR  = If you do not have a valid VASP license, you may not use, copy or di
   VRHFIN =Fe:  d7 s1                                                           
   LEXCH  = PE                                                                  
   EATOM  =   594.3155 eV,   43.6810 Ry                                         
                                                                                
   TITEL  = PAW_PBE Fe_GW 31Mar2010                                             
   LULTRA =        F    use ultrasoft PP ?                                      
   IUNSCR =        1    unscreen: 0-lin 1-nonlin 2-no                           
   RPACOR =    1.800    partial core radius                                     
   POMASS =   55.847; ZVAL   =    8.000    mass and valenz                      
   RCORE  =    2.300    outmost cutoff radius                                   
   RWIGS  =    2.300; RWIGS  =    1.217    wigner-seitz radius (au A)           
   ENMAX  =  321.007; ENMIN  =  240.755 eV                                      
   RCLOC  =    1.701    cutoff for local pot                                    
   LCOR   =        T    correct aug charges                                     
   LPAW   =        T    paw PP                                                  
   EAUG   =  753.401                                                            
   DEXC   =    0.000                                                            
   RMAX   =    2.356    core radius for proj-oper                               
   RAUG   =    1.300    factor for augmentation sphere                          
   RDEP   =    2.442    radius for radial grids                                 
   RDEPT  =    1.800    core radius for aug-charge                              
                                                                                
   Atomic configuration                                                         
    9 entries                                                                   
     n  l   j            E        occ.                                          
     1  0  0.50     -6993.8440   2.0000                                         
     2  0  0.50      -814.6047   2.0000                                         
     2  1  1.50      -693.3689   6.0000                                         
     3  0  0.50       -89.4732   2.0000                                         
     3  1  1.50       -55.6373   6.0000                                         
     3  2  2.50        -3.8151   7.0000                                         
     4  0  0.50        -4.2551   1.0000                                         
     4  1  1.50        -3.4015   0.0000                                         
     4  3  2.50        -1.3606   0.0000                                         
   Description                                                                  
     l       E           TYP  RCUT    TYP  RCUT                                 
     2     -3.8151215     23  2.100                                             
     2     -5.1757041     23  2.100                                             
     0     -4.2550988     23  2.300                                             
     0     54.4233040     23  2.300                                             
     1     -2.7211652     23  2.300                                             
     1     68.0291300     23  2.300                                             
     3     27.2116520     23  2.300                                             
  local pseudopotential read in
  partial core-charges read in
  partial kinetic energy density read in
  kinetic energy density of atom read in
  atomic valenz-charges read in
  non local Contribution for L=           2  read in
    real space projection operators read in
  non local Contribution for L=           2  read in
    real space projection operators read in
  non local Contribution for L=           0  read in
    real space projection operators read in
  non local Contribution for L=           0  read in
    real space projection operators read in
  non local Contribution for L=           1  read in
    real space projection operators read in
  non local Contribution for L=           1  read in
    real space projection operators read in
  non local Contribution for L=           3  read in
    real space projection operators read in
    PAW grid and wavefunctions read in
 
   number of l-projection  operators is LMAX  =           7
   number of lm-projection operators is LMMAX =          25
 
 POTCAR:    PAW_PBE Mn_GW 31Mar2010               
   SHA256 =  94ae266cf9f02ce3d66f03781e79a4abde1ab929a3c493eac5d81431ef91e174 Mn
   COPYR  = (c) Copyright 31Mar2010 Georg Kresse                                
   COPYR  = This file is part of the software VASP. Any use, copying, and all ot
   COPYR  = If you do not have a valid VASP license, you may not use, copy or di
   VRHFIN =Mn: d6 s1                                                            
   LEXCH  = PE                                                                  
   EATOM  =   416.7540 eV,   30.6306 Ry                                         
                                                                                
   TITEL  = PAW_PBE Mn_GW 31Mar2010                                             
   LULTRA =        F    use ultrasoft PP ?                                      
   IUNSCR =        1    unscreen: 0-lin 1-nonlin 2-no                           
   RPACOR =    1.800    partial core radius                                     
   POMASS =   54.938; ZVAL   =    7.000    mass and valenz                      
   RCORE  =    2.400    outmost cutoff radius                                   
   RWIGS  =    2.500; RWIGS  =    1.323    wigner-seitz radius (au A)           
   ENMAX  =  278.466; ENMIN  =  208.850 eV                                      
   RCLOC  =    1.725    cutoff for local pot                                    
   LCOR   =        T    correct aug charges                                     
   LPAW   =        T    paw PP                                                  
   EAUG   =  838.435                                                            
   DEXC   =    0.000                                                            
   RMAX   =    2.458    core radius for proj-oper                               
   RAUG   =    1.300    factor for augmentation sphere                          
   RDEP   =    2.492    radius for radial grids                                 
   RDEPT  =    1.800    core radius for aug-charge                              
                                                                                
   Atomic configuration                                                         
    9 entries                                                                   
     n  l   j            E        occ.                                          
     1  0  0.50     -6424.8287   2.0000                                         
     2  0  0.50      -739.1153   2.0000                                         
     2  1  1.50      -625.3949   6.0000                                         
     3  0  0.50       -81.6100   2.0000                                         
     3  1  1.50       -50.4666   6.0000                                         
     3  2  2.50        -3.3745   6.0000                                         
     4  0  0.50        -4.1331   1.0000                                         
     4  1  0.50        -4.0817   0.0000                                         
     4  3  2.50        -1.3606   0.0000                                         
   Description                                                                  
     l       E           TYP  RCUT    TYP  RCUT                                 
     2     -3.3744623     23  2.250                                             
     2     -4.7350449     23  2.250                                             
     0     -4.1331408     23  2.300                                             
     0     54.4233040     23  2.300                                             
     1     -2.7211652     23  2.400                                             
     1     68.0291300     23  2.400                                             
     3     27.2116520     23  2.400                                             
  local pseudopotential read in
  partial core-charges read in
  partial kinetic energy density read in
  kinetic energy density of atom read in
  atomic valenz-charges read in
  non local Contribution for L=           2  read in
    real space projection operators read in
  non local Contribution for L=           2  read in
    real space projection operators read in
  non local Contribution for L=           0  read in
    real space projection operators read in
  non local Contribution for L=           0  read in
    real space projection operators read in
  non local Contribution for L=           1  read in
    real space projection operators read in
  non local Contribution for L=           1  read in
    real space projection operators read in
  non local Contribution for L=           3  read in
    real space projection operators read in
    PAW grid and wavefunctions read in
 
   number of l-projection  operators is LMAX  =           7
   number of lm-projection operators is LMMAX =          25
 
 Optimization of the real space projectors (new method)

 maximal supplied QI-value         = 16.25
 optimisation between [QCUT,QGAM] = [ 10.73, 21.61] = [ 32.22,130.83] Ry 
 Optimized for a Real-space Cutoff    1.51 Angstroem

   l    n(q)    QCUT    max X(q) W(low)/X(q) W(high)/X(q)  e(spline) 
   2      9    10.726   131.327    0.20E-03    0.12E-03    0.54E-06
   2      9    10.726   127.187    0.20E-03    0.12E-03    0.54E-06
   0     10    10.726    16.887    0.76E-04    0.35E-04    0.77E-07
   0     10    10.726     8.663    0.47E-04    0.27E-04    0.61E-07
   1      9    10.726     5.390    0.15E-04    0.59E-04    0.17E-06
   1      9    10.726     3.548    0.94E-05    0.35E-04    0.11E-06
   3      8    10.726     4.269    0.21E-03    0.19E-03    0.11E-06
 Optimization of the real space projectors (new method)

 maximal supplied QI-value         = 15.68
 optimisation between [QCUT,QGAM] = [ 10.82, 21.64] = [ 32.80,131.19] Ry 
 Optimized for a Real-space Cutoff    1.55 Angstroem

   l    n(q)    QCUT    max X(q) W(low)/X(q) W(high)/X(q)  e(spline) 
   2      9    10.822   123.144    0.95E-04    0.16E-03    0.25E-06
   2      9    10.822   117.938    0.95E-04    0.16E-03    0.25E-06
   0     10    10.822    19.684    0.74E-04    0.13E-04    0.93E-07
   0     10    10.822     9.378    0.45E-04    0.10E-04    0.71E-07
   1     10    10.822     5.531    0.52E-04    0.29E-04    0.16E-06
   1     10    10.822     3.850    0.30E-04    0.16E-04    0.10E-06
   3      9    10.822     4.123    0.87E-04    0.22E-03    0.15E-06
  PAW_PBE Fe_GW 31Mar2010               :
 energy of atom  1       EATOM= -594.3155
 kinetic energy error for atom=    0.0189 (will be added to EATOM!!)
  PAW_PBE Mn_GW 31Mar2010               :
 energy of atom  2       EATOM= -416.7540
 kinetic energy error for atom=    0.0044 (will be added to EATOM!!)
 
 
 POSCAR: CuInSe2gb                               
  positions in direct lattice
  velocities in cartesian coordinates
 exchange correlation table for  LEXCH =        8
   RHO(1)=    0.500       N(1)  =     2000
   RHO(2)=  100.500       N(2)  =     4000

 VTST: version 3.1, (03/28/14)

 CHAIN: initializing optimizer
 
 OPT: Using VASP Conjugate-Gradient optimizer
 CHAIN: Read ICHAIN            0
 
 POSCAR: CuInSe2gb                               
  positions in direct lattice
  velocities in cartesian coordinates
 


--------------------------------------------------------------------------------------------------------


 ion  position               nearest neighbor table
   1  0.063  0.030  0.124- 125 2.34  60 2.37  83 2.37  44 2.39  26 2.41 256 2.42 202 2.42 111 2.47
                           155 2.50
   2  0.317  0.875  0.655-  96 2.41  38 2.41 148 2.42  89 2.43 204 2.43  40 2.43 121 2.43 153 2.43
                           196 2.43 154 2.46 173 2.48  15 2.49
   3  0.184  0.123  0.789-   9 2.40 197 2.42 149 2.43   7 2.43  49 2.44 224 2.44 138 2.44  11 2.44
                           254 2.45 259 2.47 239 2.47  39 2.52
   4  0.442  0.288  0.389- 219 2.41 206 2.42 222 2.43  84 2.43  16 2.43 248 2.44 165 2.44  67 2.44
                           251 2.45 201 2.48  86 2.48 113 2.49
   5  0.318  0.714  0.833- 150 2.36 184 2.41 241 2.41 268 2.41  18 2.42 224 2.42 110 2.43  74 2.43
                             7 2.44 181 2.44 134 2.45 272 2.52
   6  0.818  0.215  0.834- 280 2.31  14 2.40 191 2.41  82 2.42 259 2.42  36 2.42  17 2.43  57 2.44
                           149 2.44 143 2.45  88 2.46 188 2.54
   7  0.192  0.964  0.834- 245 2.34 282 2.35 268 2.37 134 2.41  17 2.42  39 2.43   3 2.43   5 2.44
                           259 2.44 110 2.44 224 2.46 197 2.52
   8  0.562  0.207  0.566- 271 2.42 247 2.42 228 2.43  70 2.43  95 2.43  34 2.43  56 2.44 119 2.44
                            93 2.44 147 2.46 115 2.49 260 2.49
   9  0.066  0.041  0.744-   3 2.40 173 2.42 262 2.42 239 2.42  46 2.43 151 2.43 197 2.43  11 2.44
                           187 2.44  37 2.45 149 2.47 225 2.48
  10  0.812  0.871  0.521- 234 2.38  75 2.38 236 2.39  32 2.42 203 2.43  77 2.43  27 2.43 286 2.43
                           195 2.43  34 2.43  95 2.43 129 2.44
  11  0.191  0.291  0.744- 138 2.41 239 2.42  71 2.42  63 2.42 243 2.43 211 2.43   9 2.44 187 2.44
                             3 2.44 246 2.45 254 2.47  37 2.48
  12  0.933  0.452  0.345- 220 2.39 123 2.40  13 2.43  47 2.43  48 2.43 207 2.43 216 2.43  73 2.43
                           116 2.43 178 2.49 273 2.49 226 2.50
  13  0.941  0.287  0.389-  47 2.39 279 2.40 124 2.42  12 2.43  84 2.43 248 2.43 123 2.44 273 2.45
                           207 2.47 218 2.47 158 2.49  80 2.50
  14  0.813  0.041  0.876-  88 2.33  17 2.36 281 2.39  29 2.40   6 2.40 161 2.43 282 2.46 280 2.47
                           191 2.50
  15  0.184  0.788  0.611- 196 2.40 153 2.42  41 2.43  96 2.43 142 2.43 136 2.43 126 2.43 148 2.44
                           276 2.45   2 2.49  90 2.49 162 2.49
  16  0.566  0.038  0.389-  25 2.40  84 2.43 264 2.43   4 2.43 219 2.43  45 2.43 165 2.43 279 2.45
                           257 2.45 172 2.47  69 2.48 201 2.50
  17  0.942  0.965  0.834- 282 2.32  14 2.36 281 2.36 134 2.41   7 2.42   6 2.43 253 2.43 259 2.43
                            88 2.44 149 2.44 197 2.46  55 2.55
  18  0.313  0.541  0.876- 181 2.34 255 2.37  74 2.39 120 2.39   5 2.42  64 2.42 266 2.43 150 2.47
                           268 2.48
  19  0.690  0.291  0.744-  57 2.41 233 2.42  87 2.43 187 2.43 270 2.43 267 2.43 151 2.43  71 2.44
                            76 2.44 188 2.45  53 2.47 106 2.48
  20  0.182  0.614  0.167- 176 2.35  91 2.40  83 2.41 189 2.41 250 2.42 174 2.43 104 2.43  51 2.43
                           108 2.43 277 2.43  60 2.45  65 2.52
  21  0.812  0.206  0.479- 177 2.38 286 2.38  34 2.38  75 2.43 269 2.43 237 2.43 199 2.43 236 2.44
                           223 2.44 158 2.44  80 2.44 257 2.44
  22  0.809  0.538  0.611- 227 2.40  35 2.41 136 2.43 126 2.43 180 2.43 128 2.43 147 2.43 100 2.44
                           240 2.47 228 2.47  42 2.49  32 2.50
  23  0.312  0.871  0.435-  99 2.42 278 2.43 160 2.43 285 2.43 201 2.43  94 2.43  69 2.44 238 2.44
                           105 2.44 287 2.46 165 2.49 264 2.50
  24  0.809  0.038  0.256- 109 2.40  92 2.40 185 2.43  52 2.43 221 2.43 127 2.43  72 2.43  58 2.43
                           118 2.44 167 2.45 212 2.48 135 2.49
  25  0.683  0.952  0.345- 210 2.38  16 2.40 164 2.42 172 2.42  45 2.43 219 2.43  73 2.43 207 2.44
                           194 2.44 109 2.47 279 2.50  72 2.50
  26  0.931  0.114  0.167- 202 2.34 167 2.41 155 2.41   1 2.41 212 2.41 166 2.42  60 2.43 102 2.43
                            51 2.44 284 2.45 125 2.45  50 2.50
  27  0.062  0.871  0.521- 157 2.38 236 2.38  94 2.39 203 2.43 144 2.43  10 2.43  68 2.43 276 2.43
                           286 2.43 140 2.43 162 2.44 129 2.44
  28  0.558  0.538  0.256- 101 2.39 139 2.41 288 2.41 275 2.43 118 2.43 137 2.43 265 2.43  81 2.43
                            58 2.44 171 2.45 261 2.45 130 2.51
  29  0.684  0.798  0.876- 241 2.35  88 2.36 161 2.36  14 2.40 253 2.41 150 2.41 281 2.46  64 2.47
                           231 2.50
  30  0.556  0.365  0.167- 117 2.34 283 2.35 145 2.39 174 2.41  97 2.42 139 2.42 284 2.42 108 2.42
                           103 2.44 182 2.44 166 2.45 261 2.52
  31  0.440  0.792  0.744-  33 2.40 239 2.43 262 2.43 267 2.43 243 2.43 133 2.43  43 2.44 270 2.44
                           224 2.44  38 2.45 184 2.46 154 2.48
  32  0.811  0.707  0.565- 186 2.42  10 2.42 228 2.42  95 2.43 195 2.43  42 2.43 203 2.44 129 2.44
                           276 2.45 136 2.47 180 2.48  22 2.50
  33  0.559  0.873  0.789-  31 2.40 188 2.42 224 2.42 241 2.42  49 2.43  55 2.43 110 2.43  66 2.43
                           184 2.44 267 2.44  43 2.46  88 2.51
  34  0.687  0.122  0.521-  75 2.38 237 2.38  21 2.38  95 2.42  77 2.43 286 2.43 119 2.43 271 2.43
                           247 2.43  10 2.43 177 2.43   8 2.43
  35  0.816  0.375  0.655- 100 2.40  22 2.41 152 2.42  78 2.43 122 2.43 198 2.43 209 2.43 227 2.43
                           240 2.44 233 2.46 147 2.47  76 2.49
  36  0.942  0.464  0.834- 266 2.32 280 2.35 231 2.37   6 2.42 259 2.42 181 2.43  82 2.44 253 2.44
                           134 2.44 132 2.45 254 2.45  57 2.53
  37  0.060  0.208  0.700- 122 2.42 233 2.43 246 2.43 152 2.43 225 2.43 187 2.43  63 2.43 173 2.43
                           198 2.45   9 2.45 121 2.48  11 2.48
  38  0.435  0.958  0.700-   2 2.41 239 2.42  63 2.43  53 2.43 173 2.43  54 2.43 133 2.43 154 2.44
                            31 2.45 204 2.46 267 2.48  89 2.48
  39  0.317  0.213  0.833- 255 2.36 245 2.39 120 2.40 143 2.42   7 2.43 138 2.43  49 2.43  74 2.43
                           110 2.43 259 2.43 181 2.44   3 2.52
  40  0.441  0.625  0.655- 128 2.40  96 2.41 133 2.42  89 2.43   2 2.43 227 2.43 153 2.43  78 2.43
                            85 2.44 193 2.46  41 2.47 154 2.48
  41  0.309  0.538  0.611- 153 2.41  85 2.41  61 2.43  96 2.43 115 2.43  15 2.43 128 2.43 126 2.44
                            59 2.46  40 2.47  70 2.49  90 2.49
  42  0.936  0.457  0.566- 203 2.43 228 2.43 271 2.43 276 2.43  32 2.43  62 2.43 177 2.43 107 2.44
                            59 2.44 126 2.46 100 2.49  22 2.49
  43  0.690  0.792  0.744-  55 2.40 141 2.42 267 2.43 151 2.43  46 2.43 270 2.43  31 2.44  87 2.44
                            54 2.45  66 2.45  33 2.46 133 2.48
  44  0.935  0.788  0.124-  60 2.33 102 2.36 202 2.36   1 2.39 104 2.41 163 2.43  83 2.45 205 2.47
                           176 2.50
  45  0.692  0.788  0.389-  73 2.40 190 2.43 123 2.43  25 2.43  16 2.43 222 2.43 264 2.44 279 2.45
                           235 2.45 164 2.47 232 2.48  69 2.50
  46  0.940  0.791  0.745- 197 2.40 132 2.42 262 2.43  87 2.43 211 2.43   9 2.43 151 2.43  43 2.43
                           274 2.44  55 2.45 225 2.46 141 2.48
  47  0.059  0.203  0.345-  13 2.39 135 2.40 124 2.42 116 2.43  12 2.43  86 2.43 207 2.43 258 2.44
                           194 2.44 248 2.46 226 2.49 215 2.51
  48  0.684  0.452  0.345- 171 2.39 222 2.40  84 2.42 164 2.43 219 2.43  12 2.43 206 2.43 207 2.43
                            73 2.43 123 2.47 130 2.48 220 2.50
  49  0.434  0.123  0.789- 110 2.41 188 2.41 239 2.42 224 2.42  33 2.43  39 2.43 106 2.43   3 2.44
                           138 2.44  71 2.46 267 2.47 143 2.49
  50  0.065  0.204  0.211-  51 2.42 146 2.42 112 2.43 167 2.43 212 2.43 189 2.43 125 2.43 249 2.44
                           175 2.44 185 2.45 127 2.49  26 2.50
  51  0.055  0.365  0.167- 155 2.34 176 2.37 111 2.38 104 2.40  50 2.42  20 2.43 284 2.44  26 2.44
                           175 2.44 108 2.45 125 2.47 189 2.51
  52  0.933  0.788  0.256-  72 2.40 213 2.40 178 2.42  24 2.43 185 2.43  81 2.43 118 2.43 200 2.43
                           212 2.44 168 2.44 250 2.49 214 2.51
  53  0.560  0.207  0.700-  71 2.42 204 2.43  63 2.43  38 2.43  54 2.43  76 2.43 233 2.43 193 2.43
                           267 2.44  78 2.47  19 2.47 209 2.49
  54  0.685  0.957  0.700- 267 2.42 141 2.43  89 2.43 225 2.43  53 2.43 133 2.43  38 2.43 233 2.44
                            43 2.45 209 2.46 151 2.47  79 2.47
  55  0.809  0.874  0.788-  43 2.40 132 2.42 253 2.43  33 2.43 188 2.43 197 2.43 151 2.44 149 2.44
                            66 2.44  88 2.45  46 2.45  17 2.55
  56  0.436  0.957  0.565- 119 2.42  93 2.42 162 2.43 144 2.43  90 2.43  77 2.44   8 2.44 186 2.44
                            95 2.44 260 2.47  96 2.50 148 2.50
  57  0.809  0.375  0.789-  19 2.41  66 2.42 132 2.42  82 2.43 254 2.43 106 2.43  87 2.44 149 2.44
                             6 2.44 188 2.46 187 2.46  36 2.53
  58  0.684  0.287  0.256- 171 2.39 103 2.40 221 2.43  81 2.43  24 2.43 127 2.43 261 2.43  28 2.44
                           109 2.44 265 2.44 167 2.48 220 2.50
  59  0.187  0.457  0.566-  68 2.42 276 2.42  70 2.42  90 2.42  93 2.43 183 2.43  62 2.44 107 2.44
                            42 2.44  41 2.46 126 2.49  61 2.49
  60  0.057  0.865  0.167-  44 2.33   1 2.37  83 2.38 125 2.42 277 2.42 212 2.42 102 2.43 250 2.43
                            26 2.43 104 2.44  20 2.45 146 2.52
  61  0.184  0.289  0.611- 198 2.40 121 2.42 126 2.43  41 2.43 100 2.43 148 2.43 115 2.43 142 2.44
                            85 2.46  62 2.47  59 2.49  93 2.49
  62  0.062  0.207  0.565- 107 2.42  93 2.43 162 2.43 129 2.43 286 2.43 140 2.43  42 2.43  59 2.44
                           271 2.44  61 2.47 142 2.49 100 2.49
  63  0.310  0.207  0.700- 121 2.42  11 2.42  38 2.43 239 2.43 173 2.43  53 2.43  37 2.43 193 2.43
                           246 2.44  85 2.46  71 2.47 204 2.49
  64  0.563  0.541  0.876-  74 2.34 191 2.36 255 2.38  82 2.39 241 2.41  18 2.42 231 2.43  29 2.47
                           150 2.49
  65  0.316  0.704  0.212- 137 2.39 250 2.42 139 2.43 189 2.43 275 2.43 288 2.44 146 2.44 229 2.44
                           174 2.45 200 2.46 277 2.46  20 2.52
  66  0.683  0.623  0.789- 270 2.41  57 2.42 106 2.42  82 2.42 184 2.43  33 2.43 241 2.43 132 2.44
                            55 2.44  43 2.45  87 2.48 253 2.52
  67  0.316  0.538  0.389- 206 2.40 208 2.42 287 2.42 273 2.42 264 2.43 222 2.44 248 2.44   4 2.44
                           278 2.46 116 2.47 113 2.49 238 2.49
  68  0.187  0.621  0.521- 244 2.38 157 2.39  99 2.39  59 2.42 107 2.43 183 2.43 252 2.43  90 2.43
                           144 2.43  27 2.43 203 2.43 276 2.43
  69  0.562  0.871  0.434- 257 2.42 235 2.42 201 2.43 169 2.43  23 2.44 278 2.44 232 2.44 105 2.44
                            75 2.44 264 2.46  16 2.48  45 2.50
  70  0.436  0.457  0.566-  59 2.42 252 2.43   8 2.43  90 2.43 228 2.43 183 2.44  93 2.44 247 2.44
                           186 2.44 128 2.46  41 2.49 115 2.49
  71  0.440  0.292  0.744- 106 2.41  53 2.42  11 2.42 239 2.43 243 2.43 270 2.43  19 2.44 267 2.44
                           193 2.44  49 2.46  63 2.47 138 2.47
  72  0.821  0.874  0.300- 194 2.38  52 2.40 135 2.42 178 2.42 109 2.43  24 2.43 214 2.43 130 2.43
                           210 2.45  73 2.48  25 2.50 118 2.51
  73  0.809  0.703  0.345- 130 2.39  45 2.40 123 2.42 194 2.42 164 2.43  25 2.43 216 2.43  12 2.43
                            48 2.43 190 2.47  72 2.48 178 2.51
  74  0.442  0.463  0.833-  64 2.34 255 2.38  18 2.39 184 2.41 143 2.42 106 2.43  82 2.43 241 2.43
                            39 2.43   5 2.43 181 2.44 138 2.50
  75  0.688  0.956  0.479-  10 2.38  34 2.38  77 2.38 257 2.43 236 2.43 234 2.43  21 2.43 169 2.43
                           237 2.43 105 2.43 235 2.44  69 2.44
  76  0.685  0.458  0.700- 270 2.41 193 2.43  78 2.43 133 2.43  53 2.43 141 2.43 152 2.44 233 2.44
                            19 2.44 227 2.45  87 2.47  35 2.49
  77  0.562  0.872  0.521- 105 2.38 169 2.38  75 2.38 186 2.43  34 2.43 119 2.43  10 2.43  56 2.44
                            95 2.44 252 2.44 195 2.44 144 2.44
  78  0.566  0.375  0.655- 147 2.40 128 2.41  76 2.43  35 2.43 227 2.43 209 2.43  40 2.43 204 2.43
                            85 2.44 115 2.47  53 2.47 193 2.49
  79  0.816  0.875  0.655- 136 2.41 225 2.41 217 2.42 240 2.43 122 2.43 209 2.43 227 2.43 196 2.43
                            89 2.44 141 2.45  54 2.47 180 2.49
  80  0.812  0.372  0.434- 232 2.42 131 2.42 251 2.43 218 2.44  21 2.44 257 2.44 158 2.44 199 2.44
                           269 2.45  84 2.45 123 2.47  13 2.50
  81  0.809  0.537  0.256- 130 2.39 261 2.40 220 2.42 127 2.43  58 2.43  52 2.43  28 2.43 168 2.44
                           118 2.44 213 2.44 175 2.46 178 2.49
  82  0.692  0.462  0.833- 231 2.34 191 2.36  64 2.39   6 2.42  66 2.42 143 2.43  74 2.43  57 2.43
                            36 2.44 241 2.44 253 2.45 106 2.50
  83  0.186  0.788  0.124- 277 2.31   1 2.37 256 2.38  60 2.38  20 2.41 170 2.42  44 2.45 176 2.48
                            91 2.49
  84  0.691  0.287  0.389- 207 2.40  48 2.42 279 2.43  13 2.43  16 2.43   4 2.43 123 2.43 222 2.43
                            80 2.45 219 2.48 257 2.48 251 2.50
  85  0.316  0.374  0.655- 115 2.40  41 2.41 121 2.43 193 2.43 198 2.43 204 2.43  78 2.44 153 2.44
                            40 2.44  63 2.46  61 2.46 246 2.48
  86  0.309  0.203  0.345- 215 2.39 248 2.40 165 2.42 206 2.43 219 2.43 172 2.43 116 2.43  47 2.43
                           258 2.44 242 2.47   4 2.48 159 2.48
  87  0.816  0.540  0.744- 132 2.40 152 2.42 187 2.42  19 2.43 211 2.43  46 2.43  57 2.44 270 2.44
                            43 2.44 141 2.45  76 2.47  66 2.48
  88  0.692  0.962  0.834-  14 2.33  29 2.36 161 2.38 253 2.41 110 2.42 241 2.43 188 2.43  17 2.44
                           143 2.44  55 2.45   6 2.46  33 2.51
  89  0.566  0.874  0.655- 180 2.41 260 2.41   2 2.43  54 2.43  40 2.43 204 2.43 227 2.43  79 2.44
                           209 2.44 133 2.46  96 2.47  38 2.48
  90  0.311  0.707  0.565- 144 2.42 276 2.42  59 2.42  68 2.43 162 2.43  70 2.43  56 2.43 252 2.44
                           186 2.44  96 2.46  15 2.49  41 2.49
  91  0.312  0.530  0.124- 174 2.33 108 2.37 117 2.37 111 2.39  20 2.40 176 2.43 283 2.43 170 2.47
                            83 2.49
  92  0.691  0.955  0.212-  24 2.40 103 2.41 167 2.42 229 2.42 166 2.43 118 2.43 212 2.43 288 2.44
                           221 2.44 102 2.45 213 2.45 192 2.54
  93  0.311  0.206  0.565-  56 2.42 183 2.43  62 2.43 162 2.43 140 2.43  59 2.43 119 2.43  70 2.44
                             8 2.44 115 2.47 148 2.49  61 2.49
  94  0.188  0.956  0.479- 140 2.38 144 2.38  27 2.39  99 2.43 230 2.43 105 2.43 223 2.43 157 2.43
                           160 2.43  23 2.43 236 2.43 285 2.44
  95  0.687  0.957  0.566-  34 2.42 129 2.43 271 2.43  32 2.43 186 2.43   8 2.43  10 2.43  77 2.44
                            56 2.44 217 2.46 180 2.49 260 2.49
  96  0.434  0.788  0.611-   2 2.41  40 2.41 128 2.43  41 2.43  15 2.43 180 2.43 148 2.44 260 2.44
                            90 2.46  89 2.47 186 2.49  56 2.50
  97  0.682  0.612  0.166- 283 2.32 205 2.38 163 2.39 284 2.39  30 2.42 104 2.44 174 2.44 192 2.44
                           102 2.44 261 2.44 288 2.47 213 2.54
  98  0.319  0.874  0.300- 172 2.40 137 2.40 214 2.42 215 2.43 179 2.43 159 2.43 263 2.43 210 2.43
                           101 2.45 208 2.48 258 2.49 200 2.51
  99  0.312  0.706  0.479- 144 2.38 252 2.38  68 2.39  23 2.42  94 2.43 157 2.43 105 2.43 156 2.43
                           244 2.43 169 2.43 278 2.44 238 2.44
 100  0.934  0.288  0.611-  35 2.40 122 2.42 217 2.43 126 2.43 142 2.43  61 2.43 147 2.43  22 2.44
                           271 2.46 198 2.47  42 2.49  62 2.49
 101  0.446  0.623  0.300- 164 2.39  28 2.39 130 2.42 210 2.43 171 2.43 137 2.44 263 2.44 242 2.44
                            98 2.45 206 2.48 208 2.50 275 2.51
 102  0.807  0.863  0.167- 163 2.34  44 2.36 202 2.39 213 2.42  60 2.43  26 2.43 166 2.44 104 2.44
                           192 2.44  97 2.44  92 2.45 212 2.50
 103  0.566  0.203  0.211-  58 2.40  92 2.41 229 2.42 221 2.42 166 2.43 167 2.43 261 2.43 249 2.44
                            30 2.44 139 2.44 265 2.48 182 2.52
 104  0.933  0.613  0.167- 205 2.35 176 2.39  51 2.40  44 2.41 284 2.42  20 2.43 175 2.43 213 2.43
                            97 2.44 102 2.44  60 2.44 250 2.51
 105  0.437  0.956  0.479- 119 2.38  77 2.38 144 2.39 230 2.43  94 2.43  99 2.43 201 2.43 237 2.43
                           169 2.43  75 2.43  23 2.44  69 2.44
 106  0.559  0.373  0.789- 143 2.41  71 2.41  66 2.42  74 2.43 138 2.43 184 2.43 188 2.43  57 2.43
                            49 2.43 270 2.46  19 2.48  82 2.50
 107  0.062  0.372  0.521- 269 2.38 223 2.38 244 2.39  62 2.42  68 2.43 177 2.43 203 2.43 183 2.43
                            42 2.44 286 2.44 140 2.44  59 2.44
 108  0.307  0.364  0.167- 111 2.34 117 2.37  91 2.37 249 2.42  30 2.42 174 2.42  20 2.43 189 2.43
                           125 2.44  51 2.45 182 2.45 139 2.51
 109  0.696  0.123  0.300- 207 2.38  24 2.40 171 2.43  72 2.43 135 2.43 210 2.43 220 2.44  58 2.44
                           159 2.44  25 2.47 219 2.49 221 2.52
 110  0.443  0.963  0.833- 161 2.34 245 2.38 150 2.38  49 2.41  88 2.42 241 2.42 143 2.42   5 2.43
                            33 2.43  39 2.43   7 2.44 224 2.52
 111  0.185  0.287  0.124- 108 2.34 176 2.37  51 2.38  91 2.39 125 2.40 117 2.43 155 2.44   1 2.47
                           256 2.49
 112  0.184  0.288  0.256- 226 2.39 168 2.42 265 2.42 275 2.42  50 2.43 215 2.43 127 2.43 185 2.44
                           179 2.44 189 2.45 249 2.49 242 2.50
 113  0.313  0.371  0.434- 251 2.42 238 2.42 230 2.43 201 2.43 278 2.43 218 2.43 156 2.43 160 2.44
                           244 2.44 248 2.47  67 2.49   4 2.49
 114  0.563  0.032  0.124- 166 2.34 163 2.38 192 2.38 182 2.38 170 2.41 202 2.44 256 2.44 145 2.46
                           117 2.48
 115  0.434  0.288  0.611-  85 2.40 204 2.41 147 2.43 128 2.43  41 2.43 260 2.43 148 2.43  61 2.43
                            78 2.47  93 2.47  70 2.49   8 2.49
 116  0.184  0.453  0.345- 226 2.40 273 2.40 248 2.42 208 2.43  47 2.43 216 2.43 206 2.43  86 2.43
                            12 2.43  67 2.47 263 2.47 242 2.51
 117  0.434  0.286  0.124-  30 2.34 108 2.37  91 2.37 283 2.39 182 2.41 111 2.43 145 2.45 256 2.47
                           114 2.48
 118  0.683  0.788  0.256- 288 2.38 210 2.40 221 2.42 130 2.43  92 2.43  28 2.43 137 2.43  52 2.43
                            24 2.44  81 2.44 213 2.48  72 2.51
 119  0.437  0.122  0.521- 105 2.38 230 2.38 237 2.39  56 2.42  77 2.43  34 2.43 140 2.43 247 2.43
                           183 2.43  93 2.43 144 2.43   8 2.44
 120  0.189  0.297  0.876- 259 2.34 181 2.38  18 2.39 266 2.39  39 2.40 255 2.41 280 2.47 245 2.47
                           282 2.48
 121  0.191  0.125  0.655- 148 2.40  61 2.42  63 2.42 198 2.43  85 2.43   2 2.43 204 2.43 196 2.43
                           122 2.43 173 2.45  37 2.48 142 2.49
 122  0.941  0.125  0.655- 142 2.41 100 2.42  37 2.42 198 2.42  35 2.43 209 2.43  79 2.43 121 2.43
                           196 2.44 225 2.45 217 2.47 233 2.48
 123  0.816  0.538  0.389-  12 2.40  73 2.42 222 2.43  45 2.43  84 2.43 190 2.43  13 2.44 273 2.44
                           131 2.46  80 2.47  48 2.47 232 2.49
 124  0.066  0.038  0.389- 258 2.41 279 2.41  13 2.42  47 2.42 248 2.43 165 2.43 190 2.44 287 2.44
                           160 2.44 285 2.47 194 2.49 158 2.50
 125  0.183  0.112  0.166-   1 2.34 256 2.38 277 2.40 111 2.40  60 2.42 146 2.43 182 2.43  50 2.43
                           108 2.44  26 2.45  51 2.47 249 2.51
 126  0.059  0.538  0.611- 240 2.40 198 2.42  22 2.43  61 2.43 100 2.43 136 2.43  15 2.43  41 2.44
                            42 2.46 276 2.48 153 2.48  59 2.49
 127  0.934  0.288  0.256- 220 2.39 167 2.42  81 2.43  24 2.43 168 2.43 112 2.43 135 2.43  58 2.43
                           175 2.43 185 2.44  50 2.49 226 2.50
 128  0.559  0.538  0.611-  40 2.40  78 2.41  96 2.43 115 2.43 180 2.43  41 2.43 147 2.43  22 2.43
                            70 2.46 227 2.48 186 2.49 228 2.49
 129  0.937  0.957  0.566- 286 2.42  95 2.43 162 2.43  62 2.43 271 2.43  27 2.44  10 2.44  32 2.44
                           276 2.45 142 2.46 217 2.49 136 2.49
 130  0.695  0.624  0.300-  81 2.39  73 2.39 101 2.42 118 2.43 178 2.43 210 2.43  72 2.43 220 2.43
                           171 2.45  48 2.48 164 2.50  28 2.51
 131  0.937  0.620  0.434- 269 2.42 232 2.42 218 2.42  80 2.42 238 2.43 157 2.44 234 2.44 235 2.44
                           285 2.44 123 2.46 190 2.49 273 2.50
 132  0.933  0.624  0.788-  87 2.40  46 2.42  55 2.42  57 2.42 254 2.43  66 2.44 197 2.44 272 2.44
                           253 2.44  36 2.45 211 2.46 134 2.55
 133  0.560  0.707  0.700-  40 2.42 193 2.43  76 2.43 141 2.43 154 2.43  54 2.43  38 2.43  31 2.43
                           270 2.44  89 2.46 227 2.47  43 2.48
 134  0.066  0.717  0.834- 268 2.34 281 2.35 266 2.40  17 2.41   7 2.41 253 2.42 197 2.44  36 2.44
                             5 2.45 181 2.46 272 2.48 132 2.55
 135  0.945  0.123  0.300- 185 2.40  47 2.40  72 2.42 215 2.43 109 2.43 214 2.43 127 2.43 226 2.44
                           220 2.44 194 2.48  24 2.49 207 2.51
 136  0.934  0.788  0.611- 240 2.41  79 2.41  22 2.43 126 2.43 180 2.43  15 2.43 142 2.43 217 2.43
                            32 2.47 196 2.47 276 2.49 129 2.49
 137  0.433  0.787  0.256-  65 2.39  98 2.40 229 2.42 200 2.42 179 2.43 275 2.43  28 2.43 118 2.43
                           101 2.44 221 2.44 288 2.45 210 2.51
 138  0.309  0.374  0.789-  11 2.41 184 2.42 272 2.42 106 2.43  39 2.43 254 2.43 181 2.43   3 2.44
                            49 2.44 243 2.45  71 2.47  74 2.50
 139  0.440  0.453  0.211-  28 2.41 261 2.42  30 2.42 249 2.43 174 2.43  65 2.43 288 2.44 189 2.44
                           265 2.44 103 2.44 275 2.48 108 2.51
 140  0.187  0.122  0.521-  94 2.38 223 2.38 230 2.39 162 2.42  62 2.43  93 2.43 144 2.43 119 2.43
                           286 2.43 183 2.43  27 2.43 107 2.44
 141  0.810  0.708  0.700- 227 2.42  43 2.42  54 2.43 133 2.43 152 2.43  76 2.43 225 2.44 274 2.44
                            87 2.45  79 2.45  46 2.48 240 2.49
 142  0.059  0.038  0.611- 122 2.41 196 2.41 217 2.43 100 2.43  15 2.43 148 2.43 136 2.43  61 2.44
                           129 2.46 162 2.48 121 2.49  62 2.49
 143  0.566  0.214  0.833- 191 2.36 106 2.41 161 2.42 255 2.42  74 2.42  39 2.42 110 2.42  82 2.43
                           188 2.43  88 2.44   6 2.45  49 2.49
 144  0.311  0.872  0.521-  99 2.38  94 2.38 105 2.39  90 2.42  27 2.43 252 2.43 140 2.43  68 2.43
                            56 2.43 119 2.43 162 2.44  77 2.44
 145  0.686  0.287  0.124- 284 2.31 283 2.37  30 2.39 205 2.39 155 2.41 166 2.41 117 2.45 114 2.46
                           202 2.48
 146  0.190  0.955  0.212- 179 2.40 249 2.42  50 2.42 200 2.43 125 2.43 212 2.43 250 2.44 229 2.44
                            65 2.44 185 2.45 277 2.46  60 2.52
 147  0.684  0.288  0.611-  78 2.40 209 2.41 260 2.43 115 2.43 217 2.43 128 2.43 100 2.43  22 2.43
                             8 2.46  35 2.47 271 2.49 228 2.50
 148  0.309  0.038  0.611- 121 2.40   2 2.42 142 2.43  61 2.43 115 2.43  96 2.44 260 2.44  15 2.44
                           204 2.46 162 2.47  93 2.49  56 2.50
 149  0.934  0.124  0.789- 151 2.41   3 2.43 187 2.43 197 2.43 254 2.43  57 2.44  55 2.44   6 2.44
                            17 2.44 188 2.45   9 2.47 259 2.54
 150  0.436  0.798  0.876-   5 2.36 245 2.37 110 2.38 161 2.38  29 2.41 241 2.42 268 2.42  18 2.47
                            64 2.49
 151  0.816  0.041  0.744- 149 2.41 225 2.42 187 2.43 267 2.43  43 2.43  46 2.43   9 2.43  19 2.43
                            55 2.44 233 2.44  54 2.47 188 2.48
 152  0.935  0.458  0.700-  87 2.42  35 2.42 274 2.43 141 2.43  37 2.43 246 2.43 233 2.43  76 2.44
                           240 2.46 187 2.46 211 2.48 198 2.48
 153  0.191  0.625  0.655-  41 2.41 154 2.42  15 2.42 196 2.43 240 2.43  40 2.43   2 2.43  85 2.44
                           198 2.44 246 2.45 274 2.47 126 2.48
 154  0.310  0.707  0.700- 153 2.42 246 2.42 193 2.43 274 2.43 133 2.43 262 2.43  38 2.44 243 2.44
                           173 2.44   2 2.46  31 2.48  40 2.48
 155  0.934  0.287  0.124-  51 2.34 284 2.36 205 2.36 176 2.40 145 2.41  26 2.41 111 2.44 202 2.45
                             1 2.50
 156  0.437  0.456  0.479- 252 2.38 247 2.38 183 2.39 278 2.43 169 2.43 199 2.43 244 2.43  99 2.43
                           237 2.43 230 2.43 113 2.43 251 2.44
 157  0.062  0.706  0.479-  27 2.38  68 2.39 203 2.39 236 2.43  99 2.43 285 2.43  94 2.43 234 2.43
                           269 2.43 244 2.43 131 2.44 238 2.44
 158  0.937  0.120  0.434- 285 2.42 236 2.42 257 2.42 235 2.42 160 2.43  21 2.44 223 2.44  80 2.44
                           218 2.45 279 2.45  13 2.49 124 2.50
 159  0.445  0.123  0.300- 219 2.38 221 2.42 242 2.42 171 2.42 215 2.43 210 2.43  98 2.43 109 2.44
                           265 2.44 172 2.47  86 2.48 179 2.51
 160  0.187  0.120  0.434- 285 2.42  23 2.43 201 2.43  94 2.43 158 2.43 113 2.44 218 2.44 124 2.44
                           223 2.45 230 2.45 248 2.48 165 2.50
 161  0.563  0.041  0.876- 110 2.34  29 2.36  88 2.38 150 2.38 143 2.42 245 2.42  14 2.43 191 2.48
                           255 2.49
 162  0.186  0.957  0.566- 140 2.42  93 2.43 129 2.43  62 2.43  56 2.43  90 2.43 276 2.44  27 2.44
                           144 2.44 148 2.47 142 2.48  15 2.49
 163  0.685  0.788  0.124- 102 2.34 192 2.35 114 2.38  97 2.39 202 2.41 170 2.43  44 2.43 283 2.48
                           205 2.50
 164  0.559  0.702  0.345- 101 2.39 264 2.40 222 2.42  25 2.42  73 2.43  48 2.43 206 2.43 208 2.43
                           172 2.43  45 2.47 210 2.48 130 2.50
 165  0.316  0.037  0.389- 172 2.39 287 2.42  86 2.42 264 2.43 124 2.43  16 2.43 248 2.43   4 2.44
                           258 2.47 201 2.47  23 2.49 160 2.50
 166  0.682  0.114  0.167- 114 2.34 202 2.41 145 2.41  26 2.42 182 2.43 103 2.43  92 2.43 284 2.43
                           102 2.44 192 2.44  30 2.45 167 2.50
 167  0.816  0.203  0.211-  26 2.41 127 2.42  92 2.42 212 2.42  50 2.43 103 2.43 175 2.44  24 2.45
                           261 2.45 284 2.46  58 2.48 166 2.50
 168  0.059  0.537  0.256- 175 2.39 178 2.40 112 2.42 275 2.42 226 2.42 127 2.43 200 2.43  81 2.44
                           250 2.44  52 2.44 189 2.47 263 2.51
 169  0.562  0.706  0.479- 195 2.38  77 2.38 252 2.38 156 2.43 199 2.43 234 2.43  69 2.43 105 2.43
                            75 2.43  99 2.43 232 2.44 278 2.45
 170  0.435  0.787  0.124- 192 2.33 277 2.36 256 2.38 174 2.39 114 2.41  83 2.42 163 2.43  91 2.47
                           283 2.50
 171  0.570  0.372  0.300-  58 2.39  48 2.39 159 2.42 242 2.43 109 2.43 101 2.43 220 2.43  28 2.45
                           130 2.45 219 2.46 206 2.51 265 2.51
 172  0.434  0.953  0.345- 165 2.39  98 2.40 264 2.42  25 2.42  86 2.43 258 2.43 219 2.43 164 2.43
                           208 2.44 159 2.47  16 2.47 210 2.50
 173  0.185  0.958  0.700-   9 2.42 196 2.43 225 2.43 274 2.43  63 2.43  38 2.43  37 2.43 154 2.44
                           262 2.45 121 2.45 239 2.47   2 2.48
 174  0.432  0.613  0.166-  91 2.33 283 2.37 170 2.39  30 2.41 108 2.42  20 2.43 192 2.43 139 2.43
                            97 2.44 277 2.45  65 2.45 288 2.55
 175  0.940  0.455  0.212- 168 2.39 213 2.42 104 2.43 189 2.43 250 2.43 127 2.43 167 2.44  51 2.44
                            50 2.44 261 2.44  81 2.46 284 2.56
 176  0.062  0.530  0.124-  20 2.35  51 2.37 111 2.37 104 2.39 155 2.40 205 2.42  91 2.43  83 2.48
                            44 2.50
 177  0.812  0.372  0.521-  21 2.38 199 2.38 269 2.39 271 2.42 107 2.43 203 2.43 195 2.43 228 2.43
                           286 2.43  42 2.43  34 2.43 247 2.43
 178  0.945  0.624  0.300- 168 2.40 216 2.40  52 2.42  72 2.42 226 2.43 214 2.43 220 2.43 130 2.43
                           263 2.44  12 2.49  81 2.49  73 2.51
 179  0.309  0.037  0.256- 215 2.39 146 2.40 137 2.43  98 2.43 185 2.43 265 2.43 200 2.43 112 2.44
                           221 2.44 249 2.44 229 2.46 159 2.51
 180  0.684  0.788  0.611-  89 2.41 227 2.43 136 2.43 128 2.43 260 2.43  22 2.43  96 2.43 217 2.43
                           186 2.45  32 2.48  95 2.49  79 2.49
 181  0.192  0.463  0.834-  18 2.34 266 2.37 120 2.38 259 2.42  36 2.43 272 2.43 138 2.43  39 2.44
                            74 2.44   5 2.44 134 2.46 254 2.52
 182  0.433  0.112  0.167- 256 2.35 114 2.38 117 2.41 192 2.42 166 2.43 277 2.43 125 2.43 229 2.43
                           249 2.44  30 2.44 108 2.45 103 2.52
 183  0.312  0.372  0.521- 230 2.38 244 2.38 156 2.39  93 2.43  68 2.43 247 2.43 252 2.43 140 2.43
                            59 2.43 107 2.43 119 2.43  70 2.44
 184  0.433  0.623  0.789-   5 2.41  74 2.41 243 2.42 138 2.42 272 2.42 224 2.42  66 2.43 106 2.43
                            33 2.44  31 2.46 270 2.49 241 2.50
 185  0.059  0.037  0.256- 135 2.40 212 2.41  24 2.43 200 2.43 179 2.43  52 2.43 214 2.44 127 2.44
                           112 2.44  50 2.45 146 2.45 215 2.51
 186  0.562  0.707  0.566-  32 2.42  77 2.43 228 2.43  95 2.43  70 2.44  56 2.44 195 2.44  90 2.44
                           252 2.45 180 2.45  96 2.49 128 2.49
 187  0.940  0.291  0.744- 254 2.40  87 2.42 151 2.43  19 2.43 149 2.43  37 2.43 211 2.44   9 2.44
                            11 2.44  57 2.46 152 2.46 233 2.47
 188  0.682  0.123  0.789- 267 2.39  49 2.41  33 2.42 143 2.43 106 2.43  55 2.43  88 2.43 149 2.45
                            19 2.45  57 2.46 151 2.48   6 2.54
 189  0.190  0.454  0.211- 275 2.41  20 2.41 250 2.42 175 2.43 108 2.43  50 2.43  65 2.43 139 2.44
                           249 2.44 112 2.45 168 2.47  51 2.51
 190  0.941  0.788  0.389- 216 2.40 194 2.42 273 2.43  45 2.43 123 2.43 279 2.43 124 2.44 287 2.45
                           285 2.47  73 2.47 131 2.49 235 2.50
 191  0.686  0.299  0.876- 143 2.36  64 2.36  82 2.36 231 2.38   6 2.41 255 2.42 280 2.42 161 2.48
                            14 2.50
 192  0.556  0.863  0.166- 170 2.33 163 2.35 114 2.38 182 2.42 174 2.43 277 2.44  97 2.44 102 2.44
                           166 2.44 288 2.45 229 2.46  92 2.54
 193  0.435  0.458  0.700- 243 2.42 154 2.43 133 2.43  76 2.43  85 2.43 246 2.43  53 2.43  63 2.43
                            71 2.44  40 2.46 270 2.46  78 2.49
 194  0.934  0.951  0.345-  72 2.38 279 2.40 190 2.42  73 2.42 216 2.42 258 2.43 207 2.44  25 2.44
                            47 2.44 135 2.48 124 2.49 214 2.50
 195  0.687  0.621  0.521- 199 2.38 169 2.38 234 2.39 228 2.42 247 2.43 177 2.43 203 2.43 252 2.43
                            10 2.43  32 2.43  77 2.44 186 2.44
 196  0.066  0.874  0.655-  15 2.40 142 2.41 240 2.43 153 2.43 173 2.43  79 2.43 121 2.43   2 2.43
                           122 2.44 274 2.46 136 2.47 225 2.49
 197  0.059  0.874  0.788-  46 2.40   3 2.42 149 2.43  55 2.43   9 2.43 132 2.44 134 2.44 224 2.44
                           272 2.45 262 2.45  17 2.46   7 2.52
 198  0.066  0.374  0.655-  61 2.40 126 2.42 122 2.42 121 2.43 246 2.43  35 2.43  85 2.43 153 2.44
                           240 2.44  37 2.45 100 2.47 152 2.48
 199  0.687  0.456  0.479- 195 2.38 177 2.38 247 2.39 232 2.43 169 2.43 156 2.43 234 2.43  21 2.43
                           237 2.43 269 2.43 251 2.44  80 2.44
 200  0.184  0.787  0.255- 214 2.40 250 2.40 137 2.42 146 2.43 185 2.43 179 2.43 168 2.43 275 2.43
                            52 2.43 263 2.44  65 2.46  98 2.51
 201  0.437  0.121  0.434- 113 2.43  69 2.43 160 2.43 105 2.43  23 2.43 251 2.43 257 2.44 230 2.44
                           237 2.44 165 2.47   4 2.48  16 2.50
 202  0.814  0.031  0.124-  26 2.34  44 2.36 102 2.39 163 2.41 166 2.41   1 2.42 114 2.44 155 2.45
                           145 2.48
 203  0.937  0.622  0.521- 234 2.38 269 2.38 157 2.39  42 2.43 177 2.43 107 2.43  10 2.43  27 2.43
                           195 2.43  68 2.43  32 2.44 276 2.44
 204  0.441  0.124  0.655- 260 2.39 115 2.41   2 2.43  89 2.43 209 2.43  53 2.43  85 2.43 121 2.43
                            78 2.43  38 2.46 148 2.46  63 2.49
 205  0.813  0.530  0.124- 284 2.34 104 2.35 155 2.36  97 2.38 145 2.39 176 2.42 283 2.44  44 2.47
                           163 2.50
 206  0.434  0.453  0.345-  67 2.40 242 2.40   4 2.42 208 2.43  86 2.43  48 2.43 219 2.43 116 2.43
                           164 2.43 222 2.47 101 2.48 171 2.51
 207  0.809  0.202  0.345- 109 2.38  84 2.40 279 2.42  12 2.43 219 2.43  48 2.43  47 2.43  25 2.44
                           194 2.44  13 2.47 220 2.48 135 2.51
 208  0.309  0.702  0.345- 263 2.39 287 2.39  67 2.42 206 2.43 116 2.43 216 2.43 258 2.43 164 2.43
                           172 2.44 264 2.48  98 2.48 101 2.50
 209  0.691  0.125  0.655- 217 2.40 147 2.41 122 2.43 204 2.43  78 2.43  35 2.43 233 2.43  79 2.43
                            89 2.44  54 2.46 260 2.46  53 2.49
 210  0.569  0.874  0.300-  25 2.38 118 2.40 101 2.43 159 2.43 109 2.43 130 2.43  98 2.43 221 2.44
                            72 2.45 164 2.48 172 2.50 137 2.51
 211  0.066  0.541  0.744- 272 2.40 246 2.42 243 2.43  87 2.43 254 2.43  11 2.43  46 2.43 262 2.43
                           187 2.44 274 2.45 132 2.46 152 2.48
 212  0.941  0.954  0.211- 185 2.41  26 2.41 167 2.42  60 2.42  50 2.43 146 2.43  92 2.43 213 2.43
                            52 2.44 250 2.45  24 2.48 102 2.50
 213  0.817  0.703  0.211-  52 2.40 175 2.42 102 2.42 212 2.43 104 2.43 250 2.43 261 2.44 288 2.44
                            81 2.44  92 2.45 118 2.48  97 2.54
 214  0.071  0.873  0.300- 258 2.39 200 2.40  98 2.42 178 2.43  72 2.43 135 2.43 263 2.43 215 2.43
                           185 2.44 216 2.48 194 2.50  52 2.51
 215  0.195  0.124  0.300-  86 2.39 179 2.39  98 2.43 159 2.43 112 2.43 242 2.43 135 2.43 214 2.43
                           226 2.44 258 2.48  47 2.51 185 2.51
 216  0.059  0.702  0.345- 190 2.40 178 2.40 194 2.42 273 2.42 116 2.43 258 2.43  73 2.43  12 2.43
                           208 2.43 287 2.48 214 2.48 263 2.50
 217  0.809  0.038  0.611- 209 2.40  79 2.42 100 2.43 142 2.43 260 2.43 147 2.43 180 2.43 136 2.43
                            95 2.46 122 2.47 129 2.49 271 2.50
 218  0.063  0.372  0.434- 238 2.41 131 2.42 113 2.43 223 2.44 269 2.44  80 2.44 244 2.44 160 2.44
                           158 2.45  13 2.47 273 2.47 248 2.50
 219  0.559  0.203  0.345- 159 2.38   4 2.41  86 2.43  48 2.43 207 2.43  25 2.43 206 2.43  16 2.43
                           172 2.43 171 2.46  84 2.48 109 2.49
 220  0.820  0.374  0.300-  12 2.39 127 2.39  81 2.42 226 2.42 178 2.43 130 2.43 171 2.43 109 2.44
                           135 2.44 207 2.48  58 2.50  48 2.50
 221  0.560  0.037  0.255- 229 2.38 118 2.42 159 2.42 103 2.42  58 2.43  24 2.43 210 2.44 137 2.44
                            92 2.44 179 2.44 265 2.44 109 2.52
 222  0.566  0.538  0.389-  48 2.40 164 2.42 123 2.43   4 2.43 264 2.43  84 2.43  45 2.43  67 2.44
                           232 2.46 206 2.47 251 2.47 278 2.50
 223  0.063  0.206  0.479- 140 2.38 107 2.38 286 2.39 244 2.43 269 2.43 230 2.43  94 2.43  21 2.44
                           218 2.44 236 2.44 158 2.44 160 2.45
 224  0.310  0.873  0.788- 262 2.40   5 2.42  33 2.42 184 2.42  49 2.42   3 2.44 272 2.44 197 2.44
                            31 2.44 239 2.45   7 2.46 110 2.52
 225  0.935  0.958  0.700-  79 2.41 151 2.42 233 2.43 173 2.43  54 2.43  37 2.43 141 2.44 274 2.44
                           122 2.45  46 2.46   9 2.48 196 2.49
 226  0.070  0.374  0.300- 112 2.39 116 2.40 168 2.42 220 2.42 263 2.43 178 2.43 135 2.44 215 2.44
                           242 2.44  47 2.49 127 2.50  12 2.50
 227  0.691  0.625  0.655-  22 2.40 141 2.42 180 2.43  89 2.43  78 2.43  40 2.43  79 2.43  35 2.43
                           240 2.43  76 2.45 133 2.47 128 2.48
 228  0.687  0.457  0.565- 195 2.42  32 2.42  42 2.43 186 2.43 271 2.43   8 2.43 247 2.43 177 2.43
                            70 2.43  22 2.47 128 2.49 147 2.50
 229  0.441  0.955  0.212- 221 2.38 103 2.42 137 2.42  92 2.42 249 2.42 182 2.43 288 2.44 146 2.44
                            65 2.44 192 2.46 179 2.46 277 2.57
 230  0.313  0.206  0.479- 183 2.38 119 2.38 140 2.39 237 2.43 113 2.43 105 2.43  94 2.43 223 2.43
                           244 2.43 156 2.43 201 2.44 160 2.45
 231  0.812  0.540  0.876-  82 2.34 280 2.37  36 2.37 191 2.38 253 2.41  64 2.43 266 2.44 281 2.47
                            29 2.50
 232  0.688  0.621  0.434-  80 2.42 131 2.42 199 2.43 235 2.43 251 2.44 234 2.44  69 2.44 169 2.44
                           278 2.45 222 2.46  45 2.48 123 2.49
 233  0.811  0.208  0.700-  19 2.42 225 2.43  37 2.43 209 2.43 152 2.43  53 2.43  54 2.44  76 2.44
                           151 2.44  35 2.46 187 2.47 122 2.48
 234  0.812  0.706  0.479-  10 2.38 203 2.38 195 2.39 236 2.43  75 2.43 169 2.43 199 2.43 157 2.43
                           235 2.43 269 2.43 232 2.44 131 2.44
 235  0.812  0.871  0.434- 257 2.41 158 2.42  69 2.42 232 2.43 234 2.43 285 2.44  75 2.44 131 2.44
                           236 2.44  45 2.45 279 2.48 190 2.50
 236  0.937  0.955  0.479-  27 2.38 286 2.38  10 2.39 158 2.42 234 2.43 157 2.43  75 2.43  94 2.43
                           285 2.43  21 2.44 223 2.44 235 2.44
 237  0.562  0.206  0.479- 247 2.38  34 2.38 119 2.39 230 2.43 105 2.43  21 2.43 199 2.43 251 2.43
                           156 2.43  75 2.43 201 2.44 257 2.45
 238  0.188  0.620  0.434- 218 2.41 278 2.42 244 2.42 113 2.42 131 2.43  23 2.44 157 2.44  99 2.44
                           273 2.45 285 2.45  67 2.49 287 2.50
 239  0.315  0.042  0.744-  38 2.42  11 2.42  49 2.42   9 2.42  31 2.43  71 2.43  63 2.43 262 2.43
                           267 2.44 224 2.45 173 2.47   3 2.47
 240  0.941  0.625  0.655- 126 2.40 136 2.41 274 2.42 196 2.43  79 2.43 153 2.43 227 2.43  35 2.44
                           198 2.44 152 2.46  22 2.47 141 2.49
 241  0.566  0.713  0.833-  29 2.35  64 2.41   5 2.41 150 2.42  33 2.42 110 2.42  88 2.43  74 2.43
                            66 2.43 253 2.44  82 2.44 184 2.50
 242  0.320  0.373  0.300- 265 2.39 206 2.40 159 2.42 171 2.43 215 2.43 275 2.43 263 2.43 226 2.44
                           101 2.44  86 2.47 112 2.50 116 2.51
 243  0.315  0.541  0.744- 184 2.42 193 2.42 211 2.43  71 2.43  11 2.43  31 2.43 270 2.43 262 2.44
                           154 2.44 138 2.45 272 2.46 246 2.47
 244  0.187  0.456  0.479-  68 2.38 183 2.38 107 2.39 238 2.42 223 2.43 156 2.43 269 2.43  99 2.43
                           230 2.43 157 2.43 218 2.44 113 2.44
 245  0.314  0.041  0.876-   7 2.34 150 2.37 110 2.38  39 2.39 268 2.40 161 2.42 282 2.42 255 2.47
                           120 2.47
 246  0.185  0.458  0.700- 154 2.42 211 2.42 198 2.43 274 2.43  37 2.43 193 2.43 152 2.43  63 2.44
                           153 2.45  11 2.45 243 2.47  85 2.48
 247  0.562  0.372  0.521- 237 2.38 156 2.38 199 2.39   8 2.42 195 2.43 183 2.43 228 2.43 119 2.43
                            34 2.43 252 2.43 177 2.43  70 2.44
 248  0.191  0.287  0.389-  86 2.40 116 2.42 124 2.43  13 2.43 165 2.43   4 2.44 273 2.44  67 2.44
                            47 2.46 113 2.47 160 2.48 218 2.50
 249  0.316  0.203  0.211- 265 2.41 108 2.42 146 2.42 229 2.42 139 2.43 182 2.44  50 2.44 103 2.44
                           189 2.44 179 2.44 112 2.49 125 2.51
 250  0.067  0.703  0.211- 200 2.40 189 2.42  20 2.42  65 2.42  60 2.43 175 2.43 213 2.43 146 2.44
                           168 2.44 212 2.45  52 2.49 104 2.51
 251  0.562  0.371  0.434- 113 2.42  80 2.43 201 2.43 237 2.43 278 2.43 232 2.44 156 2.44 199 2.44
                           257 2.45   4 2.45 222 2.47  84 2.50
 252  0.437  0.622  0.521-  99 2.38 156 2.38 169 2.38  70 2.43 144 2.43  68 2.43 183 2.43 195 2.43
                           247 2.43  90 2.44  77 2.44 186 2.45
 253  0.817  0.715  0.833- 281 2.33  29 2.41  88 2.41 231 2.41 134 2.42  55 2.43  17 2.43  36 2.44
                           241 2.44 132 2.44  82 2.45  66 2.52
 254  0.059  0.375  0.788- 187 2.40 272 2.42 211 2.43  57 2.43 132 2.43 149 2.43 138 2.43   3 2.45
                            36 2.45 259 2.45  11 2.47 181 2.52
 255  0.437  0.298  0.876-  39 2.36  18 2.37  74 2.38  64 2.38 120 2.41 143 2.42 191 2.42 245 2.47
                           161 2.49
 256  0.312  0.030  0.124- 277 2.35 182 2.35 170 2.38  83 2.38 125 2.38   1 2.42 114 2.44 117 2.47
                           111 2.49
 257  0.688  0.120  0.434- 235 2.41  69 2.42 158 2.42  75 2.43 201 2.44  21 2.44  80 2.44 251 2.45
                           237 2.45  16 2.45  84 2.48 279 2.50
 258  0.184  0.952  0.345- 214 2.39 124 2.41 287 2.41 216 2.43 172 2.43 194 2.43 208 2.43  86 2.44
                            47 2.44 165 2.47 215 2.48  98 2.49
 259  0.067  0.215  0.834- 120 2.34 280 2.37 282 2.39 181 2.42   6 2.42  36 2.42  17 2.43  39 2.43
                             7 2.44 254 2.45   3 2.47 149 2.54
 260  0.559  0.039  0.611- 204 2.39  89 2.41 147 2.43 217 2.43 115 2.43 180 2.43 148 2.44  96 2.44
                           209 2.46  56 2.47   8 2.49  95 2.49
 261  0.689  0.455  0.212-  81 2.40 288 2.42 139 2.42  58 2.43 103 2.43 213 2.44 175 2.44  97 2.44
                           167 2.45  28 2.45 284 2.47  30 2.52
 262  0.190  0.792  0.744- 224 2.40   9 2.42  46 2.43  31 2.43 154 2.43 239 2.43 211 2.43 243 2.44
                           272 2.44 173 2.45 197 2.45 274 2.48
 263  0.196  0.623  0.300- 208 2.39 275 2.39 226 2.43  98 2.43 242 2.43 214 2.43 101 2.44 178 2.44
                           200 2.44 116 2.47 216 2.50 168 2.51
 264  0.441  0.788  0.389- 164 2.40 287 2.41 172 2.42 165 2.43  67 2.43  16 2.43 222 2.43  45 2.44
                            69 2.46 278 2.48 208 2.48  23 2.50
 265  0.433  0.288  0.256- 242 2.39 249 2.41 112 2.42 275 2.42 179 2.43  28 2.43 139 2.44  58 2.44
                           159 2.44 221 2.44 103 2.48 171 2.51
 266  0.063  0.541  0.876-  36 2.32 181 2.37 120 2.39 280 2.40 134 2.40  18 2.43 231 2.44 281 2.47
                           268 2.48
 267  0.566  0.041  0.744- 188 2.39  54 2.42  43 2.43 151 2.43  19 2.43  31 2.43  71 2.44 239 2.44
                            33 2.44  53 2.44  49 2.47  38 2.48
 268  0.188  0.797  0.876- 134 2.34 282 2.36   7 2.37 245 2.40   5 2.41 150 2.42 281 2.44 266 2.48
                            18 2.48
 269  0.937  0.456  0.479- 107 2.38 203 2.38 177 2.39 131 2.42 223 2.43  21 2.43 244 2.43 157 2.43
                           199 2.43 234 2.43 218 2.44  80 2.45
 270  0.565  0.541  0.744-  66 2.41  76 2.41  19 2.43  71 2.43 243 2.43  43 2.43  87 2.44 133 2.44
                            31 2.44 106 2.46 193 2.46 184 2.49
 271  0.811  0.207  0.565-   8 2.42 177 2.42  95 2.43  42 2.43 228 2.43  34 2.43 129 2.43 286 2.44
                            62 2.44 100 2.46 147 2.49 217 2.50
 272  0.184  0.623  0.788- 211 2.40 254 2.42 138 2.42 184 2.42 181 2.43 224 2.44 132 2.44 262 2.44
                           197 2.45 243 2.46 134 2.48   5 2.52
 273  0.067  0.539  0.389- 116 2.40  67 2.42 216 2.42 190 2.43 287 2.43 248 2.44 123 2.44 238 2.45
                            13 2.45 218 2.47  12 2.49 131 2.50
 274  0.060  0.708  0.700- 240 2.42 154 2.43 246 2.43 152 2.43 173 2.43  46 2.44 141 2.44 225 2.44
                           211 2.45 196 2.46 153 2.47 262 2.48
 275  0.308  0.537  0.256- 263 2.39 189 2.41 168 2.42 265 2.42 112 2.42 242 2.43 137 2.43  28 2.43
                           200 2.43  65 2.43 139 2.48 101 2.51
 276  0.062  0.705  0.566-  59 2.42  90 2.42  42 2.43  27 2.43  68 2.43 162 2.44 203 2.44  32 2.45
                           129 2.45  15 2.45 126 2.48 136 2.49
 277  0.306  0.865  0.166-  83 2.31 256 2.35 170 2.36 125 2.40  60 2.42 182 2.43  20 2.43 192 2.44
                           174 2.45  65 2.46 146 2.46 229 2.57
 278  0.436  0.621  0.434- 238 2.42 156 2.43  23 2.43 113 2.43 251 2.43  69 2.44  99 2.44 169 2.45
                           232 2.45  67 2.46 264 2.48 222 2.50
 279  0.818  0.039  0.389- 194 2.40  13 2.40 124 2.41 207 2.42  84 2.43 190 2.43 158 2.45  16 2.45
                            45 2.45 235 2.48  25 2.50 257 2.50
 280  0.935  0.298  0.876-   6 2.31  36 2.35 231 2.37 259 2.37 266 2.40 191 2.42 120 2.47  14 2.47
                           282 2.52
 281  0.937  0.796  0.876- 253 2.33 134 2.35  17 2.36  14 2.39 282 2.40 268 2.44  29 2.46 231 2.47
                           266 2.47
 282  0.065  0.039  0.876-  17 2.32   7 2.35 268 2.36 259 2.39 281 2.40 245 2.42  14 2.46 120 2.48
                           280 2.52
 283  0.562  0.529  0.125-  97 2.32  30 2.35 145 2.37 174 2.37 117 2.39  91 2.43 205 2.44 163 2.48
                           170 2.50
 284  0.805  0.366  0.166- 145 2.31 205 2.34 155 2.36  97 2.39  30 2.42 104 2.42 166 2.43  51 2.44
                            26 2.45 167 2.46 261 2.47 175 2.56
 285  0.062  0.872  0.434- 158 2.42 160 2.42  23 2.43 157 2.43 236 2.43 235 2.44  94 2.44 131 2.44
                           238 2.45 190 2.47 124 2.47 287 2.52
 286  0.937  0.122  0.521-  21 2.38 236 2.38 223 2.39 129 2.42  62 2.43  34 2.43  10 2.43 140 2.43
                            27 2.43 177 2.43 271 2.44 107 2.44
 287  0.193  0.788  0.389- 208 2.39 258 2.41 264 2.41 165 2.42  67 2.42 273 2.43 124 2.44 190 2.45
                            23 2.46 216 2.48 238 2.50 285 2.52
 288  0.566  0.704  0.212- 118 2.38  28 2.41 261 2.42 139 2.44  65 2.44 213 2.44 229 2.44  92 2.44
                           192 2.45 137 2.45  97 2.47 174 2.55
 
  LATTYP: Found a simple orthorhombic cell.
 ALAT       =     8.4235502765
 B/A-ratio  =     1.1547005384
 C/A-ratio  =     5.3421655387
  
  Lattice vectors:
  
 A1 = (   0.0000000000,  -8.4235502765,   0.0000000000)
 A2 = (  -9.7266780393,   0.0000000000,   0.0000000000)
 A3 = (   0.0000000000,   0.0000000000, -45.0000000000)


Analysis of symmetry for initial positions (statically):
=====================================================================
 Subroutine PRICEL returns:
 Original cell was already a primitive cell.
 

 Routine SETGRP: Setting up the symmetry group for a 
 simple orthorhombic supercell.


 Subroutine GETGRP returns: Found  1 space group operations
 (whereof  1 operations were pure point group operations)
 out of a pool of  8 trial point group operations.


The static configuration has the point symmetry C_1 .


Analysis of symmetry for dynamics (positions and initial velocities):
=====================================================================
 Subroutine PRICEL returns:
 Original cell was already a primitive cell.
 

 Routine SETGRP: Setting up the symmetry group for a 
 simple orthorhombic supercell.


 Subroutine GETGRP returns: Found  1 space group operations
 (whereof  1 operations were pure point group operations)
 out of a pool of  8 trial point group operations.


The dynamic configuration has the point symmetry C_1 .


 Subroutine INISYM returns: Found  1 space group operations
 (whereof  1 operations are pure point group operations),
 and found     1 'primitive' translations

 
 
 KPOINTS: Automatic mesh                          

Automatic generation of k-mesh.
Space group operators:
 irot       det(A)        alpha          n_x          n_y          n_z        tau_x        tau_y        tau_z
    1     1.000000     0.000000     1.000000     0.000000     0.000000     0.000000     0.000000     0.000000
 
 Subroutine IBZKPT returns following result:
 ===========================================
 
 Found     10 irreducible k-points:
 
 Following reciprocal coordinates:
            Coordinates               Weight
  0.000000  0.000000  0.000000      1.000000
  0.250000  0.000000  0.000000      2.000000
  0.500000  0.000000  0.000000      1.000000
  0.000000  0.250000  0.000000      2.000000
  0.250000  0.250000  0.000000      2.000000
  0.500000  0.250000  0.000000      2.000000
 -0.250000  0.250000  0.000000      2.000000
  0.000000  0.500000  0.000000      1.000000
  0.250000  0.500000  0.000000      2.000000
  0.500000  0.500000  0.000000      1.000000
 
 Following cartesian coordinates:
            Coordinates               Weight
  0.000000  0.000000  0.000000      1.000000
  0.025703  0.000000  0.000000      2.000000
  0.051405  0.000000  0.000000      1.000000
  0.000000  0.029679  0.000000      2.000000
  0.025703  0.029679  0.000000      2.000000
  0.051405  0.029679  0.000000      2.000000
 -0.025703  0.029679  0.000000      2.000000
  0.000000  0.059357  0.000000      1.000000
  0.025703  0.059357  0.000000      2.000000
  0.051405  0.059357  0.000000      1.000000
 


--------------------------------------------------------------------------------------------------------




 Dimension of arrays:
   k-points           NKPTS =     10   k-points in BZ     NKDIM =     10   number of bands    NBANDS=   1386
   number of dos      NEDOS =    301   number of ions     NIONS =    288
   non local maximal  LDIM  =      7   non local SUM 2l+1 LMDIM =     25
   total plane-waves  NPLWV = ******
   max r-space proj   IRMAX =   5781   max aug-charges    IRDMAX=  13183
   dimension x,y,z NGX =    70 NGY =   60 NGZ =  320
   dimension x,y,z NGXF=   140 NGYF=  120 NGZF=  640
   support grid    NGXF=   140 NGYF=  120 NGZF=  640
   ions per type =             274  14
   NGX,Y,Z   is equivalent  to a cutoff of  11.96, 11.84, 11.82 a.u.
   NGXF,Y,Z  is equivalent  to a cutoff of  23.93, 23.68, 23.64 a.u.

 SYSTEM =  unknown system                          
 POSCAR =  CuInSe2gb                               

 Startparameter for this run:
   NWRITE =      2    write-flag & timer
   PREC   = accura    normal or accurate (medium, high low for compatibility)
   ISTART =      0    job   : 0-new  1-cont  2-samecut
   ICHARG =      2    charge: 1-file 2-atom 10-const
   ISPIN  =      1    spin polarized calculation?
   LNONCOLLINEAR =      F non collinear calculations
   LSORBIT =      F    spin-orbit coupling
   INIWAV =      1    electr: 0-lowe 1-rand  2-diag
   LASPH  =      F    aspherical Exc in radial PAW
   METAGGA=      F    non-selfconsistent MetaGGA calc.

 Electronic Relaxation 1
   ENCUT  =  450.0 eV  33.07 Ry    5.75 a.u.  16.82 14.57 77.84*2*pi/ulx,y,z
   ENINI  =  450.0     initial cutoff
   ENAUG  =  838.4 eV  augmentation charge cutoff
   NELM   =    100;   NELMIN=  4; NELMDL=  0     # of ELM steps 
   EDIFF  = 0.1E-05   stopping-criterion for ELM
   LREAL  =      T    real-space projection
   NLSPLINE    = F    spline interpolate recip. space projectors
   LCOMPAT=      F    compatible to vasp.4.4
   GGA_COMPAT  = T    GGA compatible to vasp.4.4-vasp.4.6
   LMAXPAW     = -100 max onsite density
   LMAXMIX     =    2 max onsite mixed and CHGCAR
   VOSKOWN=      0    Vosko Wilk Nusair interpolation
   ROPT   =   -0.00025  -0.00025
 Ionic relaxation
   EDIFFG = 0.1E-04   stopping-criterion for IOM
   NSW    =      5    number of steps for IOM
   NBLOCK =      1;   KBLOCK =      5    inner block; outer block 
   IBRION =      2    ionic relax: 0-MD 1-quasi-New 2-CG
   NFREE  =      1    steps in history (QN), initial steepest desc. (CG)
   ISIF   =      2    stress and relaxation
   IWAVPR =     11    prediction:  0-non 1-charg 2-wave 3-comb
   ISYM   =      2    0-nonsym 1-usesym 2-fastsym
   LCORR  =      T    Harris-Foulkes like correction to forces

   POTIM  = 0.2500    time-step for ionic-motion
   TEIN   =    0.0    initial temperature
   TEBEG  =    0.0;   TEEND  =   0.0 temperature during run
   SMASS  =  -3.00    Nose mass-parameter (am)
   estimated Nose-frequenzy (Omega)   =  0.10E-29 period in steps =****** mass=  -0.216E-26a.u.
   SCALEE = 1.0000    scale energy and forces
   NPACO  =    256;   APACO  = 16.0  distance and # of slots for P.C.
   PSTRESS=    0.0 pullay stress

  Mass of Ions in am
   POMASS =  55.85 54.94
  Ionic Valenz
   ZVAL   =   8.00  7.00
  Atomic Wigner-Seitz radii
   RWIGS  =  -1.00 -1.00
  virtual crystal weights 
   VCA    =   1.00  1.00
   NELECT =    2290.0000    total number of electrons
   NUPDOWN=      -1.0000    fix difference up-down

 DOS related values:
   EMIN   =  10.00;   EMAX   =-10.00  energy-range for DOS
   EFERMI =   0.00
   ISMEAR =     0;   SIGMA  =   0.15  broadening in eV -4-tet -1-fermi 0-gaus

 Electronic relaxation 2 (details)
   IALGO  =     68    algorithm
   LDIAG  =      T    sub-space diagonalisation (order eigenvalues)
   LSUBROT=      F    optimize rotation matrix (better conditioning)
   TURBO    =      0    0=normal 1=particle mesh
   IRESTART =      0    0=no restart 2=restart with 2 vectors
   NREBOOT  =      0    no. of reboots
   NMIN     =      0    reboot dimension
   EREF     =   0.00    reference energy to select bands
   IMIX   =      4    mixing-type and parameters
     AMIX     =   0.40;   BMIX     =  1.00
     AMIX_MAG =   1.60;   BMIX_MAG =  1.00
     AMIN     =   0.10
     WC   =   100.;   INIMIX=   1;  MIXPRE=   1;  MAXMIX= -45

 Intra band minimization:
   WEIMIN = 0.0010     energy-eigenvalue tresh-hold
   EBREAK =  0.18E-09  absolut break condition
   DEPER  =   0.30     relativ break condition  

   TIME   =   0.40     timestep for ELM

  volume/ion in A,a.u.               =      12.80        86.39
  Fermi-wavevector in a.u.,A,eV,Ry     =   1.396784  2.639539 26.545042  1.951006
  Thomas-Fermi vector in A             =   2.520104
 
 Write flags
   LWAVE        =      F    write WAVECAR
   LDOWNSAMPLE  =      F    k-point downsampling of WAVECAR
   LCHARG       =      F    write CHGCAR
   LVTOT        =      F    write LOCPOT, total local potential
   LVHAR        =      F    write LOCPOT, Hartree potential only
   LELF         =      F    write electronic localiz. function (ELF)
   LORBIT       =      0    0 simple, 1 ext, 2 COOP (PROOUT), +10 PAW based schemes


 Dipole corrections
   LMONO  =      F    monopole corrections only (constant potential shift)
   LDIPOL =      F    correct potential (dipole corrections)
   IDIPOL =      0    1-x, 2-y, 3-z, 4-all directions 
   EPSILON=  1.0000000 bulk dielectric constant

 Exchange correlation treatment:
   GGA     =    --    GGA type
   LEXCH   =     8    internal setting for exchange type
   VOSKOWN=      0    Vosko Wilk Nusair interpolation
   LHFCALC =     F    Hartree Fock is set to
   LHFONE  =     F    Hartree Fock one center treatment
   AEXX    =    0.0000 exact exchange contribution

 Linear response parameters
   LEPSILON=     F    determine dielectric tensor
   LRPA    =     F    only Hartree local field effects (RPA)
   LNABLA  =     F    use nabla operator in PAW spheres
   LVEL    =     F    velocity operator in full k-point grid
   LINTERFAST=   F  fast interpolation
   KINTER  =     0    interpolate to denser k-point grid
   CSHIFT  =0.1000    complex shift for real part using Kramers Kronig
   OMEGAMAX=  -1.0    maximum frequency
   DEG_THRESHOLD= 0.2000000E-02 threshold for treating states as degnerate
   RTIME   =   -0.100 relaxation time in fs
  (WPLASMAI=    0.000 imaginary part of plasma frequency in eV, 0.658/RTIME)
   DFIELD  = 0.0000000 0.0000000 0.0000000 field for delta impulse in time
 
 Orbital magnetization related:
   ORBITALMAG=     F  switch on orbital magnetization
   LCHIMAG   =     F  perturbation theory with respect to B field
   DQ        =  0.001000  dq finite difference perturbation B field
   LLRAUG    =     F  two centre corrections for induced B field



--------------------------------------------------------------------------------------------------------


 conjugate gradient relaxation of ions
 charge density and potential will be updated during run
 non-spin polarized calculation
 RMM-DIIS sequential band-by-band and
  variant of blocked Davidson during initial phase
 perform sub-space diagonalisation
    before iterative eigenvector-optimisation
 modified Broyden-mixing scheme, WC =      100.0
 initial mixing is a Kerker type mixing with AMIX =  0.4000 and BMIX =      1.0000
 Hartree-type preconditioning will be used
 using additional bands          241
 real space projection scheme for non local part
 use partial core corrections
 calculate Harris-corrections to forces 
   (improved forces if not selfconsistent)
 use gradient corrections 
 use of overlap-Matrix (Vanderbilt PP)
 Gauss-broadening in eV      SIGMA  =   0.15


--------------------------------------------------------------------------------------------------------


  energy-cutoff  :      450.00
  volume of cell :     3686.99
      direct lattice vectors                 reciprocal lattice vectors
     9.726678039  0.000000000  0.000000000     0.102810024  0.000000000  0.000000000
     0.000000000  8.423550276  0.000000000     0.000000000  0.118714790  0.000000000
     0.000000000  0.000000000 45.000000000     0.000000000  0.000000000  0.022222222

  length of vectors
     9.726678039  8.423550276 45.000000000     0.102810024  0.118714790  0.022222222


 
 k-points in units of 2pi/SCALE and weight: Automatic mesh                          
   0.00000000  0.00000000  0.00000000       0.062
   0.02570251  0.00000000  0.00000000       0.125
   0.05140501  0.00000000  0.00000000       0.062
   0.00000000  0.02967870  0.00000000       0.125
   0.02570251  0.02967870  0.00000000       0.125
   0.05140501  0.02967870  0.00000000       0.125
  -0.02570251  0.02967870  0.00000000       0.125
   0.00000000  0.05935739  0.00000000       0.062
   0.02570251  0.05935739  0.00000000       0.125
   0.05140501  0.05935739  0.00000000       0.062
 
 k-points in reciprocal lattice and weights: Automatic mesh                          
   0.00000000  0.00000000  0.00000000       0.062
   0.25000000  0.00000000  0.00000000       0.125
   0.50000000  0.00000000  0.00000000       0.062
   0.00000000  0.25000000  0.00000000       0.125
   0.25000000  0.25000000  0.00000000       0.125
   0.50000000  0.25000000  0.00000000       0.125
  -0.25000000  0.25000000  0.00000000       0.125
   0.00000000  0.50000000  0.00000000       0.062
   0.25000000  0.50000000  0.00000000       0.125
   0.50000000  0.50000000  0.00000000       0.062
 
 position of ions in fractional coordinates (direct lattice) 
   0.06264492  0.03034073  0.12416230
   0.31658137  0.87488228  0.65516657
   0.18392893  0.12304011  0.78857919
   0.44152647  0.28772358  0.38911122
   0.31819981  0.71392505  0.83322087
   0.81820446  0.21515968  0.83363155
   0.19158381  0.96364838  0.83359678
   0.56215155  0.20711567  0.56553351
   0.06582087  0.04058477  0.74426385
   0.81170917  0.87146923  0.52138206
   0.19088284  0.29106707  0.74440992
   0.93345215  0.45237587  0.34481596
   0.94121803  0.28662262  0.38890431
   0.81278825  0.04074477  0.87578252
   0.18375238  0.78778451  0.61088249
   0.56647536  0.03765680  0.38906782
   0.94244151  0.96498227  0.83391287
   0.31338165  0.54074737  0.87609142
   0.69032247  0.29130220  0.74423412
   0.18233989  0.61357006  0.16674352
   0.81221414  0.20578078  0.47868578
   0.80902580  0.53830159  0.61111695
   0.31203613  0.87074575  0.43451619
   0.80945964  0.03775908  0.25588768
   0.68297943  0.95216602  0.34474202
   0.93123852  0.11434569  0.16684387
   0.06171354  0.87130921  0.52141332
   0.55838099  0.53762827  0.25559918
   0.68438082  0.79771237  0.87593279
   0.55614387  0.36493728  0.16660450
   0.43958790  0.79195562  0.74440628
   0.81102907  0.70656899  0.56546046
   0.55926212  0.87349781  0.78860519
   0.68678975  0.12180000  0.52140953
   0.81622782  0.37473477  0.65500341
   0.94234503  0.46448252  0.83375700
   0.06018221  0.20818681  0.69967533
   0.43499092  0.95758761  0.69966284
   0.31711320  0.21293970  0.83348169
   0.44119189  0.62499461  0.65503793
   0.30892308  0.53804953  0.61101372
   0.93633238  0.45654146  0.56557719
   0.69014992  0.79155845  0.74431737
   0.93463330  0.78809354  0.12446364
   0.69164554  0.78769210  0.38906725
   0.94035888  0.79070529  0.74450288
   0.05886223  0.20290367  0.34498517
   0.68358760  0.45247843  0.34490716
   0.43431241  0.12269206  0.78886185
   0.06543382  0.20366993  0.21108088
   0.05549309  0.36533503  0.16667979
   0.93332305  0.78756989  0.25566520
   0.56028348  0.20739293  0.69984829
   0.68518126  0.95730910  0.69972114
   0.80907674  0.87352051  0.78835657
   0.43613008  0.95723048  0.56543080
   0.80902423  0.37482219  0.78850898
   0.68388202  0.28730108  0.25580198
   0.18745069  0.45694966  0.56552676
   0.05679899  0.86513936  0.16667936
   0.18391665  0.28856738  0.61107038
   0.06191387  0.20667704  0.56539162
   0.31028545  0.20745352  0.69983474
   0.56256369  0.54076553  0.87597261
   0.31556413  0.70375731  0.21159861
   0.68289510  0.62253871  0.78861497
   0.31592262  0.53833352  0.38893728
   0.18678162  0.62134576  0.52143107
   0.56247711  0.87107332  0.43439403
   0.43647992  0.45672199  0.56554040
   0.43992296  0.29154965  0.74424304
   0.82088021  0.87361925  0.30020635
   0.80865535  0.70265913  0.34491251
   0.44232975  0.46289745  0.83337693
   0.68757370  0.95572465  0.47869167
   0.68477241  0.45775804  0.69974758
   0.56195263  0.87228662  0.52143355
   0.56646890  0.37480356  0.65488885
   0.81627249  0.87477205  0.65520343
   0.81193053  0.37169436  0.43418192
   0.80869110  0.53698749  0.25587573
   0.69200912  0.46224378  0.83330449
   0.18616734  0.78780240  0.12414574
   0.69145389  0.28741256  0.38899587
   0.31611640  0.37422302  0.65494003
   0.30902021  0.20265778  0.34473980
   0.81584225  0.54032720  0.74413676
   0.69161396  0.96238954  0.83350786
   0.56593209  0.87448876  0.65496743
   0.31130918  0.70670975  0.56546346
   0.31193776  0.53012088  0.12412629
   0.69054590  0.95492603  0.21179367
   0.31130855  0.20626451  0.56548794
   0.18752402  0.95586178  0.47864025
   0.68725823  0.95695097  0.56552052
   0.43371802  0.78791649  0.61092871
   0.68240767  0.61200863  0.16621555
   0.31914120  0.87379414  0.30018794
   0.31221047  0.70597793  0.47863670
   0.93391258  0.28775924  0.61092557
   0.44629786  0.62331819  0.30013039
   0.80736584  0.86323303  0.16684147
   0.56649026  0.20295136  0.21149670
   0.93287899  0.61270938  0.16669398
   0.43737966  0.95570588  0.47868641
   0.55885796  0.37336010  0.78877993
   0.06155213  0.37230587  0.52141625
   0.30700747  0.36378211  0.16666980
   0.69559677  0.12303483  0.30030676
   0.44287401  0.96329801  0.83335525
   0.18488480  0.28672167  0.12419590
   0.18366622  0.28794999  0.25584484
   0.31260833  0.37065408  0.43442647
   0.56273700  0.03204209  0.12433032
   0.43414147  0.28843710  0.61101157
   0.18369687  0.45263282  0.34491240
   0.43435717  0.28638850  0.12423979
   0.68302310  0.78791092  0.25576718
   0.43681822  0.12169093  0.52146341
   0.18851602  0.29668804  0.87615595
   0.19137724  0.12472408  0.65520373
   0.94104051  0.12489838  0.65513027
   0.81606850  0.53759855  0.38896645
   0.06647627  0.03802357  0.38912700
   0.18318426  0.11234155  0.16649593
   0.05852905  0.53776150  0.61091745
   0.93386159  0.28765771  0.25582166
   0.55890590  0.53834790  0.61097742
   0.93677740  0.95711234  0.56554408
   0.69491864  0.62409379  0.30006848
   0.93717712  0.62042783  0.43444997
   0.93323628  0.62433354  0.78835626
   0.56006070  0.70723536  0.69970867
   0.06599579  0.71683209  0.83393740
   0.94538691  0.12269160  0.30008527
   0.93371038  0.78764564  0.61093833
   0.43291408  0.78740910  0.25560019
   0.30904150  0.37419445  0.78873629
   0.44040137  0.45337151  0.21125142
   0.18676645  0.12169223  0.52141158
   0.80991490  0.70784102  0.69977190
   0.05888103  0.03783636  0.61085429
   0.56612663  0.21351893  0.83322399
   0.31140955  0.87156680  0.52143415
   0.68641785  0.28655680  0.12400030
   0.19048687  0.95510799  0.21168474
   0.68375212  0.28810162  0.61099216
   0.30887040  0.03849010  0.61112262
   0.93426422  0.12434308  0.78857366
   0.43645273  0.79788338  0.87623388
   0.81564814  0.04108739  0.74421660
[...]
 170  0.435  0.784  0.124- 192 2.34 277 2.35 174 2.37 256 2.41  83 2.42 114 2.43 163 2.43  91 2.44
                           283 2.46
 171  0.567  0.372  0.300-  58 2.42  48 2.42 159 2.43 242 2.43 109 2.43 220 2.43 101 2.43 130 2.44
                            28 2.44 219 2.46 206 2.47 265 2.48
 172  0.436  0.954  0.345-  98 2.43 165 2.43  86 2.43  25 2.43 219 2.43 208 2.43 164 2.43 258 2.44
                           264 2.44 159 2.46  16 2.47 210 2.48
 173  0.186  0.957  0.700-   9 2.43 225 2.43 274 2.43 154 2.43  38 2.43  63 2.43  37 2.43 262 2.44
                           196 2.44 121 2.45 239 2.45   2 2.47
 174  0.433  0.615  0.166-  91 2.34 283 2.35 170 2.37  20 2.42 192 2.42  97 2.43  30 2.43 108 2.43
                           277 2.44 139 2.45  65 2.46 288 2.52
 175  0.939  0.453  0.211- 168 2.42 213 2.43 189 2.43  50 2.43 250 2.43 167 2.43 127 2.44 261 2.44
                           104 2.45  51 2.46  81 2.46 284 2.54
 176  0.061  0.532  0.124-  51 2.35  20 2.35 104 2.37 111 2.42  91 2.42 205 2.42 155 2.43  83 2.44
                            44 2.46
 177  0.812  0.373  0.522- 199 2.40 269 2.40  21 2.40 203 2.43 247 2.43 228 2.43 107 2.43 195 2.43
                           271 2.43 286 2.43  42 2.43  34 2.44
 178  0.942  0.623  0.300- 168 2.42 216 2.42 214 2.43 130 2.43 263 2.43  72 2.43 226 2.43 220 2.43
                            52 2.44  12 2.47  81 2.47  73 2.48
 179  0.311  0.037  0.256- 215 2.42 146 2.43 265 2.43 112 2.43 200 2.43 137 2.43 221 2.43 185 2.43
                            98 2.44 249 2.44 229 2.45 159 2.48
 180  0.686  0.789  0.611- 136 2.43  89 2.43 217 2.43 128 2.43  22 2.43 260 2.43  96 2.43 227 2.44
                           186 2.45  95 2.46  32 2.46  79 2.47
 181  0.190  0.463  0.834-  18 2.34 266 2.35 120 2.37  36 2.43   5 2.43 259 2.43  39 2.43  74 2.44
                           134 2.44 272 2.46 138 2.47 254 2.51
 182  0.434  0.114  0.166- 256 2.36 114 2.36 117 2.37 192 2.42 277 2.42 125 2.43 166 2.43  30 2.44
                           229 2.44 108 2.44 249 2.45 103 2.50
 183  0.312  0.372  0.522- 244 2.40 156 2.40 230 2.40  68 2.43 107 2.43  93 2.43 119 2.43  59 2.43
                           252 2.43 140 2.43  70 2.43 247 2.44
 184  0.435  0.624  0.789- 243 2.42 224 2.43 272 2.43  66 2.43  33 2.43 138 2.43 106 2.44  31 2.45
                             5 2.45  74 2.46 270 2.46 241 2.50
 185  0.061  0.037  0.256- 135 2.42 212 2.43  24 2.43 127 2.43 112 2.43  52 2.43 200 2.43 179 2.43
                           214 2.44  50 2.45 146 2.45 215 2.48
 186  0.562  0.706  0.566-  77 2.43  32 2.43  90 2.43  56 2.43 228 2.43  95 2.43 195 2.43  70 2.44
                           252 2.44 180 2.45 128 2.46  96 2.47
 187  0.939  0.291  0.744- 254 2.43 151 2.43 211 2.43  19 2.43  37 2.43  87 2.43   9 2.43  11 2.43
                           149 2.43 152 2.44  57 2.45 233 2.45
 188  0.686  0.124  0.788- 267 2.42 106 2.43  55 2.43  49 2.43 149 2.43  33 2.43  57 2.43  19 2.43
                           151 2.46 143 2.46  88 2.47   6 2.52
 189  0.189  0.453  0.211- 139 2.43  65 2.43 175 2.43 250 2.43  50 2.43 275 2.43 249 2.43  20 2.44
                           112 2.45 108 2.45 168 2.46  51 2.50
 190  0.940  0.788  0.389-  45 2.42 216 2.43 279 2.43 123 2.43 273 2.43 124 2.44 194 2.44 287 2.44
                           285 2.45  73 2.46 131 2.46 235 2.48
 191  0.687  0.295  0.876- 143 2.35  82 2.36   6 2.38  64 2.42 280 2.42 231 2.43 161 2.43 255 2.43
                            14 2.44
 192  0.557  0.865  0.166- 170 2.34 163 2.35 114 2.37 182 2.42 174 2.42 277 2.42  97 2.44 166 2.44
                           102 2.45 288 2.45 229 2.46  92 2.52
 193  0.436  0.457  0.700-  63 2.43  53 2.43 133 2.43  76 2.43 243 2.43 154 2.43 246 2.43  71 2.44
                            85 2.44 270 2.45  40 2.46  78 2.47
 194  0.937  0.953  0.345-  72 2.42 279 2.42 258 2.43 216 2.43 207 2.43  25 2.43  73 2.43  47 2.43
                           190 2.44 135 2.46 124 2.47 214 2.47
 195  0.687  0.622  0.522- 169 2.39 234 2.41 199 2.41 228 2.43 247 2.43  77 2.43 252 2.43  32 2.43
                           177 2.43  10 2.43 203 2.43 186 2.43
 196  0.064  0.874  0.655- 240 2.43  15 2.43 153 2.43 122 2.43  79 2.43   2 2.43 121 2.43 142 2.44
                           173 2.44 274 2.45 136 2.46 225 2.47
 197  0.061  0.875  0.789-  46 2.43   3 2.43 132 2.43 272 2.43 224 2.43  55 2.44 149 2.44   9 2.44
                           134 2.45 262 2.45  17 2.47   7 2.51
 198  0.064  0.374  0.655-  85 2.43  61 2.43 121 2.43 122 2.43  35 2.43 153 2.43 240 2.44 246 2.44
                           126 2.44  37 2.45 152 2.46 100 2.47
 199  0.687  0.455  0.478- 177 2.40 247 2.41 195 2.41 232 2.42 251 2.42  21 2.43 237 2.43  80 2.43
                           156 2.43 269 2.43 169 2.43 234 2.44
 200  0.186  0.788  0.256- 214 2.42 137 2.43 179 2.43 185 2.43 250 2.43 275 2.43  52 2.43 168 2.44
                           146 2.44 263 2.44  65 2.45  98 2.48
 201  0.437  0.121  0.434- 105 2.43  23 2.43 113 2.43 237 2.43 230 2.43 251 2.43 160 2.43  69 2.43
                           257 2.44 165 2.45   4 2.46  16 2.48
 202  0.812  0.033  0.124-  26 2.34 102 2.36 166 2.37  44 2.41 155 2.42 163 2.43   1 2.43 145 2.44
                           114 2.45
 203  0.937  0.622  0.522- 234 2.40 157 2.40 269 2.41 177 2.43 107 2.43  10 2.43 195 2.43  42 2.44
                            27 2.44  32 2.44  68 2.44 276 2.44
 204  0.439  0.124  0.655- 260 2.43   2 2.43 121 2.43 209 2.43  78 2.43  85 2.43  89 2.43 115 2.43
                            53 2.44  38 2.45 148 2.46  63 2.47
 205  0.813  0.532  0.124- 284 2.35 104 2.35  97 2.38 155 2.41 176 2.42 145 2.44  44 2.44 283 2.45
                           163 2.47
 206  0.437  0.453  0.345- 242 2.43 208 2.43 219 2.43  48 2.43  67 2.43  86 2.43 164 2.43 116 2.44
                             4 2.44 222 2.46 101 2.46 171 2.47
 207  0.812  0.203  0.345- 109 2.42  84 2.43 219 2.43  47 2.43  48 2.43 279 2.43  12 2.43  25 2.43
                           194 2.43  13 2.45 220 2.47 135 2.47
 208  0.312  0.703  0.345- 287 2.42 263 2.43 206 2.43 164 2.43 172 2.43 116 2.43 258 2.44 216 2.44
                            67 2.44 264 2.47  98 2.47 101 2.47
 209  0.689  0.124  0.655-  78 2.43 204 2.43  35 2.43 217 2.43  79 2.43  89 2.43 147 2.43 122 2.43
                           233 2.44  54 2.45 260 2.47  53 2.47
 210  0.567  0.872  0.300- 118 2.41  25 2.42 159 2.43 130 2.43 109 2.43 101 2.43  72 2.43  98 2.43
                           221 2.44 164 2.47 137 2.48 172 2.48
 211  0.064  0.541  0.744- 246 2.43 272 2.43  11 2.43 187 2.43  87 2.43 243 2.43  46 2.43 262 2.43
                           254 2.44 274 2.44 152 2.45 132 2.46
 212  0.939  0.954  0.211- 167 2.42 185 2.43  50 2.43 146 2.43 213 2.43  92 2.44 250 2.44  52 2.44
                            26 2.44  60 2.45  24 2.47 102 2.50
 213  0.815  0.703  0.211-  52 2.42 175 2.43 250 2.43 212 2.43  92 2.44 261 2.44 288 2.44  81 2.44
                           102 2.45 104 2.45 118 2.47  97 2.52
 214  0.067  0.872  0.300- 258 2.42 200 2.42 178 2.43  72 2.43 135 2.43  98 2.43 263 2.43 215 2.43
                           185 2.44 216 2.47 194 2.47  52 2.48
 215  0.192  0.123  0.300- 179 2.42  86 2.43 226 2.43 135 2.43 242 2.43 112 2.43  98 2.43 214 2.43
                           159 2.44 258 2.47  47 2.48 185 2.48
 216  0.061  0.703  0.345- 178 2.42 190 2.43 194 2.43  73 2.43  12 2.43 258 2.43 116 2.43 208 2.44
                           273 2.44 287 2.46 214 2.47 263 2.48
 217  0.811  0.039  0.611- 142 2.43 136 2.43 180 2.43 100 2.43 209 2.43 260 2.43  79 2.44 147 2.44
                            95 2.45 129 2.46 122 2.47 271 2.47
 218  0.063  0.371  0.434- 238 2.43 160 2.43 223 2.43 244 2.43 113 2.43 158 2.43 269 2.43 131 2.44
                            80 2.44  13 2.46 273 2.46 248 2.47
 219  0.562  0.204  0.345- 159 2.43  48 2.43  25 2.43 207 2.43   4 2.43 206 2.43 172 2.43  86 2.44
                            16 2.44  84 2.46 171 2.46 109 2.47
 220  0.817  0.372  0.300- 127 2.42  12 2.42  81 2.43 171 2.43 130 2.43 109 2.43 226 2.43 135 2.43
                           178 2.43 207 2.47  48 2.47  58 2.47
 221  0.561  0.038  0.256- 159 2.42 229 2.42  58 2.42 103 2.43 265 2.43 118 2.43  24 2.43 179 2.43
                           137 2.44 210 2.44  92 2.45 109 2.48
 222  0.565  0.537  0.389-   4 2.42 264 2.43  67 2.43  84 2.43  48 2.43 123 2.43 164 2.44  45 2.44
                           232 2.46 206 2.46 251 2.46 278 2.48
 223  0.063  0.205  0.478- 140 2.40 286 2.40 107 2.41 158 2.42 244 2.43 269 2.43 230 2.43  94 2.43
                           218 2.43 236 2.44  21 2.44 160 2.44
 224  0.311  0.874  0.788- 262 2.42 184 2.43 272 2.43  33 2.43  49 2.43 197 2.43   3 2.44 239 2.44
                            31 2.44   5 2.45   7 2.49 110 2.52
 225  0.936  0.958  0.700- 151 2.43 173 2.43 233 2.43  54 2.43  37 2.43 274 2.43 141 2.43  79 2.44
                            46 2.44 122 2.45   9 2.46 196 2.47
 226  0.067  0.372  0.300- 116 2.42 112 2.43 215 2.43 135 2.43 263 2.43 220 2.43 178 2.43 242 2.43
                           168 2.44  47 2.46  12 2.47 127 2.48
 227  0.689  0.624  0.655-  89 2.43  22 2.43  79 2.43 240 2.43  40 2.43  78 2.43  35 2.43 180 2.44
                           141 2.44  76 2.45 133 2.46 128 2.47
 228  0.687  0.456  0.566- 271 2.43 247 2.43 195 2.43  42 2.43  32 2.43   8 2.43 177 2.43  70 2.43
                           186 2.43  22 2.46 147 2.47 128 2.47
 229  0.439  0.954  0.211- 103 2.42 221 2.42 249 2.42 146 2.43  92 2.43 137 2.44 288 2.44 182 2.44
                            65 2.44 179 2.45 192 2.46 277 2.54
 230  0.312  0.205  0.478- 119 2.40 140 2.40 183 2.40 113 2.43  94 2.43 244 2.43 223 2.43 201 2.43
                           156 2.43 105 2.43 237 2.43 160 2.44
 231  0.813  0.544  0.876-  82 2.33  36 2.36 253 2.37 280 2.41 281 2.42  64 2.42 191 2.43  29 2.44
                           266 2.45
 232  0.688  0.621  0.434- 199 2.42  80 2.43 131 2.43 234 2.43 235 2.43 251 2.43  69 2.44 169 2.44
                           278 2.45 222 2.46  45 2.47 123 2.47
 233  0.812  0.208  0.700-  37 2.43 225 2.43 152 2.43  19 2.43  76 2.43  54 2.43  53 2.43 151 2.43
                           209 2.44 187 2.45  35 2.45 122 2.47
 234  0.812  0.705  0.478- 203 2.40 195 2.41  10 2.41 235 2.43 236 2.43 232 2.43  75 2.43 169 2.43
                           131 2.43 157 2.43 199 2.44 269 2.44
 235  0.812  0.871  0.434- 234 2.43  69 2.43 232 2.43 257 2.43  75 2.43 158 2.43 236 2.43 285 2.43
                           131 2.43  45 2.45 279 2.47 190 2.48
 236  0.937  0.955  0.478-  27 2.40 286 2.40  10 2.41 158 2.42 234 2.43  75 2.43 285 2.43 235 2.43
                           157 2.43  94 2.43 223 2.44  21 2.44
 237  0.563  0.205  0.478-  34 2.40 119 2.40 247 2.41 251 2.43  21 2.43  75 2.43 199 2.43 201 2.43
                           105 2.43 257 2.43 156 2.43 230 2.43
 238  0.187  0.621  0.434- 244 2.42 278 2.42 218 2.43 131 2.43  99 2.43 113 2.43 157 2.43  23 2.44
                           285 2.44 273 2.44 287 2.47  67 2.48
 239  0.314  0.042  0.744-  49 2.43  11 2.43   9 2.43  31 2.43  71 2.43  38 2.43  63 2.43 262 2.43
                           267 2.44 224 2.44 173 2.45   3 2.46
 240  0.939  0.624  0.655- 126 2.43 196 2.43 136 2.43 153 2.43  79 2.43  35 2.43 227 2.43 198 2.44
                           274 2.44 152 2.45  22 2.46 141 2.47
 241  0.565  0.712  0.834-  29 2.34  64 2.36 150 2.38 110 2.42   5 2.43  74 2.43  88 2.43 253 2.44
                            82 2.44  33 2.45  66 2.46 184 2.50
 242  0.317  0.372  0.300- 265 2.42 206 2.43 171 2.43 215 2.43 263 2.43 101 2.43 159 2.43 226 2.43
                           275 2.44  86 2.47 112 2.48 116 2.48
 243  0.314  0.541  0.744- 184 2.42  71 2.43  11 2.43 211 2.43 193 2.43 270 2.43 262 2.43  31 2.44
                           138 2.44 154 2.44 272 2.45 246 2.46
 244  0.187  0.455  0.478- 183 2.40 107 2.40  68 2.41 238 2.42 223 2.43 230 2.43 113 2.43 218 2.43
                           156 2.43 157 2.43 269 2.43  99 2.44
 245  0.315  0.045  0.876-   7 2.35  39 2.35 110 2.36 255 2.42 150 2.43 161 2.43 282 2.43 120 2.43
                           268 2.44
 246  0.186  0.458  0.700- 211 2.43 152 2.43  37 2.43 274 2.43 154 2.43  63 2.43 193 2.43 198 2.44
                            11 2.44 153 2.45 243 2.46  85 2.47
 247  0.562  0.373  0.522- 156 2.40 199 2.41 237 2.41 228 2.43 195 2.43   8 2.43 177 2.43 252 2.43
                            70 2.43  34 2.43 119 2.43 183 2.44
 248  0.189  0.288  0.389- 124 2.43  86 2.43  13 2.43 273 2.43  67 2.43 165 2.43 116 2.44   4 2.44
                           113 2.46 160 2.46  47 2.46 218 2.47
 249  0.314  0.203  0.211- 146 2.42 229 2.42  50 2.43 139 2.43 265 2.43 189 2.43 103 2.43 179 2.44
                           108 2.45 182 2.45 112 2.46 125 2.50
 250  0.065  0.703  0.211-  65 2.42 213 2.43 189 2.43 200 2.43 175 2.43 212 2.44 146 2.44  60 2.44
                           168 2.44  20 2.45  52 2.47 104 2.49
 251  0.562  0.371  0.434- 199 2.42 237 2.43  80 2.43 113 2.43 156 2.43 257 2.43 201 2.43 232 2.43
                           278 2.43   4 2.45 222 2.46  84 2.48
 252  0.437  0.623  0.522-  99 2.40 169 2.40 156 2.40  68 2.43 144 2.43  77 2.43 195 2.43 247 2.43
                           183 2.43  90 2.43  70 2.44 186 2.44
 253  0.816  0.713  0.834- 281 2.34 231 2.37  29 2.38  88 2.42 134 2.42  17 2.43  36 2.44 241 2.44
                            82 2.44  55 2.45 132 2.46  66 2.51
 254  0.061  0.375  0.789- 187 2.43 272 2.43 138 2.43 149 2.43  57 2.43   3 2.43 132 2.44 211 2.44
                            11 2.45 259 2.46  36 2.47 181 2.51
 255  0.437  0.295  0.876-  39 2.34  74 2.36 143 2.38 120 2.42 245 2.42  18 2.42 191 2.43  64 2.44
                           161 2.45
 256  0.311  0.033  0.124- 277 2.35 182 2.36 125 2.38 170 2.41   1 2.42 117 2.42  83 2.42 114 2.43
                           111 2.44
 257  0.688  0.122  0.434-  80 2.42 251 2.43 235 2.43 158 2.43  21 2.43 237 2.43  75 2.43  69 2.43
                           201 2.44  16 2.45  84 2.46 279 2.49
 258  0.186  0.953  0.345- 214 2.42 194 2.43 216 2.43  86 2.43 124 2.43  47 2.43 172 2.44 208 2.44
                           287 2.44 165 2.47 215 2.47  98 2.48
 259  0.065  0.213  0.834- 120 2.35 282 2.36 280 2.37   6 2.42  17 2.42  36 2.43   7 2.43  39 2.43
                           181 2.43 254 2.46   3 2.47 149 2.51
 260  0.560  0.039  0.611- 204 2.43 148 2.43 115 2.43 147 2.43  96 2.43 180 2.43  89 2.43 217 2.43
                            56 2.45   8 2.47 209 2.47  95 2.47
 261  0.689  0.453  0.211-  81 2.43 288 2.43 139 2.43 103 2.43  58 2.44 175 2.44 167 2.44 213 2.44
                            28 2.45  97 2.45 284 2.48  30 2.52
 262  0.189  0.791  0.744- 224 2.42   9 2.43  46 2.43 154 2.43 243 2.43  31 2.43 211 2.43 239 2.43
                           272 2.44 173 2.44 197 2.45 274 2.46
 263  0.192  0.622  0.300- 275 2.42 208 2.43 226 2.43 242 2.43 178 2.43  98 2.43 214 2.43 101 2.43
                           200 2.44 116 2.47 216 2.48 168 2.48
 264  0.441  0.787  0.389- 164 2.43 222 2.43 287 2.43  45 2.43  16 2.43  67 2.43 165 2.44 172 2.44
                            69 2.45 278 2.46 208 2.47  23 2.48
 265  0.436  0.287  0.256- 242 2.42 179 2.43 221 2.43  28 2.43  58 2.43 112 2.43 249 2.43 275 2.43
                           139 2.44 159 2.44 103 2.45 171 2.48
 266  0.064  0.544  0.876-  36 2.34 181 2.35 134 2.37  18 2.42 120 2.43 268 2.43 281 2.44 280 2.44
                           231 2.45
 267  0.564  0.042  0.744- 188 2.42  19 2.43 151 2.43  43 2.43  31 2.43  54 2.43 239 2.44  71 2.44
                            53 2.44  33 2.44  49 2.46  38 2.46
 268  0.188  0.795  0.876- 134 2.34   7 2.36   5 2.38 282 2.41 150 2.43 266 2.43  18 2.44 281 2.44
                           245 2.44
 269  0.937  0.455  0.478- 107 2.40 177 2.40 203 2.41  21 2.43 223 2.43 131 2.43 244 2.43 199 2.43
                           157 2.43 218 2.43  80 2.44 234 2.44
 270  0.564  0.542  0.744-  66 2.42  76 2.43  43 2.43  71 2.43  87 2.43 243 2.43  31 2.43  19 2.43
                           133 2.43 106 2.45 193 2.45 184 2.46
 271  0.811  0.206  0.566-   8 2.43 228 2.43  95 2.43  42 2.43 177 2.43  34 2.43 129 2.44  62 2.44
                           286 2.44 100 2.45 147 2.46 217 2.47
 272  0.186  0.625  0.789- 211 2.43 184 2.43 254 2.43 224 2.43 197 2.43 138 2.43 132 2.44 262 2.44
                           243 2.45 181 2.46 134 2.48   5 2.50
 273  0.065  0.538  0.389- 287 2.43  67 2.43 116 2.43 248 2.43 190 2.43 123 2.44 216 2.44  13 2.44
                           238 2.44 218 2.46 131 2.47  12 2.47
 274  0.061  0.708  0.700- 141 2.43 246 2.43 173 2.43 152 2.43 154 2.43 225 2.43  46 2.43 240 2.44
                           211 2.44 196 2.45 262 2.46 153 2.46
 275  0.311  0.537  0.256- 263 2.42  28 2.43 189 2.43 137 2.43 168 2.43  65 2.43 200 2.43 265 2.43
                           112 2.43 242 2.44 139 2.45 101 2.49
 276  0.062  0.706  0.566-  59 2.43  90 2.43 162 2.43 129 2.43  42 2.44  27 2.44  68 2.44  32 2.44
                           203 2.44  15 2.45 126 2.46 136 2.47
 277  0.308  0.866  0.166-  83 2.32 170 2.35 256 2.35 125 2.42  60 2.42  20 2.42 182 2.42 192 2.42
                           174 2.44  65 2.47 146 2.47 229 2.54
 278  0.437  0.621  0.434- 113 2.42 238 2.42 156 2.43  99 2.43  23 2.43 251 2.43 169 2.44  69 2.44
                           232 2.45  67 2.45 264 2.46 222 2.48
 279  0.816  0.038  0.389-  13 2.42 194 2.42 124 2.42 190 2.43 207 2.43  84 2.43  45 2.44  16 2.44
                           158 2.46  25 2.46 235 2.47 257 2.49
 280  0.936  0.296  0.876-   6 2.33  36 2.36 259 2.37 231 2.41 191 2.42  14 2.43 266 2.44 120 2.46
                           282 2.47
 281  0.937  0.793  0.876- 253 2.34 134 2.35  17 2.37 231 2.42  29 2.43 266 2.44  14 2.44 268 2.44
                           282 2.45
 282  0.065  0.043  0.876-  17 2.33   7 2.34 259 2.36 268 2.41 245 2.43 120 2.44 281 2.45  14 2.45
                           280 2.47
 283  0.561  0.532  0.124-  97 2.33  30 2.34 174 2.35 145 2.42 117 2.43  91 2.44 205 2.45 163 2.45
                           170 2.46
 284  0.807  0.365  0.166- 145 2.32 155 2.35 205 2.35  97 2.42  30 2.42 166 2.42  51 2.44  26 2.44
                           104 2.44 167 2.47 261 2.48 175 2.54
 285  0.062  0.872  0.434- 158 2.42 160 2.43 236 2.43 131 2.43 235 2.43  23 2.44 157 2.44  94 2.44
                           238 2.44 190 2.45 124 2.46 287 2.49
 286  0.937  0.122  0.522-  21 2.39 223 2.40 236 2.40 140 2.43 177 2.43 107 2.43  10 2.43  27 2.43
                            34 2.44  62 2.44 129 2.44 271 2.44
 287  0.191  0.787  0.389- 208 2.42 273 2.43  67 2.43 264 2.43 165 2.43 258 2.44 190 2.44 124 2.44
                           216 2.46  23 2.46 238 2.47 285 2.49
 288  0.564  0.703  0.211- 118 2.42  28 2.43  92 2.43 261 2.43 139 2.44  65 2.44 229 2.44 213 2.44
                           137 2.45 192 2.45  97 2.47 174 2.52
 
     LOOP+:  cpu time 1314.7536: real time 1314.9789
    4ORBIT:  cpu time    0.0000: real time    0.0000

 total amount of memory used by VASP MPI-rank0   303025. kBytes
=======================================================================

   base      :      30000. kBytes
   nonlr-proj:      73860. kBytes
   fftplans  :       9793. kBytes
   grid      :      15541. kBytes
   one-center:       1080. kBytes
   wavefun   :     172751. kBytes
 
  
  
 General timing and accounting informations for this job:
 ========================================================
  
                  Total CPU time used (sec):    10929.947
                            User time (sec):    10725.702
                          System time (sec):      204.245
                         Elapsed time (sec):    10940.152
  
                   Maximum memory used (kb):      524324.
                   Average memory used (kb):           0.
  
                          Minor page faults:      6299628
                          Major page faults:           66
                 Voluntary context switches:       104355
