<?xml version="1.0" encoding="ISO-8859-1"?>
<modeling>
 <generator>
  <i name="program" type="string">vasp </i>
  <i name="version" type="string">5.4.4.18Apr17-6-g9f103f2a35  </i>
  <i name="subversion" type="string">(build May 29 2019 08:40:53) complex            parallel </i>
  <i name="platform" type="string">LinuxPGI </i>
  <i name="date" type="string">2021 11 22 </i>
  <i name="time" type="string">14:33:13 </i>
 </generator>
 <incar>
  <i type="int" name="ISTART">     2</i>
  <i type="string" name="PREC">accurate</i>
  <i type="string" name="ALGO"> Fast</i>
  <i type="int" name="ICHARG">     2</i>
  <i type="int" name="INIWAV">     1</i>
  <i type="int" name="NELM">   100</i>
  <i type="int" name="NELMIN">     4</i>
  <i type="int" name="IBRION">     2</i>
  <i name="EDIFF">      0.00001000</i>
  <i type="int" name="NSW">   500</i>
  <i type="int" name="ISIF">     2</i>
  <i type="int" name="ISYM">     2</i>
  <i name="ENCUT">    500.00000000</i>
  <i name="POTIM">      0.25000000</i>
  <i type="string" name="LREAL"> Auto</i>
  <i type="int" name="ISMEAR">     0</i>
  <i name="SIGMA">      0.15000000</i>
  <i type="logical" name="LWAVE"> F  </i>
  <i type="logical" name="LCHARG"> F  </i>
  <v type="int" name="KPOINT_BSE">    -1     0     0     0</v>
  <i type="int" name="NELM">   100</i>
 </incar>
 <structure name="primitive_cell" >
  <crystal>
   <varray name="basis" >
    <v>       9.72667800       0.00000000       0.00000000 </v>
    <v>       0.00000000       8.42355000       0.00000000 </v>
    <v>       0.00000000       0.00000000      45.00000000 </v>
   </varray>
   <i name="volume">   3686.99213101 </i>
   <varray name="rec_basis" >
    <v>       0.10281002       0.00000000       0.00000000 </v>
    <v>       0.00000000       0.11871479       0.00000000 </v>
    <v>       0.00000000       0.00000000       0.02222222 </v>
   </varray>
  </crystal>
  <varray name="positions" >
   <v>       0.06249985       0.04256052      -0.38944667 </v>
   <v>      -0.18683942       0.04205930      -0.38954490 </v>
   <v>       0.31231638       0.04207091      -0.38949734 </v>
   <v>      -0.06244591       0.29262000      -0.38927053 </v>
   <v>      -0.06247932      -0.20761773      -0.38949142 </v>
   <v>       0.06235342      -0.12361140      -0.34522651 </v>
   <v>       0.18704435       0.12675258      -0.34526432 </v>
   <v>       0.18769564      -0.20768777      -0.38953019 </v>
   <v>       0.18781191       0.29279993      -0.38943906 </v>
   <v>      -0.06257375       0.12655569      -0.34523645 </v>
   <v>       0.06274558       0.20805415      -0.43446338 </v>
   <v>      -0.06258007      -0.04188776      -0.43427005 </v>
   <v>       0.18731548      -0.04184141      -0.43432574 </v>
   <v>       0.31216762      -0.12356338      -0.34528990 </v>
   <v>      -0.18795346      -0.12401813      -0.34534386 </v>
   <v>       0.06235354       0.37668416      -0.34524815 </v>
   <v>       0.31236800       0.20792612      -0.43439286 </v>
   <v>      -0.18784829       0.20782120      -0.43437864 </v>
   <v>       0.06248677      -0.29224385      -0.43445630 </v>
   <v>       0.18743097      -0.37339599      -0.34525270 </v>
   <v>       0.06240839      -0.45779758      -0.38952462 </v>
   <v>      -0.06271870      -0.37390594      -0.34534726 </v>
   <v>      -0.31261117       0.29213245      -0.38949101 </v>
   <v>       0.43710748       0.12652517      -0.34518339 </v>
   <v>       0.43780481       0.29215665      -0.38944718 </v>
   <v>       0.43778622      -0.20735761      -0.38946088 </v>
   <v>      -0.31266202       0.12617000      -0.34520160 </v>
   <v>      -0.31295481      -0.20776212      -0.38941737 </v>
   <v>       0.31246901       0.37661606      -0.34526085 </v>
   <v>       0.18705005       0.45763965      -0.43440991 </v>
   <v>      -0.18789383       0.37609559      -0.34506796 </v>
   <v>      -0.06257217       0.45822572      -0.43435788 </v>
   <v>       0.43686796      -0.04202590      -0.43432045 </v>
   <v>       0.18738805      -0.03779354      -0.30063201 </v>
   <v>      -0.31245183      -0.04152683      -0.43452845 </v>
   <v>      -0.18703179      -0.29286939      -0.43440654 </v>
   <v>       0.31250205      -0.29248597      -0.43446378 </v>
   <v>      -0.06260321      -0.03835660      -0.30043119 </v>
   <v>      -0.06253545       0.12247381      -0.47853314 </v>
   <v>       0.06284225       0.21200403      -0.30059314 </v>
   <v>       0.18747542       0.12285831      -0.47863452 </v>
   <v>       0.06199325      -0.12743658      -0.47872501 </v>
   <v>      -0.43806584       0.04205627      -0.38915715 </v>
   <v>      -0.18706667      -0.45780890      -0.38939775 </v>
   <v>       0.31218488      -0.45728195      -0.38945284 </v>
   <v>       0.06274312      -0.28855919      -0.30062706 </v>
   <v>       0.06324768       0.37199766      -0.47869689 </v>
   <v>       0.31254832       0.21230528      -0.30062943 </v>
   <v>      -0.18735700       0.21208465      -0.30056540 </v>
   <v>      -0.18723989      -0.12787255      -0.47850637 </v>
   <v>       0.31179923      -0.12823766      -0.47862339 </v>
   <v>       0.43697228      -0.37366065      -0.34528476 </v>
   <v>      -0.43781686      -0.12329260      -0.34517212 </v>
   <v>       0.31272002      -0.28778182      -0.30076875 </v>
   <v>      -0.31297421      -0.37393952      -0.34522628 </v>
   <v>      -0.18713903      -0.28847712      -0.30068265 </v>
   <v>      -0.31276584       0.45767073      -0.43433282 </v>
   <v>      -0.43770243       0.20762544      -0.43427765 </v>
   <v>       0.43732902       0.45810171      -0.43442154 </v>
   <v>      -0.31180824      -0.03784691      -0.30064626 </v>
   <v>       0.43760582      -0.03756227      -0.30063411 </v>
   <v>       0.31229707       0.37264706      -0.47863207 </v>
   <v>      -0.18786532       0.37293192      -0.47863783 </v>
   <v>      -0.31222380       0.12241367      -0.47864277 </v>
   <v>       0.43713740       0.12225914      -0.47873720 </v>
   <v>      -0.06235547       0.46195511      -0.30065042 </v>
   <v>       0.18764840       0.46204291      -0.30058436 </v>
   <v>       0.18842346      -0.37749123      -0.47853848 </v>
   <v>      -0.06326273      -0.37674543      -0.47875191 </v>
   <v>      -0.43814091       0.37639286      -0.34542083 </v>
   <v>      -0.43802358      -0.29221709      -0.43438988 </v>
   <v>       0.06252911       0.04727855      -0.25652090 </v>
   <v>       0.06290718       0.20580038       0.47856113 </v>
   <v>      -0.06206987      -0.04479111       0.47864670 </v>
   <v>       0.18786462      -0.04460583       0.47866703 </v>
   <v>      -0.43715801      -0.45753073      -0.38939514 </v>
   <v>       0.18765956      -0.20293243      -0.25659952 </v>
   <v>      -0.06229513      -0.20277513      -0.25645643 </v>
   <v>      -0.43746491       0.21199008      -0.30065747 </v>
   <v>      -0.18772135       0.04699056      -0.25649360 </v>
   <v>       0.31192407       0.04713028      -0.25641010 </v>
   <v>       0.43765910       0.46211173      -0.30071029 </v>
   <v>      -0.43683877      -0.12798275      -0.47860941 </v>
   <v>      -0.31243719       0.46220200      -0.30052314 </v>
   <v>      -0.06293780       0.29702326      -0.25650288 </v>
   <v>       0.18718514       0.29685805      -0.25643157 </v>
   <v>      -0.31293474      -0.37748545      -0.47857081 </v>
   <v>       0.43750134      -0.37838121      -0.47854371 </v>
   <v>       0.31276665       0.20504561       0.47873531 </v>
   <v>      -0.18724626       0.20610696       0.47861056 </v>
   <v>       0.06193633      -0.29378236       0.47855284 </v>
   <v>      -0.43739769      -0.28803909      -0.30050644 </v>
   <v>      -0.43792276       0.37331247      -0.47872571 </v>
   <v>       0.18717076       0.45421409       0.47863736 </v>
   <v>      -0.06308267       0.45504099       0.47850270 </v>
   <v>      -0.31350118      -0.04441314       0.47872223 </v>
   <v>       0.43771225      -0.04362343       0.47854142 </v>
   <v>      -0.18702903      -0.29466669       0.47872681 </v>
   <v>       0.31187507      -0.29395885       0.47858050 </v>
   <v>       0.06223481      -0.45287232      -0.25641778 </v>
   <v>       0.43713682      -0.20288555      -0.25647161 </v>
   <v>      -0.31310383      -0.20322695      -0.25639395 </v>
   <v>       0.43744484       0.29654365      -0.25642441 </v>
   <v>      -0.31262775       0.29656326      -0.25641309 </v>
   <v>      -0.18768520      -0.45270279      -0.25646171 </v>
   <v>       0.31203491      -0.45342619      -0.25647544 </v>
   <v>      -0.43779264       0.04687411      -0.25649511 </v>
   <v>       0.43824477       0.45461322       0.47874386 </v>
   <v>      -0.31231328       0.45533380       0.47858470 </v>
   <v>      -0.43843694       0.20481561       0.47856077 </v>
   <v>       0.18733722       0.12025004       0.43445360 </v>
   <v>      -0.06275653       0.12025912       0.43432475 </v>
   <v>       0.06197951      -0.13003508       0.43444370 </v>
   <v>       0.06223513      -0.11790285      -0.21249988 </v>
   <v>       0.18746765       0.13248485      -0.21227721 </v>
   <v>      -0.06234323       0.13198557      -0.21222123 </v>
   <v>      -0.43692301      -0.29436351       0.47861671 </v>
   <v>       0.06225868       0.37004671       0.43437738 </v>
   <v>       0.31240696      -0.12996418       0.43438679 </v>
   <v>      -0.18773579      -0.13022851       0.43438361 </v>
   <v>       0.31272530      -0.11787413      -0.21242496 </v>
   <v>      -0.18747590      -0.11806539      -0.21238358 </v>
   <v>       0.06251319       0.38192203      -0.21233768 </v>
   <v>      -0.18762542       0.36985457       0.43440936 </v>
   <v>       0.31276912       0.36955324       0.43433437 </v>
   <v>       0.43719080       0.11997746       0.43450223 </v>
   <v>      -0.31236227       0.12020258       0.43450034 </v>
   <v>       0.18685474      -0.36792206      -0.21250420 </v>
   <v>      -0.43765110      -0.45277640      -0.25652336 </v>
   <v>       0.18723507      -0.37992235       0.43439906 </v>
   <v>      -0.06241387      -0.37992969       0.43440498 </v>
   <v>      -0.06255289      -0.36791469      -0.21216583 </v>
   <v>       0.43751962       0.13279356      -0.21243679 </v>
   <v>       0.31237875       0.38315338      -0.21260422 </v>
   <v>      -0.31220808       0.13239102      -0.21213772 </v>
   <v>      -0.18745701       0.38139914      -0.21216814 </v>
   <v>      -0.43750306      -0.13044874       0.43451949 </v>
   <v>      -0.31189690      -0.36866189      -0.21238872 </v>
   <v>       0.43727484      -0.38010083       0.43445840 </v>
   <v>       0.43763699      -0.36756892      -0.21227285 </v>
   <v>      -0.31260104      -0.38034297       0.43435170 </v>
   <v>      -0.43722893      -0.11832241      -0.21245664 </v>
   <v>      -0.43771194       0.36971604       0.43439605 </v>
   <v>      -0.43741774       0.38209401      -0.21247844 </v>
   <v>       0.06264369       0.03623051       0.38948169 </v>
   <v>      -0.06315491      -0.03695619      -0.16728124 </v>
   <v>       0.18815318      -0.03655245      -0.16725859 </v>
   <v>       0.06273298       0.21320341      -0.16731038 </v>
   <v>       0.18774342       0.28642961       0.38944691 </v>
   <v>      -0.06233364       0.28572812       0.38937217 </v>
   <v>      -0.18717122       0.03567538       0.38950738 </v>
   <v>       0.31231371       0.03525228       0.38950397 </v>
   <v>      -0.06223000      -0.21367916       0.38959713 </v>
   <v>       0.18764417      -0.21395999       0.38939171 </v>
   <v>       0.06180325      -0.28668193      -0.16744743 </v>
   <v>      -0.18735788       0.21363333      -0.16727108 </v>
   <v>       0.31245743       0.21370423      -0.16727112 </v>
   <v>      -0.18778602      -0.28659170      -0.16737668 </v>
   <v>       0.31253282      -0.28535475      -0.16726881 </v>
   <v>       0.43742200      -0.03701847      -0.16737444 </v>
   <v>      -0.31260435      -0.03701717      -0.16722719 </v>
   <v>       0.18698377       0.46378466      -0.16751545 </v>
   <v>      -0.06265919       0.46301631      -0.16733616 </v>
   <v>       0.06274821      -0.46376792       0.38957236 </v>
   <v>      -0.31231229       0.28533758       0.38949827 </v>
   <v>       0.43766828       0.28574823       0.38944274 </v>
   <v>      -0.31234129      -0.21415142       0.38950731 </v>
   <v>       0.43793707      -0.21389328       0.38942014 </v>
   <v>      -0.18748306      -0.46457712       0.38950589 </v>
   <v>       0.31265697      -0.46457826       0.38930272 </v>
   <v>      -0.43713239       0.03488045       0.38948721 </v>
   <v>      -0.43814218       0.21414795      -0.16736652 </v>
   <v>      -0.31233098       0.46266192      -0.16738098 </v>
   <v>       0.43700036       0.46406432      -0.16730424 </v>
   <v>      -0.43779459      -0.28647528      -0.16738102 </v>
   <v>      -0.43704083      -0.46458491       0.38963057 </v>
   <v>       0.06165642       0.05028720      -0.12528908 </v>
   <v>       0.06187449       0.20120751       0.34517203 </v>
   <v>      -0.06293193      -0.04842564       0.34531546 </v>
   <v>       0.18715974      -0.04879080       0.34529558 </v>
   <v>      -0.06273823      -0.20263433      -0.12538024 </v>
   <v>       0.31149759       0.05013984      -0.12548615 </v>
   <v>       0.18676984      -0.20266395      -0.12528505 </v>
   <v>      -0.18739016       0.04945528      -0.12522994 </v>
   <v>       0.18664761       0.29746492      -0.12533256 </v>
   <v>      -0.06250647       0.29813409      -0.12523558 </v>
   <v>       0.31211284       0.20184745       0.34530276 </v>
   <v>      -0.18785967       0.20119365       0.34525485 </v>
   <v>       0.06197265      -0.29817127       0.34540048 </v>
   <v>       0.18643291       0.45154172       0.34528086 </v>
   <v>      -0.06278990       0.45127925       0.34520548 </v>
   <v>       0.43671721      -0.04832309       0.34534735 </v>
   <v>      -0.31318861      -0.04841614       0.34524940 </v>
   <v>      -0.18800566      -0.29818748       0.34525376 </v>
   <v>       0.31190922      -0.29852631       0.34517963 </v>
   <v>       0.06241801      -0.45095701      -0.12543035 </v>
   <v>       0.43752338      -0.20334912      -0.12547968 </v>
   <v>      -0.31168816      -0.20200773      -0.12532924 </v>
   <v>      -0.31224968       0.29823717      -0.12521777 </v>
   <v>       0.43859050       0.29799956      -0.12529107 </v>
   <v>      -0.18784185      -0.45088582      -0.12539756 </v>
   <v>       0.31259884      -0.45208339      -0.12530657 </v>
   <v>      -0.43560970       0.05002598      -0.12541710 </v>
   <v>       0.43705138       0.45186694       0.34533518 </v>
   <v>      -0.31273489       0.45187856       0.34529266 </v>
   <v>      -0.43790993       0.20167824       0.34527743 </v>
   <v>      -0.43811031      -0.29823637       0.34524557 </v>
   <v>      -0.43760420      -0.45105887      -0.12532632 </v>
   <v>      -0.06180558       0.11526678       0.30066930 </v>
   <v>       0.18812226       0.11514429       0.30052246 </v>
   <v>       0.06260558      -0.13422717       0.30071719 </v>
   <v>       0.06289518       0.36528171       0.30062553 </v>
   <v>      -0.18702289      -0.13402742       0.30062909 </v>
   <v>       0.31327035      -0.13394297       0.30064572 </v>
   <v>      -0.18664318       0.36534077       0.30056019 </v>
   <v>       0.31296126       0.36575572       0.30057740 </v>
   <v>      -0.31207640       0.11565398       0.30065787 </v>
   <v>       0.43769173       0.11608612       0.30057797 </v>
   <v>      -0.06203390      -0.38390266       0.30060393 </v>
   <v>       0.18766884      -0.38407485       0.30058353 </v>
   <v>      -0.43682771      -0.13380678       0.30063144 </v>
   <v>      -0.31178406      -0.38427713       0.30065189 </v>
   <v>       0.43786406      -0.38391483       0.30061148 </v>
   <v>      -0.43667114       0.36566001       0.30045354 </v>
   <v>       0.06233430       0.03093002       0.25649160 </v>
   <v>      -0.06297680       0.28076308       0.25647872 </v>
   <v>       0.18711962       0.28090234       0.25641181 </v>
   <v>       0.31183850       0.03125140       0.25661043 </v>
   <v>      -0.18761751       0.03089744       0.25652211 </v>
   <v>      -0.06299721      -0.21936416       0.25654309 </v>
   <v>       0.18692480      -0.21899921       0.25646722 </v>
   <v>       0.06227839      -0.46896615       0.25649552 </v>
   <v>      -0.31270585       0.28072408       0.25647556 </v>
   <v>       0.43731242       0.28091643       0.25645997 </v>
   <v>       0.43735681      -0.21931614       0.25651913 </v>
   <v>      -0.31302661      -0.21884637       0.25644115 </v>
   <v>      -0.18788456      -0.46955288       0.25652021 </v>
   <v>       0.31227731      -0.46910940       0.25644362 </v>
   <v>      -0.43780892       0.03106282       0.25649024 </v>
   <v>      -0.43810397      -0.46971242       0.25640665 </v>
   <v>       0.06317468       0.19615391       0.21232328 </v>
   <v>      -0.06102388      -0.05454288       0.21234911 </v>
   <v>       0.18847405      -0.05446892       0.21224816 </v>
   <v>      -0.18661837       0.19568058       0.21230901 </v>
   <v>       0.31354202       0.19643225       0.21232204 </v>
   <v>       0.06309711      -0.30462227       0.21225939 </v>
   <v>       0.18848164       0.44579915       0.21228772 </v>
   <v>      -0.06153689       0.44528867       0.21223062 </v>
   <v>      -0.31151051      -0.05483141       0.21257360 </v>
   <v>       0.43801776      -0.05434969       0.21225897 </v>
   <v>      -0.18655288      -0.30485876       0.21235656 </v>
   <v>       0.31372500      -0.30431294       0.21214894 </v>
   <v>      -0.31171746       0.44541427       0.21235718 </v>
   <v>       0.43833909       0.44551729       0.21218005 </v>
   <v>      -0.43649969       0.19546835       0.21227789 </v>
   <v>      -0.43681197      -0.30451034       0.21230779 </v>
   <v>      -0.06270786       0.11411417       0.16736983 </v>
   <v>       0.18702977       0.11434262       0.16725967 </v>
   <v>       0.06212296      -0.13609640       0.16730903 </v>
   <v>       0.06188592       0.36441777       0.16739185 </v>
   <v>       0.31176479      -0.13619914       0.16736666 </v>
   <v>      -0.18810404      -0.13537950       0.16733556 </v>
   <v>       0.31206229       0.36430009       0.16742659 </v>
   <v>      -0.18812532       0.36425328       0.16738504 </v>
   <v>       0.43666088       0.11408177       0.16729159 </v>
   <v>      -0.31310469       0.11414225       0.16724885 </v>
   <v>      -0.06296898      -0.38592252       0.16723965 </v>
   <v>       0.18699183      -0.38567832       0.16721829 </v>
   <v>      -0.43800382      -0.13544023       0.16729926 </v>
   <v>      -0.31295401      -0.38594549       0.16737712 </v>
   <v>       0.43689939      -0.38591079       0.16717450 </v>
   <v>      -0.43789731       0.36417298       0.16731547 </v>
   <v>       0.06324584       0.02946148       0.12537251 </v>
   <v>      -0.06198527       0.27959254       0.12539083 </v>
   <v>       0.18802947       0.27920571       0.12534046 </v>
   <v>       0.31286359       0.02961821       0.12534294 </v>
   <v>      -0.18697875       0.02908919       0.12531496 </v>
   <v>      -0.06143772      -0.22054825       0.12531282 </v>
   <v>       0.18804428      -0.22078588       0.12525255 </v>
   <v>       0.06299420      -0.47081323       0.12530308 </v>
   <v>      -0.31189413       0.27998721       0.12533140 </v>
   <v>       0.43796771       0.27962525       0.12534378 </v>
   <v>      -0.31200183      -0.21989001       0.12531206 </v>
   <v>       0.43761121      -0.22055769       0.12527440 </v>
   <v>      -0.18687012      -0.47059138       0.12537431 </v>
   <v>       0.31312663      -0.47085351       0.12529344 </v>
   <v>      -0.43692516       0.02925868       0.12530389 </v>
   <v>      -0.43688866      -0.47045228       0.12532894 </v>
  </varray>
 </structure>
 <varray name="primitive_index" >
  <v type="int" >        1 </v>
  <v type="int" >      272 </v>
  <v type="int" >      132 </v>
  <v type="int" >      284 </v>
  <v type="int" >       74 </v>
  <v type="int" >       82 </v>
  <v type="int" >       96 </v>
  <v type="int" >       79 </v>
  <v type="int" >       72 </v>
  <v type="int" >      243 </v>
  <v type="int" >        4 </v>
  <v type="int" >      109 </v>
  <v type="int" >      166 </v>
  <v type="int" >       48 </v>
  <v type="int" >      186 </v>
  <v type="int" >      270 </v>
  <v type="int" >       68 </v>
  <v type="int" >      249 </v>
  <v type="int" >       70 </v>
  <v type="int" >      264 </v>
  <v type="int" >      127 </v>
  <v type="int" >      196 </v>
  <v type="int" >      223 </v>
  <v type="int" >      156 </v>
  <v type="int" >       60 </v>
  <v type="int" >      106 </v>
  <v type="int" >      209 </v>
  <v type="int" >      189 </v>
  <v type="int" >       56 </v>
  <v type="int" >      105 </v>
  <v type="int" >      238 </v>
  <v type="int" >      193 </v>
  <v type="int" >      267 </v>
  <v type="int" >      226 </v>
  <v type="int" >      287 </v>
  <v type="int" >      285 </v>
  <v type="int" >      124 </v>
  <v type="int" >       32 </v>
  <v type="int" >      215 </v>
  <v type="int" >      168 </v>
  <v type="int" >       33 </v>
  <v type="int" >      145 </v>
  <v type="int" >      279 </v>
  <v type="int" >      203 </v>
  <v type="int" >      134 </v>
  <v type="int" >      218 </v>
  <v type="int" >      242 </v>
  <v type="int" >      234 </v>
  <v type="int" >      184 </v>
  <v type="int" >       34 </v>
  <v type="int" >       10 </v>
  <v type="int" >      125 </v>
  <v type="int" >       19 </v>
  <v type="int" >      204 </v>
  <v type="int" >      187 </v>
  <v type="int" >      280 </v>
  <v type="int" >      149 </v>
  <v type="int" >      236 </v>
  <v type="int" >       35 </v>
  <v type="int" >      129 </v>
  <v type="int" >      170 </v>
  <v type="int" >      261 </v>
  <v type="int" >       25 </v>
  <v type="int" >      169 </v>
  <v type="int" >      120 </v>
  <v type="int" >       29 </v>
  <v type="int" >      185 </v>
  <v type="int" >      131 </v>
  <v type="int" >      232 </v>
  <v type="int" >      262 </v>
  <v type="int" >      165 </v>
  <v type="int" >      142 </v>
  <v type="int" >       87 </v>
  <v type="int" >      116 </v>
  <v type="int" >      171 </v>
  <v type="int" >       77 </v>
  <v type="int" >       97 </v>
  <v type="int" >      247 </v>
  <v type="int" >      155 </v>
  <v type="int" >      158 </v>
  <v type="int" >       86 </v>
  <v type="int" >      253 </v>
  <v type="int" >      252 </v>
  <v type="int" >      239 </v>
  <v type="int" >      144 </v>
  <v type="int" >      244 </v>
  <v type="int" >      159 </v>
  <v type="int" >      130 </v>
  <v type="int" >        9 </v>
  <v type="int" >      102 </v>
  <v type="int" >      112 </v>
  <v type="int" >       94 </v>
  <v type="int" >       13 </v>
  <v type="int" >      175 </v>
  <v type="int" >      183 </v>
  <v type="int" >      216 </v>
  <v type="int" >      212 </v>
  <v type="int" >      150 </v>
  <v type="int" >      146 </v>
  <v type="int" >      118 </v>
  <v type="int" >      258 </v>
  <v type="int" >      225 </v>
  <v type="int" >      206 </v>
  <v type="int" >       47 </v>
  <v type="int" >      179 </v>
  <v type="int" >      263 </v>
  <v type="int" >      288 </v>
  <v type="int" >      268 </v>
  <v type="int" >      182 </v>
  <v type="int" >       59 </v>
  <v type="int" >      219 </v>
  <v type="int" >      235 </v>
  <v type="int" >      281 </v>
  <v type="int" >       66 </v>
  <v type="int" >       83 </v>
  <v type="int" >       26 </v>
  <v type="int" >      221 </v>
  <v type="int" >      254 </v>
  <v type="int" >      190 </v>
  <v type="int" >      123 </v>
  <v type="int" >       40 </v>
  <v type="int" >      163 </v>
  <v type="int" >       93 </v>
  <v type="int" >       20 </v>
  <v type="int" >       31 </v>
  <v type="int" >       52 </v>
  <v type="int" >      147 </v>
  <v type="int" >      164 </v>
  <v type="int" >      177 </v>
  <v type="int" >      227 </v>
  <v type="int" >      240 </v>
  <v type="int" >        7 </v>
  <v type="int" >       55 </v>
  <v type="int" >      157 </v>
  <v type="int" >      214 </v>
  <v type="int" >       89 </v>
  <v type="int" >      266 </v>
  <v type="int" >        2 </v>
  <v type="int" >      230 </v>
  <v type="int" >      143 </v>
  <v type="int" >      197 </v>
  <v type="int" >       75 </v>
  <v type="int" >      245 </v>
  <v type="int" >      122 </v>
  <v type="int" >      136 </v>
  <v type="int" >       76 </v>
  <v type="int" >      152 </v>
  <v type="int" >      188 </v>
  <v type="int" >       84 </v>
  <v type="int" >      211 </v>
  <v type="int" >      194 </v>
  <v type="int" >      178 </v>
  <v type="int" >      126 </v>
  <v type="int" >        5 </v>
  <v type="int" >       22 </v>
  <v type="int" >      139 </v>
  <v type="int" >      138 </v>
  <v type="int" >       99 </v>
  <v type="int" >      160 </v>
  <v type="int" >       37 </v>
  <v type="int" >       69 </v>
  <v type="int" >      207 </v>
  <v type="int" >       61 </v>
  <v type="int" >      231 </v>
  <v type="int" >      148 </v>
  <v type="int" >       92 </v>
  <v type="int" >       16 </v>
  <v type="int" >      274 </v>
  <v type="int" >       80 </v>
  <v type="int" >      278 </v>
  <v type="int" >       54 </v>
  <v type="int" >       39 </v>
  <v type="int" >       46 </v>
  <v type="int" >      257 </v>
  <v type="int" >      172 </v>
  <v type="int" >      117 </v>
  <v type="int" >      248 </v>
  <v type="int" >      241 </v>
  <v type="int" >      176 </v>
  <v type="int" >       57 </v>
  <v type="int" >       41 </v>
  <v type="int" >      275 </v>
  <v type="int" >      173 </v>
  <v type="int" >       17 </v>
  <v type="int" >       38 </v>
  <v type="int" >      229 </v>
  <v type="int" >      220 </v>
  <v type="int" >      119 </v>
  <v type="int" >       12 </v>
  <v type="int" >      103 </v>
  <v type="int" >       15 </v>
  <v type="int" >      259 </v>
  <v type="int" >       50 </v>
  <v type="int" >      199 </v>
  <v type="int" >      135 </v>
  <v type="int" >      101 </v>
  <v type="int" >      283 </v>
  <v type="int" >      205 </v>
  <v type="int" >      181 </v>
  <v type="int" >      151 </v>
  <v type="int" >       78 </v>
  <v type="int" >      128 </v>
  <v type="int" >      269 </v>
  <v type="int" >      251 </v>
  <v type="int" >      282 </v>
  <v type="int" >       63 </v>
  <v type="int" >      111 </v>
  <v type="int" >       65 </v>
  <v type="int" >      208 </v>
  <v type="int" >      153 </v>
  <v type="int" >      237 </v>
  <v type="int" >       85 </v>
  <v type="int" >      256 </v>
  <v type="int" >      141 </v>
  <v type="int" >      192 </v>
  <v type="int" >      286 </v>
  <v type="int" >       36 </v>
  <v type="int" >       73 </v>
  <v type="int" >      255 </v>
  <v type="int" >       95 </v>
  <v type="int" >       88 </v>
  <v type="int" >      265 </v>
  <v type="int" >       28 </v>
  <v type="int" >      114 </v>
  <v type="int" >       11 </v>
  <v type="int" >      108 </v>
  <v type="int" >      133 </v>
  <v type="int" >      174 </v>
  <v type="int" >        3 </v>
  <v type="int" >      140 </v>
  <v type="int" >      277 </v>
  <v type="int" >       27 </v>
  <v type="int" >       42 </v>
  <v type="int" >       91 </v>
  <v type="int" >       49 </v>
  <v type="int" >       71 </v>
  <v type="int" >       21 </v>
  <v type="int" >       90 </v>
  <v type="int" >       14 </v>
  <v type="int" >      180 </v>
  <v type="int" >      260 </v>
  <v type="int" >      271 </v>
  <v type="int" >      217 </v>
  <v type="int" >       98 </v>
  <v type="int" >      115 </v>
  <v type="int" >      224 </v>
  <v type="int" >      100 </v>
  <v type="int" >      233 </v>
  <v type="int" >      276 </v>
  <v type="int" >      161 </v>
  <v type="int" >       18 </v>
  <v type="int" >      250 </v>
  <v type="int" >      110 </v>
  <v type="int" >      195 </v>
  <v type="int" >      202 </v>
  <v type="int" >      137 </v>
  <v type="int" >      222 </v>
  <v type="int" >      154 </v>
  <v type="int" >      113 </v>
  <v type="int" >        6 </v>
  <v type="int" >      200 </v>
  <v type="int" >      191 </v>
  <v type="int" >      104 </v>
  <v type="int" >        8 </v>
  <v type="int" >       30 </v>
  <v type="int" >       44 </v>
  <v type="int" >      121 </v>
  <v type="int" >      210 </v>
  <v type="int" >      273 </v>
  <v type="int" >      167 </v>
  <v type="int" >       51 </v>
  <v type="int" >      107 </v>
  <v type="int" >       23 </v>
  <v type="int" >       43 </v>
  <v type="int" >       58 </v>
  <v type="int" >       67 </v>
  <v type="int" >      246 </v>
  <v type="int" >       81 </v>
  <v type="int" >       53 </v>
  <v type="int" >       24 </v>
  <v type="int" >      198 </v>
  <v type="int" >       64 </v>
  <v type="int" >      162 </v>
  <v type="int" >       45 </v>
  <v type="int" >      201 </v>
  <v type="int" >      213 </v>
  <v type="int" >       62 </v>
  <v type="int" >      228 </v>
 </varray>
 <kpoints>
  <generation param="Gamma">
   <v type="int" name="divisions">       4        4        1 </v>
   <v name="usershift">      0.00000000       0.00000000       0.00000000 </v>
   <v name="genvec1">      0.25000000       0.00000000       0.00000000 </v>
   <v name="genvec2">      0.00000000       0.25000000       0.00000000 </v>
   <v name="genvec3">      0.00000000       0.00000000       1.00000000 </v>
   <v name="shift">      0.00000000       0.00000000       0.00000000 </v>
  </generation>
  <varray name="kpointlist" >
   <v>       0.00000000       0.00000000       0.00000000 </v>
   <v>       0.25000000       0.00000000       0.00000000 </v>
   <v>       0.50000000       0.00000000       0.00000000 </v>
   <v>       0.00000000       0.25000000       0.00000000 </v>
   <v>       0.25000000       0.25000000       0.00000000 </v>
   <v>       0.50000000       0.25000000       0.00000000 </v>
   <v>      -0.25000000       0.25000000       0.00000000 </v>
   <v>       0.00000000       0.50000000       0.00000000 </v>
   <v>       0.25000000       0.50000000       0.00000000 </v>
   <v>       0.50000000       0.50000000       0.00000000 </v>
  </varray>
  <varray name="weights" >
   <v>       0.06250000 </v>
   <v>       0.12500000 </v>
   <v>       0.06250000 </v>
   <v>       0.12500000 </v>
   <v>       0.12500000 </v>
   <v>       0.12500000 </v>
   <v>       0.12500000 </v>
   <v>       0.06250000 </v>
   <v>       0.12500000 </v>
   <v>       0.06250000 </v>
  </varray>
 </kpoints>
 <parameters>
  <separator name="general" >
   <i type="string" name="SYSTEM">unknown system</i>
   <i type="logical" name="LCOMPAT"> F  </i>
  </separator>
  <separator name="electronic" >
   <i type="string" name="PREC">accura</i>
   <i name="ENMAX">    500.00000000</i>
   <i name="ENAUG">    838.43500000</i>
   <i name="EDIFF">      0.00001000</i>
   <i type="int" name="IALGO">    68</i>
   <i type="int" name="IWAVPR">    11</i>
   <i type="int" name="NBANDS">  1380</i>
   <i name="NELECT">   2289.00000000</i>
   <i type="int" name="TURBO">     0</i>
   <i type="int" name="IRESTART">     0</i>
   <i type="int" name="NREBOOT">     0</i>
   <i type="int" name="NMIN">     0</i>
   <i name="EREF">      0.00000000</i>
   <separator name="electronic smearing" >
    <i type="int" name="ISMEAR">     0</i>
    <i name="SIGMA">      0.15000000</i>
    <i name="KSPACING">      0.50000000</i>
    <i type="logical" name="KGAMMA"> T  </i>
   </separator>
   <separator name="electronic projectors" >
    <i type="logical" name="LREAL"> T  </i>
    <v name="ROPT">     -0.00025000     -0.00025000</v>
    <i type="int" name="LMAXPAW">  -100</i>
    <i type="int" name="LMAXMIX">     2</i>
    <i type="logical" name="NLSPLINE"> F  </i>
   </separator>
   <separator name="electronic startup" >
    <i type="int" name="ISTART">     0</i>
    <i type="int" name="ICHARG">     2</i>
    <i type="int" name="INIWAV">     1</i>
   </separator>
   <separator name="electronic spin" >
    <i type="int" name="ISPIN">     1</i>
    <i type="logical" name="LNONCOLLINEAR"> F  </i>
    <v name="MAGMOM">      1.00000000      1.00000000      1.00000000      1.00000000      1.00000000      1.00000000      1.00000000      1.00000000      1.00000000      1.00000000      1.00000000      1.00000000      1.00000000      1.00000000      1.00000000      1.00000000      1.00000000      1.00000000      1.00000000      1.00000000
      1.00000000      1.00000000      1.00000000      1.00000000      1.00000000      1.00000000      1.00000000      1.00000000      1.00000000      1.00000000      1.00000000      1.00000000      1.00000000      1.00000000      1.00000000      1.00000000      1.00000000      1.00000000      1.00000000      1.00000000
      1.00000000      1.00000000      1.00000000      1.00000000      1.00000000      1.00000000      1.00000000      1.00000000      1.00000000      1.00000000      1.00000000      1.00000000      1.00000000      1.00000000      1.00000000      1.00000000      1.00000000      1.00000000      1.00000000      1.00000000
      1.00000000      1.00000000      1.00000000      1.00000000      1.00000000      1.00000000      1.00000000      1.00000000      1.00000000      1.00000000      1.00000000      1.00000000      1.00000000      1.00000000      1.00000000      1.00000000      1.00000000      1.00000000      1.00000000      1.00000000
      1.00000000      1.00000000      1.00000000      1.00000000      1.00000000      1.00000000      1.00000000      1.00000000      1.00000000      1.00000000      1.00000000      1.00000000      1.00000000      1.00000000      1.00000000      1.00000000      1.00000000      1.00000000      1.00000000      1.00000000
      1.00000000      1.00000000      1.00000000      1.00000000      1.00000000      1.00000000      1.00000000      1.00000000      1.00000000      1.00000000      1.00000000      1.00000000      1.00000000      1.00000000      1.00000000      1.00000000      1.00000000      1.00000000      1.00000000      1.00000000
      1.00000000      1.00000000      1.00000000      1.00000000      1.00000000      1.00000000      1.00000000      1.00000000      1.00000000      1.00000000      1.00000000      1.00000000      1.00000000      1.00000000      1.00000000      1.00000000      1.00000000      1.00000000      1.00000000      1.00000000
      1.00000000      1.00000000      1.00000000      1.00000000      1.00000000      1.00000000      1.00000000      1.00000000      1.00000000      1.00000000      1.00000000      1.00000000      1.00000000      1.00000000      1.00000000      1.00000000      1.00000000      1.00000000      1.00000000      1.00000000
      1.00000000      1.00000000      1.00000000      1.00000000      1.00000000      1.00000000      1.00000000      1.00000000      1.00000000      1.00000000      1.00000000      1.00000000      1.00000000      1.00000000      1.00000000      1.00000000      1.00000000      1.00000000      1.00000000      1.00000000
      1.00000000      1.00000000      1.00000000      1.00000000      1.00000000      1.00000000      1.00000000      1.00000000      1.00000000      1.00000000      1.00000000      1.00000000      1.00000000      1.00000000      1.00000000      1.00000000      1.00000000      1.00000000      1.00000000      1.00000000
      1.00000000      1.00000000      1.00000000      1.00000000      1.00000000      1.00000000      1.00000000      1.00000000      1.00000000      1.00000000      1.00000000      1.00000000      1.00000000      1.00000000      1.00000000      1.00000000      1.00000000      1.00000000      1.00000000      1.00000000
      1.00000000      1.00000000      1.00000000      1.00000000      1.00000000      1.00000000      1.00000000      1.00000000      1.00000000      1.00000000      1.00000000      1.00000000      1.00000000      1.00000000      1.00000000      1.00000000      1.00000000      1.00000000      1.00000000      1.00000000
      1.00000000      1.00000000      1.00000000      1.00000000      1.00000000      1.00000000      1.00000000      1.00000000      1.00000000      1.00000000      1.00000000      1.00000000      1.00000000      1.00000000      1.00000000      1.00000000      1.00000000      1.00000000      1.00000000      1.00000000
      1.00000000      1.00000000      1.00000000      1.00000000      1.00000000      1.00000000      1.00000000      1.00000000      1.00000000      1.00000000      1.00000000      1.00000000      1.00000000      1.00000000      1.00000000      1.00000000      1.00000000      1.00000000      1.00000000      1.00000000
      1.00000000      1.00000000      1.00000000      1.00000000      1.00000000      1.00000000      1.00000000      1.00000000</v>
    <i name="NUPDOWN">     -1.00000000</i>
    <i type="logical" name="LSORBIT"> F  </i>
    <v name="SAXIS">      0.00000000      0.00000000      1.00000000</v>
    <i type="logical" name="LSPIRAL"> F  </i>
    <v name="QSPIRAL">      0.00000000      0.00000000      0.00000000</v>
    <i type="logical" name="LZEROZ"> F  </i>
   </separator>
   <separator name="electronic exchange-correlation" >
    <i type="logical" name="LASPH"> F  </i>
    <i type="logical" name="LMETAGGA"> F  </i>
   </separator>
   <separator name="electronic convergence" >
    <i type="int" name="NELM">   100</i>
    <i type="int" name="NELMDL">     0</i>
    <i type="int" name="NELMIN">     4</i>
    <i name="ENINI">    500.00000000</i>
    <separator name="electronic convergence detail" >
     <i type="logical" name="LDIAG"> T  </i>
     <i type="logical" name="LSUBROT"> F  </i>
     <i name="WEIMIN">      0.00100000</i>
     <i name="EBREAK">      0.00000000</i>
     <i name="DEPER">      0.30000000</i>
     <i type="int" name="NRMM">     4</i>
     <i name="TIME">      0.40000000</i>
    </separator>
   </separator>
   <separator name="electronic mixer" >
    <i name="AMIX">      0.40000000</i>
    <i name="BMIX">      1.00000000</i>
    <i name="AMIN">      0.10000000</i>
    <i name="AMIX_MAG">      1.60000000</i>
    <i name="BMIX_MAG">      1.00000000</i>
    <separator name="electronic mixer details" >
     <i type="int" name="IMIX">     4</i>
     <i type="logical" name="MIXFIRST"> F  </i>
     <i type="int" name="MAXMIX">   -45</i>
     <i name="WC">    100.00000000</i>
     <i type="int" name="INIMIX">     1</i>
     <i type="int" name="MIXPRE">     1</i>
     <i type="int" name="MREMOVE">     5</i>
    </separator>
   </separator>
   <separator name="electronic dipolcorrection" >
    <i type="logical" name="LDIPOL"> F  </i>
    <i type="logical" name="LMONO"> F  </i>
    <i type="int" name="IDIPOL">     0</i>
    <i name="EPSILON">      1.00000000</i>
    <v name="DIPOL">   -100.00000000   -100.00000000   -100.00000000</v>
    <i name="EFIELD">      0.00000000</i>
   </separator>
  </separator>
  <separator name="grids" >
   <i type="int" name="NGX">    72</i>
   <i type="int" name="NGY">    64</i>
   <i type="int" name="NGZ">   336</i>
   <i type="int" name="NGXF">   144</i>
   <i type="int" name="NGYF">   128</i>
   <i type="int" name="NGZF">   672</i>
   <i type="logical" name="ADDGRID"> F  </i>
  </separator>
  <separator name="ionic" >
   <i type="int" name="NSW">   500</i>
   <i type="int" name="IBRION">     2</i>
   <i type="int" name="MDALGO">     0</i>
   <i type="int" name="ISIF">     2</i>
   <i name="PSTRESS">      0.00000000</i>
   <i name="EDIFFG">      0.00010000</i>
   <i type="int" name="NFREE">     1</i>
   <i name="POTIM">      0.25000000</i>
   <i name="SMASS">     -3.00000000</i>
   <i name="SCALEE">      1.00000000</i>
  </separator>
  <separator name="ionic md" >
   <i name="TEBEG">      0.00010000</i>
   <i name="TEEND">      0.00010000</i>
   <i type="int" name="NBLOCK">     1</i>
   <i type="int" name="KBLOCK">   500</i>
   <i type="int" name="NPACO">   256</i>
   <i name="APACO">     16.00000000</i>
  </separator>
  <separator name="symmetry" >
   <i type="int" name="ISYM">     2</i>
   <i name="SYMPREC">      0.00001000</i>
  </separator>
  <separator name="dos" >
   <i type="int" name="LORBIT">     0</i>
   <v name="RWIGS">     -1.00000000     -1.00000000</v>
   <i type="int" name="NEDOS">   301</i>
   <i name="EMIN">     10.00000000</i>
   <i name="EMAX">    -10.00000000</i>
   <i name="EFERMI">      0.00000000</i>
  </separator>
  <separator name="writing" >
   <i type="int" name="NWRITE">     2</i>
   <i type="logical" name="LWAVE"> F  </i>
   <i type="logical" name="LDOWNSAMPLE"> F  </i>
   <i type="logical" name="LCHARG"> F  </i>
   <i type="logical" name="LPARD"> F  </i>
   <i type="logical" name="LVTOT"> F  </i>
   <i type="logical" name="LVHAR"> F  </i>
   <i type="logical" name="LELF"> F  </i>
   <i type="logical" name="LOPTICS"> F  </i>
   <v name="STM">      0.00000000      0.00000000      0.00000000      0.00000000      0.00000000      0.00000000      0.00000000</v>
  </separator>
  <separator name="performance" >
   <i type="int" name="NPAR">    10</i>
   <i type="int" name="NSIM">     4</i>
   <i type="int" name="NBLK">    -1</i>
   <i type="logical" name="LPLANE"> T  </i>
   <i type="logical" name="LSCALAPACK"> F  </i>
   <i type="logical" name="LSCAAWARE"> F  </i>
   <i type="logical" name="LSCALU"> F  </i>
   <i type="logical" name="LASYNC"> F  </i>
   <i type="logical" name="LORBITALREAL"> F  </i>
  </separator>
  <separator name="miscellaneous" >
   <i type="int" name="IDIOT">     3</i>
   <i type="int" name="ISPECIAL">     0</i>
   <i type="logical" name="LMUSIC"> F  </i>
   <v name="POMASS">     55.84700000     54.93800000</v>
   <v name="DARWINR">      0.00000000      0.00000000</v>
   <v name="DARWINV">      1.00000000      1.00000000</v>
   <i type="logical" name="LCORR"> T  </i>
  </separator>
  <i type="logical" name="GGA_COMPAT"> T  </i>
  <i type="logical" name="LBERRY"> F  </i>
  <i type="int" name="ICORELEVEL">     0</i>
  <i type="logical" name="LDAU"> F  </i>
  <i type="int" name="I_CONSTRAINED_M">     0</i>
  <separator name="electronic exchange-correlation" >
   <i type="string" name="GGA">--</i>
   <i type="int" name="VOSKOWN">     0</i>
   <i type="logical" name="LHFCALC"> F  </i>
   <i type="string" name="PRECFOCK"></i>
   <i type="logical" name="LSYMGRAD"> F  </i>
   <i type="logical" name="LHFONE"> F  </i>
   <i type="logical" name="LRHFCALC"> F  </i>
   <i type="logical" name="LTHOMAS"> F  </i>
   <i type="logical" name="LMODELHF"> F  </i>
   <i name="ENCUT4O">     -1.00000000</i>
   <i type="int" name="EXXOEP">     0</i>
   <i type="int" name="FOURORBIT">     0</i>
   <i name="AEXX">      0.00000000</i>
   <i name="HFALPHA">      0.00000000</i>
   <i name="MCALPHA">      0.00000000</i>
   <i name="ALDAX">      1.00000000</i>
   <i name="AGGAX">      1.00000000</i>
   <i name="ALDAC">      1.00000000</i>
   <i name="AGGAC">      1.00000000</i>
   <i type="int" name="NKREDX">     1</i>
   <i type="int" name="NKREDY">     1</i>
   <i type="int" name="NKREDZ">     1</i>
   <i type="logical" name="SHIFTRED"> F  </i>
   <i type="logical" name="ODDONLY"> F  </i>
   <i type="logical" name="EVENONLY"> F  </i>
   <i type="int" name="LMAXFOCK">     0</i>
   <i type="int" name="NMAXFOCKAE">     0</i>
   <i type="logical" name="LFOCKAEDFT"> F  </i>
   <i name="HFSCREEN">      0.00000000</i>
   <i name="HFSCREENC">      0.00000000</i>
   <i type="int" name="NBANDSGWLOW">     0</i>
  </separator>
  <separator name="vdW DFT" >
   <i type="logical" name="LUSE_VDW"> F  </i>
   <i name="Zab_VDW">     -0.84910000</i>
   <i name="PARAM1">      0.12340000</i>
   <i name="PARAM2">      1.00000000</i>
   <i name="PARAM3">      0.00000000</i>
  </separator>
  <separator name="model GW" >
   <i type="int" name="MODEL_GW">     0</i>
   <i name="MODEL_EPS0">      7.68123361</i>
   <i name="MODEL_ALPHA">      1.00000000</i>
  </separator>
  <separator name="linear response parameters" >
   <i type="logical" name="LEPSILON"> F  </i>
   <i type="logical" name="LRPA"> F  </i>
   <i type="logical" name="LNABLA"> F  </i>
   <i type="logical" name="LVEL"> F  </i>
   <i type="int" name="KINTER">     0</i>
   <i name="CSHIFT">      0.10000000</i>
   <i name="OMEGAMAX">     -1.00000000</i>
   <i name="DEG_THRESHOLD">      0.00200000</i>
   <i name="RTIME">     -0.10000000</i>
   <i name="WPLASMAI">      0.00000000</i>
   <v name="DFIELD">      0.00000000      0.00000000      0.00000000</v>
   <v name="WPLASMA">      0.00000000      0.00000000      0.00000000      0.00000000      0.00000000      0.00000000      0.00000000      0.00000000      0.00000000</v>
  </separator>
  <separator name="orbital magnetization" >
   <i type="logical" name="NUCIND"> F  </i>
   <v name="MAGPOS">      0.00000000      0.00000000      0.00000000</v>
   <i type="logical" name="LNICSALL"> T  </i>
   <i type="logical" name="ORBITALMAG"> F  </i>
   <i type="logical" name="LMAGBLOCH"> F  </i>
   <i type="logical" name="LCHIMAG"> F  </i>
   <i type="logical" name="LGAUGE"> T  </i>
   <i type="int" name="MAGATOM">     0</i>
   <v name="MAGDIPOL">      0.00000000      0.00000000      0.00000000</v>
   <v name="AVECCONST">      0.00000000      0.00000000      0.00000000</v>
  </separator>
  <separator name="response functions" >
   <i type="logical" name="LADDER"> F  </i>
   <i type="logical" name="LRPAFORCE"> F  </i>
   <i type="logical" name="LFXC"> F  </i>
   <i type="logical" name="LHARTREE"> T  </i>
   <i type="int" name="IBSE">     0</i>
   <v type="int" name="KPOINT">    -1     0     0     0</v>
   <i type="logical" name="LTCTE"> F  </i>
   <i type="logical" name="LTETE"> F  </i>
   <i type="logical" name="LTRIPLET"> F  </i>
   <i type="logical" name="LFXCEPS"> F  </i>
   <i type="logical" name="LFXHEG"> F  </i>
   <i type="int" name="NATURALO">     2</i>
   <i type="logical" name="L2ORDER"> F  </i>
   <i type="logical" name="LMP2LT"> F  </i>
   <i type="logical" name="LUSEW"> F  </i>
   <i name="ENCUTGW">     -2.00000000</i>
   <i name="ENCUTGWSOFT">     -2.00000000</i>
   <i name="ENCUTLF">     -1.00000000</i>
   <i type="int" name="LMAXMP2">    -1</i>
   <i name="SCISSOR">      0.00000000</i>
   <i type="int" name="NOMEGA">     0</i>
   <i type="int" name="NOMEGAR">     0</i>
   <i type="int" name="NBANDSGW">    -1</i>
   <i type="int" name="NBANDSO">    -1</i>
   <i type="int" name="NBANDSV">    -1</i>
   <i type="int" name="NELM">   100</i>
   <i type="int" name="NELMHF">     1</i>
   <i type="int" name="DIM">     3</i>
   <i type="int" name="ANTIRES">     0</i>
   <i name="OMEGAMAX">    -30.00000000</i>
   <i name="OMEGAMIN">    -30.00000000</i>
   <i name="OMEGATL">   -200.00000000</i>
   <i type="int" name="OMEGAGRID">   140</i>
   <i name="CSHIFT">     -0.10000000</i>
   <i type="logical" name="SELFENERGY"> F  </i>
   <i type="logical" name="LSPECTRAL"> F  </i>
   <i type="logical" name="LSPECTRALGW"> F  </i>
   <i type="logical" name="LSINGLES"> F  </i>
   <i type="logical" name="LFERMIGW"> F  </i>
   <i type="logical" name="ODDONLYGW"> F  </i>
   <i type="logical" name="EVENONLYGW"> F  </i>
   <i type="int" name="NKREDLFX">     1</i>
   <i type="int" name="NKREDLFY">     1</i>
   <i type="int" name="NKREDLFZ">     1</i>
   <i type="int" name="MAXMEM">  2800</i>
   <i type="int" name="TELESCOPE">     0</i>
   <i type="int" name="TAUPAR">     1</i>
   <i type="int" name="OMEGAPAR">    -1</i>
   <i name="LAMBDA">      1.00000000</i>
  </separator>
  <separator name="External order field" >
   <i name="OFIELD_KAPPA">      0.00000000</i>
   <v name="OFIELD_K">      0.00000000      0.00000000      0.00000000</v>
   <i name="OFIELD_Q6_NEAR">      0.00000000</i>
   <i name="OFIELD_Q6_FAR">      0.00000000</i>
   <i name="OFIELD_A">      0.00000000</i>
  </separator>
 </parameters>
 <atominfo>
  <atoms>     288 </atoms>
  <types>       2 </types>
  <array name="atoms" >
   <dimension dim="1">ion</dimension>
   <field type="string">element</field>
   <field type="int">atomtype</field>
   <set>
    <rc><c>Fe</c><c>   1</c></rc>
    <rc><c>Fe</c><c>   1</c></rc>
    <rc><c>Fe</c><c>   1</c></rc>
    <rc><c>Fe</c><c>   1</c></rc>
    <rc><c>Fe</c><c>   1</c></rc>
    <rc><c>Fe</c><c>   1</c></rc>
    <rc><c>Fe</c><c>   1</c></rc>
    <rc><c>Fe</c><c>   1</c></rc>
    <rc><c>Fe</c><c>   1</c></rc>
    <rc><c>Fe</c><c>   1</c></rc>
    <rc><c>Fe</c><c>   1</c></rc>
    <rc><c>Fe</c><c>   1</c></rc>
    <rc><c>Fe</c><c>   1</c></rc>
    <rc><c>Fe</c><c>   1</c></rc>
    <rc><c>Fe</c><c>   1</c></rc>
    <rc><c>Fe</c><c>   1</c></rc>
    <rc><c>Fe</c><c>   1</c></rc>
    <rc><c>Fe</c><c>   1</c></rc>
    <rc><c>Fe</c><c>   1</c></rc>
    <rc><c>Fe</c><c>   1</c></rc>
    <rc><c>Fe</c><c>   1</c></rc>
    <rc><c>Fe</c><c>   1</c></rc>
    <rc><c>Fe</c><c>   1</c></rc>
    <rc><c>Fe</c><c>   1</c></rc>
    <rc><c>Fe</c><c>   1</c></rc>
    <rc><c>Fe</c><c>   1</c></rc>
    <rc><c>Fe</c><c>   1</c></rc>
    <rc><c>Fe</c><c>   1</c></rc>
    <rc><c>Fe</c><c>   1</c></rc>
    <rc><c>Fe</c><c>   1</c></rc>
    <rc><c>Fe</c><c>   1</c></rc>
    <rc><c>Fe</c><c>   1</c></rc>
    <rc><c>Fe</c><c>   1</c></rc>
    <rc><c>Fe</c><c>   1</c></rc>
    <rc><c>Fe</c><c>   1</c></rc>
    <rc><c>Fe</c><c>   1</c></rc>
    <rc><c>Fe</c><c>   1</c></rc>
    <rc><c>Fe</c><c>   1</c></rc>
    <rc><c>Fe</c><c>   1</c></rc>
    <rc><c>Fe</c><c>   1</c></rc>
    <rc><c>Fe</c><c>   1</c></rc>
    <rc><c>Fe</c><c>   1</c></rc>
    <rc><c>Fe</c><c>   1</c></rc>
    <rc><c>Fe</c><c>   1</c></rc>
    <rc><c>Fe</c><c>   1</c></rc>
    <rc><c>Fe</c><c>   1</c></rc>
    <rc><c>Fe</c><c>   1</c></rc>
    <rc><c>Fe</c><c>   1</c></rc>
    <rc><c>Fe</c><c>   1</c></rc>
    <rc><c>Fe</c><c>   1</c></rc>
    <rc><c>Fe</c><c>   1</c></rc>
    <rc><c>Fe</c><c>   1</c></rc>
    <rc><c>Fe</c><c>   1</c></rc>
    <rc><c>Fe</c><c>   1</c></rc>
    <rc><c>Fe</c><c>   1</c></rc>
    <rc><c>Fe</c><c>   1</c></rc>
    <rc><c>Fe</c><c>   1</c></rc>
    <rc><c>Fe</c><c>   1</c></rc>
    <rc><c>Fe</c><c>   1</c></rc>
    <rc><c>Fe</c><c>   1</c></rc>
    <rc><c>Fe</c><c>   1</c></rc>
    <rc><c>Fe</c><c>   1</c></rc>
    <rc><c>Fe</c><c>   1</c></rc>
    <rc><c>Fe</c><c>   1</c></rc>
    <rc><c>Fe</c><c>   1</c></rc>
    <rc><c>Fe</c><c>   1</c></rc>
    <rc><c>Fe</c><c>   1</c></rc>
    <rc><c>Fe</c><c>   1</c></rc>
    <rc><c>Fe</c><c>   1</c></rc>
    <rc><c>Fe</c><c>   1</c></rc>
    <rc><c>Fe</c><c>   1</c></rc>
    <rc><c>Fe</c><c>   1</c></rc>
    <rc><c>Fe</c><c>   1</c></rc>
    <rc><c>Fe</c><c>   1</c></rc>
    <rc><c>Fe</c><c>   1</c></rc>
    <rc><c>Fe</c><c>   1</c></rc>
    <rc><c>Fe</c><c>   1</c></rc>
    <rc><c>Fe</c><c>   1</c></rc>
    <rc><c>Fe</c><c>   1</c></rc>
    <rc><c>Fe</c><c>   1</c></rc>
    <rc><c>Fe</c><c>   1</c></rc>
    <rc><c>Fe</c><c>   1</c></rc>
    <rc><c>Fe</c><c>   1</c></rc>
    <rc><c>Fe</c><c>   1</c></rc>
    <rc><c>Fe</c><c>   1</c></rc>
    <rc><c>Fe</c><c>   1</c></rc>
    <rc><c>Fe</c><c>   1</c></rc>
    <rc><c>Fe</c><c>   1</c></rc>
    <rc><c>Fe</c><c>   1</c></rc>
    <rc><c>Fe</c><c>   1</c></rc>
    <rc><c>Fe</c><c>   1</c></rc>
    <rc><c>Fe</c><c>   1</c></rc>
    <rc><c>Fe</c><c>   1</c></rc>
    <rc><c>Fe</c><c>   1</c></rc>
    <rc><c>Fe</c><c>   1</c></rc>
    <rc><c>Fe</c><c>   1</c></rc>
    <rc><c>Fe</c><c>   1</c></rc>
    <rc><c>Fe</c><c>   1</c></rc>
    <rc><c>Fe</c><c>   1</c></rc>
    <rc><c>Fe</c><c>   1</c></rc>
    <rc><c>Fe</c><c>   1</c></rc>
    <rc><c>Fe</c><c>   1</c></rc>
    <rc><c>Fe</c><c>   1</c></rc>
    <rc><c>Fe</c><c>   1</c></rc>
    <rc><c>Fe</c><c>   1</c></rc>
    <rc><c>Fe</c><c>   1</c></rc>
    <rc><c>Fe</c><c>   1</c></rc>
    <rc><c>Fe</c><c>   1</c></rc>
    <rc><c>Fe</c><c>   1</c></rc>
    <rc><c>Fe</c><c>   1</c></rc>
    <rc><c>Fe</c><c>   1</c></rc>
    <rc><c>Fe</c><c>   1</c></rc>
    <rc><c>Fe</c><c>   1</c></rc>
    <rc><c>Fe</c><c>   1</c></rc>
    <rc><c>Fe</c><c>   1</c></rc>
    <rc><c>Fe</c><c>   1</c></rc>
    <rc><c>Fe</c><c>   1</c></rc>
    <rc><c>Fe</c><c>   1</c></rc>
    <rc><c>Fe</c><c>   1</c></rc>
    <rc><c>Fe</c><c>   1</c></rc>
    <rc><c>Fe</c><c>   1</c></rc>
    <rc><c>Fe</c><c>   1</c></rc>
    <rc><c>Fe</c><c>   1</c></rc>
    <rc><c>Fe</c><c>   1</c></rc>
    <rc><c>Fe</c><c>   1</c></rc>
    <rc><c>Fe</c><c>   1</c></rc>
    <rc><c>Fe</c><c>   1</c></rc>
    <rc><c>Fe</c><c>   1</c></rc>
    <rc><c>Fe</c><c>   1</c></rc>
    <rc><c>Fe</c><c>   1</c></rc>
    <rc><c>Fe</c><c>   1</c></rc>
    <rc><c>Fe</c><c>   1</c></rc>
    <rc><c>Fe</c><c>   1</c></rc>
    <rc><c>Fe</c><c>   1</c></rc>
    <rc><c>Fe</c><c>   1</c></rc>
    <rc><c>Fe</c><c>   1</c></rc>
    <rc><c>Fe</c><c>   1</c></rc>
    <rc><c>Fe</c><c>   1</c></rc>
    <rc><c>Fe</c><c>   1</c></rc>
    <rc><c>Fe</c><c>   1</c></rc>
    <rc><c>Fe</c><c>   1</c></rc>
    <rc><c>Fe</c><c>   1</c></rc>
    <rc><c>Fe</c><c>   1</c></rc>
    <rc><c>Fe</c><c>   1</c></rc>
    <rc><c>Fe</c><c>   1</c></rc>
    <rc><c>Fe</c><c>   1</c></rc>
    <rc><c>Fe</c><c>   1</c></rc>
    <rc><c>Fe</c><c>   1</c></rc>
    <rc><c>Fe</c><c>   1</c></rc>
    <rc><c>Fe</c><c>   1</c></rc>
    <rc><c>Fe</c><c>   1</c></rc>
    <rc><c>Fe</c><c>   1</c></rc>
    <rc><c>Fe</c><c>   1</c></rc>
    <rc><c>Fe</c><c>   1</c></rc>
    <rc><c>Fe</c><c>   1</c></rc>
    <rc><c>Fe</c><c>   1</c></rc>
    <rc><c>Fe</c><c>   1</c></rc>
    <rc><c>Fe</c><c>   1</c></rc>
    <rc><c>Fe</c><c>   1</c></rc>
    <rc><c>Fe</c><c>   1</c></rc>
    <rc><c>Fe</c><c>   1</c></rc>
    <rc><c>Fe</c><c>   1</c></rc>
    <rc><c>Fe</c><c>   1</c></rc>
    <rc><c>Fe</c><c>   1</c></rc>
    <rc><c>Fe</c><c>   1</c></rc>
    <rc><c>Fe</c><c>   1</c></rc>
    <rc><c>Fe</c><c>   1</c></rc>
    <rc><c>Fe</c><c>   1</c></rc>
    <rc><c>Fe</c><c>   1</c></rc>
    <rc><c>Fe</c><c>   1</c></rc>
    <rc><c>Fe</c><c>   1</c></rc>
    <rc><c>Fe</c><c>   1</c></rc>
    <rc><c>Fe</c><c>   1</c></rc>
    <rc><c>Fe</c><c>   1</c></rc>
    <rc><c>Fe</c><c>   1</c></rc>
    <rc><c>Fe</c><c>   1</c></rc>
    <rc><c>Fe</c><c>   1</c></rc>
    <rc><c>Fe</c><c>   1</c></rc>
    <rc><c>Fe</c><c>   1</c></rc>
    <rc><c>Fe</c><c>   1</c></rc>
    <rc><c>Fe</c><c>   1</c></rc>
    <rc><c>Fe</c><c>   1</c></rc>
    <rc><c>Fe</c><c>   1</c></rc>
    <rc><c>Fe</c><c>   1</c></rc>
    <rc><c>Fe</c><c>   1</c></rc>
    <rc><c>Fe</c><c>   1</c></rc>
    <rc><c>Fe</c><c>   1</c></rc>
    <rc><c>Fe</c><c>   1</c></rc>
    <rc><c>Fe</c><c>   1</c></rc>
    <rc><c>Fe</c><c>   1</c></rc>
    <rc><c>Fe</c><c>   1</c></rc>
    <rc><c>Fe</c><c>   1</c></rc>
    <rc><c>Fe</c><c>   1</c></rc>
    <rc><c>Fe</c><c>   1</c></rc>
    <rc><c>Fe</c><c>   1</c></rc>
    <rc><c>Fe</c><c>   1</c></rc>
    <rc><c>Fe</c><c>   1</c></rc>
    <rc><c>Fe</c><c>   1</c></rc>
    <rc><c>Fe</c><c>   1</c></rc>
    <rc><c>Fe</c><c>   1</c></rc>
    <rc><c>Fe</c><c>   1</c></rc>
    <rc><c>Fe</c><c>   1</c></rc>
    <rc><c>Fe</c><c>   1</c></rc>
    <rc><c>Fe</c><c>   1</c></rc>
    <rc><c>Fe</c><c>   1</c></rc>
    <rc><c>Fe</c><c>   1</c></rc>
    <rc><c>Fe</c><c>   1</c></rc>
    <rc><c>Fe</c><c>   1</c></rc>
    <rc><c>Fe</c><c>   1</c></rc>
    <rc><c>Fe</c><c>   1</c></rc>
    <rc><c>Fe</c><c>   1</c></rc>
    <rc><c>Fe</c><c>   1</c></rc>
    <rc><c>Fe</c><c>   1</c></rc>
    <rc><c>Fe</c><c>   1</c></rc>
    <rc><c>Fe</c><c>   1</c></rc>
    <rc><c>Fe</c><c>   1</c></rc>
    <rc><c>Fe</c><c>   1</c></rc>
    <rc><c>Fe</c><c>   1</c></rc>
    <rc><c>Fe</c><c>   1</c></rc>
    <rc><c>Fe</c><c>   1</c></rc>
    <rc><c>Fe</c><c>   1</c></rc>
    <rc><c>Fe</c><c>   1</c></rc>
    <rc><c>Fe</c><c>   1</c></rc>
    <rc><c>Fe</c><c>   1</c></rc>
    <rc><c>Fe</c><c>   1</c></rc>
    <rc><c>Fe</c><c>   1</c></rc>
    <rc><c>Fe</c><c>   1</c></rc>
    <rc><c>Fe</c><c>   1</c></rc>
    <rc><c>Fe</c><c>   1</c></rc>
    <rc><c>Fe</c><c>   1</c></rc>
    <rc><c>Fe</c><c>   1</c></rc>
    <rc><c>Fe</c><c>   1</c></rc>
    <rc><c>Fe</c><c>   1</c></rc>
    <rc><c>Fe</c><c>   1</c></rc>
    <rc><c>Fe</c><c>   1</c></rc>
    <rc><c>Fe</c><c>   1</c></rc>
    <rc><c>Fe</c><c>   1</c></rc>
    <rc><c>Fe</c><c>   1</c></rc>
    <rc><c>Fe</c><c>   1</c></rc>
    <rc><c>Fe</c><c>   1</c></rc>
    <rc><c>Fe</c><c>   1</c></rc>
    <rc><c>Fe</c><c>   1</c></rc>
    <rc><c>Fe</c><c>   1</c></rc>
    <rc><c>Fe</c><c>   1</c></rc>
    <rc><c>Fe</c><c>   1</c></rc>
    <rc><c>Fe</c><c>   1</c></rc>
    <rc><c>Fe</c><c>   1</c></rc>
    <rc><c>Fe</c><c>   1</c></rc>
    <rc><c>Fe</c><c>   1</c></rc>
    <rc><c>Fe</c><c>   1</c></rc>
    <rc><c>Fe</c><c>   1</c></rc>
    <rc><c>Fe</c><c>   1</c></rc>
    <rc><c>Fe</c><c>   1</c></rc>
    <rc><c>Fe</c><c>   1</c></rc>
    <rc><c>Fe</c><c>   1</c></rc>
    <rc><c>Fe</c><c>   1</c></rc>
    <rc><c>Fe</c><c>   1</c></rc>
    <rc><c>Fe</c><c>   1</c></rc>
    <rc><c>Fe</c><c>   1</c></rc>
    <rc><c>Fe</c><c>   1</c></rc>
    <rc><c>Fe</c><c>   1</c></rc>
    <rc><c>Fe</c><c>   1</c></rc>
    <rc><c>Fe</c><c>   1</c></rc>
    <rc><c>Fe</c><c>   1</c></rc>
    <rc><c>Fe</c><c>   1</c></rc>
    <rc><c>Fe</c><c>   1</c></rc>
    <rc><c>Fe</c><c>   1</c></rc>
    <rc><c>Fe</c><c>   1</c></rc>
    <rc><c>Fe</c><c>   1</c></rc>
    <rc><c>Fe</c><c>   1</c></rc>
    <rc><c>Fe</c><c>   1</c></rc>
    <rc><c>Fe</c><c>   1</c></rc>
    <rc><c>Fe</c><c>   1</c></rc>
    <rc><c>Mn</c><c>   2</c></rc>
    <rc><c>Mn</c><c>   2</c></rc>
    <rc><c>Mn</c><c>   2</c></rc>
    <rc><c>Mn</c><c>   2</c></rc>
    <rc><c>Mn</c><c>   2</c></rc>
    <rc><c>Mn</c><c>   2</c></rc>
    <rc><c>Mn</c><c>   2</c></rc>
    <rc><c>Mn</c><c>   2</c></rc>
    <rc><c>Mn</c><c>   2</c></rc>
    <rc><c>Mn</c><c>   2</c></rc>
    <rc><c>Mn</c><c>   2</c></rc>
    <rc><c>Mn</c><c>   2</c></rc>
    <rc><c>Mn</c><c>   2</c></rc>
    <rc><c>Mn</c><c>   2</c></rc>
    <rc><c>Mn</c><c>   2</c></rc>
   </set>
  </array>
  <array name="atomtypes" >
   <dimension dim="1">type</dimension>
   <field type="int">atomspertype</field>
   <field type="string">element</field>
   <field>mass</field>
   <field>valence</field>
   <field type="string">pseudopotential</field>
   <set>
    <rc><c> 273</c><c>Fe</c><c>     55.84700000</c><c>      8.00000000</c><c>  PAW_PBE Fe_GW 31Mar2010               </c></rc>
    <rc><c>  15</c><c>Mn</c><c>     54.93800000</c><c>      7.00000000</c><c>  PAW_PBE Mn_GW 31Mar2010               </c></rc>
   </set>
  </array>
 </atominfo>
 <structure name="initialpos" >
  <crystal>
   <varray name="basis" >
    <v>       9.72667800       0.00000000       0.00000000 </v>
    <v>       0.00000000       8.42355000       0.00000000 </v>
    <v>       0.00000000       0.00000000      45.00000000 </v>
   </varray>
   <i name="volume">   3686.99213101 </i>
   <varray name="rec_basis" >
    <v>       0.10281002       0.00000000       0.00000000 </v>
    <v>       0.00000000       0.11871479       0.00000000 </v>
    <v>       0.00000000       0.00000000       0.02222222 </v>
   </varray>
  </crystal>
  <varray name="positions" >
   <v>       0.06249985       0.04256052       0.61055333 </v>
   <v>       0.68810310       0.63133811       0.78761128 </v>
   <v>       0.81238249       0.03089744       0.25652211 </v>
   <v>       0.06274558       0.20805415       0.56553662 </v>
   <v>       0.18764417       0.78604001       0.38939171 </v>
   <v>       0.06188592       0.36441777       0.16739185 </v>
   <v>       0.93744711       0.63208531       0.78783417 </v>
   <v>       0.81187468       0.36425328       0.16738504 </v>
   <v>       0.31276665       0.20504561       0.47873531 </v>
   <v>       0.31179923       0.87176234       0.52137661 </v>
   <v>       0.06233430       0.03093002       0.25649160 </v>
   <v>       0.06197265       0.70182873       0.34540048 </v>
   <v>       0.56207724       0.37331247       0.52127429 </v>
   <v>       0.56219108       0.03106282       0.25649024 </v>
   <v>       0.93721010       0.45127925       0.34520548 </v>
   <v>       0.68765871       0.78584858       0.38950731 </v>
   <v>       0.81260984       0.04945528       0.87477006 </v>
   <v>       0.81344712       0.69514124       0.21235656 </v>
   <v>       0.56218314       0.87670740       0.65482788 </v>
   <v>       0.81237458       0.36985457       0.43440936 </v>
   <v>       0.81211544       0.53044712       0.25652021 </v>
   <v>       0.06180325       0.71331807       0.83255257 </v>
   <v>       0.06324584       0.02946148       0.12537251 </v>
   <v>       0.06299420       0.52918677       0.12530308 </v>
   <v>       0.81213468       0.37293192       0.52136217 </v>
   <v>       0.93765677       0.13198557       0.78777877 </v>
   <v>       0.06227839       0.53103385       0.25649552 </v>
   <v>       0.43786406       0.61608517       0.30061148 </v>
   <v>       0.93764453       0.46195511       0.69934958 </v>
   <v>       0.43666088       0.11408177       0.16729159 </v>
   <v>       0.31276912       0.36955324       0.43433437 </v>
   <v>       0.93739679       0.96164340       0.69956881 </v>
   <v>       0.18747542       0.12285831       0.52136548 </v>
   <v>       0.81276011       0.87212745       0.52149363 </v>
   <v>       0.43732902       0.45810171       0.56557846 </v>
   <v>       0.68792360       0.11565398       0.30065787 </v>
   <v>       0.43742200       0.96298153       0.83262556 </v>
   <v>       0.18664761       0.29746492       0.87466744 </v>
   <v>       0.56185782       0.21414795       0.83263348 </v>
   <v>       0.31272530       0.88212587       0.78757504 </v>
   <v>       0.93726177       0.79736567       0.87461976 </v>
   <v>       0.68729415       0.28072408       0.25647556 </v>
   <v>       0.93801473       0.27959254       0.12539083 </v>
   <v>       0.68689531       0.11414225       0.16724885 </v>
   <v>       0.43761121       0.77944231       0.12527440 </v>
   <v>       0.68766902       0.46266192       0.83261902 </v>
   <v>       0.68737225       0.29656326       0.74358691 </v>
   <v>       0.31216762       0.87643662       0.65471010 </v>
   <v>       0.43735681       0.78068386       0.25651913 </v>
   <v>       0.68681139       0.95158386       0.34524940 </v>
   <v>       0.43689939       0.61408921       0.16717450 </v>
   <v>       0.43719080       0.11997746       0.43450223 </v>
   <v>       0.18804428       0.77921412       0.12525255 </v>
   <v>       0.56286761       0.03488045       0.38948721 </v>
   <v>       0.43751962       0.13279356       0.78756321 </v>
   <v>       0.31246901       0.37661606       0.65473915 </v>
   <v>       0.18715974       0.95120920       0.34529558 </v>
   <v>       0.18802947       0.27920571       0.12534046 </v>
   <v>       0.56156306       0.20481561       0.47856077 </v>
   <v>       0.43780481       0.29215665       0.61055282 </v>
   <v>       0.93734081       0.46301631       0.83266384 </v>
   <v>       0.56307484       0.02925868       0.12530389 </v>
   <v>       0.56209007       0.20167824       0.34527743 </v>
   <v>       0.43796771       0.27962525       0.12534378 </v>
   <v>       0.56239580       0.54894113       0.87467368 </v>
   <v>       0.06223513       0.88209715       0.78750012 </v>
   <v>       0.31286359       0.02961821       0.12534294 </v>
   <v>       0.31236800       0.20792612       0.56560714 </v>
   <v>       0.68739565       0.96298283       0.83277281 </v>
   <v>       0.06248677       0.70775615       0.56554370 </v>
   <v>       0.68697339       0.78115363       0.25644115 </v>
   <v>       0.18781191       0.29279993       0.61056094 </v>
   <v>       0.43769173       0.11608612       0.30057797 </v>
   <v>       0.93752068       0.79238227       0.61050858 </v>
   <v>       0.56277107       0.88167759       0.78754336 </v>
   <v>       0.93684509       0.96304381       0.83271876 </v>
   <v>       0.56284199       0.54246927       0.61060486 </v>
   <v>       0.81215815       0.54911418       0.87460244 </v>
   <v>       0.18769564       0.79231223       0.61046981 </v>
   <v>       0.81251694       0.53542288       0.38950589 </v>
   <v>       0.93856228       0.77945175       0.12531282 </v>
   <v>       0.06235342       0.87638860       0.65477349 </v>
   <v>       0.18746765       0.13248485       0.78772279 </v>
   <v>       0.18774342       0.28642961       0.38944691 </v>
   <v>       0.06289518       0.36528171       0.30062553 </v>
   <v>       0.31192407       0.04713028       0.74358990 </v>
   <v>       0.06290718       0.20580038       0.47856113 </v>
   <v>       0.56317229       0.86619322       0.30063144 </v>
   <v>       0.81254299       0.38139914       0.78783186 </v>
   <v>       0.31227731       0.53089060       0.25644362 </v>
   <v>       0.43731242       0.28091643       0.25645997 </v>
   <v>       0.43766828       0.28574823       0.38944274 </v>
   <v>       0.06251319       0.38192203       0.78766232 </v>
   <v>       0.56260231       0.71196091       0.69949356 </v>
   <v>       0.18766884       0.61592515       0.30058353 </v>
   <v>       0.18704435       0.12675258       0.65473568 </v>
   <v>       0.18765956       0.79706757       0.74340048 </v>
   <v>       0.81338163       0.19568058       0.21230901 </v>
   <v>       0.81221398       0.71340830       0.83262332 </v>
   <v>       0.18848164       0.44579915       0.21228772 </v>
   <v>       0.06241801       0.54904299       0.87456965 </v>
   <v>       0.81275374       0.20610696       0.47861056 </v>
   <v>       0.18643291       0.45154172       0.34528086 </v>
   <v>       0.31206229       0.36430009       0.16742659 </v>
   <v>       0.18705005       0.45763965       0.56559009 </v>
   <v>       0.43778622       0.79264239       0.61053912 </v>
   <v>       0.56210269       0.36417298       0.16731547 </v>
   <v>       0.93702320       0.28076308       0.25647872 </v>
   <v>       0.93741993       0.95811224       0.56572995 </v>
   <v>       0.68828254       0.44541427       0.21235718 </v>
   <v>       0.56188969       0.70176363       0.34524557 </v>
   <v>       0.06193633       0.70621764       0.47855284 </v>
   <v>       0.06212296       0.86390360       0.16730903 </v>
   <v>       0.56332886       0.36566001       0.30045354 </v>
   <v>       0.31354202       0.19643225       0.21232204 </v>
   <v>       0.93793013       0.95520889       0.47864670 </v>
   <v>       0.56295917       0.53541509       0.38963057 </v>
   <v>       0.06223481       0.54712768       0.74358222 </v>
   <v>       0.81214033       0.20119365       0.34525485 </v>
   <v>       0.43713740       0.12225914       0.52126280 </v>
   <v>       0.93703102       0.61407748       0.16723965 </v>
   <v>       0.56258226       0.38209401       0.78752156 </v>
   <v>       0.81226421       0.86977149       0.43438361 </v>
   <v>       0.31250205       0.70751403       0.56553622 </v>
   <v>       0.43697228       0.62633935       0.65471524 </v>
   <v>       0.93777000       0.78632084       0.38959713 </v>
   <v>       0.06240839       0.54220242       0.61047538 </v>
   <v>       0.31259884       0.54791661       0.87469343 </v>
   <v>       0.68819176       0.96215309       0.69935374 </v>
   <v>       0.43750134       0.62161879       0.52145629 </v>
   <v>       0.18842346       0.62250877       0.52146152 </v>
   <v>       0.31231638       0.04207091       0.61050266 </v>
   <v>       0.18711962       0.28090234       0.25641181 </v>
   <v>       0.31218488       0.54271805       0.61054716 </v>
   <v>       0.31190922       0.70147369       0.34517963 </v>
   <v>       0.06264369       0.03623051       0.38948169 </v>
   <v>       0.56318803       0.69548966       0.21230779 </v>
   <v>       0.31245743       0.21370423       0.83272888 </v>
   <v>       0.81264212       0.21363333       0.83272892 </v>
   <v>       0.93700279       0.78063584       0.25654309 </v>
   <v>       0.31327035       0.86605703       0.30064572 </v>
   <v>       0.06252911       0.04727855       0.74347910 </v>
   <v>       0.43763699       0.63243108       0.78772715 </v>
   <v>       0.93706220       0.29702326       0.74349712 </v>
   <v>       0.06199325       0.87256342       0.52127499 </v>
   <v>       0.31187507       0.70604115       0.47858050 </v>
   <v>       0.68763773       0.12020258       0.43450034 </v>
   <v>       0.68768771       0.28533758       0.38949827 </v>
   <v>       0.68723416       0.45767073       0.56566718 </v>
   <v>       0.81297097       0.70533331       0.47872681 </v>
   <v>       0.43859050       0.29799956       0.87470893 </v>
   <v>       0.18815318       0.96344755       0.83274141 </v>
   <v>       0.18812226       0.11514429       0.30052246 </v>
   <v>       0.18702977       0.11434262       0.16725967 </v>
   <v>       0.56253509       0.21199008       0.69934253 </v>
   <v>       0.43710748       0.12652517       0.65481661 </v>
   <v>       0.31237875       0.38315338       0.78739578 </v>
   <v>       0.81227865       0.04699056       0.74350640 </v>
   <v>       0.68706526       0.62251455       0.52142919 </v>
   <v>       0.31253282       0.71464525       0.83273119 </v>
   <v>       0.43801776       0.94565031       0.21225897 </v>
   <v>       0.68799817       0.78010999       0.12531206 </v>
   <v>       0.81252410       0.88193461       0.78761642 </v>
   <v>       0.18685474       0.63207794       0.78749580 </v>
   <v>       0.56197642       0.70778291       0.56561012 </v>
   <v>       0.18731548       0.95815859       0.56567426 </v>
   <v>       0.68704599       0.61405451       0.16737712 </v>
   <v>       0.06284225       0.21200403       0.69940686 </v>
   <v>       0.68777620       0.12241367       0.52135723 </v>
   <v>       0.43760582       0.96243773       0.69936589 </v>
   <v>       0.18786462       0.95539417       0.47866703 </v>
   <v>       0.56220541       0.71352472       0.83261898 </v>
   <v>       0.18676984       0.79733605       0.87471495 </v>
   <v>       0.31183850       0.03125140       0.25661043 </v>
   <v>       0.18717076       0.45421409       0.47863736 </v>
   <v>       0.93706807       0.95157436       0.34531546 </v>
   <v>       0.56234890       0.54722360       0.74347664 </v>
   <v>       0.31231371       0.03525228       0.38950397 </v>
   <v>       0.81231480       0.54729721       0.74353829 </v>
   <v>       0.56189603       0.53028758       0.25640665 </v>
   <v>       0.68775032       0.29823717       0.87478223 </v>
   <v>       0.68768672       0.45533380       0.47858470 </v>
   <v>       0.93691733       0.45504099       0.47850270 </v>
   <v>       0.81264300       0.21208465       0.69943460 </v>
   <v>       0.18764840       0.46204291       0.69941564 </v>
   <v>       0.81204654       0.87598187       0.65465614 </v>
   <v>       0.68702579       0.62606048       0.65477372 </v>
   <v>       0.06273298       0.21320341       0.83268962 </v>
   <v>       0.68704519       0.79223788       0.61058263 </v>
   <v>       0.31240696       0.87003582       0.43438679 </v>
   <v>       0.81189596       0.86462050       0.16733556 </v>
   <v>       0.81335682       0.36534077       0.30056019 </v>
   <v>       0.93742783       0.45822572       0.56564212 </v>
   <v>       0.81282878       0.03567538       0.38950738 </v>
   <v>       0.43833909       0.44551729       0.21218005 </v>
   <v>       0.93728130       0.62609406       0.65465274 </v>
   <v>       0.68739896       0.61965703       0.43435170 </v>
   <v>       0.68810587       0.27998721       0.12533140 </v>
   <v>       0.81199434       0.70181252       0.34525376 </v>
   <v>       0.31176479       0.86380086       0.16736666 </v>
   <v>       0.81312988       0.52940862       0.12537431 </v>
   <v>       0.56350031       0.19546835       0.21227789 </v>
   <v>       0.81293333       0.54219110       0.61060225 </v>
   <v>       0.31272002       0.71221818       0.69923125 </v>
   <v>       0.68831184       0.79799227       0.87467076 </v>
   <v>       0.43744484       0.29654365       0.74357559 </v>
   <v>       0.18698377       0.46378466       0.83248455 </v>
   <v>       0.93819442       0.11526678       0.30066930 </v>
   <v>       0.68733798       0.12617000       0.65479840 </v>
   <v>       0.18699183       0.61432168       0.16721829 </v>
   <v>       0.93766636       0.28572812       0.38937217 </v>
   <v>       0.43771225       0.95637657       0.47854142 </v>
   <v>       0.31312663       0.52914649       0.12529344 </v>
   <v>       0.68779192       0.13239102       0.78786228 </v>
   <v>       0.93746455       0.12247381       0.52146686 </v>
   <v>       0.68649882       0.95558686       0.47872223 </v>
   <v>       0.18847405       0.94553108       0.21224816 </v>
   <v>       0.06274312       0.71144081       0.69937294 </v>
   <v>       0.18733722       0.12025004       0.43445360 </v>
   <v>       0.31211284       0.20184745       0.34530276 </v>
   <v>       0.56307699       0.70563649       0.47861671 </v>
   <v>       0.93729214       0.11411417       0.16736983 </v>
   <v>       0.68738883       0.29213245       0.61050899 </v>
   <v>       0.06309711       0.69537773       0.21225939 </v>
   <v>       0.68689617       0.79677305       0.74360605 </v>
   <v>       0.18738805       0.96220646       0.69936799 </v>
   <v>       0.18723507       0.62007765       0.43439906 </v>
   <v>       0.56311134       0.52954772       0.12532894 </v>
   <v>       0.93749353       0.29813409       0.87476442 </v>
   <v>       0.43727484       0.61989917       0.43445840 </v>
   <v>       0.06274821       0.53623208       0.38957236 </v>
   <v>       0.93673727       0.62325457       0.52124809 </v>
   <v>       0.93846311       0.44528867       0.21223062 </v>
   <v>       0.31254832       0.21230528       0.69937057 </v>
   <v>       0.93724347       0.12025912       0.43432475 </v>
   <v>       0.56229757       0.20762544       0.56572235 </v>
   <v>       0.06260558       0.86577283       0.30071719 </v>
   <v>       0.81210617       0.37609559       0.65493204 </v>
   <v>       0.68756281       0.46220200       0.69947686 </v>
   <v>       0.93758613       0.62007031       0.43440498 </v>
   <v>       0.06187449       0.20120751       0.34517203 </v>
   <v>       0.06324768       0.37199766       0.52130311 </v>
   <v>       0.93742625       0.12655569       0.65476355 </v>
   <v>       0.18718514       0.29685805       0.74356843 </v>
   <v>       0.56228806       0.36971604       0.43439605 </v>
   <v>       0.81302125       0.02908919       0.12531496 </v>
   <v>       0.93770487       0.79722487       0.74354357 </v>
   <v>       0.06165642       0.05028720       0.87471092 </v>
   <v>       0.81215171       0.20782120       0.56562136 </v>
   <v>       0.31372500       0.69568706       0.21214894 </v>
   <v>       0.43705138       0.45186694       0.34533518 </v>
   <v>       0.56316123       0.87201725       0.52139059 </v>
   <v>       0.43765910       0.46211173       0.69928971 </v>
   <v>       0.06225868       0.37004671       0.43437738 </v>
   <v>       0.93796610       0.61609734       0.30060393 </v>
   <v>       0.81297711       0.86597258       0.30062909 </v>
   <v>       0.43700036       0.46406432       0.83269576 </v>
   <v>       0.43713682       0.79711445       0.74352839 </v>
   <v>       0.43671721       0.95167691       0.34534735 </v>
   <v>       0.06317468       0.19615391       0.21232328 </v>
   <v>       0.31229707       0.37264706       0.52136793 </v>
   <v>       0.56185909       0.37639286       0.65457917 </v>
   <v>       0.31203491       0.54657381       0.74352456 </v>
   <v>       0.18743097       0.62660401       0.65474730 </v>
   <v>       0.68821594       0.61572287       0.30065189 </v>
   <v>       0.56249694       0.86955126       0.43451949 </v>
   <v>       0.43686796       0.95797410       0.56567955 </v>
   <v>       0.43824477       0.45461322       0.47874386 </v>
   <v>       0.56439030       0.05002598       0.87458290 </v>
   <v>       0.06235354       0.37668416       0.65475185 </v>
   <v>       0.93897612       0.94545712       0.21234911 </v>
   <v>       0.81316058       0.04205930       0.61045510 </v>
   <v>       0.56199618       0.86455977       0.16729926 </v>
   <v>       0.43793707       0.78610672       0.38942014 </v>
   <v>       0.31149759       0.05013984       0.87451385 </v>
   <v>       0.68848949       0.94516859       0.21257360 </v>
   <v>       0.18692480       0.78100079       0.25646722 </v>
   <v>       0.31265697       0.53542174       0.38930272 </v>
   <v>       0.56193416       0.04205627       0.61084285 </v>
   <v>       0.81286097       0.71152288       0.69931735 </v>
   <v>       0.06197951       0.86996492       0.43444370 </v>
   <v>       0.68726511       0.45187856       0.34529266 </v>
   <v>       0.43752338       0.79665088       0.87452032 </v>
   <v>       0.93755409       0.29262000       0.61072947 </v>
   <v>       0.81296821       0.70713061       0.56559346 </v>
   <v>       0.31296126       0.36575572       0.30057740 </v>
   <v>       0.68754817       0.95847317       0.56547155 </v>
   <v>       0.56220736       0.04687411       0.74350489 </v>
  </varray>
 </structure>
 <calculation>
  <scstep>
   <time name="dav">  146.00  146.00</time>
   <time name="total">  146.42  146.42</time>
   <energy>
    <i name="alphaZ">  16277.55763135 </i>
    <i name="ewald"> 735061.74393182 </i>
    <i name="hartreedc">-925361.25059747 </i>
    <i name="XCdc">  -6527.60609769 </i>
    <i name="pawpsdc"> 162148.49262465 </i>
    <i name="pawaedc">-159453.03229289 </i>
    <i name="eentropy">     -0.95448602 </i>
    <i name="bandstr">  39753.02948721 </i>
    <i name="atom"> 168497.18126305 </i>
    <i name="e_fr_energy">  30395.16146400 </i>
    <i name="e_wo_entrp">  30396.11595002 </i>
    <i name="e_0_energy">  30395.63870701 </i>
   </energy>
  </scstep>
  <scstep>
   <time name="dav">  139.90  139.89</time>
   <time name="total">  139.90  139.90</time>
   <energy>
    <i name="e_fr_energy">   1524.68232726 </i>
    <i name="e_wo_entrp">   1526.06732269 </i>
    <i name="e_0_energy">   1525.37482498 </i>
   </energy>
  </scstep>
  <scstep>
   <time name="dav">  176.26  176.26</time>
   <time name="total">  176.26  176.26</time>
   <energy>
    <i name="e_fr_energy">  -1897.15814584 </i>
    <i name="e_wo_entrp">  -1893.61958358 </i>
    <i name="e_0_energy">  -1895.38886471 </i>
   </energy>
  </scstep>
  <scstep>
   <time name="dav">  217.51  217.51</time>
   <time name="total">  217.52  217.51</time>
   <energy>
    <i name="e_fr_energy">  -2609.40855033 </i>
    <i name="e_wo_entrp">  -2605.93823960 </i>
    <i name="e_0_energy">  -2607.67339496 </i>
   </energy>
  </scstep>
  <scstep>
   <time name="dav">  208.56  208.56</time>
   <time name="total">  213.21  213.21</time>
   <energy>
    <i name="e_fr_energy">  -2739.04976907 </i>
    <i name="e_wo_entrp">  -2735.49494058 </i>
    <i name="e_0_energy">  -2737.27235483 </i>
   </energy>
  </scstep>
  <scstep>
   <time name="diag">   29.38   29.38</time>
   <time name="diis">   74.76   74.76</time>
   <time name="orth">    8.69    8.69</time>
   <time name="total">  118.40  118.40</time>
   <energy>
    <i name="e_fr_energy">  -6148.41952355 </i>
    <i name="e_wo_entrp">  -6144.93522823 </i>
    <i name="e_0_energy">  -6146.67737589 </i>
   </energy>
  </scstep>
  <scstep>
   <time name="diag">   30.68   30.68</time>
   <time name="diis">   77.63   77.63</time>
   <time name="orth">    8.65    8.65</time>
   <time name="total">  122.31  122.31</time>
   <energy>
    <i name="e_fr_energy">  -4616.64644936 </i>
    <i name="e_wo_entrp">  -4610.64059491 </i>
    <i name="e_0_energy">  -4613.64352213 </i>
   </energy>
  </scstep>
  <scstep>
[...]
    <v>       0.56379566       0.04849574       0.87468803 </v>
    <v>       0.06247609       0.37688640       0.65463595 </v>
    <v>       0.93840285       0.94623219       0.21229782 </v>
    <v>       0.81269149       0.04207382       0.61037409 </v>
    <v>       0.56254940       0.86376190       0.16745730 </v>
    <v>       0.43784744       0.78604836       0.38949573 </v>
    <v>       0.31135845       0.04887941       0.87450085 </v>
    <v>       0.68804656       0.94621204       0.21254590 </v>
    <v>       0.18737691       0.78123013       0.25641493 </v>
    <v>       0.31237941       0.53529551       0.38945012 </v>
    <v>       0.56200300       0.04209582       0.61071043 </v>
    <v>       0.81269608       0.71157936       0.69917712 </v>
    <v>       0.06229325       0.87049417       0.43449853 </v>
    <v>       0.68748640       0.45130868       0.34543264 </v>
    <v>       0.43767716       0.79685230       0.87444195 </v>
    <v>       0.93744782       0.29238583       0.61066752 </v>
    <v>       0.81306869       0.70676451       0.56557074 </v>
    <v>       0.31264111       0.36597046       0.30075197 </v>
    <v>       0.68734823       0.95819081       0.56539841 </v>
    <v>       0.56236169       0.04678055       0.74352949 </v>
   </varray>
  </structure>
  <varray name="forces" >
   <v>      -0.00045701      -0.00550475      -0.01774197 </v>
   <v>      -0.00203033      -0.02164571      -0.02189576 </v>
   <v>       0.01023038       0.01089538       0.02656685 </v>
   <v>       0.00566493      -0.00494942      -0.00122571 </v>
   <v>       0.00190228      -0.00217248       0.01858044 </v>
   <v>       0.00661991      -0.00585575      -0.00654759 </v>
   <v>       0.00070529      -0.02047039      -0.01870660 </v>
   <v>       0.00946595      -0.00678344      -0.01107991 </v>
   <v>      -0.00135156       0.02372714       0.01639119 </v>
   <v>       0.01937789       0.00131810      -0.00892749 </v>
   <v>       0.01021870       0.01227067       0.01991383 </v>
   <v>       0.01345790      -0.00577645       0.01775176 </v>
   <v>       0.02157390      -0.03321815      -0.01888558 </v>
   <v>       0.00458077       0.00810111       0.02734375 </v>
   <v>       0.01493711      -0.00915893       0.01513754 </v>
   <v>      -0.00338114       0.00254800       0.02582276 </v>
   <v>      -0.00161494      -0.00128946      -0.02378743 </v>
   <v>      -0.01133636       0.01501146       0.02586687 </v>
   <v>       0.00491083       0.00943908      -0.02258656 </v>
   <v>       0.00296915       0.00482685      -0.00028464 </v>
   <v>       0.00661731       0.00579770       0.01698809 </v>
   <v>      -0.00524523       0.00910847       0.00204529 </v>
   <v>      -0.00413915       0.00559467       0.01567556 </v>
   <v>      -0.00557140       0.00606489       0.01721515 </v>
   <v>      -0.01184472      -0.00476000      -0.01125961 </v>
   <v>       0.00305299      -0.01733502      -0.02494975 </v>
   <v>       0.00708013       0.00765684       0.01763651 </v>
   <v>      -0.00558376       0.01093497       0.00332393 </v>
   <v>      -0.00711276      -0.00648645      -0.01692527 </v>
   <v>       0.00592832      -0.00681265      -0.01592821 </v>
   <v>      -0.00017256      -0.00342397       0.01303267 </v>
   <v>      -0.01215999      -0.00139172      -0.01363286 </v>
   <v>       0.00799178      -0.02513403      -0.01170902 </v>
   <v>      -0.01364780      -0.01559734      -0.02274549 </v>
   <v>       0.00344982      -0.00180537       0.00448581 </v>
   <v>      -0.00534081       0.00013910       0.00599798 </v>
   <v>       0.01121806       0.00750970      -0.01213957 </v>
   <v>      -0.00690945      -0.01712305      -0.00025575 </v>
   <v>       0.00813183       0.01006380       0.00002719 </v>
   <v>       0.00017902      -0.02223955      -0.03299192 </v>
   <v>      -0.00319506      -0.01461290      -0.02009244 </v>
   <v>       0.00872314       0.01465479       0.02232391 </v>
   <v>      -0.00588725       0.00695696       0.01359799 </v>
   <v>       0.01040926      -0.01062150      -0.01518389 </v>
   <v>      -0.00544757       0.00885593       0.01655103 </v>
   <v>       0.00766837       0.00230478       0.00448554 </v>
   <v>       0.00201854      -0.01390693      -0.02131266 </v>
   <v>       0.01224415       0.00906359      -0.02546144 </v>
   <v>       0.00862513       0.00147199       0.03083183 </v>
   <v>       0.00482538      -0.00453756       0.01173545 </v>
   <v>       0.00356852      -0.01028900      -0.01059172 </v>
   <v>      -0.00259100       0.00845162      -0.00028978 </v>
   <v>      -0.00497300       0.01062422       0.01866778 </v>
   <v>      -0.00614879      -0.00081959       0.02170300 </v>
   <v>      -0.00876859      -0.01931036      -0.03001807 </v>
   <v>       0.01036565       0.00717997      -0.02447256 </v>
   <v>       0.00789133      -0.01061653       0.01448047 </v>
   <v>      -0.00591179       0.00557670       0.00821499 </v>
   <v>       0.00566653       0.03007896       0.01852419 </v>
   <v>       0.00095164       0.00427677      -0.01446306 </v>
   <v>       0.00104411       0.00794584       0.01111419 </v>
   <v>      -0.00541942       0.00615440       0.01673559 </v>
   <v>       0.00581239      -0.01525675       0.01964564 </v>
   <v>      -0.00242475       0.00551569       0.01500027 </v>
   <v>       0.00532220      -0.00676243      -0.00398647 </v>
   <v>       0.00251913      -0.01878561      -0.02832347 </v>
   <v>      -0.00436697       0.00552287       0.01496071 </v>
   <v>       0.00080615      -0.00136370      -0.00309066 </v>
   <v>       0.00638048       0.01012980       0.01114780 </v>
   <v>      -0.00216523       0.00188833       0.00340121 </v>
   <v>       0.00636428       0.00446800       0.02832628 </v>
   <v>      -0.00199246      -0.00062845      -0.01537307 </v>
   <v>      -0.00970119      -0.00126479       0.00306012 </v>
   <v>       0.00211466       0.00092259      -0.01627017 </v>
   <v>      -0.01119786      -0.03137812      -0.03174407 </v>
   <v>      -0.00941004       0.00970268       0.01157238 </v>
   <v>      -0.00305957       0.00321056      -0.00851911 </v>
   <v>      -0.00055202      -0.00125144      -0.01678372 </v>
   <v>      -0.00729245      -0.00129343      -0.02249827 </v>
   <v>      -0.00296982      -0.00412957       0.02977631 </v>
   <v>      -0.00548817       0.01084693       0.01735349 </v>
   <v>      -0.00181485       0.00449547      -0.02308528 </v>
   <v>      -0.00267566      -0.02204525      -0.03236193 </v>
   <v>       0.00432243      -0.00677209       0.02224182 </v>
   <v>      -0.00622377       0.00160365       0.01077725 </v>
   <v>       0.00373426      -0.00875592      -0.00797793 </v>
   <v>      -0.01062722      -0.00837434       0.00900071 </v>
   <v>      -0.01103906       0.00587504       0.00435086 </v>
   <v>      -0.00269863      -0.02725218      -0.02257137 </v>
   <v>       0.01016055       0.00882687       0.02004009 </v>
   <v>       0.00661509       0.01104774       0.02504007 </v>
   <v>      -0.00571933      -0.00622903       0.02343183 </v>
   <v>       0.00156968      -0.02576824      -0.02486918 </v>
   <v>       0.00729668      -0.00358652      -0.01311474 </v>
   <v>      -0.00455845       0.01048244       0.01057799 </v>
   <v>       0.00098980       0.00671935      -0.02657151 </v>
   <v>       0.00515410      -0.00062746      -0.00321783 </v>
   <v>      -0.00817023       0.02884055       0.02972783 </v>
   <v>       0.00847190       0.01196823       0.01042872 </v>
   <v>      -0.01039656       0.01667923       0.02553047 </v>
   <v>      -0.00512291      -0.00167460      -0.01593038 </v>
   <v>       0.00339055      -0.01068515       0.01809140 </v>
   <v>       0.00186900      -0.00678873       0.01540082 </v>
   <v>       0.01071914      -0.00479310      -0.00571722 </v>
   <v>       0.00161471      -0.00292123      -0.00005796 </v>
   <v>      -0.00158052      -0.00314904      -0.01503518 </v>
   <v>       0.01088349      -0.00938619      -0.00955004 </v>
   <v>       0.00541676       0.01131707       0.02082463 </v>
   <v>       0.00602083      -0.00397008       0.00395288 </v>
   <v>      -0.00915605       0.02183054       0.02988746 </v>
   <v>       0.00561640      -0.00128255       0.01100604 </v>
   <v>       0.01021420       0.00001266       0.01707079 </v>
   <v>       0.01110350      -0.00990279      -0.00983141 </v>
   <v>      -0.01028235       0.00391181      -0.00349023 </v>
   <v>      -0.01061580       0.02710200       0.02580783 </v>
   <v>      -0.00806687       0.03054747       0.00836094 </v>
   <v>      -0.00631321      -0.00801922       0.02922597 </v>
   <v>       0.00077375      -0.01073003      -0.01925185 </v>
   <v>       0.01147464      -0.01348832       0.01776498 </v>
   <v>      -0.01246737      -0.01286467      -0.01021432 </v>
   <v>       0.01340261      -0.01063358      -0.01155302 </v>
   <v>      -0.00282936      -0.02522918      -0.02518165 </v>
   <v>       0.00044829      -0.00450422       0.00965437 </v>
   <v>       0.00488999      -0.00201655       0.00085568 </v>
   <v>       0.00791234       0.00441645      -0.02742720 </v>
   <v>      -0.00218412      -0.00217337       0.02267769 </v>
   <v>      -0.00731018       0.00502955      -0.01026466 </v>
   <v>      -0.00131499      -0.00432387       0.00103838 </v>
   <v>       0.00265132       0.00286834      -0.01487564 </v>
   <v>      -0.00779350       0.01434470      -0.02376211 </v>
   <v>      -0.02239109      -0.01687361      -0.01663255 </v>
   <v>      -0.00587428      -0.00510685      -0.01951223 </v>
   <v>       0.00485898       0.00927297       0.01870429 </v>
   <v>      -0.00073796      -0.00039547      -0.00948854 </v>
   <v>       0.00306266      -0.00405091       0.01776933 </v>
   <v>       0.00224722      -0.00221163       0.01758967 </v>
   <v>      -0.00578066       0.01610791       0.02863552 </v>
   <v>      -0.00049702       0.02641609      -0.00553476 </v>
   <v>       0.00054713       0.01199349       0.00412075 </v>
   <v>       0.00546024       0.00403495       0.02537428 </v>
   <v>      -0.00218169       0.00255622       0.00979072 </v>
   <v>       0.00386182      -0.00331642      -0.02172638 </v>
   <v>       0.00132657      -0.01306187      -0.02675291 </v>
   <v>       0.00389175      -0.01139910      -0.02047259 </v>
   <v>       0.01705381       0.00250988      -0.01236473 </v>
   <v>       0.02722822      -0.00150549       0.01320426 </v>
   <v>      -0.00058988       0.00367664       0.00406167 </v>
   <v>      -0.00822405      -0.00228538       0.02702751 </v>
   <v>       0.00343463      -0.00163998      -0.00973429 </v>
   <v>      -0.02539171       0.02386092       0.00793094 </v>
   <v>       0.00037996      -0.01232969      -0.00132310 </v>
   <v>      -0.01073736       0.00603681      -0.01014174 </v>
   <v>      -0.00218313      -0.00367469       0.00570442 </v>
   <v>       0.00716943      -0.01015073      -0.01140792 </v>
   <v>       0.00193978      -0.00672583      -0.01565319 </v>
   <v>       0.00939516       0.00619011      -0.01839419 </v>
   <v>      -0.00092375      -0.02561288      -0.03327734 </v>
   <v>       0.00238187      -0.00584033      -0.03037212 </v>
   <v>       0.02299116      -0.01174568      -0.01575203 </v>
   <v>      -0.00255973       0.01012960      -0.01473405 </v>
   <v>      -0.00973175       0.02576627       0.02482893 </v>
   <v>      -0.00435043       0.01002494       0.01025965 </v>
   <v>      -0.00143710      -0.02383593      -0.02086636 </v>
   <v>       0.00006362      -0.01592373      -0.02487774 </v>
   <v>       0.00516707      -0.00087601      -0.00285036 </v>
   <v>      -0.00460107       0.00018348      -0.00362537 </v>
   <v>       0.01141466      -0.00887451      -0.01124530 </v>
   <v>      -0.00999604      -0.00501063      -0.00628922 </v>
   <v>      -0.00311166       0.00790817      -0.02410275 </v>
   <v>       0.00815572       0.00413210      -0.01778948 </v>
   <v>      -0.01987589       0.02259386       0.01903647 </v>
   <v>       0.01070313       0.00878879      -0.01136650 </v>
   <v>      -0.00215627      -0.02241348      -0.00134192 </v>
   <v>       0.00042109       0.01453672       0.02702293 </v>
   <v>       0.00420327       0.01937831       0.01467888 </v>
   <v>       0.00694802      -0.00791103       0.01053234 </v>
   <v>       0.00382444      -0.00811821      -0.01150827 </v>
   <v>      -0.00220029      -0.00331249       0.01991732 </v>
   <v>      -0.00472449      -0.00915103      -0.02386581 </v>
   <v>       0.00316856       0.00584163       0.01975884 </v>
   <v>       0.00498051      -0.01844770      -0.01124583 </v>
   <v>      -0.01024331       0.01389159       0.02026698 </v>
   <v>       0.01545190       0.00872780       0.02257830 </v>
   <v>      -0.00527076      -0.00220760      -0.01161834 </v>
   <v>      -0.01221663      -0.01119932      -0.02073177 </v>
   <v>       0.00000171       0.00641556      -0.01989497 </v>
   <v>       0.00105163       0.00696406      -0.02369161 </v>
   <v>      -0.00336510       0.00926577       0.00010131 </v>
   <v>      -0.00074827      -0.00136365      -0.01437928 </v>
   <v>       0.00068392       0.00323874       0.00470825 </v>
   <v>       0.01394553      -0.00856059      -0.01758980 </v>
   <v>      -0.00346386       0.00131193      -0.00064186 </v>
   <v>      -0.00170563       0.00065407      -0.00805726 </v>
   <v>      -0.00257518      -0.00253912       0.02567926 </v>
   <v>      -0.00821099       0.02382684       0.02766949 </v>
   <v>       0.00139214       0.00598957      -0.02668130 </v>
   <v>       0.00743982       0.00366484       0.00963953 </v>
   <v>      -0.00416738       0.00833884       0.01788077 </v>
   <v>       0.00995631       0.00174084       0.01343745 </v>
   <v>       0.00446999      -0.00882703      -0.00880983 </v>
   <v>      -0.00431123       0.00320946       0.01371606 </v>
   <v>      -0.01259090       0.02885780       0.03017835 </v>
   <v>      -0.00034962       0.00746387      -0.01100145 </v>
   <v>       0.00108007      -0.00291058      -0.01732003 </v>
   <v>       0.01245744      -0.01819318      -0.01047641 </v>
   <v>       0.00315012      -0.01485449      -0.00657242 </v>
   <v>      -0.00679929       0.00807430       0.00134954 </v>
   <v>      -0.00549538       0.00087512       0.00747668 </v>
   <v>       0.00172943       0.00662223      -0.01477681 </v>
   <v>       0.00773991      -0.00758569      -0.00701847 </v>
   <v>      -0.00059113      -0.00321644       0.02331122 </v>
   <v>      -0.00221264      -0.01384372       0.02099527 </v>
   <v>      -0.00606310       0.00716514       0.01893210 </v>
   <v>      -0.00010316      -0.01885523      -0.01926562 </v>
   <v>       0.00577563      -0.00118043      -0.03272514 </v>
   <v>       0.03042837       0.00366909       0.00302823 </v>
   <v>      -0.01398870       0.02718742       0.02086092 </v>
   <v>      -0.01564116      -0.00851658      -0.01118127 </v>
   <v>      -0.00040489       0.00557615       0.01093805 </v>
   <v>       0.00410303      -0.00875932       0.02456375 </v>
   <v>      -0.01234569       0.01628730       0.00870103 </v>
   <v>       0.01265689      -0.00854843      -0.01508501 </v>
   <v>      -0.00603034       0.00746171      -0.01546991 </v>
   <v>      -0.01514375       0.02116946       0.02262572 </v>
   <v>      -0.01233314      -0.00618576      -0.01912023 </v>
   <v>      -0.00980315       0.00106246      -0.01152924 </v>
   <v>      -0.00562595      -0.00015390       0.01053462 </v>
   <v>      -0.00639393       0.00389307       0.01343879 </v>
   <v>      -0.00289288      -0.01545670      -0.01787831 </v>
   <v>       0.00399571       0.00022957       0.01601494 </v>
   <v>       0.00018945      -0.00029843       0.02240898 </v>
   <v>       0.00496923      -0.03200901      -0.00590046 </v>
   <v>      -0.01249500       0.02284994       0.02783304 </v>
   <v>       0.00087603      -0.00198188      -0.01332279 </v>
   <v>       0.00442311       0.00334102       0.01507294 </v>
   <v>      -0.00066038       0.00923353      -0.00520345 </v>
   <v>      -0.00205450       0.00303051       0.00819397 </v>
   <v>      -0.00043489       0.00660171      -0.01546457 </v>
   <v>       0.00459442      -0.00518020      -0.02229628 </v>
   <v>      -0.00401388      -0.00168789      -0.00413933 </v>
   <v>       0.00658525      -0.00871655       0.01962835 </v>
   <v>      -0.01861544       0.00647565      -0.01519973 </v>
   <v>       0.00101796       0.00542010      -0.02005515 </v>
   <v>      -0.00236587      -0.01721275      -0.01185039 </v>
   <v>      -0.00073150       0.00171179       0.00919564 </v>
   <v>      -0.00498334       0.00611802       0.01805783 </v>
   <v>       0.00759410      -0.00133125      -0.02279234 </v>
   <v>      -0.01269435       0.00584649      -0.01061184 </v>
   <v>       0.00151239       0.00215941      -0.00682227 </v>
   <v>      -0.00726573       0.01986804       0.02472597 </v>
   <v>       0.00439203      -0.00830569       0.01932119 </v>
   <v>      -0.02385385      -0.01295873      -0.01363122 </v>
   <v>       0.00502465      -0.01002977      -0.02227383 </v>
   <v>       0.00017927       0.00208503       0.00552786 </v>
   <v>      -0.00511478       0.00790772       0.00496624 </v>
   <v>      -0.00728575       0.00402262       0.00395845 </v>
   <v>       0.00374931       0.00487228      -0.00090185 </v>
   <v>       0.00649567      -0.00161478      -0.00387590 </v>
   <v>       0.00745129      -0.01092065       0.01091149 </v>
   <v>      -0.00898111       0.02730333       0.03158430 </v>
   <v>       0.00613539      -0.02648021      -0.01751475 </v>
   <v>       0.00262859       0.00967943      -0.02268785 </v>
   <v>       0.00862181      -0.01602347      -0.00110351 </v>
   <v>       0.00118654       0.00382012      -0.02583488 </v>
   <v>      -0.00627080       0.01233940       0.00054434 </v>
   <v>       0.00642545       0.00055262       0.00845613 </v>
   <v>      -0.00342208      -0.00187874      -0.01088951 </v>
   <v>      -0.01277434       0.01754646       0.00310145 </v>
   <v>       0.00114696       0.00606761       0.00057982 </v>
   <v>       0.00259733       0.00955646      -0.02074209 </v>
   <v>      -0.00832019       0.02547957       0.02578557 </v>
   <v>       0.00283038      -0.00233347      -0.01633482 </v>
   <v>       0.00835752      -0.00776870      -0.01336456 </v>
   <v>      -0.00513809       0.00098756       0.02025981 </v>
   <v>      -0.00437883       0.00576729       0.01639212 </v>
   <v>      -0.01269191       0.02622029       0.02539228 </v>
   <v>       0.00884883       0.00742963       0.02611314 </v>
   <v>      -0.00631942      -0.00722779       0.02022713 </v>
   <v>      -0.00693516      -0.00024686      -0.01300567 </v>
   <v>      -0.00723509      -0.00013673      -0.01407979 </v>
   <v>      -0.00347996       0.00190229       0.00577313 </v>
   <v>       0.01036010      -0.00880453       0.01905795 </v>
   <v>       0.00672052      -0.02414942       0.01913724 </v>
   <v>      -0.00241021       0.00545664      -0.01551976 </v>
   <v>       0.00185086      -0.00392660      -0.00887370 </v>
   <v>      -0.00795167       0.00127614       0.00256977 </v>
   <v>       0.00791286      -0.00427183      -0.00359820 </v>
   <v>      -0.00272309      -0.00846898      -0.02288188 </v>
  </varray>
  <varray name="stress" >
   <v>      -6.17687700       0.04440150       0.08700155 </v>
   <v>       0.04440157      -2.66519857      -5.09639046 </v>
   <v>       0.08700145      -5.09639060     -20.34160218 </v>
  </varray>
  <energy>
   <i name="e_fr_energy">  -2325.59089491 </i>
   <i name="e_wo_entrp">  -2322.80786911 </i>
   <i name="e_0_energy">     -5.56605158 </i>
  </energy>
  <time name="totalsc"> 2225.01 2224.99</time>
 </calculation>
