unknown system                          
            1
     9.726678    0.000000    0.000000
     0.000000    8.423550    0.000000
     0.000000    0.000000   45.000000
   Fe   Mn
 273  15
Direct configuration=     1
   0.06249985  0.04256052  0.61055333
   0.68810310  0.63133811  0.78761128
   0.81238249  0.03089744  0.25652211
   0.06274558  0.20805415  0.56553662
   0.18764417  0.78604001  0.38939171
   0.06188592  0.36441777  0.16739185
   0.93744711  0.63208531  0.78783417
   0.81187468  0.36425328  0.16738504
   0.31276665  0.20504561  0.47873531
   0.31179923  0.87176234  0.52137661
   0.06233430  0.03093002  0.25649160
   0.06197265  0.70182873  0.34540048
   0.56207724  0.37331247  0.52127429
   0.56219108  0.03106282  0.25649024
   0.93721010  0.45127925  0.34520548
   0.68765871  0.78584858  0.38950731
   0.81260984  0.04945528  0.87477006
   0.81344712  0.69514124  0.21235656
   0.56218314  0.87670740  0.65482788
   0.81237458  0.36985457  0.43440936
   0.81211544  0.53044712  0.25652021
   0.06180325  0.71331807  0.83255257
   0.06324584  0.02946148  0.12537251
   0.06299420  0.52918677  0.12530308
   0.81213468  0.37293192  0.52136217
   0.93765677  0.13198557  0.78777877
   0.06227839  0.53103385  0.25649552
   0.43786406  0.61608517  0.30061148
   0.93764453  0.46195511  0.69934958
   0.43666088  0.11408177  0.16729159
   0.31276912  0.36955324  0.43433437
   0.93739679  0.96164340  0.69956881
   0.18747542  0.12285831  0.52136548
   0.81276011  0.87212745  0.52149363
   0.43732902  0.45810171  0.56557846
   0.68792360  0.11565398  0.30065787
   0.43742200  0.96298153  0.83262556
   0.18664761  0.29746492  0.87466744
   0.56185782  0.21414795  0.83263348
   0.31272530  0.88212587  0.78757504
   0.93726177  0.79736567  0.87461976
   0.68729415  0.28072408  0.25647556
   0.93801473  0.27959254  0.12539083
   0.68689531  0.11414225  0.16724885
   0.43761121  0.77944231  0.12527440
   0.68766902  0.46266192  0.83261902
   0.68737225  0.29656326  0.74358691
   0.31216762  0.87643662  0.65471010
   0.43735681  0.78068386  0.25651913
   0.68681139  0.95158386  0.34524940
   0.43689939  0.61408921  0.16717450
   0.43719080  0.11997746  0.43450223
   0.18804428  0.77921412  0.12525255
   0.56286761  0.03488045  0.38948721
   0.43751962  0.13279356  0.78756321
   0.31246901  0.37661606  0.65473915
   0.18715974  0.95120920  0.34529558
   0.18802947  0.27920571  0.12534046
   0.56156306  0.20481561  0.47856077
   0.43780481  0.29215665  0.61055282
   0.93734081  0.46301631  0.83266384
   0.56307484  0.02925868  0.12530389
   0.56209007  0.20167824  0.34527743
   0.43796771  0.27962525  0.12534378
   0.56239580  0.54894113  0.87467368
   0.06223513  0.88209715  0.78750012
   0.31286359  0.02961821  0.12534294
   0.31236800  0.20792612  0.56560714
   0.68739565  0.96298283  0.83277281
   0.06248677  0.70775615  0.56554370
   0.68697339  0.78115363  0.25644115
   0.18781191  0.29279993  0.61056094
   0.43769173  0.11608612  0.30057797
   0.93752068  0.79238227  0.61050858
   0.56277107  0.88167759  0.78754336
   0.93684509  0.96304381  0.83271876
   0.56284199  0.54246927  0.61060486
   0.81215815  0.54911418  0.87460244
   0.18769564  0.79231223  0.61046981
   0.81251694  0.53542288  0.38950589
   0.93856228  0.77945175  0.12531282
   0.06235342  0.87638860  0.65477349
   0.18746765  0.13248485  0.78772279
   0.18774342  0.28642961  0.38944691
   0.06289518  0.36528171  0.30062553
   0.31192407  0.04713028  0.74358990
   0.06290718  0.20580038  0.47856113
   0.56317229  0.86619322  0.30063144
   0.81254299  0.38139914  0.78783186
   0.31227731  0.53089060  0.25644362
   0.43731242  0.28091643  0.25645997
   0.43766828  0.28574823  0.38944274
   0.06251319  0.38192203  0.78766232
   0.56260231  0.71196091  0.69949356
   0.18766884  0.61592515  0.30058353
   0.18704435  0.12675258  0.65473568
   0.18765956  0.79706757  0.74340048
   0.81338163  0.19568058  0.21230901
   0.81221398  0.71340830  0.83262332
   0.18848164  0.44579915  0.21228772
   0.06241801  0.54904299  0.87456965
   0.81275374  0.20610696  0.47861056
   0.18643291  0.45154172  0.34528086
   0.31206229  0.36430009  0.16742659
   0.18705005  0.45763965  0.56559009
   0.43778622  0.79264239  0.61053912
   0.56210269  0.36417298  0.16731547
   0.93702320  0.28076308  0.25647872
   0.93741993  0.95811224  0.56572995
   0.68828254  0.44541427  0.21235718
   0.56188969  0.70176363  0.34524557
   0.06193633  0.70621764  0.47855284
   0.06212296  0.86390360  0.16730903
   0.56332886  0.36566001  0.30045354
   0.31354202  0.19643225  0.21232204
   0.93793013  0.95520889  0.47864670
   0.56295917  0.53541509  0.38963057
   0.06223481  0.54712768  0.74358222
   0.81214033  0.20119365  0.34525485
   0.43713740  0.12225914  0.52126280
   0.93703102  0.61407748  0.16723965
   0.56258226  0.38209401  0.78752156
   0.81226421  0.86977149  0.43438361
   0.31250205  0.70751403  0.56553622
   0.43697228  0.62633935  0.65471524
   0.93777000  0.78632084  0.38959713
   0.06240839  0.54220242  0.61047538
   0.31259884  0.54791661  0.87469343
   0.68819176  0.96215309  0.69935374
   0.43750134  0.62161879  0.52145629
   0.18842346  0.62250877  0.52146152
   0.31231638  0.04207091  0.61050266
   0.18711962  0.28090234  0.25641181
   0.31218488  0.54271805  0.61054716
   0.31190922  0.70147369  0.34517963
   0.06264369  0.03623051  0.38948169
   0.56318803  0.69548966  0.21230779
   0.31245743  0.21370423  0.83272888
   0.81264212  0.21363333  0.83272892
   0.93700279  0.78063584  0.25654309
   0.31327035  0.86605703  0.30064572
   0.06252911  0.04727855  0.74347910
   0.43763699  0.63243108  0.78772715
   0.93706220  0.29702326  0.74349712
   0.06199325  0.87256342  0.52127499
   0.31187507  0.70604115  0.47858050
   0.68763773  0.12020258  0.43450034
   0.68768771  0.28533758  0.38949827
   0.68723416  0.45767073  0.56566718
   0.81297097  0.70533331  0.47872681
   0.43859050  0.29799956  0.87470893
   0.18815318  0.96344755  0.83274141
   0.18812226  0.11514429  0.30052246
   0.18702977  0.11434262  0.16725967
   0.56253509  0.21199008  0.69934253
   0.43710748  0.12652517  0.65481661
   0.31237875  0.38315338  0.78739578
   0.81227865  0.04699056  0.74350640
   0.68706526  0.62251455  0.52142919
   0.31253282  0.71464525  0.83273119
   0.43801776  0.94565031  0.21225897
   0.68799817  0.78010999  0.12531206
   0.81252410  0.88193461  0.78761642
   0.18685474  0.63207794  0.78749580
   0.56197642  0.70778291  0.56561012
   0.18731548  0.95815859  0.56567426
   0.68704599  0.61405451  0.16737712
   0.06284225  0.21200403  0.69940686
   0.68777620  0.12241367  0.52135723
   0.43760582  0.96243773  0.69936589
   0.18786462  0.95539417  0.47866703
   0.56220541  0.71352472  0.83261898
   0.18676984  0.79733605  0.87471495
   0.31183850  0.03125140  0.25661043
   0.18717076  0.45421409  0.47863736
   0.93706807  0.95157436  0.34531546
   0.56234890  0.54722360  0.74347664
   0.31231371  0.03525228  0.38950397
   0.81231480  0.54729721  0.74353829
   0.56189603  0.53028758  0.25640665
   0.68775032  0.29823717  0.87478223
   0.68768672  0.45533380  0.47858470
   0.93691733  0.45504099  0.47850270
   0.81264300  0.21208465  0.69943460
   0.18764840  0.46204291  0.69941564
   0.81204654  0.87598187  0.65465614
   0.68702579  0.62606048  0.65477372
   0.06273298  0.21320341  0.83268962
   0.68704519  0.79223788  0.61058263
   0.31240696  0.87003582  0.43438679
   0.81189596  0.86462050  0.16733556
   0.81335682  0.36534077  0.30056019
   0.93742783  0.45822572  0.56564212
   0.81282878  0.03567538  0.38950738
   0.43833909  0.44551729  0.21218005
   0.93728130  0.62609406  0.65465274
   0.68739896  0.61965703  0.43435170
   0.68810587  0.27998721  0.12533140
   0.81199434  0.70181252  0.34525376
   0.31176479  0.86380086  0.16736666
   0.81312988  0.52940862  0.12537431
   0.56350031  0.19546835  0.21227789
   0.81293333  0.54219110  0.61060225
   0.31272002  0.71221818  0.69923125
   0.68831184  0.79799227  0.87467076
   0.43744484  0.29654365  0.74357559
   0.18698377  0.46378466  0.83248455
   0.93819442  0.11526678  0.30066930
   0.68733798  0.12617000  0.65479840
   0.18699183  0.61432168  0.16721829
   0.93766636  0.28572812  0.38937217
   0.43771225  0.95637657  0.47854142
   0.31312663  0.52914649  0.12529344
   0.68779192  0.13239102  0.78786228
   0.93746455  0.12247381  0.52146686
   0.68649882  0.95558686  0.47872223
   0.18847405  0.94553108  0.21224816
   0.06274312  0.71144081  0.69937294
   0.18733722  0.12025004  0.43445360
   0.31211284  0.20184745  0.34530276
   0.56307699  0.70563649  0.47861671
   0.93729214  0.11411417  0.16736983
   0.68738883  0.29213245  0.61050899
   0.06309711  0.69537773  0.21225939
   0.68689617  0.79677305  0.74360605
   0.18738805  0.96220646  0.69936799
   0.18723507  0.62007765  0.43439906
   0.56311134  0.52954772  0.12532894
   0.93749353  0.29813409  0.87476442
   0.43727484  0.61989917  0.43445840
   0.06274821  0.53623208  0.38957236
   0.93673727  0.62325457  0.52124809
   0.93846311  0.44528867  0.21223062
   0.31254832  0.21230528  0.69937057
   0.93724347  0.12025912  0.43432475
   0.56229757  0.20762544  0.56572235
   0.06260558  0.86577283  0.30071719
   0.81210617  0.37609559  0.65493204
   0.68756281  0.46220200  0.69947686
   0.93758613  0.62007031  0.43440498
   0.06187449  0.20120751  0.34517203
   0.06324768  0.37199766  0.52130311
   0.93742625  0.12655569  0.65476355
   0.18718514  0.29685805  0.74356843
   0.56228806  0.36971604  0.43439605
   0.81302125  0.02908919  0.12531496
   0.93770487  0.79722487  0.74354357
   0.06165642  0.05028720  0.87471092
   0.81215171  0.20782120  0.56562136
   0.31372500  0.69568706  0.21214894
   0.43705138  0.45186694  0.34533518
   0.56316123  0.87201725  0.52139059
   0.43765910  0.46211173  0.69928971
   0.06225868  0.37004671  0.43437738
   0.93796610  0.61609734  0.30060393
   0.81297711  0.86597258  0.30062909
   0.43700036  0.46406432  0.83269576
   0.43713682  0.79711445  0.74352839
   0.43671721  0.95167691  0.34534735
   0.06317468  0.19615391  0.21232328
   0.31229707  0.37264706  0.52136793
   0.56185909  0.37639286  0.65457917
   0.31203491  0.54657381  0.74352456
   0.18743097  0.62660401  0.65474730
   0.68821594  0.61572287  0.30065189
   0.56249694  0.86955126  0.43451949
   0.43686796  0.95797410  0.56567955
   0.43824477  0.45461322  0.47874386
   0.56439030  0.05002598  0.87458290
   0.06235354  0.37668416  0.65475185
   0.93897612  0.94545712  0.21234911
   0.81316058  0.04205930  0.61045510
   0.56199618  0.86455977  0.16729926
   0.43793707  0.78610672  0.38942014
   0.31149759  0.05013984  0.87451385
   0.68848949  0.94516859  0.21257360
   0.18692480  0.78100079  0.25646722
   0.31265697  0.53542174  0.38930272
   0.56193416  0.04205627  0.61084285
   0.81286097  0.71152288  0.69931735
   0.06197951  0.86996492  0.43444370
   0.68726511  0.45187856  0.34529266
   0.43752338  0.79665088  0.87452032
   0.93755409  0.29262000  0.61072947
   0.81296821  0.70713061  0.56559346
   0.31296126  0.36575572  0.30057740
   0.68754817  0.95847317  0.56547155
   0.56220736  0.04687411  0.74350489
Direct configuration=     2
   0.06295038  0.04274204  0.61024545
   0.68784724  0.63165969  0.78788466
   0.81228893  0.03115679  0.25590152
   0.06319366  0.20823386  0.56550887
   0.18867011  0.78538180  0.38978712
   0.06176647  0.36439031  0.16778929
   0.93737384  0.63279487  0.78822000
   0.81217504  0.36451128  0.16761616
   0.31245026  0.20457386  0.47851836
   0.31242222  0.87236192  0.52135021
   0.06375266  0.03086845  0.25587425
   0.06245453  0.70096543  0.34557793
   0.56253017  0.37297575  0.52132839
   0.56114192  0.03105046  0.25624812
   0.93822503  0.45043583  0.34536330
   0.68682060  0.78553841  0.38998855
   0.81266077  0.04820777  0.87434551
   0.81389079  0.69460551  0.21249829
   0.56354805  0.87569551  0.65489197
   0.81217123  0.37021979  0.43443345
   0.81195661  0.53054503  0.25604616
   0.06073146  0.71428530  0.83191577
   0.06236508  0.02905412  0.12522599
   0.06231311  0.52959198  0.12522736
   0.81237139  0.37305197  0.52135354
   0.93771851  0.13109713  0.78804818
   0.06307785  0.53114237  0.25607877
   0.43761377  0.61499666  0.29991007
   0.93547561  0.46078292  0.69945905
   0.43701482  0.11393149  0.16747484
   0.31256191  0.36971321  0.43424294
   0.93523063  0.96283761  0.70000932
   0.18738844  0.12250400  0.52141424
   0.81258661  0.87233520  0.52141685
   0.43722165  0.45797487  0.56564787
   0.68591067  0.11648843  0.30028257
   0.43788018  0.96279915  0.83187022
   0.18635332  0.29833532  0.87451709
   0.56306111  0.21371158  0.83196109
   0.31274703  0.88305959  0.78784745
   0.93716355  0.79725385  0.87426169
   0.68654051  0.28153164  0.25605845
   0.93758601  0.27911213  0.12525629
   0.68729408  0.11382333  0.16730087
   0.43823099  0.77968478  0.12511011
   0.68863865  0.46323989  0.83182857
   0.68676763  0.29533680  0.74429732
   0.31372407  0.87927920  0.65322462
   0.43663228  0.78027216  0.25633854
   0.68642374  0.95225324  0.34552987
   0.43730855  0.61408805  0.16733559
   0.43741517  0.11952633  0.43444870
   0.18746635  0.77948257  0.12512784
   0.56284807  0.03559547  0.38992374
   0.43754512  0.13150302  0.78730943
   0.31305823  0.37788712  0.65357928
   0.18718337  0.95194578  0.34538708
   0.18768150  0.27914213  0.12527894
   0.56226463  0.20433676  0.47835918
   0.43729908  0.29256135  0.61021025
   0.93679472  0.46347899  0.83200852
   0.56377968  0.02891884  0.12515560
   0.56191147  0.20167121  0.34544478
   0.43833318  0.27966439  0.12520213
   0.56254570  0.54932295  0.87436709
   0.06249841  0.88244701  0.78799960
   0.31289386  0.02946732  0.12520288
   0.31239192  0.20757120  0.56566439
   0.68827362  0.96260532  0.83207917
   0.06208458  0.70731965  0.56551905
   0.68613413  0.78011328  0.25607505
   0.18807730  0.29313302  0.61017971
   0.43687657  0.11717216  0.30001547
   0.93718687  0.79154167  0.61035222
   0.56260946  0.88251997  0.78760161
   0.93665172  0.96251987  0.83205069
   0.56288119  0.54269211  0.61046925
   0.81285741  0.55000546  0.87417905
   0.18785828  0.79188134  0.61009912
   0.81222101  0.53490161  0.38998353
   0.93793532  0.77985496  0.12518099
   0.05976786  0.87582998  0.65442357
   0.18779932  0.13115491  0.78781565
   0.18803904  0.28704135  0.38977127
   0.06441290  0.36556767  0.30021648
   0.31439220  0.04765597  0.74536053
   0.06249209  0.20526782  0.47835042
   0.56197610  0.86582797  0.30002514
   0.81236549  0.38131277  0.78817291
   0.31231086  0.53115455  0.25627374
   0.43703598  0.28133615  0.25635206
   0.43792481  0.28621514  0.38979509
   0.06248883  0.38126953  0.78789291
   0.56718702  0.71163032  0.69979511
   0.18855818  0.61454625  0.29988536
   0.18551573  0.12735494  0.65363328
   0.18489936  0.79870871  0.74556204
   0.81405511  0.19657089  0.21251131
   0.81269783  0.71399752  0.83196054
   0.18778860  0.44559130  0.21263175
   0.06207428  0.55003439  0.87435326
   0.81275137  0.20518440  0.47848358
   0.18636594  0.45048667  0.34531758
   0.31187102  0.36415165  0.16775250
   0.18674607  0.45721793  0.56572249
   0.43766766  0.79236753  0.61021402
   0.56237162  0.36424502  0.16750717
   0.93776142  0.28173596  0.25590778
   0.93759924  0.95771898  0.56559445
   0.68860966  0.44579411  0.21265619
   0.56165918  0.70153595  0.34535459
   0.06193622  0.70586893  0.47837992
   0.06161707  0.86379356  0.16749205
   0.56160096  0.36588881  0.29987583
   0.31276222  0.19682837  0.21268958
   0.93733520  0.95522371  0.47849632
   0.56250108  0.53502838  0.39010908
   0.06113154  0.54735501  0.74465196
   0.81227232  0.20127818  0.34559962
   0.43734633  0.12170787  0.52143552
   0.93682657  0.61431633  0.16747363
   0.56255693  0.38207083  0.78752799
   0.81166048  0.86982179  0.43470557
   0.31282678  0.70759029  0.56556289
   0.44110294  0.62519445  0.65363741
   0.93759663  0.78533191  0.39001583
   0.06253145  0.54221619  0.61025934
   0.31192900  0.54815802  0.87466561
   0.68776962  0.96321975  0.69986734
   0.43787271  0.62259914  0.52142675
   0.18779003  0.62272441  0.52139868
   0.31209596  0.04224860  0.61009134
   0.18755839  0.28133009  0.25620007
   0.31191071  0.54236507  0.61021639
   0.31173451  0.70086595  0.34527152
   0.06331779  0.03726679  0.38971588
   0.56331766  0.69489291  0.21263244
   0.31203576  0.21291980  0.83204009
   0.81317859  0.21319163  0.83201769
   0.93790929  0.77988004  0.25591512
   0.31364550  0.86636472  0.29987174
   0.06089454  0.04724173  0.74472557
   0.43806735  0.63302255  0.78786674
   0.93605553  0.29610377  0.74435765
   0.06186889  0.87274829  0.52124067
   0.31205846  0.70610299  0.47835531
   0.68734804  0.11976245  0.43456696
   0.68696061  0.28525667  0.38989893
   0.68749863  0.45816575  0.56564012
   0.81277436  0.70566636  0.47846119
   0.43853124  0.29831750  0.87464809
   0.18698058  0.96317308  0.83193929
   0.18949073  0.11675894  0.30008210
   0.18657907  0.11422526  0.16755402
   0.56556345  0.21162259  0.69997813
   0.43901825  0.12558910  0.65416868
   0.31261793  0.38207017  0.78737832
   0.81128312  0.04673976  0.74421622
   0.68730260  0.62304250  0.52147319
   0.31210295  0.71563903  0.83210544
   0.43742345  0.94590892  0.21263632
   0.68843329  0.78044569  0.12519484
   0.81244011  0.88205800  0.78781754
   0.18668667  0.63295799  0.78787987
   0.56215626  0.70818184  0.56552034
   0.18760617  0.95835534  0.56563398
   0.68748912  0.61449745  0.16753279
   0.05839800  0.21173346  0.69978915
   0.68776722  0.12233235  0.52130765
   0.44396172  0.96474935  0.70003208
   0.18772043  0.95508168  0.47848323
   0.56341309  0.71431709  0.83195699
   0.18562386  0.79668128  0.87447140
   0.31174032  0.03069992  0.25638766
   0.18696108  0.45485506  0.47839447
   0.93729333  0.95232123  0.34561674
   0.56317013  0.54707888  0.74415117
   0.31274247  0.03550502  0.38997217
   0.81135869  0.54645752  0.74450010
   0.56145288  0.53040488  0.25619351
   0.68822535  0.29787933  0.87439359
   0.68789740  0.45568311  0.47843037
   0.93721328  0.45536266  0.47832975
   0.81213639  0.21190998  0.69968398
   0.18309976  0.45904283  0.69992814
   0.81174308  0.87664346  0.65444557
   0.68702760  0.62536662  0.65462986
   0.06140631  0.21254918  0.83190007
   0.68736207  0.79154371  0.61049182
   0.31284928  0.87020752  0.43447771
   0.81206907  0.86418286  0.16736993
   0.81336049  0.36616721  0.30003859
   0.93758667  0.45872801  0.56556312
   0.81164278  0.03643726  0.38988027
   0.43797636  0.44547615  0.21260861
   0.93645619  0.62508376  0.65422843
   0.68756452  0.62004058  0.43439573
   0.68836671  0.27964909  0.12514819
   0.81215220  0.70142713  0.34544810
   0.31173665  0.86370796  0.16754713
   0.81299116  0.52999923  0.12524878
   0.56339620  0.19619193  0.21259016
   0.81291780  0.54251038  0.61055793
   0.31534586  0.71241449  0.69973041
   0.68937212  0.79853922  0.87434707
   0.43906220  0.29529364  0.74501316
   0.18589903  0.46450302  0.83196012
   0.93948662  0.11703397  0.30033105
   0.68847488  0.12653514  0.65473168
   0.18658354  0.61406382  0.16751051
   0.93773900  0.28643649  0.38958690
   0.43764965  0.95535000  0.47835794
   0.31322556  0.52947251  0.12515778
   0.68731643  0.13120765  0.78773718
   0.93735753  0.12235847  0.52139661
   0.68723696  0.95527514  0.47850914
   0.18786514  0.94574103  0.21268143
   0.05652659  0.71189170  0.69973015
   0.18770506  0.12041747  0.43456194
   0.31170895  0.20248372  0.34525156
   0.56309760  0.70592995  0.47841842
   0.93725618  0.11379837  0.16755963
   0.68731776  0.29265981  0.61045901
   0.06315358  0.69511268  0.21261150
   0.68575063  0.79852976  0.74456420
   0.18314445  0.96512163  0.69989711
   0.18727345  0.61991796  0.43446419
   0.56366119  0.53001059  0.12519955
   0.93733164  0.29842750  0.87429540
   0.43733943  0.62035570  0.43441812
   0.06308812  0.53559853  0.38994964
   0.93680171  0.62310630  0.52131700
   0.93895556  0.44549775  0.21248329
   0.31462106  0.21175209  0.70016821
   0.93693608  0.12022607  0.43460231
   0.56180745  0.20739787  0.56561714
   0.06442932  0.86536904  0.30013824
   0.81143549  0.37689640  0.65496807
   0.68729691  0.46165929  0.69967067
   0.93731095  0.61991260  0.43456466
   0.06253303  0.20199565  0.34522510
   0.06252793  0.37241688  0.52136016
   0.93589233  0.12637059  0.65478746
   0.18733985  0.29583836  0.74524068
   0.56239835  0.36974500  0.43430309
   0.81300000  0.02858092  0.12514656
   0.93735314  0.79888165  0.74451974
   0.06100897  0.04896382  0.87427486
   0.81222563  0.20809396  0.56546300
   0.31290551  0.69546213  0.21266291
   0.43659683  0.45126180  0.34538989
   0.56277970  0.87224827  0.52144065
   0.44421025  0.45986135  0.69987332
   0.06255511  0.37044255  0.43445531
   0.93842934  0.61434931  0.30007754
   0.81181421  0.86497961  0.30017112
   0.43773988  0.46465688  0.83209241
   0.44123319  0.80024499  0.74526994
   0.43708930  0.95236085  0.34543577
   0.06314627  0.19669868  0.21256431
   0.31235596  0.37252101  0.52142632
   0.56389059  0.37709557  0.65441379
   0.31340127  0.54287799  0.74558434
   0.18423351  0.62537217  0.65324759
   0.68690089  0.61493099  0.29994471
   0.56245374  0.86990477  0.43457505
   0.43691778  0.95791907  0.56555519
   0.43792210  0.45527867  0.47852135
   0.56502953  0.04890863  0.87436239
   0.06045484  0.37694565  0.65420546
   0.93962481  0.94573313  0.21249082
   0.81302674  0.04160162  0.61041772
   0.56263469  0.86418904  0.16731872
   0.43776751  0.78562250  0.39007981
   0.31159711  0.04887949  0.87443951
   0.68878076  0.94513105  0.21280188
   0.18791906  0.78070415  0.25594923
   0.31304698  0.53490698  0.38977071
   0.56178121  0.04206740  0.61057991
   0.81207348  0.71203295  0.69950350
   0.06227886  0.86974774  0.43476854
   0.68681611  0.45108829  0.34559247
   0.43778884  0.79670752  0.87439143
   0.93779043  0.29349623  0.61059908
   0.81286809  0.70676992  0.56554683
   0.31310555  0.36566968  0.29990372
   0.68706411  0.95754040  0.56529463
   0.56247941  0.04709431  0.74469012
Direct configuration=     3
   0.06285855  0.04270504  0.61030820
   0.68789939  0.63159414  0.78782894
   0.81230800  0.03110393  0.25602801
   0.06310233  0.20819723  0.56551453
   0.18846100  0.78551596  0.38970652
   0.06179082  0.36439591  0.16770828
   0.93738878  0.63265024  0.78814136
   0.81211382  0.36445870  0.16756905
   0.31251475  0.20467001  0.47856258
   0.31229524  0.87223971  0.52135559
   0.06346356  0.03088100  0.25600008
   0.06235631  0.70114139  0.34554176
   0.56243785  0.37304438  0.52131736
   0.56135577  0.03105298  0.25629747
   0.93801816  0.45060774  0.34533114
   0.68699143  0.78560163  0.38989046
   0.81265039  0.04846205  0.87443204
   0.81380036  0.69471470  0.21246940
   0.56326984  0.87590176  0.65487891
   0.81221268  0.37014535  0.43442854
   0.81198898  0.53052507  0.25614278
   0.06094992  0.71408815  0.83204557
   0.06254460  0.02913715  0.12525585
   0.06245194  0.52950938  0.12524279
   0.81232314  0.37302750  0.52135530
   0.93770592  0.13127822  0.78799326
   0.06291489  0.53112025  0.25616371
   0.43766479  0.61521853  0.30005304
   0.93591770  0.46102185  0.69943673
   0.43694267  0.11396212  0.16743749
   0.31260415  0.36968060  0.43426157
   0.93567215  0.96259420  0.69991954
   0.18740617  0.12257622  0.52140430
   0.81262197  0.87229286  0.52143250
   0.43724354  0.45800072  0.56563373
   0.68632096  0.11631835  0.30035907
   0.43778679  0.96283632  0.83202418
   0.18641331  0.29815791  0.87454774
   0.56281584  0.21380052  0.83209814
   0.31274260  0.88286927  0.78779193
   0.93718357  0.79727665  0.87433467
   0.68669412  0.28136704  0.25614347
   0.93767340  0.27921005  0.12528371
   0.68721280  0.11388833  0.16729027
   0.43810466  0.77963535  0.12514360
   0.68844101  0.46312208  0.83198968
   0.68689087  0.29558679  0.74415252
   0.31340682  0.87869981  0.65352740
   0.43677996  0.78035608  0.25637535
   0.68650276  0.95211680  0.34547271
   0.43722515  0.61408828  0.16730275
   0.43736944  0.11961828  0.43445961
   0.18758415  0.77942785  0.12515326
   0.56285205  0.03544973  0.38983477
   0.43753992  0.13176607  0.78736115
   0.31293813  0.37762804  0.65381570
   0.18717855  0.95179564  0.34536843
   0.18775243  0.27915509  0.12529148
   0.56212163  0.20443436  0.47840027
   0.43740216  0.29247886  0.61028008
   0.93690603  0.46338468  0.83214210
   0.56363601  0.02898811  0.12518582
   0.56194787  0.20167264  0.34541067
   0.43825869  0.27965642  0.12523100
   0.56251515  0.54924513  0.87442958
   0.06244474  0.88237570  0.78789779
   0.31288769  0.02949808  0.12523143
   0.31238704  0.20764355  0.56565272
   0.68809466  0.96268227  0.83222055
   0.06216656  0.70740862  0.56552408
   0.68630519  0.78032533  0.25614967
   0.18802321  0.29306513  0.61025741
   0.43704272  0.11695080  0.30013013
   0.93725491  0.79171301  0.61038409
   0.56264240  0.88234827  0.78758974
   0.93669113  0.96262666  0.83218686
   0.56287320  0.54264669  0.61049689
   0.81271488  0.54982379  0.87426534
   0.18782513  0.79196917  0.61017468
   0.81228133  0.53500786  0.38988618
   0.93806311  0.77977278  0.12520786
   0.06029487  0.87594384  0.65449490
   0.18773172  0.13142599  0.78779672
   0.18797878  0.28691666  0.38970515
   0.06410355  0.36550938  0.30029986
   0.31388913  0.04754882  0.74499963
   0.06257670  0.20537637  0.47839337
   0.56221992  0.86590242  0.30014872
   0.81240167  0.38133038  0.78810340
   0.31230402  0.53110075  0.25630836
   0.43709233  0.28125060  0.25637406
   0.43787252  0.28611997  0.38972327
   0.06249380  0.38140253  0.78784591
   0.56625253  0.71169770  0.69973365
   0.18837691  0.61482731  0.30002766
   0.18582730  0.12723216  0.65385798
   0.18546196  0.79837420  0.74512146
   0.81391784  0.19638942  0.21247007
   0.81259921  0.71387742  0.83209563
   0.18792986  0.44563367  0.21256163
   0.06214435  0.54983231  0.87439736
   0.81275185  0.20537244  0.47850947
   0.18637959  0.45070172  0.34531010
   0.31191001  0.36418191  0.16768607
   0.18680803  0.45730389  0.56569550
   0.43769183  0.79242355  0.61028028
   0.56231680  0.36423033  0.16746810
   0.93761095  0.28153766  0.25602415
   0.93756269  0.95779914  0.56562207
   0.68854299  0.44571669  0.21259525
   0.56170617  0.70158236  0.34533237
   0.06193625  0.70594000  0.47841516
   0.06172018  0.86381599  0.16745475
   0.56195315  0.36584218  0.29999358
   0.31292116  0.19674763  0.21261467
   0.93745646  0.95522069  0.47852697
   0.56259445  0.53510720  0.39001154
   0.06135642  0.54730867  0.74443392
   0.81224541  0.20126095  0.34552934
   0.43730375  0.12182023  0.52140031
   0.93686824  0.61426765  0.16742594
   0.56256209  0.38207556  0.78752668
   0.81178354  0.86981153  0.43463995
   0.31276059  0.70757475  0.56555745
   0.44026100  0.62542781  0.65385710
   0.93763197  0.78553348  0.38993049
   0.06250637  0.54221338  0.61030337
   0.31206553  0.54810882  0.87467128
   0.68785566  0.96300234  0.69976266
   0.43779702  0.62239931  0.52143277
   0.18791914  0.62268046  0.52141149
   0.31214088  0.04221238  0.61017518
   0.18746896  0.28124290  0.25624323
   0.31196659  0.54243702  0.61028381
   0.31177012  0.70098982  0.34525279
   0.06318039  0.03705557  0.38966815
   0.56329124  0.69501455  0.21256627
   0.31212171  0.21307969  0.83218048
   0.81306924  0.21328166  0.83216266
   0.93772452  0.78003409  0.25604312
   0.31356903  0.86630201  0.30002950
   0.06122771  0.04724923  0.74447151
   0.43797963  0.63290199  0.78783829
   0.93626071  0.29629119  0.74418225
   0.06189424  0.87271061  0.52124766
   0.31202108  0.70609038  0.47840121
   0.68740708  0.11985216  0.43455338
   0.68710881  0.28527316  0.38981727
   0.68744472  0.45806485  0.56564563
   0.81281444  0.70559848  0.47851533
   0.43854332  0.29825269  0.87466049
   0.18721959  0.96322902  0.83210278
   0.18921180  0.11642983  0.30017186
   0.18667093  0.11424918  0.16749402
   0.56494619  0.21169749  0.69984858
   0.43862878  0.12577990  0.65430075
   0.31256918  0.38229095  0.78738188
   0.81148604  0.04679088  0.74407154
   0.68725423  0.62293489  0.52146423
   0.31219057  0.71543647  0.83223298
   0.43754459  0.94585621  0.21255940
   0.68834460  0.78037726  0.12521873
   0.81245723  0.88203285  0.78777654
   0.18672093  0.63277861  0.78780159
   0.56211960  0.70810053  0.56553864
   0.18754692  0.95831524  0.56564219
   0.68739879  0.61440716  0.16750106
   0.05930386  0.21178861  0.69971123
   0.68776905  0.12234893  0.52131776
   0.44266622  0.96427818  0.69989630
   0.18774982  0.95514538  0.47852069
   0.56316693  0.71415558  0.83209192
   0.18585744  0.79681474  0.87452104
   0.31176033  0.03081233  0.25643306
   0.18700382  0.45472441  0.47844398
   0.93724742  0.95216900  0.34555533
   0.56300274  0.54710838  0.74401368
   0.31265507  0.03545350  0.38987674
   0.81155357  0.54662867  0.74430406
   0.56154321  0.53038097  0.25623695
   0.68812853  0.29795227  0.87447280
   0.68785446  0.45561191  0.47846183
   0.93715296  0.45529709  0.47836500
   0.81223965  0.21194558  0.69963315
   0.18402690  0.45965433  0.69982368
   0.81180493  0.87650861  0.65448849
   0.68702723  0.62550805  0.65465919
   0.06167672  0.21268253  0.83206100
   0.68729748  0.79168520  0.61051033
   0.31275912  0.87017252  0.43445918
   0.81203378  0.86427206  0.16736292
   0.81335974  0.36599876  0.30014490
   0.93755429  0.45862563  0.56557922
   0.81188452  0.03628197  0.38980426
   0.43805029  0.44548453  0.21252126
   0.93662437  0.62528969  0.65431492
   0.68753077  0.61996240  0.43438675
   0.68831354  0.27971801  0.12518554
   0.81212003  0.70150568  0.34540849
   0.31174239  0.86372690  0.16751034
   0.81301944  0.52987884  0.12527437
   0.56341742  0.19604445  0.21252651
   0.81292097  0.54244530  0.61056696
   0.31481065  0.71237447  0.69962867
   0.68915601  0.79842774  0.87441305
   0.43873253  0.29554843  0.74472015