 288 288   0   0
  0.1280206E+02  0.9726678E-09  0.8423550E-09  0.4500000E-08  0.2500000E-15
  1.000000000000000E-004
  CAR 
 unknown system                          
      6.84184291     -6.02753746  301      4.31512232      1.00000000
     -6.028  0.0000E+00  0.0000E+00
     -5.985  0.0000E+00  0.0000E+00
     -5.942  0.0000E+00  0.0000E+00
     -5.899  0.0000E+00  0.0000E+00
     -5.856  0.0000E+00  0.0000E+00
     -5.813  0.0000E+00  0.0000E+00
     -5.770  0.0000E+00  0.0000E+00
     -5.727  0.0000E+00  0.0000E+00
     -5.684  0.0000E+00  0.0000E+00
     -5.641  0.0000E+00  0.0000E+00
     -5.599  0.0000E+00  0.0000E+00
     -5.556  0.0000E+00  0.0000E+00
     -5.513  0.0000E+00  0.0000E+00
     -5.470  0.0000E+00  0.0000E+00
     -5.427  0.0000E+00  0.0000E+00
     -5.384  0.1941E-15  0.8327E-17
     -5.341  0.4788E-14  0.2137E-15
     -5.298  0.1025E-12  0.4612E-14
     -5.255  0.1871E-11  0.8489E-13
     -5.212  0.2905E-10  0.1331E-11
     -5.170  0.3836E-09  0.1779E-10
     -5.127  0.4310E-08  0.2027E-09
     -5.084  0.4122E-07  0.1971E-08
     -5.041  0.3357E-06  0.1637E-07
     -4.998  0.2329E-05  0.1163E-06
     -4.955  0.1378E-04  0.7076E-06
     -4.912  0.6968E-04  0.3697E-05
     -4.869  0.3016E-03  0.1663E-04
     -4.826  0.1121E-02  0.6472E-04
     -4.783  0.3597E-02  0.2190E-03
     -4.741  0.1003E-01  0.6494E-03
     -4.698  0.2456E-01  0.1703E-02
     -4.655  0.5339E-01  0.3993E-02
     -4.612  0.1045E+00  0.8475E-02
     -4.569  0.1864E+00  0.1647E-01
     -4.526  0.3066E+00  0.2962E-01
     -4.483  0.4684E+00  0.4972E-01
     -4.440  0.6685E+00  0.7839E-01
     -4.397  0.8954E+00  0.1168E+00
     -4.355  0.1130E+01  0.1653E+00
     -4.312  0.1351E+01  0.2233E+00
     -4.269  0.1537E+01  0.2892E+00
     -4.226  0.1674E+01  0.3610E+00
     -4.183  0.1766E+01  0.4367E+00
     -4.140  0.1830E+01  0.5152E+00
     -4.097  0.1896E+01  0.5966E+00
     -4.054  0.1994E+01  0.6821E+00
     -4.011  0.2147E+01  0.7742E+00
     -3.968  0.2357E+01  0.8753E+00
     -3.926  0.2605E+01  0.9871E+00
     -3.883  0.2850E+01  0.1109E+01
     -3.840  0.3050E+01  0.1240E+01
     -3.797  0.3168E+01  0.1376E+01
     -3.754  0.3194E+01  0.1513E+01
     -3.711  0.3149E+01  0.1648E+01
     -3.668  0.3079E+01  0.1780E+01
     -3.625  0.3040E+01  0.1911E+01
     -3.582  0.3077E+01  0.2043E+01
     -3.539  0.3207E+01  0.2180E+01
     -3.497  0.3417E+01  0.2327E+01
     -3.454  0.3667E+01  0.2484E+01
     -3.411  0.3906E+01  0.2652E+01
     -3.368  0.4089E+01  0.2827E+01
     -3.325  0.4190E+01  0.3007E+01
     -3.282  0.4214E+01  0.3188E+01
     -3.239  0.4187E+01  0.3367E+01
     -3.196  0.4159E+01  0.3546E+01
     -3.153  0.4176E+01  0.3725E+01
     -3.110  0.4274E+01  0.3908E+01
     -3.068  0.4455E+01  0.4099E+01
     -3.025  0.4696E+01  0.4301E+01
     -2.982  0.4950E+01  0.4513E+01
     -2.939  0.5170E+01  0.4735E+01
     -2.896  0.5318E+01  0.4963E+01
     -2.853  0.5382E+01  0.5194E+01
     -2.810  0.5388E+01  0.5425E+01
     -2.767  0.5386E+01  0.5656E+01
     -2.724  0.5424E+01  0.5889E+01
     -2.681  0.5515E+01  0.6125E+01
     -2.639  0.5618E+01  0.6366E+01
     -2.596  0.5671E+01  0.6610E+01
     -2.553  0.5633E+01  0.6851E+01
     -2.510  0.5533E+01  0.7089E+01
     -2.467  0.5470E+01  0.7323E+01
     -2.424  0.5566E+01  0.7562E+01
     -2.381  0.5897E+01  0.7815E+01
     -2.338  0.6436E+01  0.8091E+01
     -2.295  0.7039E+01  0.8393E+01
     -2.253  0.7497E+01  0.8715E+01
     -2.210  0.7644E+01  0.9043E+01
     -2.167  0.7457E+01  0.9362E+01
     -2.124  0.7085E+01  0.9666E+01
     -2.081  0.6777E+01  0.9957E+01
     -2.038  0.6743E+01  0.1025E+02
     -1.995  0.7057E+01  0.1055E+02
     -1.952  0.7631E+01  0.1088E+02
     -1.909  0.8262E+01  0.1123E+02
     -1.866  0.8738E+01  0.1161E+02
     -1.824  0.8934E+01  0.1199E+02
     -1.781  0.8876E+01  0.1237E+02
     -1.738  0.8713E+01  0.1274E+02
     -1.695  0.8613E+01  0.1311E+02
     -1.652  0.8673E+01  0.1349E+02
     -1.609  0.8883E+01  0.1387E+02
     -1.566  0.9172E+01  0.1426E+02
     -1.523  0.9472E+01  0.1467E+02
     -1.480  0.9751E+01  0.1508E+02
     -1.437  0.1001E+02  0.1551E+02
     -1.395  0.1024E+02  0.1595E+02
     -1.352  0.1042E+02  0.1640E+02
     -1.309  0.1057E+02  0.1685E+02
     -1.266  0.1076E+02  0.1732E+02
     -1.223  0.1115E+02  0.1779E+02
     -1.180  0.1188E+02  0.1830E+02
     -1.137  0.1293E+02  0.1886E+02
     -1.094  0.1408E+02  0.1946E+02
     -1.051  0.1500E+02  0.2011E+02
     -1.008  0.1546E+02  0.2077E+02
     -0.966  0.1551E+02  0.2143E+02
     -0.923  0.1551E+02  0.2210E+02
     -0.880  0.1587E+02  0.2278E+02
     -0.837  0.1686E+02  0.2350E+02
     -0.794  0.1851E+02  0.2430E+02
     -0.751  0.2066E+02  0.2518E+02
     -0.708  0.2323E+02  0.2618E+02
     -0.665  0.2631E+02  0.2731E+02
     -0.622  0.3006E+02  0.2860E+02
     -0.579  0.3442E+02  0.3007E+02
     -0.537  0.3903E+02  0.3175E+02
     -0.494  0.4332E+02  0.3361E+02
     -0.451  0.4685E+02  0.3562E+02
     -0.408  0.4951E+02  0.3774E+02
     -0.365  0.5151E+02  0.3995E+02
     -0.322  0.5313E+02  0.4223E+02
     -0.279  0.5456E+02  0.4457E+02
     -0.236  0.5578E+02  0.4696E+02
     -0.193  0.5669E+02  0.4939E+02
     -0.151  0.5723E+02  0.5185E+02
     -0.108  0.5745E+02  0.5431E+02
     -0.065  0.5756E+02  0.5678E+02
     -0.022  0.5776E+02  0.5926E+02
      0.021  0.5827E+02  0.6176E+02
      0.064  0.5927E+02  0.6430E+02
      0.107  0.6097E+02  0.6692E+02
      0.150  0.6348E+02  0.6964E+02
      0.193  0.6672E+02  0.7250E+02
      0.236  0.7034E+02  0.7552E+02
      0.278  0.7393E+02  0.7869E+02
      0.321  0.7717E+02  0.8200E+02
      0.364  0.7993E+02  0.8543E+02
      0.407  0.8220E+02  0.8896E+02
      0.450  0.8401E+02  0.9256E+02
      0.493  0.8536E+02  0.9622E+02
      0.536  0.8623E+02  0.9992E+02
      0.579  0.8660E+02  0.1036E+03
      0.622  0.8654E+02  0.1074E+03
      0.665  0.8611E+02  0.1110E+03
      0.707  0.8532E+02  0.1147E+03
      0.750  0.8412E+02  0.1183E+03
      0.793  0.8247E+02  0.1219E+03
      0.836  0.8053E+02  0.1253E+03
      0.879  0.7867E+02  0.1287E+03
      0.922  0.7724E+02  0.1320E+03
      0.965  0.7642E+02  0.1353E+03
      1.008  0.7605E+02  0.1385E+03
      1.051  0.7582E+02  0.1418E+03
      1.094  0.7541E+02  0.1450E+03
      1.136  0.7475E+02  0.1482E+03
      1.179  0.7399E+02  0.1514E+03
      1.222  0.7346E+02  0.1546E+03
      1.265  0.7338E+02  0.1577E+03
      1.308  0.7368E+02  0.1609E+03
      1.351  0.7392E+02  0.1640E+03
      1.394  0.7360E+02  0.1672E+03
      1.437  0.7250E+02  0.1703E+03
      1.480  0.7085E+02  0.1733E+03
      1.522  0.6924E+02  0.1763E+03
      1.565  0.6827E+02  0.1792E+03
      1.608  0.6830E+02  0.1822E+03
      1.651  0.6936E+02  0.1851E+03
      1.694  0.7124E+02  0.1882E+03
      1.737  0.7359E+02  0.1914E+03
      1.780  0.7608E+02  0.1946E+03
      1.823  0.7848E+02  0.1980E+03
      1.866  0.8070E+02  0.2014E+03
      1.909  0.8268E+02  0.2050E+03
      1.951  0.8446E+02  0.2086E+03
      1.994  0.8605E+02  0.2123E+03
      2.037  0.8754E+02  0.2161E+03
      2.080  0.8899E+02  0.2199E+03
      2.123  0.9047E+02  0.2238E+03
      2.166  0.9202E+02  0.2277E+03
      2.209  0.9364E+02  0.2317E+03
      2.252  0.9538E+02  0.2358E+03
      2.295  0.9740E+02  0.2400E+03
      2.338  0.9996E+02  0.2443E+03
      2.380  0.1033E+03  0.2487E+03
      2.423  0.1073E+03  0.2533E+03
      2.466  0.1118E+03  0.2581E+03
      2.509  0.1163E+03  0.2631E+03
      2.552  0.1203E+03  0.2683E+03
      2.595  0.1237E+03  0.2736E+03
      2.638  0.1261E+03  0.2790E+03
      2.681  0.1276E+03  0.2845E+03
      2.724  0.1284E+03  0.2900E+03
      2.767  0.1291E+03  0.2955E+03
      2.809  0.1301E+03  0.3011E+03
      2.852  0.1319E+03  0.3067E+03
      2.895  0.1347E+03  0.3125E+03
      2.938  0.1379E+03  0.3184E+03
      2.981  0.1402E+03  0.3244E+03
      3.024  0.1402E+03  0.3305E+03
      3.067  0.1369E+03  0.3363E+03
      3.110  0.1302E+03  0.3419E+03
      3.153  0.1214E+03  0.3471E+03
      3.196  0.1120E+03  0.3519E+03
      3.238  0.1038E+03  0.3564E+03
      3.281  0.9767E+02  0.3606E+03
      3.324  0.9385E+02  0.3646E+03
      3.367  0.9202E+02  0.3686E+03
      3.410  0.9146E+02  0.3725E+03
      3.453  0.9131E+02  0.3764E+03
      3.496  0.9078E+02  0.3803E+03
      3.539  0.8944E+02  0.3841E+03
      3.582  0.8740E+02  0.3879E+03
      3.624  0.8530E+02  0.3915E+03
      3.667  0.8403E+02  0.3951E+03
      3.710  0.8426E+02  0.3987E+03
      3.753  0.8608E+02  0.4024E+03
      3.796  0.8899E+02  0.4063E+03
      3.839  0.9218E+02  0.4102E+03
      3.882  0.9502E+02  0.4143E+03
      3.925  0.9727E+02  0.4185E+03
      3.968  0.9907E+02  0.4227E+03
      4.011  0.1006E+03  0.4270E+03
      4.053  0.1019E+03  0.4314E+03
      4.096  0.1028E+03  0.4358E+03
      4.139  0.1031E+03  0.4402E+03
      4.182  0.1026E+03  0.4446E+03
      4.225  0.1017E+03  0.4490E+03
      4.268  0.1005E+03  0.4533E+03
      4.311  0.9955E+02  0.4576E+03
      4.354  0.9902E+02  0.4618E+03
      4.397  0.9902E+02  0.4661E+03
      4.440  0.9941E+02  0.4703E+03
      4.482  0.9988E+02  0.4746E+03
      4.525  0.1001E+03  0.4789E+03
      4.568  0.9984E+02  0.4832E+03
      4.611  0.9922E+02  0.4875E+03
      4.654  0.9855E+02  0.4917E+03
      4.697  0.9833E+02  0.4959E+03
      4.740  0.9899E+02  0.5001E+03
      4.783  0.1007E+03  0.5045E+03
      4.826  0.1034E+03  0.5089E+03
      4.869  0.1065E+03  0.5135E+03
      4.911  0.1096E+03  0.5182E+03
      4.954  0.1121E+03  0.5230E+03
      4.997  0.1133E+03  0.5278E+03
      5.040  0.1124E+03  0.5327E+03
      5.083  0.1084E+03  0.5373E+03
      5.126  0.1004E+03  0.5416E+03
      5.169  0.8791E+02  0.5454E+03
      5.212  0.7186E+02  0.5485E+03
      5.255  0.5413E+02  0.5508E+03
      5.298  0.3717E+02  0.5524E+03
      5.340  0.2305E+02  0.5534E+03
      5.383  0.1282E+02  0.5539E+03
      5.426  0.6362E+01  0.5542E+03
      5.469  0.2804E+01  0.5543E+03
      5.512  0.1095E+01  0.5544E+03
      5.555  0.3781E+00  0.5544E+03
      5.598  0.1153E+00  0.5544E+03
      5.641  0.3105E-01  0.5544E+03
      5.684  0.7377E-02  0.5544E+03
      5.726  0.1545E-02  0.5544E+03
      5.769  0.2851E-03  0.5544E+03
      5.812  0.4623E-04  0.5544E+03
      5.855  0.6575E-05  0.5544E+03
      5.898  0.8174E-06  0.5544E+03
      5.941  0.8854E-07  0.5544E+03
      5.984  0.8330E-08  0.5544E+03
      6.027  0.6784E-09  0.5544E+03
      6.070  0.4768E-10  0.5544E+03
      6.113  0.2884E-11  0.5544E+03
      6.155  0.1488E-12  0.5544E+03
      6.198  0.6341E-14  0.5544E+03
      6.241  0.1941E-15  0.5544E+03
      6.284  0.0000E+00  0.5544E+03
      6.327  0.0000E+00  0.5544E+03
      6.370  0.0000E+00  0.5544E+03
      6.413  0.0000E+00  0.5544E+03
      6.456  0.0000E+00  0.5544E+03
      6.499  0.0000E+00  0.5544E+03
      6.542  0.0000E+00  0.5544E+03
      6.584  0.0000E+00  0.5544E+03
      6.627  0.0000E+00  0.5544E+03
      6.670  0.0000E+00  0.5544E+03
      6.713  0.0000E+00  0.5544E+03
      6.756  0.0000E+00  0.5544E+03
      6.799  0.0000E+00  0.5544E+03
      6.842  0.0000E+00  0.5544E+03
