<?xml version="1.0" encoding="ISO-8859-1"?>
<modeling>
 <generator>
  <i name="program" type="string">vasp </i>
  <i name="version" type="string">5.4.4.18Apr17-6-g9f103f2a35  </i>
  <i name="subversion" type="string">(build Sep 27 2018 12:46:37) complex + VL-xray_ parallel </i>
  <i name="platform" type="string">LLNL_Quartz_ifc </i>
  <i name="date" type="string">2021 09 27 </i>
  <i name="time" type="string">01:22:24 </i>
 </generator>
 <incar>
  <i type="int" name="ISTART">     2</i>
  <i type="string" name="PREC">accurate</i>
  <i type="string" name="ALGO"> Fast</i>
  <i type="int" name="ICHARG">     2</i>
  <i type="int" name="INIWAV">     1</i>
  <i type="int" name="NELM">   100</i>
  <i type="int" name="NELMIN">     4</i>
  <i type="int" name="IBRION">     2</i>
  <i name="EDIFF">      0.00000100</i>
  <i type="int" name="NSW">     5</i>
  <i type="int" name="ISIF">     2</i>
  <i type="int" name="ISYM">     2</i>
  <i name="ENCUT">    450.00000000</i>
  <i name="POTIM">      0.25000000</i>
  <i type="string" name="LREAL"> Auto</i>
  <i type="int" name="ISMEAR">     0</i>
  <i name="SIGMA">      0.15000000</i>
  <i type="logical" name="LWAVE"> F  </i>
  <i type="logical" name="LCHARG"> F  </i>
  <i type="int" name="ICORELEVEL">     0</i>
  <i type="int" name="CLNT">     1</i>
  <i type="int" name="CLN">     1</i>
  <i type="int" name="INCAR     ">     0</i>
  <i name="CLZ">      0.00000000</i>
  <v type="int" name="KPOINT_BSE">    -1     0     0     0</v>
  <i type="int" name="NELM">   100</i>
 </incar>
 <structure name="primitive_cell" >
  <crystal>
   <varray name="basis" >
    <v>       9.72667804       0.00000000       0.00000000 </v>
    <v>       0.00000000       8.42355028       0.00000000 </v>
    <v>       0.00000000       0.00000000      45.00000000 </v>
   </varray>
   <i name="volume">   3686.99226691 </i>
   <varray name="rec_basis" >
    <v>       0.10281002       0.00000000       0.00000000 </v>
    <v>       0.00000000       0.11871479       0.00000000 </v>
    <v>       0.00000000       0.00000000       0.02222222 </v>
   </varray>
  </crystal>
  <varray name="positions" >
   <v>       0.06190150       0.03015147       0.12409000 </v>
   <v>       0.18281773       0.11192040       0.16650125 </v>
   <v>       0.18583962      -0.21159799       0.12403275 </v>
   <v>       0.05592870      -0.13542379       0.16663755 </v>
   <v>      -0.06604500      -0.21215690       0.12442004 </v>
   <v>      -0.06788529       0.11356278       0.16696492 </v>
   <v>      -0.18676650       0.03099827       0.12418408 </v>
   <v>       0.31114978       0.03096268       0.12424099 </v>
   <v>       0.18385443       0.28670765       0.12399723 </v>
   <v>      -0.06420547       0.28659557       0.12393463 </v>
   <v>       0.30563826      -0.13542707       0.16574627 </v>
   <v>       0.05564292       0.36527648       0.16667349 </v>
   <v>      -0.19285067      -0.13639384       0.16679738 </v>
   <v>       0.43287531       0.11201027       0.16649806 </v>
   <v>      -0.05893485      -0.04612181       0.21134563 </v>
   <v>       0.30721264       0.36466699       0.16656659 </v>
   <v>       0.18187399      -0.38645695       0.16655993 </v>
   <v>       0.43562914      -0.21261127       0.12413967 </v>
   <v>       0.06551184       0.20362435       0.21097799 </v>
   <v>       0.19039619      -0.04563134       0.21163402 </v>
   <v>      -0.06767602      -0.38665404       0.16672880 </v>
   <v>      -0.31514176      -0.21194291       0.12433130 </v>
   <v>       0.06159315      -0.47092045       0.12401785 </v>
   <v>      -0.31794290       0.11377354       0.16691772 </v>
   <v>      -0.19417978       0.36541783       0.16683315 </v>
   <v>       0.43581460       0.28703279       0.12400430 </v>
   <v>      -0.31319931       0.28537728       0.12415748 </v>
   <v>       0.06726105      -0.29637064       0.21125533 </v>
   <v>      -0.18409975       0.20348885       0.21110935 </v>
   <v>      -0.43655777       0.03281376       0.12427714 </v>
   <v>      -0.18649287      -0.47056334       0.12404539 </v>
   <v>       0.31537969       0.20391162       0.21110657 </v>
   <v>       0.31257664      -0.47039199       0.12385240 </v>
   <v>      -0.18363289      -0.29637566       0.21150160 </v>
   <v>      -0.44332430      -0.13767770       0.16650410 </v>
   <v>       0.43123306      -0.38774333       0.16583188 </v>
   <v>      -0.31065548      -0.04545295       0.21176601 </v>
   <v>       0.31467676      -0.29764424       0.21222814 </v>
   <v>       0.19061220       0.45294269       0.21107006 </v>
   <v>      -0.06003795       0.45341306       0.21148481 </v>
   <v>      -0.31781217      -0.38689639       0.16646914 </v>
   <v>       0.44168179      -0.04442468       0.21202923 </v>
   <v>      -0.44410962       0.36519303       0.16661153 </v>
   <v>       0.05894256       0.03721142       0.25582119 </v>
   <v>       0.18375193      -0.21287276       0.25548220 </v>
   <v>       0.30891783       0.03708182       0.25544940 </v>
   <v>      -0.43358751       0.20284246       0.21143765 </v>
   <v>      -0.06671612      -0.21301553       0.25562604 </v>
   <v>      -0.43704741      -0.47114430       0.12455062 </v>
   <v>       0.18372800       0.28726453       0.25579749 </v>
   <v>      -0.19031718       0.03725238       0.25599653 </v>
   <v>      -0.30929736       0.45378361       0.21156840 </v>
   <v>      -0.06604747       0.28713563       0.25585296 </v>
   <v>       0.43971772       0.45378595       0.21134718 </v>
   <v>      -0.43289675      -0.29569613       0.21197378 </v>
   <v>       0.43270928      -0.21237858       0.25561995 </v>
   <v>       0.05938329      -0.46281520       0.25571062 </v>
   <v>       0.43340459       0.28783367       0.25570345 </v>
   <v>      -0.31618361      -0.21256398       0.25584070 </v>
   <v>      -0.31636823       0.28751098       0.25583299 </v>
   <v>       0.30838686      -0.46207980       0.25547196 </v>
   <v>      -0.43992054       0.03743241       0.25547473 </v>
   <v>      -0.19130401      -0.46290413       0.25590570 </v>
   <v>      -0.05469953       0.12241398       0.30008233 </v>
   <v>       0.07010661      -0.12664192       0.30032172 </v>
   <v>       0.19495365       0.12363785       0.30018929 </v>
   <v>      -0.17904744      -0.12608761       0.30023408 </v>
   <v>       0.31909121      -0.12631456       0.30012239 </v>
   <v>       0.06953727       0.37417633       0.29998550 </v>
   <v>      -0.44204328      -0.46227327       0.25560780 </v>
   <v>      -0.05498205      -0.37718635       0.29987116 </v>
   <v>      -0.30463113       0.12314891       0.30030502 </v>
   <v>       0.19453394      -0.37687873       0.30024421 </v>
   <v>      -0.17995704       0.37276514       0.29998671 </v>
   <v>       0.32013414       0.37213673       0.30011158 </v>
   <v>       0.44450822       0.12305218       0.30047377 </v>
   <v>      -0.30508125      -0.37677171       0.30012831 </v>
   <v>      -0.42957767      -0.12692991       0.30029184 </v>
   <v>       0.44623263      -0.37641019       0.30011802 </v>
   <v>      -0.43028207       0.37170678       0.30005775 </v>
   <v>      -0.06618269      -0.04883622       0.34473000 </v>
   <v>       0.18364442      -0.04767402       0.34492021 </v>
   <v>       0.05886174       0.20290774       0.34497623 </v>
   <v>       0.05851076      -0.29797006       0.34491147 </v>
   <v>       0.30883352       0.20270861       0.34467660 </v>
   <v>      -0.19089592       0.20261903       0.34503169 </v>
   <v>       0.30887678      -0.29808799       0.34486591 </v>
   <v>       0.43357724      -0.04754316       0.34488921 </v>
   <v>      -0.19154729      -0.29754651       0.34491060 </v>
   <v>      -0.31683744      -0.04836589       0.34465716 </v>
   <v>       0.18370046       0.45250009       0.34490907 </v>
   <v>      -0.06640095       0.45234747       0.34485911 </v>
   <v>      -0.44103906       0.20258979       0.34478041 </v>
   <v>       0.43365412       0.45246186       0.34494215 </v>
   <v>       0.06529460       0.03903832      -0.12424798 </v>
   <v>      -0.31620058       0.45238605       0.34498388 </v>
   <v>      -0.44116602      -0.29780807       0.34490225 </v>
   <v>       0.18774616      -0.20254735      -0.12392927 </v>
   <v>      -0.06300942      -0.20460542      -0.12437494 </v>
   <v>      -0.18716298       0.04074832      -0.12421147 </v>
   <v>       0.31417987       0.04116036      -0.12410452 </v>
   <v>       0.18826504       0.29690214      -0.12385355 </v>
   <v>      -0.06502296       0.29782821      -0.12441825 </v>
   <v>       0.43638115      -0.20214029      -0.12382283 </v>
   <v>       0.06296426      -0.45908390      -0.12408019 </v>
   <v>      -0.31573798      -0.20209672      -0.12407292 </v>
   <v>       0.06673767       0.03816927       0.38916795 </v>
   <v>       0.43637164       0.29841678      -0.12366802 </v>
   <v>      -0.31449536       0.29868611      -0.12395325 </v>
   <v>       0.31270955      -0.45916384      -0.12391770 </v>
   <v>      -0.05881666      -0.21257385       0.38895147 </v>
   <v>      -0.18785958      -0.45952829      -0.12412260 </v>
   <v>       0.19344314      -0.21250477       0.38887199 </v>
   <v>      -0.18209502       0.03942629       0.38919208 </v>
   <v>      -0.05894551       0.28656337       0.38893978 </v>
   <v>       0.31653467       0.03713589       0.38890872 </v>
   <v>      -0.43740719       0.04059767      -0.12397396 </v>
   <v>       0.19118284       0.28750238       0.38888705 </v>
   <v>      -0.30796586      -0.21204357       0.38903762 </v>
   <v>       0.06726352      -0.46157610       0.38903679 </v>
   <v>      -0.30883939       0.28733169       0.38906281 </v>
   <v>       0.44144862      -0.21239267       0.38905303 </v>
   <v>       0.44148886       0.28759141       0.38909347 </v>
   <v>      -0.18391363      -0.46226329       0.38890533 </v>
   <v>      -0.43769860      -0.45923531      -0.12401230 </v>
   <v>       0.31580798      -0.46181586       0.38891983 </v>
   <v>      -0.43352357       0.03783802       0.38904967 </v>
   <v>      -0.05739146      -0.03526331      -0.16605937 </v>
   <v>       0.19162230      -0.03673058      -0.16640211 </v>
   <v>       0.06675443       0.21503700      -0.16598516 </v>
   <v>       0.06588606      -0.28324795      -0.16601834 </v>
   <v>      -0.18202534       0.21490823      -0.16629837 </v>
   <v>       0.31715536       0.21314092      -0.16652691 </v>
   <v>      -0.43353404      -0.46244028       0.38904311 </v>
   <v>      -0.18288664      -0.28467768      -0.16664078 </v>
   <v>      -0.30831208      -0.03779154      -0.16650026 </v>
   <v>       0.31809626      -0.28609678      -0.16678185 </v>
   <v>       0.44282754      -0.03672728      -0.16664772 </v>
   <v>      -0.05787553       0.46438328      -0.16621656 </v>
   <v>       0.19165471       0.46329106      -0.16648000 </v>
   <v>       0.06178787      -0.12870646       0.43436681 </v>
   <v>       0.18747170       0.12045049       0.43421924 </v>
   <v>      -0.43389378       0.21361332      -0.16676925 </v>
   <v>      -0.06304017       0.11999137       0.43452469 </v>
   <v>      -0.30810699       0.46211292      -0.16665740 </v>
   <v>       0.44212362       0.46274741      -0.16661103 </v>
   <v>      -0.43384641      -0.28629144      -0.16665425 </v>
   <v>      -0.18832057      -0.12854676       0.43423054 </v>
   <v>       0.31190410      -0.12924687       0.43443650 </v>
   <v>       0.06279739       0.37193434       0.43430518 </v>
   <v>      -0.06254611      -0.37933662       0.43447579 </v>
   <v>       0.18731654      -0.37996377       0.43446056 </v>
   <v>      -0.31180236       0.12014116       0.43423848 </v>
   <v>       0.43688796       0.12094520       0.43429057 </v>
   <v>      -0.18821235       0.37172705       0.43421739 </v>
   <v>       0.31243713       0.37050690       0.43445144 </v>
   <v>       0.43666349      -0.37877288       0.43436701 </v>
   <v>      -0.31212256      -0.37938569       0.43443360 </v>
   <v>      -0.43768148      -0.12942836       0.43444093 </v>
   <v>      -0.43819915       0.37105914       0.43432819 </v>
   <v>       0.05897831      -0.12580812      -0.21151272 </v>
   <v>       0.18373161       0.12322602      -0.21138679 </v>
   <v>      -0.06619596       0.12462552      -0.21138265 </v>
   <v>       0.31017525      -0.12681967      -0.21156961 </v>
   <v>      -0.19123473      -0.12605940      -0.21153279 </v>
   <v>       0.05859512       0.37526159      -0.21152274 </v>
   <v>       0.43380538       0.12256929      -0.21105658 </v>
   <v>       0.18405070      -0.37764553      -0.21149822 </v>
   <v>      -0.06670826      -0.37570809      -0.21152141 </v>
   <v>       0.30879898       0.37409702      -0.21123683 </v>
   <v>      -0.31759450       0.12273799      -0.21144860 </v>
   <v>      -0.19135583       0.37494577      -0.21148319 </v>
   <v>       0.43326998      -0.37719249      -0.21110400 </v>
   <v>      -0.44075235      -0.12629440      -0.21128133 </v>
   <v>      -0.31743020      -0.37739007      -0.21134104 </v>
   <v>       0.18752463      -0.04417267       0.47864751 </v>
   <v>      -0.06265563      -0.04451360       0.47869837 </v>
   <v>       0.06256277       0.20581223       0.47866034 </v>
   <v>      -0.44150693       0.37351458      -0.21120173 </v>
   <v>       0.06229928      -0.29406486       0.47849949 </v>
   <v>      -0.18785859       0.20593403       0.47867764 </v>
   <v>       0.31243822       0.20579416       0.47873686 </v>
   <v>      -0.18762782      -0.29405168       0.47861592 </v>
   <v>       0.31214722      -0.29403362       0.47861603 </v>
   <v>      -0.31250967      -0.04405484       0.47865519 </v>
   <v>       0.43729624      -0.04415328       0.47866656 </v>
   <v>      -0.06268984       0.45564570       0.47866899 </v>
   <v>       0.18720366       0.45572955       0.47867049 </v>
   <v>      -0.43776092       0.20559930       0.47865763 </v>
   <v>       0.43736429       0.45600339       0.47856756 </v>
   <v>      -0.31289838       0.45594326       0.47863233 </v>
   <v>      -0.43753708      -0.29411217       0.47865309 </v>
   <v>       0.06569799       0.04044201      -0.25576441 </v>
   <v>      -0.06032376      -0.20862495      -0.25532356 </v>
   <v>       0.18961040      -0.20824486      -0.25552898 </v>
   <v>      -0.06013857       0.29080300      -0.25545610 </v>
   <v>      -0.18447766       0.04076784      -0.25579180 </v>
   <v>       0.19032139       0.29096773      -0.25564575 </v>
   <v>       0.31500868       0.04187225      -0.25588603 </v>
   <v>       0.06534084      -0.45892603      -0.25565936 </v>
   <v>      -0.31013096      -0.20841275      -0.25558639 </v>
   <v>       0.43950561      -0.20821109      -0.25553224 </v>
   <v>      -0.30981467       0.29148988      -0.25574398 </v>
   <v>       0.43993212       0.29162213      -0.25570473 </v>
   <v>      -0.18448528      -0.45945470      -0.25561986 </v>
   <v>       0.31519259      -0.45854678      -0.25572756 </v>
   <v>      -0.43454754       0.04133383      -0.25571095 </v>
   <v>       0.06186104      -0.12805181      -0.47863781 </v>
   <v>       0.18686315       0.12201455      -0.47863343 </v>
   <v>      -0.06337506       0.12173485      -0.47854788 </v>
   <v>      -0.18843611      -0.12840062      -0.47866301 </v>
   <v>       0.31176368      -0.12812341      -0.47860774 </v>
   <v>       0.06147188       0.37241377      -0.47862336 </v>
   <v>      -0.43487986      -0.45829083      -0.25587828 </v>
   <v>      -0.06320971      -0.37804829      -0.47861435 </v>
   <v>       0.18687121      -0.37853626      -0.47850085 </v>
   <v>      -0.31320031       0.12189886      -0.47864574 </v>
   <v>       0.43670130       0.12185119      -0.47859331 </v>
   <v>       0.31171923       0.37198685      -0.47863066 </v>
   <v>      -0.18812207       0.37204193      -0.47862826 </v>
   <v>       0.43672002      -0.37790930      -0.47864401 </v>
   <v>      -0.31328143      -0.37852233      -0.47865626 </v>
   <v>      -0.43776736      -0.12784133      -0.47860945 </v>
   <v>      -0.43824455       0.37193360      -0.47862675 </v>
   <v>       0.18572468      -0.04264868      -0.30023752 </v>
   <v>      -0.06452825      -0.04222925      -0.30029423 </v>
   <v>       0.06102192       0.20764142      -0.30023026 </v>
   <v>       0.06090173      -0.29227140      -0.30030263 </v>
   <v>       0.31086445       0.20738422      -0.30012631 </v>
   <v>      -0.18914257       0.20737878      -0.30019007 </v>
   <v>       0.31085356      -0.29303761      -0.30020799 </v>
   <v>      -0.18948718      -0.29215085      -0.30025785 </v>
   <v>      -0.31471729      -0.04272973      -0.30017158 </v>
   <v>       0.43522521      -0.04235832      -0.30032642 </v>
   <v>       0.18518156       0.45783367      -0.30029779 </v>
   <v>      -0.06438674       0.45797176      -0.30027942 </v>
   <v>      -0.43910999       0.20727638      -0.30015781 </v>
   <v>       0.43577772       0.45763337      -0.30022336 </v>
   <v>      -0.31457716       0.45745799      -0.30024184 </v>
   <v>      -0.43904245      -0.29253818      -0.30023015 </v>
   <v>       0.18697960      -0.04295533      -0.43454711 </v>
   <v>      -0.06314862      -0.04280428      -0.43449314 </v>
   <v>       0.06217201       0.20737977      -0.43464268 </v>
   <v>       0.06267443      -0.29287296      -0.43447812 </v>
   <v>      -0.18850322       0.20761776      -0.43460141 </v>
   <v>       0.31146481       0.20659798      -0.43445548 </v>
   <v>       0.31162333      -0.29280639      -0.43449701 </v>
   <v>      -0.18856622      -0.29339257      -0.43451369 </v>
   <v>       0.43713743      -0.04262101      -0.43461497 </v>
   <v>      -0.31277304      -0.04297401      -0.43448900 </v>
   <v>       0.18720279       0.45706402      -0.43449454 </v>
   <v>      -0.06348338       0.45685457      -0.43445923 </v>
   <v>      -0.43780508       0.20709790      -0.43451154 </v>
   <v>      -0.31320110       0.45717265      -0.43466151 </v>
   <v>       0.43675883       0.45690212      -0.43443694 </v>
   <v>      -0.43812744      -0.29284329      -0.43448655 </v>
   <v>       0.06627232      -0.12525663      -0.34504272 </v>
   <v>      -0.05879798       0.12423105      -0.34506168 </v>
   <v>       0.19103863       0.12498901      -0.34495234 </v>
   <v>       0.31628196      -0.12520193      -0.34487260 </v>
   <v>      -0.18333544      -0.12566361      -0.34513612 </v>
   <v>       0.06622139       0.37460757      -0.34491119 </v>
   <v>      -0.05898239      -0.37472205      -0.34497025 </v>
   <v>       0.19102447      -0.37507618      -0.34491437 </v>
   <v>      -0.30885251       0.12487492      -0.34499314 </v>
   <v>      -0.18384718       0.37460447      -0.34502763 </v>
   <v>       0.44127048       0.12463216      -0.34507204 </v>
   <v>       0.31609340       0.37437745      -0.34505273 </v>
   <v>      -0.30848324      -0.37490488      -0.34476029 </v>
   <v>      -0.43366835      -0.12519596      -0.34503990 </v>
   <v>       0.44094760      -0.37546298      -0.34506655 </v>
   <v>      -0.43415314       0.37415817      -0.34496598 </v>
   <v>       0.05865646       0.03810812      -0.38910130 </v>
   <v>       0.18400002      -0.21182669      -0.38903117 </v>
   <v>      -0.06630883      -0.21221319      -0.38904352 </v>
   <v>       0.30876310       0.03834624      -0.38897800 </v>
   <v>      -0.06631406       0.28831968      -0.38916572 </v>
   <v>      -0.19101174       0.03823996      -0.38895874 </v>
   <v>       0.18400243       0.28860490      -0.38897844 </v>
   <v>       0.05894137      -0.46198103      -0.38902323 </v>
   <v>       0.43364887      -0.21178581      -0.38902271 </v>
   <v>      -0.31615708      -0.21182629      -0.38909680 </v>
   <v>       0.43409903       0.28827069      -0.38899729 </v>
   <v>      -0.31599396       0.28869141      -0.38894668 </v>
   <v>       0.30904242      -0.46170013      -0.38903299 </v>
   <v>      -0.19098641      -0.46147234      -0.38891851 </v>
   <v>      -0.44095701       0.03868339      -0.38893440 </v>
   <v>      -0.44139716      -0.46193729      -0.38910496 </v>
  </varray>
 </structure>
 <varray name="primitive_index" >
  <v type="int" >        1 </v>
  <v type="int" >      125 </v>
  <v type="int" >       83 </v>
  <v type="int" >       60 </v>
  <v type="int" >       44 </v>
  <v type="int" >       26 </v>
  <v type="int" >      202 </v>
  <v type="int" >      256 </v>
  <v type="int" >      111 </v>
  <v type="int" >      155 </v>
  <v type="int" >      277 </v>
  <v type="int" >       51 </v>
  <v type="int" >      102 </v>
  <v type="int" >      182 </v>
  <v type="int" >      212 </v>
  <v type="int" >      108 </v>
  <v type="int" >       20 </v>
  <v type="int" >      170 </v>
  <v type="int" >       50 </v>
  <v type="int" >      146 </v>
  <v type="int" >      104 </v>
  <v type="int" >      163 </v>
  <v type="int" >      176 </v>
  <v type="int" >      166 </v>
  <v type="int" >       79 </v>
  <v type="int" >      117 </v>
  <v type="int" >      145 </v>
  <v type="int" >      250 </v>
  <v type="int" >      167 </v>
  <v type="int" >      114 </v>
  <v type="int" >      205 </v>
  <v type="int" >      249 </v>
  <v type="int" >       91 </v>
  <v type="int" >      213 </v>
  <v type="int" >      192 </v>
  <v type="int" >      174 </v>
  <v type="int" >       92 </v>
  <v type="int" >      276 </v>
  <v type="int" >      189 </v>
  <v type="int" >      175 </v>
  <v type="int" >       97 </v>
  <v type="int" >      229 </v>
  <v type="int" >       30 </v>
  <v type="int" >      185 </v>
  <v type="int" >      200 </v>
  <v type="int" >      179 </v>
  <v type="int" >      103 </v>
  <v type="int" >       52 </v>
  <v type="int" >      283 </v>
  <v type="int" >      112 </v>
  <v type="int" >       24 </v>
  <v type="int" >      261 </v>
  <v type="int" >      127 </v>
  <v type="int" >      139 </v>
  <v type="int" >      288 </v>
  <v type="int" >      137 </v>
  <v type="int" >      168 </v>
  <v type="int" >      265 </v>
  <v type="int" >      118 </v>
  <v type="int" >       58 </v>
  <v type="int" >      275 </v>
  <v type="int" >      221 </v>
  <v type="int" >       81 </v>
  <v type="int" >      135 </v>
  <v type="int" >      214 </v>
  <v type="int" >      215 </v>
  <v type="int" >       72 </v>
  <v type="int" >       98 </v>
  <v type="int" >      226 </v>
  <v type="int" >       28 </v>
  <v type="int" >      178 </v>
  <v type="int" >      109 </v>
  <v type="int" >      263 </v>
  <v type="int" >      220 </v>
  <v type="int" >      242 </v>
  <v type="int" >      159 </v>
  <v type="int" >      130 </v>
  <v type="int" >      210 </v>
  <v type="int" >      101 </v>
  <v type="int" >      171 </v>
  <v type="int" >      194 </v>
  <v type="int" >      258 </v>
  <v type="int" >       47 </v>
  <v type="int" >      216 </v>
  <v type="int" >       86 </v>
  <v type="int" >      207 </v>
  <v type="int" >      208 </v>
  <v type="int" >      172 </v>
  <v type="int" >       73 </v>
  <v type="int" >       25 </v>
  <v type="int" >      116 </v>
  <v type="int" >       12 </v>
  <v type="int" >      219 </v>
  <v type="int" >      206 </v>
  <v type="int" >      282 </v>
  <v type="int" >       48 </v>
  <v type="int" >      164 </v>
  <v type="int" >      268 </v>
  <v type="int" >      281 </v>
  <v type="int" >       14 </v>
  <v type="int" >      245 </v>
  <v type="int" >      120 </v>
  <v type="int" >      280 </v>
  <v type="int" >      150 </v>
  <v type="int" >      266 </v>
  <v type="int" >       29 </v>
  <v type="int" >      124 </v>
  <v type="int" >      255 </v>
  <v type="int" >      191 </v>
  <v type="int" >       18 </v>
  <v type="int" >      190 </v>
  <v type="int" >      231 </v>
  <v type="int" >      287 </v>
  <v type="int" >      279 </v>
  <v type="int" >       13 </v>
  <v type="int" >      165 </v>
  <v type="int" >      161 </v>
  <v type="int" >      248 </v>
  <v type="int" >       45 </v>
  <v type="int" >      273 </v>
  <v type="int" >       84 </v>
  <v type="int" >      264 </v>
  <v type="int" >        4 </v>
  <v type="int" >      123 </v>
  <v type="int" >       64 </v>
  <v type="int" >       67 </v>
  <v type="int" >       16 </v>
  <v type="int" >       17 </v>
  <v type="int" >        7 </v>
  <v type="int" >      259 </v>
  <v type="int" >      134 </v>
  <v type="int" >        6 </v>
  <v type="int" >       39 </v>
  <v type="int" >      222 </v>
  <v type="int" >      253 </v>
  <v type="int" >       88 </v>
  <v type="int" >        5 </v>
  <v type="int" >      110 </v>
  <v type="int" >       36 </v>
  <v type="int" >      181 </v>
  <v type="int" >      285 </v>
  <v type="int" >      160 </v>
  <v type="int" >      143 </v>
  <v type="int" >      158 </v>
  <v type="int" >       82 </v>
  <v type="int" >       74 </v>
  <v type="int" >      241 </v>
  <v type="int" >      235 </v>
  <v type="int" >       23 </v>
  <v type="int" >      218 </v>
  <v type="int" >      131 </v>
  <v type="int" >      238 </v>
  <v type="int" >      257 </v>
  <v type="int" >      201 </v>
  <v type="int" >       80 </v>
  <v type="int" >      113 </v>
  <v type="int" >      278 </v>
  <v type="int" >      232 </v>
  <v type="int" >       69 </v>
  <v type="int" >      251 </v>
  <v type="int" >      197 </v>
  <v type="int" >        3 </v>
  <v type="int" >      149 </v>
  <v type="int" >      224 </v>
  <v type="int" >       55 </v>
  <v type="int" >      254 </v>
  <v type="int" >       49 </v>
  <v type="int" >      272 </v>
  <v type="int" >      132 </v>
  <v type="int" >      138 </v>
  <v type="int" >      188 </v>
  <v type="int" >       57 </v>
  <v type="int" >      184 </v>
  <v type="int" >       33 </v>
  <v type="int" >       66 </v>
  <v type="int" >       94 </v>
  <v type="int" >      236 </v>
  <v type="int" >      223 </v>
  <v type="int" >      106 </v>
  <v type="int" >      157 </v>
  <v type="int" >       21 </v>
  <v type="int" >      230 </v>
  <v type="int" >      234 </v>
  <v type="int" >       99 </v>
  <v type="int" >       75 </v>
  <v type="int" >      105 </v>
  <v type="int" >      269 </v>
  <v type="int" >      244 </v>
  <v type="int" >      237 </v>
  <v type="int" >      156 </v>
  <v type="int" >      199 </v>
  <v type="int" >      169 </v>
  <v type="int" >        9 </v>
  <v type="int" >       46 </v>
  <v type="int" >      262 </v>
  <v type="int" >      187 </v>
  <v type="int" >      151 </v>
  <v type="int" >       11 </v>
  <v type="int" >      239 </v>
  <v type="int" >      211 </v>
  <v type="int" >       43 </v>
  <v type="int" >       31 </v>
  <v type="int" >       19 </v>
  <v type="int" >       71 </v>
  <v type="int" >       87 </v>
  <v type="int" >      243 </v>
  <v type="int" >      267 </v>
  <v type="int" >       27 </v>
  <v type="int" >      140 </v>
  <v type="int" >      286 </v>
  <v type="int" >       10 </v>
  <v type="int" >      144 </v>
  <v type="int" >      107 </v>
  <v type="int" >      270 </v>
  <v type="int" >      203 </v>
  <v type="int" >       68 </v>
  <v type="int" >       34 </v>
  <v type="int" >      119 </v>
  <v type="int" >      183 </v>
  <v type="int" >      177 </v>
  <v type="int" >      252 </v>
  <v type="int" >      195 </v>
  <v type="int" >       77 </v>
  <v type="int" >      247 </v>
  <v type="int" >      173 </v>
  <v type="int" >      225 </v>
  <v type="int" >       37 </v>
  <v type="int" >      274 </v>
  <v type="int" >       63 </v>
  <v type="int" >      233 </v>
  <v type="int" >      154 </v>
  <v type="int" >      141 </v>
  <v type="int" >       54 </v>
  <v type="int" >       38 </v>
  <v type="int" >      246 </v>
  <v type="int" >      152 </v>
  <v type="int" >       53 </v>
  <v type="int" >      193 </v>
  <v type="int" >       76 </v>
  <v type="int" >      133 </v>
  <v type="int" >      162 </v>
  <v type="int" >      129 </v>
  <v type="int" >       62 </v>
  <v type="int" >       65 </v>
  <v type="int" >      271 </v>
  <v type="int" >       93 </v>
  <v type="int" >       90 </v>
  <v type="int" >       32 </v>
  <v type="int" >       56 </v>
  <v type="int" >       95 </v>
  <v type="int" >       59 </v>
  <v type="int" >       42 </v>
  <v type="int" >        8 </v>
  <v type="int" >      228 </v>
  <v type="int" >       70 </v>
  <v type="int" >      186 </v>
  <v type="int" >      196 </v>
  <v type="int" >      122 </v>
  <v type="int" >      121 </v>
  <v type="int" >        2 </v>
  <v type="int" >      284 </v>
  <v type="int" >      198 </v>
  <v type="int" >      240 </v>
  <v type="int" >      153 </v>
  <v type="int" >      209 </v>
  <v type="int" >       35 </v>
  <v type="int" >      204 </v>
  <v type="int" >       85 </v>
  <v type="int" >      227 </v>
  <v type="int" >       89 </v>
  <v type="int" >       40 </v>
  <v type="int" >       78 </v>
  <v type="int" >      142 </v>
  <v type="int" >       15 </v>
  <v type="int" >      136 </v>
  <v type="int" >      148 </v>
  <v type="int" >      100 </v>
  <v type="int" >      217 </v>
  <v type="int" >       61 </v>
  <v type="int" >      126 </v>
  <v type="int" >       96 </v>
  <v type="int" >      180 </v>
  <v type="int" >      115 </v>
  <v type="int" >      147 </v>
  <v type="int" >       41 </v>
  <v type="int" >       22 </v>
  <v type="int" >      260 </v>
  <v type="int" >      128 </v>
 </varray>
 <kpoints>
  <generation param="Gamma">
   <v type="int" name="divisions">       4        4        1 </v>
   <v name="usershift">      0.00000000       0.00000000       0.00000000 </v>
   <v name="genvec1">      0.25000000       0.00000000       0.00000000 </v>
   <v name="genvec2">      0.00000000       0.25000000       0.00000000 </v>
   <v name="genvec3">      0.00000000       0.00000000       1.00000000 </v>
   <v name="shift">      0.00000000       0.00000000       0.00000000 </v>
  </generation>
  <varray name="kpointlist" >
   <v>       0.00000000       0.00000000       0.00000000 </v>
   <v>       0.25000000       0.00000000       0.00000000 </v>
   <v>       0.50000000       0.00000000       0.00000000 </v>
   <v>       0.00000000       0.25000000       0.00000000 </v>
   <v>       0.25000000       0.25000000       0.00000000 </v>
   <v>       0.50000000       0.25000000       0.00000000 </v>
   <v>      -0.25000000       0.25000000       0.00000000 </v>
   <v>       0.00000000       0.50000000       0.00000000 </v>
   <v>       0.25000000       0.50000000       0.00000000 </v>
   <v>       0.50000000       0.50000000       0.00000000 </v>
  </varray>
  <varray name="weights" >
   <v>       0.06250000 </v>
   <v>       0.12500000 </v>
   <v>       0.06250000 </v>
   <v>       0.12500000 </v>
   <v>       0.12500000 </v>
   <v>       0.12500000 </v>
   <v>       0.12500000 </v>
   <v>       0.06250000 </v>
   <v>       0.12500000 </v>
   <v>       0.06250000 </v>
  </varray>
 </kpoints>
 <parameters>
  <separator name="general" >
   <i type="string" name="SYSTEM">unknown system</i>
   <i type="logical" name="LCOMPAT"> F  </i>
  </separator>
  <separator name="electronic" >
   <i type="string" name="PREC">accura</i>
   <i name="ENMAX">    450.00000000</i>
   <i name="ENAUG">    838.43500000</i>
   <i name="EDIFF">      0.00000100</i>
   <i type="int" name="IALGO">    68</i>
   <i type="int" name="IWAVPR">    11</i>
   <i type="int" name="NBANDS">  1386</i>
   <i name="NELECT">   2290.00000000</i>
   <i type="int" name="TURBO">     0</i>
   <i type="int" name="IRESTART">     0</i>
   <i type="int" name="NREBOOT">     0</i>
   <i type="int" name="NMIN">     0</i>
   <i name="EREF">      0.00000000</i>
   <separator name="electronic smearing" >
    <i type="int" name="ISMEAR">     0</i>
    <i name="SIGMA">      0.15000000</i>
    <i name="KSPACING">      0.50000000</i>
    <i type="logical" name="KGAMMA"> T  </i>
   </separator>
   <separator name="electronic projectors" >
    <i type="logical" name="LREAL"> T  </i>
    <v name="ROPT">     -0.00025000     -0.00025000</v>
    <i type="int" name="LMAXPAW">  -100</i>
    <i type="int" name="LMAXMIX">     2</i>
    <i type="logical" name="NLSPLINE"> F  </i>
   </separator>
   <separator name="electronic startup" >
    <i type="int" name="ISTART">     0</i>
    <i type="int" name="ICHARG">     2</i>
    <i type="int" name="INIWAV">     1</i>
   </separator>
   <separator name="electronic spin" >
    <i type="int" name="ISPIN">     1</i>
    <i type="logical" name="LNONCOLLINEAR"> F  </i>
    <v name="MAGMOM">      1.00000000      1.00000000      1.00000000      1.00000000      1.00000000      1.00000000      1.00000000      1.00000000      1.00000000      1.00000000      1.00000000      1.00000000      1.00000000      1.00000000      1.00000000      1.00000000      1.00000000      1.00000000      1.00000000      1.00000000
      1.00000000      1.00000000      1.00000000      1.00000000      1.00000000      1.00000000      1.00000000      1.00000000      1.00000000      1.00000000      1.00000000      1.00000000      1.00000000      1.00000000      1.00000000      1.00000000      1.00000000      1.00000000      1.00000000      1.00000000
      1.00000000      1.00000000      1.00000000      1.00000000      1.00000000      1.00000000      1.00000000      1.00000000      1.00000000      1.00000000      1.00000000      1.00000000      1.00000000      1.00000000      1.00000000      1.00000000      1.00000000      1.00000000      1.00000000      1.00000000
      1.00000000      1.00000000      1.00000000      1.00000000      1.00000000      1.00000000      1.00000000      1.00000000      1.00000000      1.00000000      1.00000000      1.00000000      1.00000000      1.00000000      1.00000000      1.00000000      1.00000000      1.00000000      1.00000000      1.00000000
      1.00000000      1.00000000      1.00000000      1.00000000      1.00000000      1.00000000      1.00000000      1.00000000      1.00000000      1.00000000      1.00000000      1.00000000      1.00000000      1.00000000      1.00000000      1.00000000      1.00000000      1.00000000      1.00000000      1.00000000
      1.00000000      1.00000000      1.00000000      1.00000000      1.00000000      1.00000000      1.00000000      1.00000000      1.00000000      1.00000000      1.00000000      1.00000000      1.00000000      1.00000000      1.00000000      1.00000000      1.00000000      1.00000000      1.00000000      1.00000000
      1.00000000      1.00000000      1.00000000      1.00000000      1.00000000      1.00000000      1.00000000      1.00000000      1.00000000      1.00000000      1.00000000      1.00000000      1.00000000      1.00000000      1.00000000      1.00000000      1.00000000      1.00000000      1.00000000      1.00000000
      1.00000000      1.00000000      1.00000000      1.00000000      1.00000000      1.00000000      1.00000000      1.00000000      1.00000000      1.00000000      1.00000000      1.00000000      1.00000000      1.00000000      1.00000000      1.00000000      1.00000000      1.00000000      1.00000000      1.00000000
      1.00000000      1.00000000      1.00000000      1.00000000      1.00000000      1.00000000      1.00000000      1.00000000      1.00000000      1.00000000      1.00000000      1.00000000      1.00000000      1.00000000      1.00000000      1.00000000      1.00000000      1.00000000      1.00000000      1.00000000
      1.00000000      1.00000000      1.00000000      1.00000000      1.00000000      1.00000000      1.00000000      1.00000000      1.00000000      1.00000000      1.00000000      1.00000000      1.00000000      1.00000000      1.00000000      1.00000000      1.00000000      1.00000000      1.00000000      1.00000000
      1.00000000      1.00000000      1.00000000      1.00000000      1.00000000      1.00000000      1.00000000      1.00000000      1.00000000      1.00000000      1.00000000      1.00000000      1.00000000      1.00000000      1.00000000      1.00000000      1.00000000      1.00000000      1.00000000      1.00000000
      1.00000000      1.00000000      1.00000000      1.00000000      1.00000000      1.00000000      1.00000000      1.00000000      1.00000000      1.00000000      1.00000000      1.00000000      1.00000000      1.00000000      1.00000000      1.00000000      1.00000000      1.00000000      1.00000000      1.00000000
      1.00000000      1.00000000      1.00000000      1.00000000      1.00000000      1.00000000      1.00000000      1.00000000      1.00000000      1.00000000      1.00000000      1.00000000      1.00000000      1.00000000      1.00000000      1.00000000      1.00000000      1.00000000      1.00000000      1.00000000
      1.00000000      1.00000000      1.00000000      1.00000000      1.00000000      1.00000000      1.00000000      1.00000000      1.00000000      1.00000000      1.00000000      1.00000000      1.00000000      1.00000000      1.00000000      1.00000000      1.00000000      1.00000000      1.00000000      1.00000000
      1.00000000      1.00000000      1.00000000      1.00000000      1.00000000      1.00000000      1.00000000      1.00000000</v>
    <i name="NUPDOWN">     -1.00000000</i>
    <i type="logical" name="LSORBIT"> F  </i>
    <v name="SAXIS">      0.00000000      0.00000000      1.00000000</v>
    <i type="logical" name="LSPIRAL"> F  </i>
    <v name="QSPIRAL">      0.00000000      0.00000000      0.00000000</v>
    <i type="logical" name="LZEROZ"> F  </i>
   </separator>
   <separator name="electronic exchange-correlation" >
    <i type="logical" name="LASPH"> F  </i>
    <i type="logical" name="LMETAGGA"> F  </i>
   </separator>
   <separator name="electronic convergence" >
    <i type="int" name="NELM">   100</i>
    <i type="int" name="NELMDL">     0</i>
    <i type="int" name="NELMIN">     4</i>
    <i name="ENINI">    450.00000000</i>
    <separator name="electronic convergence detail" >
     <i type="logical" name="LDIAG"> T  </i>
     <i type="logical" name="LSUBROT"> F  </i>
     <i name="WEIMIN">      0.00100000</i>
     <i name="EBREAK">      0.00000000</i>
     <i name="DEPER">      0.30000000</i>
     <i type="int" name="NRMM">     4</i>
     <i name="TIME">      0.40000000</i>
    </separator>
   </separator>
   <separator name="electronic mixer" >
    <i name="AMIX">      0.40000000</i>
    <i name="BMIX">      1.00000000</i>
    <i name="AMIN">      0.10000000</i>
    <i name="AMIX_MAG">      1.60000000</i>
    <i name="BMIX_MAG">      1.00000000</i>
    <separator name="electronic mixer details" >
     <i type="int" name="IMIX">     4</i>
     <i type="logical" name="MIXFIRST"> F  </i>
     <i type="int" name="MAXMIX">   -45</i>
     <i name="WC">    100.00000000</i>
     <i type="int" name="INIMIX">     1</i>
     <i type="int" name="MIXPRE">     1</i>
     <i type="int" name="MREMOVE">     5</i>
    </separator>
   </separator>
   <separator name="electronic dipolcorrection" >
    <i type="logical" name="LDIPOL"> F  </i>
    <i type="logical" name="LMONO"> F  </i>
    <i type="int" name="IDIPOL">     0</i>
    <i name="EPSILON">      1.00000000</i>
    <v name="DIPOL">   -100.00000000   -100.00000000   -100.00000000</v>
    <i name="EFIELD">      0.00000000</i>
   </separator>
  </separator>
  <separator name="grids" >
   <i type="int" name="NGX">    70</i>
   <i type="int" name="NGY">    60</i>
   <i type="int" name="NGZ">   320</i>
   <i type="int" name="NGXF">   140</i>
   <i type="int" name="NGYF">   120</i>
   <i type="int" name="NGZF">   640</i>
   <i type="logical" name="ADDGRID"> F  </i>
  </separator>
  <separator name="ionic" >
   <i type="int" name="NSW">     5</i>
   <i type="int" name="IBRION">     2</i>
   <i type="int" name="MDALGO">     0</i>
   <i type="int" name="ISIF">     2</i>
   <i name="PSTRESS">      0.00000000</i>
   <i name="EDIFFG">      0.00001000</i>
   <i type="int" name="NFREE">     1</i>
   <i name="POTIM">      0.25000000</i>
   <i name="SMASS">     -3.00000000</i>
   <i name="SCALEE">      1.00000000</i>
  </separator>
  <separator name="ionic md" >
   <i name="TEBEG">      0.00010000</i>
   <i name="TEEND">      0.00010000</i>
   <i type="int" name="NBLOCK">     1</i>
   <i type="int" name="KBLOCK">     5</i>
   <i type="int" name="NPACO">   256</i>
   <i name="APACO">     16.00000000</i>
  </separator>
  <separator name="symmetry" >
   <i type="int" name="ISYM">     2</i>
   <i name="SYMPREC">      0.00001000</i>
  </separator>
  <separator name="dos" >
   <i type="int" name="LORBIT">     0</i>
   <v name="RWIGS">     -1.00000000     -1.00000000</v>
   <i type="int" name="NEDOS">   301</i>
   <i name="EMIN">     10.00000000</i>
   <i name="EMAX">    -10.00000000</i>
   <i name="EFERMI">      0.00000000</i>
  </separator>
  <separator name="writing" >
   <i type="int" name="NWRITE">     2</i>
   <i type="logical" name="LWAVE"> F  </i>
   <i type="logical" name="LDOWNSAMPLE"> F  </i>
   <i type="logical" name="LCHARG"> F  </i>
   <i type="logical" name="LPARD"> F  </i>
   <i type="logical" name="LVTOT"> F  </i>
   <i type="logical" name="LVHAR"> F  </i>
   <i type="logical" name="LELF"> F  </i>
   <i type="logical" name="LOPTICS"> F  </i>
   <v name="STM">      0.00000000      0.00000000      0.00000000      0.00000000      0.00000000      0.00000000      0.00000000</v>
  </separator>
  <separator name="performance" >
   <i type="int" name="NPAR">    14</i>
   <i type="int" name="NSIM">     4</i>
   <i type="int" name="NBLK">    -1</i>
   <i type="logical" name="LPLANE"> T  </i>
   <i type="logical" name="LSCALAPACK"> T  </i>
   <i type="logical" name="LSCAAWARE"> T  </i>
   <i type="logical" name="LSCALU"> F  </i>
   <i type="logical" name="LASYNC"> F  </i>
   <i type="logical" name="LORBITALREAL"> F  </i>
  </separator>
  <separator name="miscellaneous" >
   <i type="int" name="IDIOT">     3</i>
   <i type="int" name="ISPECIAL">     0</i>
   <i type="logical" name="LMUSIC"> F  </i>
   <v name="POMASS">     55.84700000     54.93800000</v>
   <v name="DARWINR">      0.00000000      0.00000000</v>
   <v name="DARWINV">      1.00000000      1.00000000</v>
   <i type="logical" name="LCORR"> T  </i>
  </separator>
  <i type="logical" name="GGA_COMPAT"> T  </i>
  <i type="logical" name="LBERRY"> F  </i>
  <i type="int" name="ICORELEVEL">     0</i>
  <i type="logical" name="LDAU"> F  </i>
  <i type="int" name="I_CONSTRAINED_M">     0</i>
  <separator name="electronic exchange-correlation" >
   <i type="string" name="GGA">--</i>
   <i type="int" name="VOSKOWN">     0</i>
   <i type="logical" name="LHFCALC"> F  </i>
   <i type="string" name="PRECFOCK"></i>
   <i type="logical" name="LSYMGRAD"> F  </i>
   <i type="logical" name="LHFONE"> F  </i>
   <i type="logical" name="LRHFCALC"> F  </i>
   <i type="logical" name="LTHOMAS"> F  </i>
   <i type="logical" name="LMODELHF"> F  </i>
   <i name="ENCUT4O">     -1.00000000</i>
   <i type="int" name="EXXOEP">     0</i>
   <i type="int" name="FOURORBIT">     0</i>
   <i name="AEXX">      0.00000000</i>
   <i name="HFALPHA">      0.00000000</i>
   <i name="MCALPHA">      0.00000000</i>
   <i name="ALDAX">      1.00000000</i>
   <i name="AGGAX">      1.00000000</i>
   <i name="ALDAC">      1.00000000</i>
   <i name="AGGAC">      1.00000000</i>
   <i type="int" name="NKREDX">     1</i>
   <i type="int" name="NKREDY">     1</i>
   <i type="int" name="NKREDZ">     1</i>
   <i type="logical" name="SHIFTRED"> F  </i>
   <i type="logical" name="ODDONLY"> F  </i>
   <i type="logical" name="EVENONLY"> F  </i>
   <i type="int" name="LMAXFOCK">     0</i>
   <i type="int" name="NMAXFOCKAE">     0</i>
   <i type="logical" name="LFOCKAEDFT"> F  </i>
   <i name="HFSCREEN">      0.00000000</i>
   <i name="HFSCREENC">      0.00000000</i>
   <i type="int" name="NBANDSGWLOW">     0</i>
  </separator>
  <separator name="vdW DFT" >
   <i type="logical" name="LUSE_VDW"> F  </i>
   <i name="Zab_VDW">     -0.84910000</i>
   <i name="PARAM1">      0.12340000</i>
   <i name="PARAM2">      1.00000000</i>
   <i name="PARAM3">      0.00000000</i>
  </separator>
  <separator name="model GW" >
   <i type="int" name="MODEL_GW">     0</i>
   <i name="MODEL_EPS0">      7.68123389</i>
   <i name="MODEL_ALPHA">      1.00000000</i>
  </separator>
  <separator name="linear response parameters" >
   <i type="logical" name="LEPSILON"> F  </i>
   <i type="logical" name="LRPA"> F  </i>
   <i type="logical" name="LNABLA"> F  </i>
   <i type="logical" name="LVEL"> F  </i>
   <i type="int" name="KINTER">     0</i>
   <i name="CSHIFT">      0.10000000</i>
   <i name="OMEGAMAX">     -1.00000000</i>
   <i name="DEG_THRESHOLD">      0.00200000</i>
   <i name="RTIME">     -0.10000000</i>
   <i name="WPLASMAI">      0.00000000</i>
   <v name="DFIELD">      0.00000000      0.00000000      0.00000000</v>
   <v name="WPLASMA">      0.00000000      0.00000000      0.00000000      0.00000000      0.00000000      0.00000000      0.00000000      0.00000000      0.00000000</v>
  </separator>
  <separator name="orbital magnetization" >
   <i type="logical" name="NUCIND"> F  </i>
   <v name="MAGPOS">      0.00000000      0.00000000      0.00000000</v>
   <i type="logical" name="LNICSALL"> T  </i>
   <i type="logical" name="ORBITALMAG"> F  </i>
   <i type="logical" name="LMAGBLOCH"> F  </i>
   <i type="logical" name="LCHIMAG"> F  </i>
   <i type="logical" name="LGAUGE"> T  </i>
   <i type="int" name="MAGATOM">     0</i>
   <v name="MAGDIPOL">      0.00000000      0.00000000      0.00000000</v>
   <v name="AVECCONST">      0.00000000      0.00000000      0.00000000</v>
  </separator>
  <separator name="response functions" >
   <i type="logical" name="LADDER"> F  </i>
   <i type="logical" name="LRPAFORCE"> F  </i>
   <i type="logical" name="LFXC"> F  </i>
   <i type="logical" name="LHARTREE"> T  </i>
   <i type="int" name="IBSE">     0</i>
   <v type="int" name="KPOINT">    -1     0     0     0</v>
   <i type="logical" name="LTCTE"> F  </i>
   <i type="logical" name="LTETE"> F  </i>
   <i type="logical" name="LTRIPLET"> F  </i>
   <i type="logical" name="LFXCEPS"> F  </i>
   <i type="logical" name="LFXHEG"> F  </i>
   <i type="int" name="NATURALO">     2</i>
   <i type="logical" name="L2ORDER"> F  </i>
   <i type="logical" name="LMP2LT"> F  </i>
   <i type="logical" name="LUSEW"> F  </i>
   <i name="ENCUTGW">     -2.00000000</i>
   <i name="ENCUTGWSOFT">     -2.00000000</i>
   <i name="ENCUTLF">     -1.00000000</i>
   <i type="int" name="LMAXMP2">    -1</i>
   <i name="SCISSOR">      0.00000000</i>
   <i type="int" name="NOMEGA">     0</i>
   <i type="int" name="NOMEGAR">     0</i>
   <i type="int" name="NBANDSGW">    -1</i>
   <i type="int" name="NBANDSO">    -1</i>
   <i type="int" name="NBANDSV">    -1</i>
   <i type="int" name="NELM">   100</i>
   <i type="int" name="NELMHF">     1</i>
   <i type="int" name="DIM">     3</i>
   <i type="int" name="ANTIRES">     0</i>
   <i name="OMEGAMAX">    -30.00000000</i>
   <i name="OMEGAMIN">    -30.00000000</i>
   <i name="OMEGATL">   -200.00000000</i>
   <i type="int" name="OMEGAGRID">   140</i>
   <i name="CSHIFT">     -0.10000000</i>
   <i type="logical" name="SELFENERGY"> F  </i>
   <i type="logical" name="LSPECTRAL"> F  </i>
   <i type="logical" name="LSPECTRALGW"> F  </i>
   <i type="logical" name="LSINGLES"> F  </i>
   <i type="logical" name="LFERMIGW"> F  </i>
   <i type="logical" name="ODDONLYGW"> F  </i>
   <i type="logical" name="EVENONLYGW"> F  </i>
   <i type="int" name="NKREDLFX">     1</i>
   <i type="int" name="NKREDLFY">     1</i>
   <i type="int" name="NKREDLFZ">     1</i>
   <i type="int" name="MAXMEM">  2800</i>
   <i type="int" name="TELESCOPE">     0</i>
   <i type="int" name="TAUPAR">     1</i>
   <i type="int" name="OMEGAPAR">    -1</i>
   <i name="LAMBDA">      1.00000000</i>
  </separator>
  <separator name="External order field" >
   <i name="OFIELD_KAPPA">      0.00000000</i>
   <v name="OFIELD_K">      0.00000000      0.00000000      0.00000000</v>
   <i name="OFIELD_Q6_NEAR">      0.00000000</i>
   <i name="OFIELD_Q6_FAR">      0.00000000</i>
   <i name="OFIELD_A">      0.00000000</i>
  </separator>
 </parameters>
 <atominfo>
  <atoms>     288 </atoms>
  <types>       2 </types>
  <array name="atoms" >
   <dimension dim="1">ion</dimension>
   <field type="string">element</field>
   <field type="int">atomtype</field>
   <set>
    <rc><c>Fe</c><c>   1</c></rc>
    <rc><c>Fe</c><c>   1</c></rc>
    <rc><c>Fe</c><c>   1</c></rc>
    <rc><c>Fe</c><c>   1</c></rc>
    <rc><c>Fe</c><c>   1</c></rc>
    <rc><c>Fe</c><c>   1</c></rc>
    <rc><c>Fe</c><c>   1</c></rc>
    <rc><c>Fe</c><c>   1</c></rc>
    <rc><c>Fe</c><c>   1</c></rc>
    <rc><c>Fe</c><c>   1</c></rc>
    <rc><c>Fe</c><c>   1</c></rc>
    <rc><c>Fe</c><c>   1</c></rc>
    <rc><c>Fe</c><c>   1</c></rc>
    <rc><c>Fe</c><c>   1</c></rc>
    <rc><c>Fe</c><c>   1</c></rc>
    <rc><c>Fe</c><c>   1</c></rc>
    <rc><c>Fe</c><c>   1</c></rc>
    <rc><c>Fe</c><c>   1</c></rc>
    <rc><c>Fe</c><c>   1</c></rc>
    <rc><c>Fe</c><c>   1</c></rc>
    <rc><c>Fe</c><c>   1</c></rc>
    <rc><c>Fe</c><c>   1</c></rc>
    <rc><c>Fe</c><c>   1</c></rc>
    <rc><c>Fe</c><c>   1</c></rc>
    <rc><c>Fe</c><c>   1</c></rc>
    <rc><c>Fe</c><c>   1</c></rc>
    <rc><c>Fe</c><c>   1</c></rc>
    <rc><c>Fe</c><c>   1</c></rc>
    <rc><c>Fe</c><c>   1</c></rc>
    <rc><c>Fe</c><c>   1</c></rc>
    <rc><c>Fe</c><c>   1</c></rc>
    <rc><c>Fe</c><c>   1</c></rc>
    <rc><c>Fe</c><c>   1</c></rc>
    <rc><c>Fe</c><c>   1</c></rc>
    <rc><c>Fe</c><c>   1</c></rc>
    <rc><c>Fe</c><c>   1</c></rc>
    <rc><c>Fe</c><c>   1</c></rc>
    <rc><c>Fe</c><c>   1</c></rc>
    <rc><c>Fe</c><c>   1</c></rc>
    <rc><c>Fe</c><c>   1</c></rc>
    <rc><c>Fe</c><c>   1</c></rc>
    <rc><c>Fe</c><c>   1</c></rc>
    <rc><c>Fe</c><c>   1</c></rc>
    <rc><c>Fe</c><c>   1</c></rc>
    <rc><c>Fe</c><c>   1</c></rc>
    <rc><c>Fe</c><c>   1</c></rc>
    <rc><c>Fe</c><c>   1</c></rc>
    <rc><c>Fe</c><c>   1</c></rc>
    <rc><c>Fe</c><c>   1</c></rc>
    <rc><c>Fe</c><c>   1</c></rc>
    <rc><c>Fe</c><c>   1</c></rc>
    <rc><c>Fe</c><c>   1</c></rc>
    <rc><c>Fe</c><c>   1</c></rc>
    <rc><c>Fe</c><c>   1</c></rc>
    <rc><c>Fe</c><c>   1</c></rc>
    <rc><c>Fe</c><c>   1</c></rc>
    <rc><c>Fe</c><c>   1</c></rc>
    <rc><c>Fe</c><c>   1</c></rc>
    <rc><c>Fe</c><c>   1</c></rc>
    <rc><c>Fe</c><c>   1</c></rc>
    <rc><c>Fe</c><c>   1</c></rc>
    <rc><c>Fe</c><c>   1</c></rc>
    <rc><c>Fe</c><c>   1</c></rc>
    <rc><c>Fe</c><c>   1</c></rc>
    <rc><c>Fe</c><c>   1</c></rc>
    <rc><c>Fe</c><c>   1</c></rc>
    <rc><c>Fe</c><c>   1</c></rc>
    <rc><c>Fe</c><c>   1</c></rc>
    <rc><c>Fe</c><c>   1</c></rc>
    <rc><c>Fe</c><c>   1</c></rc>
    <rc><c>Fe</c><c>   1</c></rc>
    <rc><c>Fe</c><c>   1</c></rc>
    <rc><c>Fe</c><c>   1</c></rc>
    <rc><c>Fe</c><c>   1</c></rc>
    <rc><c>Fe</c><c>   1</c></rc>
    <rc><c>Fe</c><c>   1</c></rc>
    <rc><c>Fe</c><c>   1</c></rc>
    <rc><c>Fe</c><c>   1</c></rc>
    <rc><c>Fe</c><c>   1</c></rc>
    <rc><c>Fe</c><c>   1</c></rc>
    <rc><c>Fe</c><c>   1</c></rc>
    <rc><c>Fe</c><c>   1</c></rc>
    <rc><c>Fe</c><c>   1</c></rc>
    <rc><c>Fe</c><c>   1</c></rc>
    <rc><c>Fe</c><c>   1</c></rc>
    <rc><c>Fe</c><c>   1</c></rc>
    <rc><c>Fe</c><c>   1</c></rc>
    <rc><c>Fe</c><c>   1</c></rc>
    <rc><c>Fe</c><c>   1</c></rc>
    <rc><c>Fe</c><c>   1</c></rc>
    <rc><c>Fe</c><c>   1</c></rc>
    <rc><c>Fe</c><c>   1</c></rc>
    <rc><c>Fe</c><c>   1</c></rc>
    <rc><c>Fe</c><c>   1</c></rc>
    <rc><c>Fe</c><c>   1</c></rc>
    <rc><c>Fe</c><c>   1</c></rc>
    <rc><c>Fe</c><c>   1</c></rc>
    <rc><c>Fe</c><c>   1</c></rc>
    <rc><c>Fe</c><c>   1</c></rc>
    <rc><c>Fe</c><c>   1</c></rc>
    <rc><c>Fe</c><c>   1</c></rc>
    <rc><c>Fe</c><c>   1</c></rc>
    <rc><c>Fe</c><c>   1</c></rc>
    <rc><c>Fe</c><c>   1</c></rc>
    <rc><c>Fe</c><c>   1</c></rc>
    <rc><c>Fe</c><c>   1</c></rc>
    <rc><c>Fe</c><c>   1</c></rc>
    <rc><c>Fe</c><c>   1</c></rc>
    <rc><c>Fe</c><c>   1</c></rc>
    <rc><c>Fe</c><c>   1</c></rc>
    <rc><c>Fe</c><c>   1</c></rc>
    <rc><c>Fe</c><c>   1</c></rc>
    <rc><c>Fe</c><c>   1</c></rc>
    <rc><c>Fe</c><c>   1</c></rc>
    <rc><c>Fe</c><c>   1</c></rc>
    <rc><c>Fe</c><c>   1</c></rc>
    <rc><c>Fe</c><c>   1</c></rc>
    <rc><c>Fe</c><c>   1</c></rc>
    <rc><c>Fe</c><c>   1</c></rc>
    <rc><c>Fe</c><c>   1</c></rc>
    <rc><c>Fe</c><c>   1</c></rc>
    <rc><c>Fe</c><c>   1</c></rc>
    <rc><c>Fe</c><c>   1</c></rc>
    <rc><c>Fe</c><c>   1</c></rc>
    <rc><c>Fe</c><c>   1</c></rc>
    <rc><c>Fe</c><c>   1</c></rc>
    <rc><c>Fe</c><c>   1</c></rc>
    <rc><c>Fe</c><c>   1</c></rc>
    <rc><c>Fe</c><c>   1</c></rc>
    <rc><c>Fe</c><c>   1</c></rc>
    <rc><c>Fe</c><c>   1</c></rc>
    <rc><c>Fe</c><c>   1</c></rc>
    <rc><c>Fe</c><c>   1</c></rc>
    <rc><c>Fe</c><c>   1</c></rc>
    <rc><c>Fe</c><c>   1</c></rc>
    <rc><c>Fe</c><c>   1</c></rc>
    <rc><c>Fe</c><c>   1</c></rc>
    <rc><c>Fe</c><c>   1</c></rc>
    <rc><c>Fe</c><c>   1</c></rc>
    <rc><c>Fe</c><c>   1</c></rc>
    <rc><c>Fe</c><c>   1</c></rc>
    <rc><c>Fe</c><c>   1</c></rc>
    <rc><c>Fe</c><c>   1</c></rc>
    <rc><c>Fe</c><c>   1</c></rc>
    <rc><c>Fe</c><c>   1</c></rc>
    <rc><c>Fe</c><c>   1</c></rc>
    <rc><c>Fe</c><c>   1</c></rc>
    <rc><c>Fe</c><c>   1</c></rc>
    <rc><c>Fe</c><c>   1</c></rc>
    <rc><c>Fe</c><c>   1</c></rc>
    <rc><c>Fe</c><c>   1</c></rc>
    <rc><c>Fe</c><c>   1</c></rc>
    <rc><c>Fe</c><c>   1</c></rc>
    <rc><c>Fe</c><c>   1</c></rc>
    <rc><c>Fe</c><c>   1</c></rc>
    <rc><c>Fe</c><c>   1</c></rc>
    <rc><c>Fe</c><c>   1</c></rc>
    <rc><c>Fe</c><c>   1</c></rc>
    <rc><c>Fe</c><c>   1</c></rc>
    <rc><c>Fe</c><c>   1</c></rc>
    <rc><c>Fe</c><c>   1</c></rc>
    <rc><c>Fe</c><c>   1</c></rc>
    <rc><c>Fe</c><c>   1</c></rc>
    <rc><c>Fe</c><c>   1</c></rc>
    <rc><c>Fe</c><c>   1</c></rc>
    <rc><c>Fe</c><c>   1</c></rc>
    <rc><c>Fe</c><c>   1</c></rc>
    <rc><c>Fe</c><c>   1</c></rc>
    <rc><c>Fe</c><c>   1</c></rc>
    <rc><c>Fe</c><c>   1</c></rc>
    <rc><c>Fe</c><c>   1</c></rc>
    <rc><c>Fe</c><c>   1</c></rc>
    <rc><c>Fe</c><c>   1</c></rc>
    <rc><c>Fe</c><c>   1</c></rc>
    <rc><c>Fe</c><c>   1</c></rc>
    <rc><c>Fe</c><c>   1</c></rc>
    <rc><c>Fe</c><c>   1</c></rc>
    <rc><c>Fe</c><c>   1</c></rc>
    <rc><c>Fe</c><c>   1</c></rc>
    <rc><c>Fe</c><c>   1</c></rc>
    <rc><c>Fe</c><c>   1</c></rc>
    <rc><c>Fe</c><c>   1</c></rc>
    <rc><c>Fe</c><c>   1</c></rc>
    <rc><c>Fe</c><c>   1</c></rc>
    <rc><c>Fe</c><c>   1</c></rc>
    <rc><c>Fe</c><c>   1</c></rc>
    <rc><c>Fe</c><c>   1</c></rc>
    <rc><c>Fe</c><c>   1</c></rc>
    <rc><c>Fe</c><c>   1</c></rc>
    <rc><c>Fe</c><c>   1</c></rc>
    <rc><c>Fe</c><c>   1</c></rc>
    <rc><c>Fe</c><c>   1</c></rc>
    <rc><c>Fe</c><c>   1</c></rc>
    <rc><c>Fe</c><c>   1</c></rc>
    <rc><c>Fe</c><c>   1</c></rc>
    <rc><c>Fe</c><c>   1</c></rc>
    <rc><c>Fe</c><c>   1</c></rc>
    <rc><c>Fe</c><c>   1</c></rc>
    <rc><c>Fe</c><c>   1</c></rc>
    <rc><c>Fe</c><c>   1</c></rc>
    <rc><c>Fe</c><c>   1</c></rc>
    <rc><c>Fe</c><c>   1</c></rc>
    <rc><c>Fe</c><c>   1</c></rc>
    <rc><c>Fe</c><c>   1</c></rc>
    <rc><c>Fe</c><c>   1</c></rc>
    <rc><c>Fe</c><c>   1</c></rc>
    <rc><c>Fe</c><c>   1</c></rc>
    <rc><c>Fe</c><c>   1</c></rc>
    <rc><c>Fe</c><c>   1</c></rc>
    <rc><c>Fe</c><c>   1</c></rc>
    <rc><c>Fe</c><c>   1</c></rc>
    <rc><c>Fe</c><c>   1</c></rc>
    <rc><c>Fe</c><c>   1</c></rc>
    <rc><c>Fe</c><c>   1</c></rc>
    <rc><c>Fe</c><c>   1</c></rc>
    <rc><c>Fe</c><c>   1</c></rc>
    <rc><c>Fe</c><c>   1</c></rc>
    <rc><c>Fe</c><c>   1</c></rc>
    <rc><c>Fe</c><c>   1</c></rc>
    <rc><c>Fe</c><c>   1</c></rc>
    <rc><c>Fe</c><c>   1</c></rc>
    <rc><c>Fe</c><c>   1</c></rc>
    <rc><c>Fe</c><c>   1</c></rc>
    <rc><c>Fe</c><c>   1</c></rc>
    <rc><c>Fe</c><c>   1</c></rc>
    <rc><c>Fe</c><c>   1</c></rc>
    <rc><c>Fe</c><c>   1</c></rc>
    <rc><c>Fe</c><c>   1</c></rc>
    <rc><c>Fe</c><c>   1</c></rc>
    <rc><c>Fe</c><c>   1</c></rc>
    <rc><c>Fe</c><c>   1</c></rc>
    <rc><c>Fe</c><c>   1</c></rc>
    <rc><c>Fe</c><c>   1</c></rc>
    <rc><c>Fe</c><c>   1</c></rc>
    <rc><c>Fe</c><c>   1</c></rc>
    <rc><c>Fe</c><c>   1</c></rc>
    <rc><c>Fe</c><c>   1</c></rc>
    <rc><c>Fe</c><c>   1</c></rc>
    <rc><c>Fe</c><c>   1</c></rc>
    <rc><c>Fe</c><c>   1</c></rc>
    <rc><c>Fe</c><c>   1</c></rc>
    <rc><c>Fe</c><c>   1</c></rc>
    <rc><c>Fe</c><c>   1</c></rc>
    <rc><c>Fe</c><c>   1</c></rc>
    <rc><c>Fe</c><c>   1</c></rc>
    <rc><c>Fe</c><c>   1</c></rc>
    <rc><c>Fe</c><c>   1</c></rc>
    <rc><c>Fe</c><c>   1</c></rc>
    <rc><c>Fe</c><c>   1</c></rc>
    <rc><c>Fe</c><c>   1</c></rc>
    <rc><c>Fe</c><c>   1</c></rc>
    <rc><c>Fe</c><c>   1</c></rc>
    <rc><c>Fe</c><c>   1</c></rc>
    <rc><c>Fe</c><c>   1</c></rc>
    <rc><c>Fe</c><c>   1</c></rc>
    <rc><c>Fe</c><c>   1</c></rc>
    <rc><c>Fe</c><c>   1</c></rc>
    <rc><c>Fe</c><c>   1</c></rc>
    <rc><c>Fe</c><c>   1</c></rc>
    <rc><c>Fe</c><c>   1</c></rc>
    <rc><c>Fe</c><c>   1</c></rc>
    <rc><c>Fe</c><c>   1</c></rc>
    <rc><c>Fe</c><c>   1</c></rc>
    <rc><c>Fe</c><c>   1</c></rc>
    <rc><c>Fe</c><c>   1</c></rc>
    <rc><c>Fe</c><c>   1</c></rc>
    <rc><c>Fe</c><c>   1</c></rc>
    <rc><c>Fe</c><c>   1</c></rc>
    <rc><c>Fe</c><c>   1</c></rc>
    <rc><c>Fe</c><c>   1</c></rc>
    <rc><c>Fe</c><c>   1</c></rc>
    <rc><c>Fe</c><c>   1</c></rc>
    <rc><c>Fe</c><c>   1</c></rc>
    <rc><c>Fe</c><c>   1</c></rc>
    <rc><c>Mn</c><c>   2</c></rc>
    <rc><c>Mn</c><c>   2</c></rc>
    <rc><c>Mn</c><c>   2</c></rc>
    <rc><c>Mn</c><c>   2</c></rc>
    <rc><c>Mn</c><c>   2</c></rc>
    <rc><c>Mn</c><c>   2</c></rc>
    <rc><c>Mn</c><c>   2</c></rc>
    <rc><c>Mn</c><c>   2</c></rc>
    <rc><c>Mn</c><c>   2</c></rc>
    <rc><c>Mn</c><c>   2</c></rc>
    <rc><c>Mn</c><c>   2</c></rc>
    <rc><c>Mn</c><c>   2</c></rc>
    <rc><c>Mn</c><c>   2</c></rc>
    <rc><c>Mn</c><c>   2</c></rc>
   </set>
  </array>
  <array name="atomtypes" >
   <dimension dim="1">type</dimension>
   <field type="int">atomspertype</field>
   <field type="string">element</field>
   <field>mass</field>
   <field>valence</field>
   <field type="string">pseudopotential</field>
   <set>
    <rc><c> 274</c><c>Fe</c><c>     55.84700000</c><c>      8.00000000</c><c>  PAW_PBE Fe_GW 31Mar2010               </c></rc>
    <rc><c>  14</c><c>Mn</c><c>     54.93800000</c><c>      7.00000000</c><c>  PAW_PBE Mn_GW 31Mar2010               </c></rc>
   </set>
  </array>
 </atominfo>
 <structure name="initialpos" >
  <crystal>
   <varray name="basis" >
    <v>       9.72667804       0.00000000       0.00000000 </v>
    <v>       0.00000000       8.42355028       0.00000000 </v>
    <v>       0.00000000       0.00000000      45.00000000 </v>
   </varray>
   <i name="volume">   3686.99226691 </i>
   <varray name="rec_basis" >
    <v>       0.10281002       0.00000000       0.00000000 </v>
    <v>       0.00000000       0.11871479       0.00000000 </v>
    <v>       0.00000000       0.00000000       0.02222222 </v>
   </varray>
  </crystal>
  <varray name="positions" >
   <v>       0.06190150       0.03015147       0.12409000 </v>
   <v>       0.31628196       0.87479807       0.65512740 </v>
   <v>       0.18373161       0.12322602       0.78861321 </v>
   <v>       0.44148886       0.28759141       0.38909347 </v>
   <v>       0.31809626       0.71390322       0.83321815 </v>
   <v>       0.81797466       0.21490823       0.83370163 </v>
   <v>       0.19162230       0.96326942       0.83359789 </v>
   <v>       0.56219492       0.20709790       0.56548846 </v>
   <v>       0.06569799       0.04044201       0.74423559 </v>
   <v>       0.81156389       0.87159938       0.52133699 </v>
   <v>       0.19032139       0.29096773       0.74435425 </v>
   <v>       0.93359905       0.45234747       0.34485911 </v>
   <v>       0.94105449       0.28656337       0.38893978 </v>
   <v>       0.81283702       0.04074832       0.87578853 </v>
   <v>       0.18400002       0.78817331       0.61096883 </v>
   <v>       0.56647643       0.03783802       0.38904967 </v>
   <v>       0.94260854       0.96473669       0.83394063 </v>
   <v>       0.31270955       0.54083616       0.87608230 </v>
   <v>       0.69018533       0.29148988       0.74425602 </v>
   <v>       0.18187399       0.61354305       0.16655993 </v>
   <v>       0.81214141       0.20593403       0.47867764 </v>
   <v>       0.80901359       0.53852766       0.61108149 </v>
   <v>       0.31190410       0.87075313       0.43443650 </v>
   <v>       0.80968282       0.03725238       0.25599653 </v>
   <v>       0.68316256       0.95163411       0.34465716 </v>
   <v>       0.93211471       0.11356278       0.16696492 </v>
   <v>       0.06186104       0.87194819       0.52136219 </v>
   <v>       0.55795672       0.53772673       0.25560780 </v>
   <v>       0.68426202       0.79790328       0.87592708 </v>
   <v>       0.55589038       0.36519303       0.16661153 </v>
   <v>       0.43950561       0.79178891       0.74446776 </v>
   <v>       0.81143378       0.70660743       0.56548631 </v>
   <v>       0.55924765       0.87370560       0.78871867 </v>
   <v>       0.68679969       0.12189886       0.52135426 </v>
   <v>       0.81615282       0.37460447       0.65497237 </v>
   <v>       0.94212447       0.46438328       0.83378344 </v>
   <v>       0.06102192       0.20764142       0.69976974 </v>
   <v>       0.43522521       0.95764168       0.69967358 </v>
   <v>       0.31715536       0.21314092       0.83347309 </v>
   <v>       0.44094760       0.62453702       0.65493345 </v>
   <v>       0.30904242       0.53829987       0.61096701 </v>
   <v>       0.93651662       0.45685457       0.56554077 </v>
   <v>       0.68986904       0.79158725       0.74441361 </v>
   <v>       0.93395500       0.78784310       0.12442004 </v>
   <v>       0.69203414       0.78795643       0.38903762 </v>
   <v>       0.93967624       0.79137505       0.74467644 </v>
   <v>       0.05886174       0.20290774       0.34497623 </v>
   <v>       0.68379942       0.45238605       0.34498388 </v>
   <v>       0.43380538       0.12256929       0.78894342 </v>
   <v>       0.06551184       0.20362435       0.21097799 </v>
   <v>       0.05564292       0.36527648       0.16667349 </v>
   <v>       0.93328388       0.78698447       0.25562604 </v>
   <v>       0.56089001       0.20727638       0.69984219 </v>
   <v>       0.68528271       0.95727027       0.69982842 </v>
   <v>       0.80876527       0.87394060       0.78846721 </v>
   <v>       0.43713743       0.95737899       0.56538503 </v>
   <v>       0.80864417       0.37494577       0.78851681 </v>
   <v>       0.68363177       0.28751098       0.25583299 </v>
   <v>       0.18720279       0.45706402       0.56550546 </v>
   <v>       0.05592870       0.86457621       0.16663755 </v>
   <v>       0.18400243       0.28860490       0.61102156 </v>
   <v>       0.06217201       0.20737977       0.56535732 </v>
   <v>       0.31086445       0.20738422       0.69987369 </v>
   <v>       0.56230140       0.54076469       0.87598770 </v>
   <v>       0.06267443       0.70712704       0.56552188 </v>
   <v>       0.68256980       0.62260993       0.78865896 </v>
   <v>       0.31580798       0.53818414       0.38891983 </v>
   <v>       0.18687121       0.62146374       0.52149915 </v>
   <v>       0.56231852       0.87057164       0.43444093 </v>
   <v>       0.43675883       0.45690212       0.56556306 </v>
   <v>       0.43993212       0.29162213       0.74429527 </v>
   <v>       0.82095256       0.87391239       0.30023408 </v>
   <v>       0.80845271       0.70245349       0.34491060 </v>
   <v>       0.44212362       0.46274741       0.83338897 </v>
   <v>       0.68749033       0.95594516       0.47865519 </v>
   <v>       0.68542284       0.45745799       0.69975816 </v>
   <v>       0.56223264       0.87215867       0.52139055 </v>
   <v>       0.56584686       0.37415817       0.65503402 </v>
   <v>       0.80582022       0.36541783       0.16683315 </v>
   <v>       0.81178765       0.37172705       0.43421739 </v>
   <v>       0.80869599       0.53709587       0.25590570 </v>
   <v>       0.69189301       0.46211292       0.83334260 </v>
   <v>       0.18583962       0.78840201       0.12403275 </v>
   <v>       0.69116061       0.28733169       0.38906281 </v>
   <v>       0.31609340       0.37437745       0.65494727 </v>
   <v>       0.30883352       0.20270861       0.34467660 </v>
   <v>       0.81551472       0.54054530       0.74438014 </v>
   <v>       0.69168792       0.96220846       0.83349974 </v>
   <v>       0.56633165       0.87480404       0.65496010 </v>
   <v>       0.31162333       0.70719361       0.56550299 </v>
   <v>       0.31257664       0.52960801       0.12385240 </v>
   <v>       0.68934452       0.95454705       0.21176601 </v>
   <v>       0.31146481       0.20659798       0.56554452 </v>
   <v>       0.18752463       0.95582733       0.47864751 </v>
   <v>       0.68722696       0.95702599       0.56551100 </v>
   <v>       0.43364887       0.78821419       0.61097729 </v>
   <v>       0.68218783       0.61310361       0.16646914 </v>
   <v>       0.31909121       0.87368544       0.30012239 </v>
   <v>       0.31214722       0.70596638       0.47861603 </v>
   <v>       0.93368594       0.28831968       0.61083428 </v>
   <v>       0.44623263       0.62358981       0.30011802 </v>
   <v>       0.80714933       0.86360616       0.16679738 </v>
   <v>       0.56641249       0.20284246       0.21143765 </v>
   <v>       0.93232398       0.61334596       0.16672880 </v>
   <v>       0.43729624       0.95584672       0.47866656 </v>
   <v>       0.55849307       0.37351458       0.78879827 </v>
   <v>       0.06147188       0.37241377       0.52137664 </v>
   <v>       0.30721264       0.36466699       0.16656659 </v>
   <v>       0.69536887       0.12314891       0.30030502 </v>
   <v>       0.44282754       0.96327272       0.83335228 </v>
   <v>       0.18385443       0.28670765       0.12399723 </v>
   <v>       0.18372800       0.28726453       0.25579749 </v>
   <v>       0.31243713       0.37050690       0.43445144 </v>
   <v>       0.56344223       0.03281376       0.12427714 </v>
   <v>       0.43409903       0.28827069       0.61100271 </v>
   <v>       0.18370046       0.45250009       0.34490907 </v>
   <v>       0.43581460       0.28703279       0.12400430 </v>
   <v>       0.68381639       0.78743602       0.25584070 </v>
   <v>       0.43670130       0.12185119       0.52140669 </v>
   <v>       0.18826504       0.29690214       0.87614645 </v>
   <v>       0.19103863       0.12498901       0.65504766 </v>
   <v>       0.94120202       0.12423105       0.65493832 </v>
   <v>       0.81608637       0.53773671       0.38890533 </v>
   <v>       0.06673767       0.03816927       0.38916795 </v>
   <v>       0.18281773       0.11192040       0.16650125 </v>
   <v>       0.05894137       0.53801897       0.61097677 </v>
   <v>       0.93395253       0.28713563       0.25585296 </v>
   <v>       0.55860284       0.53806271       0.61089504 </v>
   <v>       0.93685138       0.95719572       0.56550686 </v>
   <v>       0.69491875       0.62322829       0.30012831 </v>
   <v>       0.93745389       0.62066338       0.43447579 </v>
   <v>       0.93329174       0.62429191       0.78847859 </v>
   <v>       0.56095755       0.70746182       0.69976985 </v>
   <v>       0.06588606       0.71675205       0.83398166 </v>
   <v>       0.94530047       0.12241398       0.30008233 </v>
   <v>       0.93369117       0.78778681       0.61095648 </v>
   <v>       0.43270928       0.78762142       0.25561995 </v>
   <v>       0.30879898       0.37409702       0.78876317 </v>
   <v>       0.43971772       0.45378595       0.21134718 </v>
   <v>       0.18686315       0.12201455       0.52136657 </v>
   <v>       0.81051282       0.70784915       0.69974215 </v>
   <v>       0.05865646       0.03810812       0.61089870 </v>
   <v>       0.56610622       0.21361332       0.83323075 </v>
   <v>       0.31176368       0.87187659       0.52139226 </v>
   <v>       0.68680069       0.28537728       0.12415748 </v>
   <v>       0.19039619       0.95436866       0.21163402 </v>
   <v>       0.68400604       0.28869141       0.61105332 </v>
   <v>       0.30876310       0.03834624       0.61102200 </v>
   <v>       0.93380404       0.12462552       0.78861735 </v>
   <v>       0.43638115       0.79785971       0.87617717 </v>
   <v>       0.81552234       0.04076784       0.74420820 </v>
   <v>       0.93561326       0.45797176       0.69972058 </v>
   <v>       0.19102447       0.62492382       0.65508563 </v>
   <v>       0.31085356       0.70696239       0.69979201 </v>
   <v>       0.93579453       0.28659557       0.12393463 </v>
   <v>       0.43736429       0.45600339       0.47856756 </v>
   <v>       0.06229928       0.70593514       0.47849949 </v>
   <v>       0.93695983       0.11999137       0.43452469 </v>
   <v>       0.44450822       0.12305218       0.30047377 </v>
   <v>       0.18747170       0.12045049       0.43421924 </v>
   <v>       0.56259281       0.04059767       0.87602604 </v>
   <v>       0.18697960       0.95704467       0.56545289 </v>
   <v>       0.68485824       0.78805709       0.12433130 </v>
   <v>       0.55883398       0.70219193       0.34490225 </v>
   <v>       0.31653467       0.03713589       0.38890872 </v>
   <v>       0.68205710       0.11377354       0.16691772 </v>
   <v>       0.81590025       0.20348885       0.21110935 </v>
   <v>       0.05938329       0.53718480       0.25571062 </v>
   <v>       0.56246292       0.70588783       0.47865309 </v>
   <v>       0.43562914       0.78738873       0.12413967 </v>
   <v>       0.56971793       0.37170678       0.30005775 </v>
   <v>       0.43357724       0.95245684       0.34488921 </v>
   <v>       0.18572468       0.95735132       0.69976248 </v>
   <v>       0.43123306       0.61225667       0.16583188 </v>
   <v>       0.93996205       0.45341306       0.21148481 </v>
   <v>       0.06159315       0.52907955       0.12401785 </v>
   <v>       0.81187793       0.37204193       0.52137174 </v>
   <v>       0.94501795       0.62281365       0.29987116 </v>
   <v>       0.30891783       0.03708182       0.25544940 </v>
   <v>       0.68384292       0.78817371       0.61090320 </v>
   <v>       0.19165471       0.46329106       0.83352000 </v>
   <v>       0.43287531       0.11201027       0.16649806 </v>
   <v>       0.31171923       0.37198685       0.52136934 </v>
   <v>       0.43326998       0.62280751       0.78889600 </v>
   <v>       0.05894256       0.03721142       0.25582119 </v>
   <v>       0.56187256       0.70715671       0.56551345 </v>
   <v>       0.93986143       0.29080300       0.74454390 </v>
   <v>       0.68240550       0.12273799       0.78855140 </v>
   <v>       0.19061220       0.45294269       0.21107006 </v>
   <v>       0.94118334       0.78742615       0.38895147 </v>
   <v>       0.68550464       0.29868611       0.87604675 </v>
   <v>       0.55667570       0.86232230       0.16650410 </v>
   <v>       0.43577772       0.45763337       0.69977664 </v>
   <v>       0.93381731       0.95116378       0.34473000 </v>
   <v>       0.68671857       0.62147767       0.52134374 </v>
   <v>       0.06627232       0.87474337       0.65495728 </v>
   <v>       0.05897831       0.87419188       0.78848728 </v>
   <v>       0.06622139       0.37460757       0.65508881 </v>
   <v>       0.68710162       0.45594326       0.47863233 </v>
   <v>       0.18375193       0.78712724       0.25548220 </v>
   <v>       0.43688796       0.12094520       0.43429057 </v>
   <v>       0.81323350       0.03099827       0.12418408 </v>
   <v>       0.93679029       0.62195171       0.52138565 </v>
   <v>       0.44127048       0.12463216       0.65492796 </v>
   <v>       0.81350713       0.52943666       0.12404539 </v>
   <v>       0.43365412       0.45246186       0.34494215 </v>
   <v>       0.80910408       0.20261903       0.34503169 </v>
   <v>       0.30887678       0.70191201       0.34486591 </v>
   <v>       0.69114749       0.12487492       0.65500686 </v>
   <v>       0.57042233       0.87307009       0.30029184 </v>
   <v>       0.06534084       0.54107397       0.74434064 </v>
   <v>       0.94106515       0.95387819       0.21134563 </v>
   <v>       0.81636711       0.70362434       0.21150160 </v>
   <v>       0.07010661       0.87335808       0.30032172 </v>
   <v>       0.19495365       0.12363785       0.30018929 </v>
   <v>       0.05851076       0.70202994       0.34491147 </v>
   <v>       0.80898826       0.03823996       0.61104126 </v>
   <v>       0.06279739       0.37193434       0.43430518 </v>
   <v>       0.55896094       0.20258979       0.34478041 </v>
   <v>       0.82004296       0.37276514       0.29998671 </v>
   <v>       0.56007946       0.03743241       0.25547473 </v>
   <v>       0.56646596       0.53755972       0.38904311 </v>
   <v>       0.06256277       0.20581223       0.47866034 </v>
   <v>       0.31017525       0.87318033       0.78843039 </v>
   <v>       0.93547175       0.95777075       0.69970577 </v>
   <v>       0.06953727       0.37417633       0.29998550 </v>
   <v>       0.69151676       0.62509512       0.65523971 </v>
   <v>       0.68679890       0.45717265       0.56533849 </v>
   <v>       0.44168179       0.95557532       0.21202923 </v>
   <v>       0.31243822       0.20579416       0.47873686 </v>
   <v>       0.81214042       0.54047171       0.87587740 </v>
   <v>       0.68787744       0.62061431       0.43443360 </v>
   <v>       0.81085743       0.20737878       0.69980993 </v>
   <v>       0.81237218       0.70594832       0.47861592 </v>
   <v>       0.81167943       0.87145324       0.43423054 </v>
   <v>       0.93734437       0.95548640       0.47869837 </v>
   <v>       0.56223908       0.20559930       0.47865763 </v>
   <v>       0.18731654       0.62003623       0.43446056 </v>
   <v>       0.31500868       0.04187225       0.74411397 </v>
   <v>       0.94101761       0.62527795       0.65502975 </v>
   <v>       0.56615359       0.71370856       0.83334575 </v>
   <v>       0.32013414       0.37213673       0.30011158 </v>
   <v>       0.31519259       0.54145322       0.74427244 </v>
   <v>       0.18720366       0.45572955       0.47867049 </v>
   <v>       0.31417987       0.04116036       0.87589548 </v>
   <v>       0.18518156       0.45783367       0.69970221 </v>
   <v>       0.56175545       0.37193360       0.52137325 </v>
   <v>       0.19118284       0.28750238       0.38888705 </v>
   <v>       0.31537969       0.20391162       0.21110657 </v>
   <v>       0.06726105       0.70362936       0.21125533 </v>
   <v>       0.56180085       0.37105914       0.43432819 </v>
   <v>       0.43672002       0.62209070       0.52135599 </v>
   <v>       0.81711336       0.71532232       0.83335922 </v>
   <v>       0.05859512       0.37526159       0.78847726 </v>
   <v>       0.43637164       0.29841678       0.87633198 </v>
   <v>       0.31114978       0.03096268       0.12424099 </v>
   <v>       0.68819764       0.12014116       0.43423848 </v>
   <v>       0.18364442       0.95232598       0.34492021 </v>
   <v>       0.06675443       0.21503700       0.83401484 </v>
   <v>       0.55904299       0.03868339       0.61106560 </v>
   <v>       0.69070264       0.45378361       0.21156840 </v>
   <v>       0.18961040       0.79175514       0.74447102 </v>
   <v>       0.19453394       0.62312127       0.30024421 </v>
   <v>       0.44144862       0.78760733       0.38905303 </v>
   <v>       0.43340459       0.28783367       0.25570345 </v>
   <v>       0.06296426       0.54091610       0.87591981 </v>
   <v>       0.56545246       0.04133383       0.74428905 </v>
   <v>       0.18774616       0.79745265       0.87607073 </v>
   <v>       0.93731016       0.45564570       0.47866899 </v>
   <v>       0.56512014       0.54170917       0.74412172 </v>
   <v>       0.81149678       0.20761776       0.56539859 </v>
   <v>       0.18405070       0.62235447       0.78850178 </v>
   <v>       0.06726352       0.53842390       0.38903679 </v>
   <v>       0.06090173       0.70772860       0.69969737 </v>
   <v>       0.30838686       0.53792020       0.25547196 </v>
   <v>       0.31467676       0.70235576       0.21222814 </v>
   <v>       0.30563826       0.86457293       0.16574627 </v>
   <v>       0.43666349       0.62122712       0.43436701 </v>
   <v>       0.81790498       0.03942629       0.38919208 </v>
   <v>       0.93497704       0.29782821       0.87558175 </v>
   <v>       0.93699058       0.79539458       0.87562506 </v>
   <v>       0.06529460       0.03903832       0.87575202 </v>
   <v>       0.56295259       0.52885570       0.12455062 </v>
   <v>       0.81666456       0.87433639       0.65486388 </v>
   <v>       0.06178787       0.87129354       0.43436681 </v>
   <v>       0.93662494       0.12173485       0.52145212 </v>
   <v>       0.19344314       0.78749523       0.38887199 </v>
   <v>       0.56710325       0.70430387       0.21197378 </v>
  </varray>
 </structure>
 <calculation>
  <scstep>
   <time name="dav">   54.61   54.61</time>
   <time name="total">   54.77   54.80</time>
   <energy>
    <i name="alphaZ">  16293.21160653 </i>
    <i name="ewald"> 725943.23194613 </i>
    <i name="hartreedc">-916458.29126955 </i>
    <i name="XCdc">  -6512.66762848 </i>
    <i name="pawpsdc"> 162273.92519768 </i>
    <i name="pawaedc">-159623.75899949 </i>
    <i name="eentropy">     -1.07964151 </i>
    <i name="bandstr">  38489.00207876 </i>
    <i name="atom"> 168671.76673737 </i>
    <i name="e_fr_energy">  29075.34002744 </i>
    <i name="e_wo_entrp">  29076.41966895 </i>
    <i name="e_0_energy">  29075.87984820 </i>
   </energy>
  </scstep>
  <scstep>
   <time name="dav">   54.24   54.27</time>
   <time name="total">   54.25   54.28</time>
   <energy>
    <i name="e_fr_energy">   1187.92878232 </i>
    <i name="e_wo_entrp">   1189.43411978 </i>
    <i name="e_0_energy">   1188.68145105 </i>
   </energy>
  </scstep>
  <scstep>
   <time name="dav">   71.19   71.22</time>
   <time name="total">   71.19   71.23</time>
   <energy>
    <i name="e_fr_energy">  -1949.56311979 </i>
    <i name="e_wo_entrp">  -1946.01388050 </i>
    <i name="e_0_energy">  -1947.78850015 </i>
   </energy>
  </scstep>
  <scstep>
   <time name="dav">   89.27   89.31</time>
   <time name="total">   89.28   89.32</time>
   <energy>
    <i name="e_fr_energy">  -2619.23275127 </i>
    <i name="e_wo_entrp">  -2615.69720864 </i>
    <i name="e_0_energy">  -2617.46497995 </i>
   </energy>
  </scstep>
  <scstep>
   <time name="dav">   85.48   85.52</time>
   <time name="total">   87.52   87.56</time>
   <energy>
    <i name="e_fr_energy">  -2738.67734324 </i>
    <i name="e_wo_entrp">  -2735.01201957 </i>
    <i name="e_0_energy">  -2736.84468141 </i>
   </energy>
  </scstep>
  <scstep>
   <time name="diag">    8.31    8.31</time>
   <time name="diis">   37.32   37.32</time>
   <time name="orth">    2.31    2.31</time>
   <time name="total">   50.18   50.22</time>
   <energy>
    <i name="e_fr_energy">  -5654.15493463 </i>
    <i name="e_wo_entrp">  -5651.28152592 </i>
    <i name="e_0_energy">  -5652.71823027 </i>
   </energy>
  </scstep>
  <scstep>
   <time name="diag">    8.37    8.37</time>
   <time name="diis">   23.50   23.50</time>
   <time name="orth">    2.29    2.29</time>
   <time name="total">   36.26   36.30</time>
[...]
       <r>     5.8981     0.0000  2772.0000 </r>
       <r>     5.9410     0.0000  2772.0000 </r>
       <r>     5.9839     0.0000  2772.0000 </r>
       <r>     6.0268     0.0000  2772.0000 </r>
       <r>     6.0697     0.0000  2772.0000 </r>
       <r>     6.1126     0.0000  2772.0000 </r>
       <r>     6.1555     0.0000  2772.0000 </r>
       <r>     6.1984     0.0000  2772.0000 </r>
       <r>     6.2413     0.0000  2772.0000 </r>
       <r>     6.2842     0.0000  2772.0000 </r>
       <r>     6.3271     0.0000  2772.0000 </r>
       <r>     6.3700     0.0000  2772.0000 </r>
       <r>     6.4129     0.0000  2772.0000 </r>
       <r>     6.4558     0.0000  2772.0000 </r>
       <r>     6.4987     0.0000  2772.0000 </r>
       <r>     6.5416     0.0000  2772.0000 </r>
       <r>     6.5845     0.0000  2772.0000 </r>
       <r>     6.6274     0.0000  2772.0000 </r>
       <r>     6.6703     0.0000  2772.0000 </r>
       <r>     6.7131     0.0000  2772.0000 </r>
       <r>     6.7560     0.0000  2772.0000 </r>
       <r>     6.7989     0.0000  2772.0000 </r>
       <r>     6.8418     0.0000  2772.0000 </r>
      </set>
     </set>
    </array>
   </total>
  </dos>
 </calculation>
 <structure name="finalpos" >
  <crystal>
   <varray name="basis" >
    <v>       9.72667804       0.00000000       0.00000000 </v>
    <v>       0.00000000       8.42355028       0.00000000 </v>
    <v>       0.00000000       0.00000000      45.00000000 </v>
   </varray>
   <i name="volume">   3686.99226691 </i>
   <varray name="rec_basis" >
    <v>       0.10281002       0.00000000       0.00000000 </v>
    <v>       0.00000000       0.11871479       0.00000000 </v>
    <v>       0.00000000       0.00000000       0.02222222 </v>
   </varray>
  </crystal>
  <varray name="positions" >
   <v>       0.06197369       0.03163405       0.12424803 </v>
   <v>       0.31507320       0.87538020       0.65491634 </v>
   <v>       0.18440981       0.12403127       0.78861193 </v>
   <v>       0.44107235       0.28777698       0.38941796 </v>
   <v>       0.31672226       0.71310834       0.83354916 </v>
   <v>       0.81692095       0.21331457       0.83380797 </v>
   <v>       0.19058066       0.96283424       0.83384448 </v>
   <v>       0.56215495       0.20640093       0.56566875 </v>
   <v>       0.06416248       0.04149291       0.74425569 </v>
   <v>       0.81138938       0.87210287       0.52172725 </v>
   <v>       0.18908388       0.29130145       0.74421582 </v>
   <v>       0.93530310       0.45297501       0.34481788 </v>
   <v>       0.94040502       0.28709630       0.38921508 </v>
   <v>       0.81173352       0.04207431       0.87577271 </v>
   <v>       0.18471915       0.78941640       0.61046542 </v>
   <v>       0.56528794       0.03754903       0.38940163 </v>
   <v>       0.94156191       0.96383348       0.83401211 </v>
   <v>       0.31340284       0.54325722       0.87593764 </v>
   <v>       0.68988610       0.29142190       0.74425460 </v>
   <v>       0.18286903       0.61456911       0.16650880 </v>
   <v>       0.81221266       0.20554320       0.47838017 </v>
   <v>       0.80973846       0.53835088       0.61060686 </v>
   <v>       0.31276660       0.87154003       0.43431997 </v>
   <v>       0.81074053       0.03727385       0.25572784 </v>
   <v>       0.68480195       0.95233589       0.34478577 </v>
   <v>       0.93291551       0.11477929       0.16700939 </v>
   <v>       0.06217044       0.87223543       0.52159937 </v>
   <v>       0.55920296       0.53753310       0.25546228 </v>
   <v>       0.68496242       0.79702197       0.87592021 </v>
   <v>       0.55748550       0.36577291       0.16652771 </v>
   <v>       0.43924473       0.79159729       0.74455377 </v>
   <v>       0.81159688       0.70678488       0.56561679 </v>
   <v>       0.56044658       0.87393586       0.78884738 </v>
   <v>       0.68653169       0.12202495       0.52168704 </v>
   <v>       0.81525462       0.37322442       0.65493766 </v>
   <v>       0.94109813       0.46373663       0.83387179 </v>
   <v>       0.06102393       0.20774610       0.69978154 </v>
   <v>       0.43592026       0.95846248       0.69968223 </v>
   <v>       0.31601998       0.21203129       0.83375847 </v>
   <v>       0.43997043       0.62392844       0.65486864 </v>
   <v>       0.31000526       0.53826911       0.61051144 </v>
   <v>       0.93650211       0.45632809       0.56559609 </v>
   <v>       0.68994621       0.79145115       0.74454000 </v>
   <v>       0.93446075       0.78433870       0.12450866 </v>
   <v>       0.69087498       0.78785726       0.38931824 </v>
   <v>       0.93900132       0.79133390       0.74461482 </v>
   <v>       0.06031752       0.20306929       0.34486936 </v>
   <v>       0.68517258       0.45285595       0.34496355 </v>
   <v>       0.43480112       0.12359487       0.78891646 </v>
   <v>       0.06425126       0.20334144       0.21131479 </v>
   <v>       0.05637261       0.36579119       0.16653122 </v>
   <v>       0.93458615       0.78718553       0.25546014 </v>
   <v>       0.56141178       0.20763548       0.69982026 </v>
   <v>       0.68665860       0.95824403       0.69990202 </v>
   <v>       0.80969797       0.87448274       0.78856144 </v>
   <v>       0.43720573       0.95712867       0.56552571 </v>
   <v>       0.80980796       0.37478314       0.78849549 </v>
   <v>       0.68512660       0.28702772       0.25562369 </v>
   <v>       0.18691131       0.45642741       0.56546856 </v>
   <v>       0.05684835       0.86488003       0.16664028 </v>
   <v>       0.18494148       0.28798849       0.61068949 </v>
   <v>       0.06157702       0.20649935       0.56549480 </v>
   <v>       0.31091330       0.20792773       0.69981038 </v>
   <v>       0.56322827       0.54341216       0.87596326 </v>
   <v>       0.06206966       0.70684511       0.56550269 </v>
   <v>       0.68429423       0.62367496       0.78860310 </v>
   <v>       0.31535671       0.53796987       0.38920661 </v>
   <v>       0.18708594       0.62235548       0.52170690 </v>
   <v>       0.56229434       0.87135748       0.43425778 </v>
   <v>       0.43691452       0.45631513       0.56553259 </v>
   <v>       0.43932328       0.29199839       0.74425803 </v>
   <v>       0.81892806       0.87333941       0.30011418 </v>
   <v>       0.81017204       0.70314425       0.34497595 </v>
   <v>       0.44126036       0.46244470       0.83383600 </v>
   <v>       0.68737346       0.95555615       0.47835843 </v>
   <v>       0.68656720       0.45644637       0.69987945 </v>
   <v>       0.56178849       0.87245439       0.52168993 </v>
   <v>       0.56507827       0.37299350       0.65489413 </v>
   <v>       0.80711782       0.36590566       0.16670390 </v>
   <v>       0.81130924       0.37112310       0.43416936 </v>
   <v>       0.81012690       0.53689829       0.25565112 </v>
   <v>       0.69117844       0.46236064       0.83369905 </v>
   <v>       0.18548925       0.78502287       0.12402181 </v>
   <v>       0.69014460       0.28749420       0.38937663 </v>
   <v>       0.31480494       0.37320402       0.65494914 </v>
   <v>       0.31004477       0.20290999       0.34481962 </v>
   <v>       0.81477004       0.54051972       0.74440373 </v>
   <v>       0.69119484       0.96207895       0.83380184 </v>
   <v>       0.56528283       0.87550333       0.65476177 </v>
   <v>       0.31175694       0.70725814       0.56544834 </v>
   <v>       0.31093671       0.53170715       0.12390494 </v>
   <v>       0.68963888       0.95393472       0.21182386 </v>
   <v>       0.31182779       0.20627815       0.56563444 </v>
   <v>       0.18767806       0.95555032       0.47842304 </v>
   <v>       0.68710972       0.95689173       0.56573243 </v>
   <v>       0.43492811       0.78961534       0.61045555 </v>
   <v>       0.68280742       0.61374819       0.16661101 </v>
   <v>       0.31752148       0.87288552       0.30000221 </v>
   <v>       0.31209418       0.70578990       0.47835516 </v>
   <v>       0.93406524       0.28803202       0.61053877 </v>
   <v>       0.44384796       0.62318315       0.30005121 </v>
   <v>       0.80802028       0.86420420       0.16693976 </v>
   <v>       0.56564518       0.20266049       0.21166211 </v>
   <v>       0.93317541       0.61406194       0.16672811 </v>
   <v>       0.43732443       0.95532134       0.47834088 </v>
   <v>       0.55985789       0.37354644       0.78867236 </v>
   <v>       0.06166613       0.37244802       0.52161784 </v>
   <v>       0.30769436       0.36532813       0.16633938 </v>
   <v>       0.69398457       0.12235200       0.30015612 </v>
   <v>       0.44187442       0.96216862       0.83377770 </v>
   <v>       0.18424395       0.28503739       0.12415687 </v>
   <v>       0.18464230       0.28690701       0.25558894 </v>
   <v>       0.31285619       0.37058266       0.43434624 </v>
   <v>       0.56205932       0.03388312       0.12439586 </v>
   <v>       0.43527538       0.28782897       0.61055239 </v>
   <v>       0.18505293       0.45322494       0.34492614 </v>
   <v>       0.43496951       0.28512614       0.12415287 </v>
   <v>       0.68497347       0.78756090       0.25569144 </v>
   <v>       0.43691667       0.12216664       0.52167794 </v>
   <v>       0.18914321       0.29588506       0.87592017 </v>
   <v>       0.18962419       0.12512160       0.65504597 </v>
   <v>       0.93999603       0.12456754       0.65496672 </v>
   <v>       0.81532698       0.53783892       0.38923019 </v>
   <v>       0.06605917       0.03812996       0.38930839 </v>
   <v>       0.18305870       0.11364778       0.16658657 </v>
   <v>       0.05923624       0.53808622       0.61055773 </v>
   <v>       0.93527294       0.28676491       0.25557487 </v>
   <v>       0.56009842       0.53814143       0.61045072 </v>
   <v>       0.93664116       0.95704373       0.56564492 </v>
   <v>       0.69338345       0.62282988       0.30008050 </v>
   <v>       0.93740377       0.62097902       0.43427395 </v>
   <v>       0.93414502       0.62534203       0.78851525 </v>
   <v>       0.56169284       0.70713143       0.69988508 </v>
   <v>       0.06537688       0.71533795       0.83399674 </v>
   <v>       0.94350095       0.12246013       0.30003771 </v>
   <v>       0.93399815       0.78902532       0.61050773 </v>
   <v>       0.43447331       0.78758729       0.25564489 </v>
   <v>       0.30957941       0.37388061       0.78863773 </v>
   <v>       0.43914052       0.45398680       0.21153221 </v>
   <v>       0.18704223       0.12216274       0.52165445 </v>
   <v>       0.81167527       0.70756584       0.69997581 </v>
   <v>       0.05915137       0.03910355       0.61050167 </v>
   <v>       0.56566984       0.21200151       0.83350974 </v>
   <v>       0.31213869       0.87229951       0.52168160 </v>
   <v>       0.68670586       0.28455469       0.12433952 </v>
   <v>       0.18925873       0.95434957       0.21168178 </v>
   <v>       0.68502823       0.28831907       0.61067531 </v>
   <v>       0.30989774       0.03921565       0.61060593 </v>
   <v>       0.93458350       0.12507086       0.78862125 </v>
   <v>       0.43727151       0.79636750       0.87603184 </v>
   <v>       0.81504029       0.04157960       0.74423116 </v>
   <v>       0.93629894       0.45649875       0.69981879 </v>
   <v>       0.18968664       0.62397507       0.65504135 </v>
   <v>       0.31094912       0.70673954       0.69988366 </v>
   <v>       0.93547051       0.28544401       0.12419768 </v>
   <v>       0.43750614       0.45537246       0.47831801 </v>
   <v>       0.06263295       0.70525786       0.47836152 </v>
   <v>       0.93694357       0.12062782       0.43452725 </v>
   <v>       0.44291216       0.12191110       0.30020419 </v>
   <v>       0.18781302       0.12068820       0.43414193 </v>
   <v>       0.56379625       0.04179125       0.87599334 </v>
   <v>       0.18671752       0.95692611       0.56559938 </v>
   <v>       0.68550142       0.78508302       0.12450179 </v>
   <v>       0.56005745       0.70292882       0.34502848 </v>
   <v>       0.31606993       0.03706704       0.38928309 </v>
   <v>       0.68331448       0.11462043       0.16699927 </v>
   <v>       0.81559993       0.20322464       0.21141511 </v>
   <v>       0.06029959       0.53666975       0.25542637 </v>
   <v>       0.56238027       0.70564032       0.47838916 </v>
   <v>       0.43455535       0.78479389       0.12407895 </v>
   <v>       0.56816154       0.37166281       0.29997983 </v>
   <v>       0.43471335       0.95263546       0.34499961 </v>
   <v>       0.18555800       0.95852648       0.69980287 </v>
   <v>       0.43236547       0.61376738       0.16613437 </v>
   <v>       0.93938355       0.45289993       0.21159456 </v>
   <v>       0.06119424       0.53122204       0.12409213 </v>
   <v>       0.81174369       0.37228502       0.52164430 </v>
   <v>       0.94349517       0.62269626       0.29988201 </v>
   <v>       0.31024534       0.03672496       0.25543265 </v>
   <v>       0.68516202       0.78934829       0.61036781 </v>
   <v>       0.19086128       0.46340124       0.83378728 </v>
   <v>       0.43336981       0.11346525       0.16665191 </v>
   <v>       0.31193116       0.37225850       0.52162261 </v>
   <v>       0.43448637       0.62371302       0.78890564 </v>
   <v>       0.05997379       0.03732068       0.25558366 </v>
   <v>       0.56196297       0.70718903       0.56549706 </v>
   <v>       0.93918429       0.29076074       0.74432727 </v>
   <v>       0.68431833       0.12361914       0.78857927 </v>
   <v>       0.18893823       0.45308827       0.21132895 </v>
   <v>       0.94022528       0.78740305       0.38919447 </v>
   <v>       0.68594584       0.29701098       0.87592868 </v>
   <v>       0.55730316       0.86325123       0.16667409 </v>
   <v>       0.43608304       0.45638669       0.69988331 </v>
   <v>       0.93587575       0.95216827       0.34478056 </v>
   <v>       0.68651968       0.62212425       0.52158996 </v>
   <v>       0.06484585       0.87537831       0.65487204 </v>
   <v>       0.05958338       0.87481939       0.78866646 </v>
   <v>       0.06488766       0.37319053       0.65514935 </v>
   <v>       0.68675638       0.45530604       0.47826055 </v>
   <v>       0.18504807       0.78723176       0.25549718 </v>
   <v>       0.43725672       0.12091881       0.43422810 </v>
   <v>       0.81276529       0.03242391       0.12437958 </v>
   <v>       0.93679429       0.62242582       0.52164206 </v>
   <v>       0.44008617       0.12491213       0.65484333 </v>
   <v>       0.81346868       0.53108260       0.12416882 </v>
   <v>       0.43504518       0.45331342       0.34501249 </v>
   <v>       0.81069045       0.20277689       0.34493648 </v>
   <v>       0.31043104       0.70279096       0.34493341 </v>
   <v>       0.69041464       0.12498711       0.65487513 </v>
   <v>       0.56846979       0.87236485       0.30011081 </v>
   <v>       0.06401792       0.54062549       0.74428681 </v>
   <v>       0.93987623       0.95386394       0.21152871 </v>
   <v>       0.81548971       0.70332063       0.21155696 </v>
   <v>       0.06815513       0.87293230       0.30027095 </v>
   <v>       0.19282110       0.12283776       0.30004928 </v>
   <v>       0.06012862       0.70305300       0.34490091 </v>
   <v>       0.80974491       0.03893614       0.61057585 </v>
   <v>       0.06296485       0.37136931       0.43422844 </v>
   <v>       0.56037398       0.20289007       0.34494089 </v>
   <v>       0.81864361       0.37221334       0.29993848 </v>
   <v>       0.56096620       0.03721722       0.25548487 </v>
   <v>       0.56538062       0.53756876       0.38931373 </v>
   <v>       0.06242805       0.20518669       0.47839762 </v>
   <v>       0.31060030       0.87350962       0.78860695 </v>
   <v>       0.93610144       0.95876358       0.69978050 </v>
   <v>       0.06786693       0.37291561       0.29994574 </v>
   <v>       0.69068300       0.62417881       0.65498002 </v>
   <v>       0.68686690       0.45655131       0.56549115 </v>
   <v>       0.44017289       0.95462171       0.21197362 </v>
   <v>       0.31257257       0.20537870       0.47839105 </v>
   <v>       0.81160517       0.54249355       0.87576839 </v>
   <v>       0.68793588       0.62077388       0.43428823 </v>
   <v>       0.81205699       0.20753341       0.69979555 </v>
   <v>       0.81238516       0.70558447       0.47836213 </v>
   <v>       0.81120763       0.87152793       0.43421920 </v>
   <v>       0.93731116       0.95536143       0.47845889 </v>
   <v>       0.56226047       0.20552781       0.47832738 </v>
   <v>       0.18737312       0.62046675       0.43434641 </v>
   <v>       0.31405351       0.04260089       0.74422594 </v>
   <v>       0.93982725       0.62421224       0.65494702 </v>
   <v>       0.56562551       0.71290223       0.83368201 </v>
   <v>       0.31810489       0.37180739       0.30006171 </v>
   <v>       0.31417724       0.54062932       0.74434491 </v>
   <v>       0.18774394       0.45562505       0.47836652 </v>
   <v>       0.31518508       0.04258257       0.87578175 </v>
   <v>       0.18548774       0.45646749       0.69983475 </v>
   <v>       0.56169042       0.37208716       0.52161185 </v>
   <v>       0.19047543       0.28759114       0.38922151 </v>
   <v>       0.31425422       0.20356441       0.21140922 </v>
   <v>       0.06575452       0.70282359       0.21135356 </v>
   <v>       0.56207555       0.37072242       0.43429596 </v>
   <v>       0.43680435       0.62249319       0.52152965 </v>
   <v>       0.81598768       0.71446366       0.83354052 </v>
   <v>       0.05942576       0.37522006       0.78848616 </v>
   <v>       0.43704259       0.29696303       0.87607964 </v>
   <v>       0.31075415       0.03248775       0.12411004 </v>
   <v>       0.68769227       0.12093822       0.43421160 </v>
   <v>       0.18497711       0.95282190       0.34492313 </v>
   <v>       0.06561540       0.21347036       0.83389572 </v>
   <v>       0.56045069       0.03950171       0.61055107 </v>
   <v>       0.69017732       0.45334399       0.21159841 </v>
   <v>       0.18847261       0.79142188       0.74448681 </v>
   <v>       0.19277330       0.62282538       0.30012642 </v>
   <v>       0.44086789       0.78779226       0.38933778 </v>
   <v>       0.43476258       0.28743760       0.25551036 </v>
   <v>       0.06381575       0.54297667       0.87581567 </v>
   <v>       0.56520317       0.04216340       0.74437762 </v>
   <v>       0.18858244       0.79605281       0.87598431 </v>
   <v>       0.93723113       0.45521926       0.47839591 </v>
   <v>       0.56490691       0.54106547       0.74424764 </v>
   <v>       0.81165181       0.20689027       0.56558550 </v>
   <v>       0.18478067       0.62379493       0.78856245 </v>
   <v>       0.06648087       0.53858022       0.38932396 </v>
   <v>       0.06079763       0.70748647       0.69986277 </v>
   <v>       0.30966832       0.53734714       0.25523204 </v>
   <v>       0.31379649       0.70237029       0.21198236 </v>
   <v>       0.30656936       0.86434429       0.16597418 </v>
   <v>       0.43664721       0.62130740       0.43422808 </v>
   <v>       0.81676864       0.03839019       0.38945390 </v>
   <v>       0.93463597       0.29673461       0.87553187 </v>
   <v>       0.93643089       0.79459695       0.87550583 </v>
   <v>       0.06503788       0.04011073       0.87547171 </v>
   <v>       0.56251112       0.53072627       0.12443596 </v>
   <v>       0.81590264       0.87576222       0.65464291 </v>
   <v>       0.06203282       0.87155361       0.43428712 </v>
   <v>       0.93675137       0.12222896       0.52176674 </v>
   <v>       0.19266700       0.78718893       0.38911737 </v>
   <v>       0.56636372       0.70363335       0.21191140 </v>
  </varray>
 </structure>
</modeling>
