 288 288   0   0
  0.1280206E+02  0.9726678E-09  0.8423550E-09  0.4500000E-08  0.2500000E-15
  1.000000000000000E-004
  CAR 
 unknown system                          
      6.82132686     -6.01667394  301      4.29525957      1.00000000
     -6.017  0.0000E+00  0.0000E+00
     -5.974  0.0000E+00  0.0000E+00
     -5.931  0.0000E+00  0.0000E+00
     -5.888  0.0000E+00  0.0000E+00
     -5.846  0.0000E+00  0.0000E+00
     -5.803  0.0000E+00  0.0000E+00
     -5.760  0.0000E+00  0.0000E+00
     -5.717  0.0000E+00  0.0000E+00
     -5.674  0.0000E+00  0.0000E+00
     -5.632  0.0000E+00  0.0000E+00
     -5.589  0.0000E+00  0.0000E+00
     -5.546  0.0000E+00  0.0000E+00
     -5.503  0.0000E+00  0.0000E+00
     -5.460  0.0000E+00  0.0000E+00
     -5.418  0.0000E+00  0.0000E+00
     -5.375  0.1621E-15  0.6939E-17
     -5.332  0.4248E-14  0.1887E-15
     -5.289  0.9119E-13  0.4091E-14
     -5.246  0.1665E-11  0.7535E-13
     -5.204  0.2591E-10  0.1184E-11
     -5.161  0.3433E-09  0.1588E-10
     -5.118  0.3877E-08  0.1818E-09
     -5.075  0.3732E-07  0.1779E-08
     -5.032  0.3065E-06  0.1490E-07
     -4.990  0.2149E-05  0.1069E-06
     -4.947  0.1289E-04  0.6583E-06
     -4.904  0.6615E-04  0.3489E-05
     -4.861  0.2916E-03  0.1597E-04
     -4.818  0.1107E-02  0.6334E-04
     -4.776  0.3637E-02  0.2190E-03
     -4.733  0.1040E-01  0.6642E-03
     -4.690  0.2613E-01  0.1782E-02
     -4.647  0.5815E-01  0.4271E-02
     -4.604  0.1160E+00  0.9233E-02
     -4.562  0.2096E+00  0.1820E-01
     -4.519  0.3470E+00  0.3306E-01
     -4.476  0.5305E+00  0.5576E-01
     -4.433  0.7533E+00  0.8799E-01
     -4.391  0.9988E+00  0.1307E+00
     -4.348  0.1242E+01  0.1839E+00
     -4.305  0.1456E+01  0.2462E+00
     -4.262  0.1620E+01  0.3155E+00
     -4.219  0.1728E+01  0.3895E+00
     -4.177  0.1791E+01  0.4661E+00
     -4.134  0.1841E+01  0.5449E+00
     -4.091  0.1917E+01  0.6269E+00
     -4.048  0.2054E+01  0.7148E+00
     -4.005  0.2261E+01  0.8116E+00
     -3.963  0.2524E+01  0.9196E+00
     -3.920  0.2798E+01  0.1039E+01
     -3.877  0.3031E+01  0.1169E+01
     -3.834  0.3174E+01  0.1305E+01
     -3.791  0.3210E+01  0.1442E+01
     -3.749  0.3160E+01  0.1577E+01
     -3.706  0.3076E+01  0.1709E+01
     -3.663  0.3024E+01  0.1838E+01
     -3.620  0.3055E+01  0.1969E+01
     -3.577  0.3190E+01  0.2106E+01
     -3.535  0.3408E+01  0.2252E+01
     -3.492  0.3657E+01  0.2408E+01
     -3.449  0.3881E+01  0.2574E+01
     -3.406  0.4038E+01  0.2747E+01
     -3.363  0.4120E+01  0.2923E+01
     -3.321  0.4143E+01  0.3100E+01
     -3.278  0.4142E+01  0.3278E+01
     -3.235  0.4152E+01  0.3455E+01
     -3.192  0.4201E+01  0.3635E+01
     -3.150  0.4304E+01  0.3819E+01
     -3.107  0.4458E+01  0.4010E+01
     -3.064  0.4649E+01  0.4209E+01
     -3.021  0.4853E+01  0.4417E+01
     -2.978  0.5040E+01  0.4632E+01
     -2.936  0.5185E+01  0.4854E+01
     -2.893  0.5279E+01  0.5080E+01
     -2.850  0.5335E+01  0.5308E+01
     -2.807  0.5382E+01  0.5539E+01
     -2.764  0.5453E+01  0.5772E+01
     -2.722  0.5561E+01  0.6010E+01
     -2.679  0.5678E+01  0.6253E+01
     -2.636  0.5741E+01  0.6499E+01
     -2.593  0.5694E+01  0.6742E+01
     -2.550  0.5545E+01  0.6980E+01
     -2.508  0.5387E+01  0.7210E+01
     -2.465  0.5368E+01  0.7440E+01
     -2.422  0.5605E+01  0.7680E+01
     -2.379  0.6110E+01  0.7941E+01
     -2.336  0.6759E+01  0.8231E+01
     -2.294  0.7340E+01  0.8545E+01
     -2.251  0.7654E+01  0.8872E+01
     -2.208  0.7617E+01  0.9198E+01
     -2.165  0.7312E+01  0.9511E+01
     -2.122  0.6947E+01  0.9808E+01
     -2.080  0.6755E+01  0.1010E+02
     -2.037  0.6878E+01  0.1039E+02
     -1.994  0.7310E+01  0.1070E+02
     -1.951  0.7904E+01  0.1104E+02
     -1.909  0.8458E+01  0.1140E+02
     -1.866  0.8808E+01  0.1178E+02
     -1.823  0.8901E+01  0.1216E+02
     -1.780  0.8814E+01  0.1254E+02
     -1.737  0.8694E+01  0.1291E+02
     -1.695  0.8670E+01  0.1328E+02
     -1.652  0.8791E+01  0.1366E+02
     -1.609  0.9019E+01  0.1404E+02
     -1.566  0.9291E+01  0.1444E+02
     -1.523  0.9567E+01  0.1485E+02
     -1.481  0.9838E+01  0.1527E+02
     -1.438  0.1010E+02  0.1571E+02
     -1.395  0.1032E+02  0.1615E+02
     -1.352  0.1046E+02  0.1659E+02
     -1.309  0.1054E+02  0.1705E+02
     -1.267  0.1072E+02  0.1750E+02
     -1.224  0.1120E+02  0.1798E+02
     -1.181  0.1209E+02  0.1850E+02
     -1.138  0.1330E+02  0.1907E+02
     -1.095  0.1451E+02  0.1969E+02
     -1.053  0.1535E+02  0.2035E+02
     -1.010  0.1565E+02  0.2102E+02
     -0.967  0.1558E+02  0.2168E+02
     -0.924  0.1555E+02  0.2235E+02
     -0.881  0.1596E+02  0.2303E+02
     -0.839  0.1701E+02  0.2376E+02
     -0.796  0.1865E+02  0.2456E+02
     -0.753  0.2078E+02  0.2545E+02
     -0.710  0.2340E+02  0.2645E+02
     -0.668  0.2671E+02  0.2759E+02
     -0.625  0.3087E+02  0.2891E+02
     -0.582  0.3569E+02  0.3044E+02
     -0.539  0.4062E+02  0.3218E+02
     -0.496  0.4499E+02  0.3410E+02
     -0.454  0.4840E+02  0.3617E+02
     -0.411  0.5089E+02  0.3835E+02
     -0.368  0.5276E+02  0.4061E+02
     -0.325  0.5429E+02  0.4293E+02
     -0.282  0.5556E+02  0.4531E+02
     -0.240  0.5647E+02  0.4773E+02
     -0.197  0.5695E+02  0.5016E+02
     -0.154  0.5702E+02  0.5261E+02
     -0.111  0.5689E+02  0.5504E+02
     -0.068  0.5683E+02  0.5747E+02
     -0.026  0.5709E+02  0.5991E+02
      0.017  0.5792E+02  0.6239E+02
      0.060  0.5947E+02  0.6494E+02
      0.103  0.6178E+02  0.6758E+02
      0.146  0.6476E+02  0.7035E+02
      0.188  0.6824E+02  0.7327E+02
      0.231  0.7199E+02  0.7635E+02
      0.274  0.7572E+02  0.7959E+02
      0.317  0.7913E+02  0.8298E+02
      0.360  0.8197E+02  0.8649E+02
      0.402  0.8412E+02  0.9009E+02
      0.445  0.8566E+02  0.9375E+02
      0.488  0.8669E+02  0.9746E+02
      0.531  0.8724E+02  0.1012E+03
      0.573  0.8730E+02  0.1049E+03
      0.616  0.8689E+02  0.1087E+03
      0.659  0.8610E+02  0.1123E+03
      0.702  0.8496E+02  0.1160E+03
      0.745  0.8348E+02  0.1195E+03
      0.787  0.8165E+02  0.1230E+03
      0.830  0.7961E+02  0.1264E+03
      0.873  0.7770E+02  0.1298E+03
      0.916  0.7634E+02  0.1330E+03
      0.959  0.7573E+02  0.1363E+03
      1.001  0.7579E+02  0.1395E+03
      1.044  0.7614E+02  0.1428E+03
      1.087  0.7634E+02  0.1460E+03
      1.130  0.7615E+02  0.1493E+03
      1.173  0.7555E+02  0.1525E+03
      1.215  0.7475E+02  0.1557E+03
      1.258  0.7394E+02  0.1589E+03
      1.301  0.7323E+02  0.1620E+03
      1.344  0.7254E+02  0.1651E+03
      1.387  0.7169E+02  0.1682E+03
      1.429  0.7048E+02  0.1712E+03
      1.472  0.6889E+02  0.1742E+03
      1.515  0.6722E+02  0.1770E+03
      1.558  0.6602E+02  0.1799E+03
      1.601  0.6584E+02  0.1827E+03
      1.643  0.6697E+02  0.1856E+03
      1.686  0.6926E+02  0.1885E+03
      1.729  0.7225E+02  0.1916E+03
      1.772  0.7545E+02  0.1948E+03
      1.815  0.7855E+02  0.1982E+03
      1.857  0.8142E+02  0.2017E+03
      1.900  0.8401E+02  0.2053E+03
      1.943  0.8631E+02  0.2090E+03
      1.986  0.8834E+02  0.2128E+03
      2.028  0.9019E+02  0.2166E+03
      2.071  0.9186E+02  0.2205E+03
      2.114  0.9329E+02  0.2245E+03
      2.157  0.9443E+02  0.2286E+03
      2.200  0.9544E+02  0.2327E+03
      2.242  0.9668E+02  0.2368E+03
      2.285  0.9860E+02  0.2410E+03
      2.328  0.1015E+03  0.2454E+03
      2.371  0.1054E+03  0.2499E+03
      2.414  0.1099E+03  0.2546E+03
      2.456  0.1143E+03  0.2595E+03
      2.499  0.1182E+03  0.2645E+03
      2.542  0.1213E+03  0.2697E+03
      2.585  0.1237E+03  0.2750E+03
      2.628  0.1257E+03  0.2804E+03
      2.670  0.1276E+03  0.2859E+03
      2.713  0.1295E+03  0.2914E+03
      2.756  0.1317E+03  0.2970E+03
      2.799  0.1342E+03  0.3028E+03
      2.842  0.1370E+03  0.3086E+03
      2.884  0.1398E+03  0.3146E+03
      2.927  0.1418E+03  0.3207E+03
      2.970  0.1419E+03  0.3268E+03
      3.013  0.1394E+03  0.3327E+03
      3.056  0.1340E+03  0.3385E+03
      3.098  0.1263E+03  0.3439E+03
      3.141  0.1174E+03  0.3489E+03
      3.184  0.1084E+03  0.3535E+03
      3.227  0.1005E+03  0.3578E+03
      3.269  0.9430E+02  0.3619E+03
      3.312  0.8993E+02  0.3657E+03
      3.355  0.8714E+02  0.3694E+03
      3.398  0.8549E+02  0.3731E+03
      3.441  0.8458E+02  0.3767E+03
      3.483  0.8400E+02  0.3803E+03
      3.526  0.8346E+02  0.3839E+03
      3.569  0.8285E+02  0.3874E+03
      3.612  0.8238E+02  0.3909E+03
      3.655  0.8257E+02  0.3945E+03
      3.697  0.8392E+02  0.3981E+03
      3.740  0.8667E+02  0.4018E+03
      3.783  0.9058E+02  0.4057E+03
      3.826  0.9506E+02  0.4097E+03
      3.869  0.9942E+02  0.4140E+03
      3.911  0.1032E+03  0.4184E+03
      3.954  0.1060E+03  0.4229E+03
      3.997  0.1079E+03  0.4276E+03
      4.040  0.1089E+03  0.4322E+03
      4.083  0.1089E+03  0.4369E+03
      4.125  0.1083E+03  0.4415E+03
      4.168  0.1072E+03  0.4461E+03
      4.211  0.1059E+03  0.4506E+03
      4.254  0.1046E+03  0.4551E+03
      4.297  0.1034E+03  0.4595E+03
      4.339  0.1025E+03  0.4639E+03
      4.382  0.1018E+03  0.4683E+03
      4.425  0.1015E+03  0.4726E+03
      4.468  0.1012E+03  0.4769E+03
      4.510  0.1005E+03  0.4812E+03
      4.553  0.9936E+02  0.4855E+03
      4.596  0.9808E+02  0.4897E+03
      4.639  0.9718E+02  0.4939E+03
      4.682  0.9716E+02  0.4980E+03
      4.724  0.9824E+02  0.5022E+03
      4.767  0.1003E+03  0.5065E+03
      4.810  0.1029E+03  0.5109E+03
      4.853  0.1056E+03  0.5154E+03
      4.896  0.1078E+03  0.5200E+03
      4.938  0.1092E+03  0.5247E+03
      4.981  0.1093E+03  0.5294E+03
      5.024  0.1075E+03  0.5340E+03
      5.067  0.1032E+03  0.5384E+03
      5.110  0.9518E+02  0.5425E+03
      5.152  0.8317E+02  0.5460E+03
      5.195  0.6776E+02  0.5489E+03
      5.238  0.5074E+02  0.5511E+03
      5.281  0.3453E+02  0.5526E+03
      5.324  0.2116E+02  0.5535E+03
      5.366  0.1160E+02  0.5540E+03
      5.409  0.5665E+01  0.5542E+03
      5.452  0.2458E+01  0.5543E+03
      5.495  0.9461E+00  0.5544E+03
      5.538  0.3231E+00  0.5544E+03
      5.580  0.9791E-01  0.5544E+03
      5.623  0.2636E-01  0.5544E+03
      5.666  0.6305E-02  0.5544E+03
      5.709  0.1339E-02  0.5544E+03
      5.751  0.2522E-03  0.5544E+03
      5.794  0.4193E-04  0.5544E+03
      5.837  0.6132E-05  0.5544E+03
      5.880  0.7846E-06  0.5544E+03
      5.923  0.8744E-07  0.5544E+03
      5.965  0.8447E-08  0.5544E+03
      6.008  0.7047E-09  0.5544E+03
      6.051  0.5060E-10  0.5544E+03
      6.094  0.3120E-11  0.5544E+03
      6.137  0.1642E-12  0.5544E+03
      6.179  0.7199E-14  0.5544E+03
      6.222  0.2594E-15  0.5544E+03
      6.265  0.0000E+00  0.5544E+03
      6.308  0.0000E+00  0.5544E+03
      6.351  0.0000E+00  0.5544E+03
      6.393  0.0000E+00  0.5544E+03
      6.436  0.0000E+00  0.5544E+03
      6.479  0.0000E+00  0.5544E+03
      6.522  0.0000E+00  0.5544E+03
      6.565  0.0000E+00  0.5544E+03
      6.607  0.0000E+00  0.5544E+03
      6.650  0.0000E+00  0.5544E+03
      6.693  0.0000E+00  0.5544E+03
      6.736  0.0000E+00  0.5544E+03
      6.779  0.0000E+00  0.5544E+03
      6.821  0.0000E+00  0.5544E+03
