<?xml version="1.0" encoding="ISO-8859-1"?>
<modeling>
 <generator>
  <i name="program" type="string">vasp </i>
  <i name="version" type="string">5.4.4.18Apr17-6-g9f103f2a35  </i>
  <i name="subversion" type="string">(build Sep 27 2018 12:46:37) complex + VL-xray_ parallel </i>
  <i name="platform" type="string">LLNL_Quartz_ifc </i>
  <i name="date" type="string">2021 09 26 </i>
  <i name="time" type="string">18:40:29 </i>
 </generator>
 <incar>
  <i type="int" name="ISTART">     2</i>
  <i type="string" name="PREC">accurate</i>
  <i type="string" name="ALGO"> Fast</i>
  <i type="int" name="ICHARG">     2</i>
  <i type="int" name="INIWAV">     1</i>
  <i type="int" name="NELM">   200</i>
  <i type="int" name="NELMIN">     4</i>
  <i type="int" name="IBRION">     2</i>
  <i name="EDIFF">      0.00000100</i>
  <i type="int" name="NSW">     5</i>
  <i type="int" name="ISIF">     2</i>
  <i type="int" name="ISYM">     2</i>
  <i name="ENCUT">    450.00000000</i>
  <i name="POTIM">      0.25000000</i>
  <i type="string" name="LREAL"> Auto</i>
  <i type="int" name="ISMEAR">     0</i>
  <i name="SIGMA">      0.15000000</i>
  <i type="logical" name="LWAVE"> F  </i>
  <i type="logical" name="LCHARG"> F  </i>
  <i type="int" name="ICORELEVEL">     0</i>
  <i type="int" name="CLNT">     1</i>
  <i type="int" name="CLN">     1</i>
  <i type="int" name="INCAR     ">     0</i>
  <i name="CLZ">      0.00000000</i>
  <v type="int" name="KPOINT_BSE">    -1     0     0     0</v>
  <i type="int" name="NELM">   200</i>
 </incar>
 <structure name="primitive_cell" >
  <crystal>
   <varray name="basis" >
    <v>       9.72667804       0.00000000       0.00000000 </v>
    <v>       0.00000000       8.42355028       0.00000000 </v>
    <v>       0.00000000       0.00000000      45.00000000 </v>
   </varray>
   <i name="volume">   3686.99226691 </i>
   <varray name="rec_basis" >
    <v>       0.10281002       0.00000000       0.00000000 </v>
    <v>       0.00000000       0.11871479       0.00000000 </v>
    <v>       0.00000000       0.00000000       0.02222222 </v>
   </varray>
  </crystal>
  <varray name="positions" >
   <v>       0.05375952      -0.29881793       0.21123582 </v>
   <v>      -0.05952432      -0.21255832       0.25508020 </v>
   <v>      -0.05874562      -0.38764040       0.16653265 </v>
   <v>       0.06558711      -0.46255173       0.25515865 </v>
   <v>      -0.07111782       0.45152361       0.21132220 </v>
   <v>       0.17831362      -0.04885933       0.21128461 </v>
   <v>       0.17884224       0.45136558       0.21135006 </v>
   <v>       0.30370073      -0.29929718       0.21128167 </v>
   <v>       0.06780427      -0.13668788       0.16662473 </v>
   <v>      -0.19625923      -0.29901087       0.21129393 </v>
   <v>      -0.07077142      -0.04842999       0.21123826 </v>
   <v>       0.19033767      -0.21244416       0.25518774 </v>
   <v>       0.19198416      -0.38829589       0.16643835 </v>
   <v>      -0.18228936      -0.13817813       0.16663679 </v>
   <v>      -0.18415478      -0.46232531       0.25552727 </v>
   <v>       0.06560418       0.03754727       0.25519908 </v>
   <v>       0.06742393       0.36296562       0.16658816 </v>
   <v>       0.31543756      -0.46216737       0.25518148 </v>
   <v>       0.31824258      -0.13739100       0.16576440 </v>
   <v>      -0.30892981      -0.21242929       0.25536277 </v>
   <v>      -0.30821475      -0.38729420       0.16671358 </v>
   <v>      -0.06537377      -0.21811907       0.12418117 </v>
   <v>      -0.05854534       0.11225582       0.16647273 </v>
   <v>      -0.05923454       0.28755092       0.25521629 </v>
   <v>      -0.18504713       0.03768988       0.25512804 </v>
   <v>       0.18612285      -0.21714147       0.12428307 </v>
   <v>      -0.18242771       0.36185826       0.16669333 </v>
   <v>       0.05704500      -0.47385736       0.12416169 </v>
   <v>       0.17823802      -0.37592547       0.29950179 </v>
   <v>       0.05463631       0.20078507       0.21126103 </v>
   <v>      -0.32115990       0.45142262       0.21124539 </v>
   <v>      -0.07198444      -0.37643803       0.29958507 </v>
   <v>       0.42874723       0.45126275       0.21149528 </v>
   <v>      -0.32116404      -0.04864365       0.21126656 </v>
   <v>       0.42895322      -0.04858192       0.21137751 </v>
   <v>       0.19171549       0.11164299       0.16642678 </v>
   <v>       0.19053464       0.28718774       0.25518324 </v>
   <v>       0.05293614      -0.12618029       0.29952060 </v>
   <v>       0.31518179       0.03760927       0.25515309 </v>
   <v>       0.44049946      -0.21208474       0.25524676 </v>
   <v>       0.44143701      -0.38935109       0.16647153 </v>
   <v>       0.31858687       0.36311272       0.16581334 </v>
   <v>       0.05726183       0.02662562       0.12413340 </v>
   <v>      -0.19083842      -0.47194189       0.12393333 </v>
   <v>       0.05295805       0.37374801       0.29955323 </v>
   <v>      -0.19588411       0.20113923       0.21123360 </v>
   <v>       0.30471114       0.20032129       0.21117524 </v>
   <v>      -0.44628017      -0.29917024       0.21113826 </v>
   <v>       0.30820621      -0.47413429       0.12395061 </v>
   <v>       0.30294790      -0.12620863       0.29952022 </v>
   <v>      -0.19687683      -0.12662753       0.29948292 </v>
   <v>      -0.43309144      -0.13717469       0.16646059 </v>
   <v>      -0.43461271      -0.46282470       0.25512601 </v>
   <v>      -0.30831269       0.11255066       0.16664623 </v>
   <v>      -0.31244247      -0.21789833       0.12421619 </v>
   <v>      -0.30915969       0.28782655       0.25517482 </v>
   <v>      -0.19078487       0.02809934       0.12396869 </v>
   <v>       0.30915741       0.02571674       0.12398605 </v>
   <v>      -0.06553309       0.28196848       0.12421167 </v>
   <v>       0.30292672       0.37388441       0.29961481 </v>
   <v>      -0.19687666       0.37365223       0.29948463 </v>
   <v>       0.18557662       0.28312232       0.12433047 </v>
   <v>       0.42779911      -0.37576781       0.29948306 </v>
   <v>      -0.32240499      -0.37596150       0.29952121 </v>
   <v>       0.43697511      -0.21615245       0.12403079 </v>
   <v>       0.17793553       0.12383602       0.29956060 </v>
   <v>      -0.07231658       0.12355001       0.29956167 </v>
   <v>       0.44169354       0.11057673       0.16645829 </v>
   <v>       0.44096332       0.28737334       0.25510115 </v>
   <v>      -0.43473321       0.03746987       0.25504624 </v>
   <v>      -0.43324746       0.36252362       0.16646430 </v>
   <v>       0.06467904      -0.29122176       0.34399964 </v>
   <v>      -0.31244361       0.28208690       0.12422055 </v>
   <v>      -0.44076416      -0.47292464       0.12390670 </v>
   <v>      -0.18483406      -0.29197987       0.34397445 </v>
   <v>      -0.06010778       0.45897086       0.34407241 </v>
   <v>      -0.44615525       0.20065014       0.21111724 </v>
   <v>      -0.44670790      -0.12648236       0.29952976 </v>
   <v>      -0.06032592      -0.04139720       0.34397961 </v>
   <v>       0.18994914       0.45869079       0.34403195 </v>
   <v>       0.43684351       0.28347023       0.12408873 </v>
   <v>       0.42793110       0.12375895       0.29946318 </v>
   <v>      -0.32195976       0.12378922       0.29950485 </v>
   <v>       0.18953523      -0.04123021       0.34392896 </v>
   <v>       0.31518543      -0.29091815       0.34404286 </v>
   <v>      -0.44026026       0.02690629       0.12391326 </v>
   <v>      -0.44709514       0.37378912       0.29953558 </v>
   <v>      -0.31004061       0.45925233       0.34398620 </v>
   <v>       0.06472972       0.20858526       0.34390479 </v>
   <v>      -0.31001544      -0.04110100       0.34410130 </v>
   <v>       0.43957086       0.45846874       0.34397284 </v>
   <v>       0.44002927      -0.04106305       0.34404543 </v>
   <v>      -0.18568169       0.20860928       0.34390061 </v>
   <v>      -0.43539769      -0.29109772       0.34390568 </v>
   <v>       0.31451742       0.20896340       0.34388632 </v>
   <v>       0.06148084      -0.45831985       0.38842873 </v>
   <v>      -0.06369687      -0.20890442       0.38848066 </v>
   <v>       0.18646975      -0.20934635       0.38826783 </v>
   <v>      -0.18872552      -0.45849771       0.38827092 </v>
   <v>       0.31165177      -0.45874305       0.38847208 </v>
   <v>       0.06146798       0.04139944       0.38844703 </v>
   <v>      -0.43561204       0.20860510       0.34392344 </v>
   <v>      -0.06302293       0.29151434       0.38849931 </v>
   <v>      -0.31340873      -0.20852460       0.38846067 </v>
   <v>       0.18623560       0.29117148       0.38838070 </v>
   <v>      -0.18878131       0.04141048       0.38829759 </v>
   <v>       0.43616588      -0.20870104       0.38837658 </v>
   <v>       0.31143956       0.04143579       0.38840681 </v>
   <v>      -0.31356115       0.29126092       0.38840622 </v>
   <v>      -0.43820193      -0.45846583       0.38847240 </v>
   <v>       0.43622147       0.29106702       0.38844314 </v>
   <v>      -0.43863903       0.04152405       0.38842562 </v>
   <v>      -0.06730292      -0.37459953       0.43323513 </v>
   <v>       0.18342206      -0.37527087       0.43313943 </v>
   <v>       0.05850304      -0.12518381       0.43315678 </v>
   <v>       0.05853629       0.37510425       0.43296635 </v>
   <v>      -0.19122498      -0.12504392       0.43301624 </v>
   <v>       0.30845072      -0.12480294       0.43307960 </v>
   <v>      -0.19153440       0.37497073       0.43308636 </v>
   <v>      -0.31619029      -0.37523448       0.43307938 </v>
   <v>       0.30863740       0.37494829       0.43289503 </v>
   <v>       0.43364257      -0.37509327       0.43299695 </v>
   <v>      -0.06659038       0.12497542       0.43312724 </v>
   <v>       0.18372015       0.12504729       0.43308209 </v>
   <v>      -0.44146407      -0.12496551       0.43311024 </v>
   <v>      -0.31660306       0.12507388       0.43302765 </v>
   <v>       0.43359191       0.12482852       0.43300309 </v>
   <v>      -0.44145790       0.37464014       0.43305992 </v>
   <v>       0.06792273      -0.28932321       0.47747111 </v>
   <v>      -0.05698304       0.46061266       0.47741280 </v>
   <v>      -0.18228581      -0.28920309       0.47744234 </v>
   <v>      -0.05735802      -0.03940909       0.47733783 </v>
   <v>       0.19269860       0.46071481       0.47744361 </v>
   <v>       0.31763066      -0.28953779       0.47736760 </v>
   <v>       0.19275112      -0.03939134       0.47740913 </v>
   <v>      -0.30712151       0.46071882       0.47746520 </v>
   <v>       0.06783679       0.21068395       0.47739958 </v>
   <v>      -0.30733770      -0.03934453       0.47742384 </v>
   <v>       0.44285891       0.46069472       0.47743374 </v>
   <v>       0.44259151      -0.03945892       0.47730631 </v>
   <v>      -0.18214937       0.21089271       0.47740216 </v>
   <v>      -0.43230087      -0.28930541       0.47741352 </v>
   <v>       0.31778195       0.21060911       0.47742081 </v>
   <v>      -0.43216770       0.21073931       0.47746575 </v>
   <v>       0.05714367      -0.46092959      -0.47766803 </v>
   <v>      -0.06792005      -0.21130035      -0.47762920 </v>
   <v>       0.18235216      -0.21075888      -0.47749025 </v>
   <v>      -0.19272687      -0.46075249      -0.47751835 </v>
   <v>       0.30737924      -0.46109493      -0.47752919 </v>
   <v>       0.05706663       0.03917705      -0.47751789 </v>
   <v>      -0.06758372       0.28847269      -0.47758092 </v>
   <v>      -0.31827834      -0.21109027      -0.47755187 </v>
   <v>       0.18229209       0.28902689      -0.47749192 </v>
   <v>      -0.19262853       0.03913842      -0.47745123 </v>
   <v>       0.30702780       0.03896742      -0.47767083 </v>
   <v>       0.43230590      -0.21104273      -0.47758869 </v>
   <v>      -0.31772088       0.28838928      -0.47769337 </v>
   <v>      -0.44307058      -0.46086302      -0.47751986 </v>
   <v>       0.43250714       0.28843566      -0.47773598 </v>
   <v>       0.06750775      -0.27659310      -0.12379745 </v>
   <v>      -0.44267970       0.03866255      -0.47766067 </v>
   <v>      -0.18334536      -0.27606820      -0.12363665 </v>
   <v>      -0.06027574       0.46848948      -0.12388900 </v>
   <v>       0.18955490       0.46802001      -0.12391232 </v>
   <v>      -0.06020857      -0.03159406      -0.12387440 </v>
   <v>       0.31818475      -0.27624394      -0.12374711 </v>
   <v>       0.18972449      -0.03202304      -0.12389314 </v>
   <v>       0.06822181       0.22322548      -0.12382941 </v>
   <v>      -0.31012020       0.46796507      -0.12389474 </v>
   <v>      -0.31018676      -0.03156209      -0.12390638 </v>
   <v>       0.43972783       0.46794277      -0.12404520 </v>
   <v>       0.43962103      -0.03195949      -0.12390963 </v>
   <v>      -0.18242493       0.22400089      -0.12381387 </v>
   <v>      -0.43248453      -0.27533309      -0.12376310 </v>
   <v>       0.31739419       0.22366553      -0.12386137 </v>
   <v>      -0.05840829      -0.37496757      -0.43313128 </v>
   <v>       0.06653564      -0.12491655      -0.43311529 </v>
   <v>       0.19166300      -0.37498775      -0.43309406 </v>
   <v>      -0.18330399      -0.12499913      -0.43313127 </v>
   <v>       0.06659858       0.37504704      -0.43310888 </v>
   <v>       0.31654431      -0.12530054      -0.43315414 </v>
   <v>      -0.43181654       0.22388219      -0.12386237 </v>
   <v>      -0.30834943      -0.37501580      -0.43309964 </v>
   <v>      -0.18339406       0.37501902      -0.43310556 </v>
   <v>      -0.05838758       0.12495077      -0.43320950 </v>
   <v>       0.31660534       0.37496334      -0.43315036 </v>
   <v>       0.19161216       0.12502756      -0.43312022 </v>
   <v>       0.44166895      -0.37498330      -0.43314026 </v>
   <v>      -0.43335477      -0.12509415      -0.43315228 </v>
   <v>      -0.30843428       0.12494803      -0.43310063 </v>
   <v>       0.44167276       0.12501133      -0.43308455 </v>
   <v>      -0.43334460       0.37498577      -0.43315443 </v>
   <v>      -0.06633391      -0.36238509      -0.16607716 </v>
   <v>       0.18323374      -0.36245643      -0.16643783 </v>
   <v>       0.05859853      -0.11228978      -0.16648806 </v>
   <v>       0.05860732       0.38855263      -0.16645809 </v>
   <v>      -0.19140297      -0.11231848      -0.16645910 </v>
   <v>       0.30855914      -0.11230866      -0.16651469 </v>
   <v>      -0.19162995       0.38752359      -0.16647574 </v>
   <v>       0.30843587       0.38737640      -0.16646297 </v>
   <v>      -0.31638248      -0.36227781      -0.16649885 </v>
   <v>       0.43367626      -0.36230983      -0.16647969 </v>
   <v>      -0.06626997       0.13765708      -0.16645937 </v>
   <v>       0.18363838       0.13780249      -0.16639904 </v>
   <v>      -0.44153090      -0.11246752      -0.16651299 </v>
   <v>      -0.31654812       0.13772165      -0.16650629 </v>
   <v>       0.43344958       0.13766523      -0.16649370 </v>
   <v>      -0.44145789       0.38768468      -0.16651356 </v>
   <v>       0.06329893      -0.29169068      -0.38840713 </v>
   <v>      -0.06167564       0.45846306      -0.38842689 </v>
   <v>      -0.18641548      -0.29135489      -0.38843055 </v>
   <v>       0.18834045       0.45869623      -0.38845265 </v>
   <v>      -0.06173394      -0.04154641      -0.38849287 </v>
   <v>       0.18823260      -0.04144624      -0.38850004 </v>
   <v>       0.31351211      -0.29147852      -0.38845480 </v>
   <v>      -0.31190677       0.45838976      -0.38850465 </v>
   <v>       0.06350873       0.20857749      -0.38844790 </v>
   <v>      -0.31161699      -0.04123540      -0.38849173 </v>
   <v>       0.43836087       0.45835844      -0.38842060 </v>
   <v>       0.43855756      -0.04132646      -0.38845433 </v>
   <v>      -0.18660666       0.20846431      -0.38846449 </v>
   <v>      -0.43648256      -0.29142513      -0.38843742 </v>
   <v>       0.31310014       0.20821890      -0.38850941 </v>
   <v>       0.07061187      -0.45056015      -0.21123194 </v>
   <v>      -0.05531696      -0.20039273      -0.21116658 </v>
   <v>       0.19457968      -0.20053326      -0.21114760 </v>
   <v>      -0.43698507       0.20823243      -0.38863012 </v>
   <v>      -0.18008495      -0.45038766      -0.21106667 </v>
   <v>       0.31964213      -0.45033076      -0.21108551 </v>
   <v>       0.06951273       0.04963150      -0.21100701 </v>
   <v>      -0.05502707       0.29867995      -0.21122301 </v>
   <v>      -0.30498665      -0.20067165      -0.21111304 </v>
   <v>       0.19494438       0.29882663      -0.21118477 </v>
   <v>      -0.18068264       0.04982096      -0.21094629 </v>
   <v>       0.44467810      -0.20072490      -0.21115282 </v>
   <v>       0.32016714       0.04960299      -0.21115307 </v>
   <v>      -0.43005265      -0.45005889      -0.21098718 </v>
   <v>      -0.30500738       0.29913190      -0.21122252 </v>
   <v>       0.44466078       0.29918647      -0.21116854 </v>
   <v>      -0.43073254       0.04995957      -0.21103710 </v>
   <v>       0.05979788      -0.45935857      -0.34410390 </v>
   <v>      -0.06520939      -0.20931132      -0.34408088 </v>
   <v>       0.18485537      -0.20956439      -0.34408590 </v>
   <v>      -0.19030161      -0.45924143      -0.34417338 </v>
   <v>       0.30959619      -0.45924983      -0.34407991 </v>
   <v>       0.06013443       0.04043271      -0.34397906 </v>
   <v>      -0.06516143       0.29067650      -0.34415255 </v>
   <v>      -0.31551129      -0.20960161      -0.34412052 </v>
   <v>       0.18463234       0.29062284      -0.34407432 </v>
   <v>      -0.19024640       0.04062630      -0.34407563 </v>
   <v>       0.30972866       0.04065330      -0.34409365 </v>
   <v>       0.43475652      -0.20947981      -0.34402527 </v>
   <v>      -0.44022872      -0.45924033      -0.34406586 </v>
   <v>      -0.31506216       0.29070527      -0.34396802 </v>
   <v>       0.43504323       0.29064987      -0.34391312 </v>
   <v>      -0.44033972       0.04061123      -0.34415332 </v>
   <v>       0.05934407      -0.28769668      -0.25501851 </v>
   <v>      -0.06583792       0.46280804      -0.25506319 </v>
   <v>       0.18452404       0.46262283      -0.25501613 </v>
   <v>      -0.19003500      -0.28787891      -0.25513966 </v>
   <v>       0.30968434      -0.28788255      -0.25518331 </v>
   <v>      -0.06668044      -0.03777867      -0.25532584 </v>
   <v>       0.18391295      -0.03732345      -0.25524041 </v>
   <v>      -0.31595794       0.46275396      -0.25502406 </v>
   <v>       0.05970841       0.21262665      -0.25509790 </v>
   <v>      -0.31550482      -0.03735013      -0.25512398 </v>
   <v>       0.43454385       0.46273461      -0.25512495 </v>
   <v>       0.43384979      -0.03744032      -0.25523004 </v>
   <v>       0.30969618       0.21240530      -0.25506303 </v>
   <v>      -0.44014100      -0.28790768      -0.25512706 </v>
   <v>      -0.18958493       0.21182441      -0.25539706 </v>
   <v>      -0.44017882       0.21249384      -0.25512529 </v>
   <v>      -0.05319255      -0.37356108      -0.29948481 </v>
   <v>       0.07228482      -0.12352846      -0.29964360 </v>
   <v>       0.19714640      -0.37384947      -0.29966649 </v>
   <v>      -0.17794660      -0.12383929      -0.29955913 </v>
   <v>       0.07191685       0.37636470      -0.29947894 </v>
   <v>       0.32203130      -0.12365320      -0.29948898 </v>
   <v>      -0.17815454       0.37653802      -0.29974545 </v>
   <v>      -0.30299017      -0.37368093      -0.29956307 </v>
   <v>      -0.05284275       0.12627650      -0.29964797 </v>
   <v>       0.32231758       0.37641028      -0.29960516 </v>
   <v>       0.19714413       0.12619497      -0.29965748 </v>
   <v>       0.44701389      -0.37369993      -0.29959893 </v>
   <v>      -0.42844610      -0.12348744      -0.29944868 </v>
   <v>      -0.30260572       0.12624857      -0.29956226 </v>
   <v>       0.44717202       0.12609964      -0.29955975 </v>
   <v>      -0.42778994       0.37631322      -0.29960489 </v>
  </varray>
 </structure>
 <varray name="primitive_index" >
  <v type="int" >        1 </v>
  <v type="int" >      238 </v>
  <v type="int" >      193 </v>
  <v type="int" >      220 </v>
  <v type="int" >      242 </v>
  <v type="int" >      109 </v>
  <v type="int" >       10 </v>
  <v type="int" >      192 </v>
  <v type="int" >      208 </v>
  <v type="int" >       81 </v>
  <v type="int" >       71 </v>
  <v type="int" >       89 </v>
  <v type="int" >       35 </v>
  <v type="int" >       32 </v>
  <v type="int" >      288 </v>
  <v type="int" >      263 </v>
  <v type="int" >       55 </v>
  <v type="int" >      243 </v>
  <v type="int" >      283 </v>
  <v type="int" >      128 </v>
  <v type="int" >      117 </v>
  <v type="int" >      155 </v>
  <v type="int" >      158 </v>
  <v type="int" >      252 </v>
  <v type="int" >      222 </v>
  <v type="int" >      262 </v>
  <v type="int" >      183 </v>
  <v type="int" >      265 </v>
  <v type="int" >      162 </v>
  <v type="int" >      160 </v>
  <v type="int" >      205 </v>
  <v type="int" >       38 </v>
  <v type="int" >       28 </v>
  <v type="int" >      161 </v>
  <v type="int" >       15 </v>
  <v type="int" >      126 </v>
  <v type="int" >       45 </v>
  <v type="int" >      147 </v>
  <v type="int" >      278 </v>
  <v type="int" >      226 </v>
  <v type="int" >      227 </v>
  <v type="int" >      286 </v>
  <v type="int" >       48 </v>
  <v type="int" >       14 </v>
  <v type="int" >       26 </v>
  <v type="int" >       70 </v>
  <v type="int" >       61 </v>
  <v type="int" >      251 </v>
  <v type="int" >      197 </v>
  <v type="int" >      108 </v>
  <v type="int" >      277 </v>
  <v type="int" >      191 </v>
  <v type="int" >       33 </v>
  <v type="int" >       90 </v>
  <v type="int" >       25 </v>
  <v type="int" >      203 </v>
  <v type="int" >       99 </v>
  <v type="int" >       23 </v>
  <v type="int" >      133 </v>
  <v type="int" >       52 </v>
  <v type="int" >      104 </v>
  <v type="int" >      189 </v>
  <v type="int" >      100 </v>
  <v type="int" >      144 </v>
  <v type="int" >       83 </v>
  <v type="int" >      142 </v>
  <v type="int" >      145 </v>
  <v type="int" >      143 </v>
  <v type="int" >        5 </v>
  <v type="int" >      261 </v>
  <v type="int" >      122 </v>
  <v type="int" >      112 </v>
  <v type="int" >      267 </v>
  <v type="int" >       43 </v>
  <v type="int" >      285 </v>
  <v type="int" >      190 </v>
  <v type="int" >       63 </v>
  <v type="int" >      255 </v>
  <v type="int" >       92 </v>
  <v type="int" >      120 </v>
  <v type="int" >      279 </v>
  <v type="int" >      169 </v>
  <v type="int" >      170 </v>
  <v type="int" >      254 </v>
  <v type="int" >      257 </v>
  <v type="int" >      214 </v>
  <v type="int" >      124 </v>
  <v type="int" >       34 </v>
  <v type="int" >      153 </v>
  <v type="int" >       24 </v>
  <v type="int" >       95 </v>
  <v type="int" >      236 </v>
  <v type="int" >      172 </v>
  <v type="int" >      123 </v>
  <v type="int" >      258 </v>
  <v type="int" >      247 </v>
  <v type="int" >      198 </v>
  <v type="int" >      229 </v>
  <v type="int" >       86 </v>
  <v type="int" >       57 </v>
  <v type="int" >      246 </v>
  <v type="int" >       50 </v>
  <v type="int" >      273 </v>
  <v type="int" >      156 </v>
  <v type="int" >      105 </v>
  <v type="int" >       17 </v>
  <v type="int" >       79 </v>
  <v type="int" >      134 </v>
  <v type="int" >      232 </v>
  <v type="int" >      171 </v>
  <v type="int" >      248 </v>
  <v type="int" >      244 </v>
  <v type="int" >      282 </v>
  <v type="int" >      168 </v>
  <v type="int" >      211 </v>
  <v type="int" >      256 </v>
  <v type="int" >       46 </v>
  <v type="int" >      240 </v>
  <v type="int" >       29 </v>
  <v type="int" >       94 </v>
  <v type="int" >      215 </v>
  <v type="int" >      281 </v>
  <v type="int" >      118 </v>
  <v type="int" >      223 </v>
  <v type="int" >      239 </v>
  <v type="int" >      115 </v>
  <v type="int" >      184 </v>
  <v type="int" >      136 </v>
  <v type="int" >       62 </v>
  <v type="int" >      166 </v>
  <v type="int" >      268 </v>
  <v type="int" >      179 </v>
  <v type="int" >      132 </v>
  <v type="int" >      217 </v>
  <v type="int" >      176 </v>
  <v type="int" >      249 </v>
  <v type="int" >      185 </v>
  <v type="int" >       91 </v>
  <v type="int" >       19 </v>
  <v type="int" >      130 </v>
  <v type="int" >      206 </v>
  <v type="int" >      207 </v>
  <v type="int" >      175 </v>
  <v type="int" >       11 </v>
  <v type="int" >      178 </v>
  <v type="int" >      116 </v>
  <v type="int" >      107 </v>
  <v type="int" >      241 </v>
  <v type="int" >      230 </v>
  <v type="int" >      218 </v>
  <v type="int" >      209 </v>
  <v type="int" >       18 </v>
  <v type="int" >      225 </v>
  <v type="int" >       93 </v>
  <v type="int" >      266 </v>
  <v type="int" >      187 </v>
  <v type="int" >       87 </v>
  <v type="int" >      141 </v>
  <v type="int" >      111 </v>
  <v type="int" >       58 </v>
  <v type="int" >      181 </v>
  <v type="int" >      101 </v>
  <v type="int" >      151 </v>
  <v type="int" >      125 </v>
  <v type="int" >      274 </v>
  <v type="int" >        2 </v>
  <v type="int" >      154 </v>
  <v type="int" >      212 </v>
  <v type="int" >       27 </v>
  <v type="int" >      234 </v>
  <v type="int" >      173 </v>
  <v type="int" >       97 </v>
  <v type="int" >       41 </v>
  <v type="int" >      131 </v>
  <v type="int" >       39 </v>
  <v type="int" >       72 </v>
  <v type="int" >       12 </v>
  <v type="int" >      148 </v>
  <v type="int" >      276 </v>
  <v type="int" >      250 </v>
  <v type="int" >       40 </v>
  <v type="int" >       13 </v>
  <v type="int" >      264 </v>
  <v type="int" >      146 </v>
  <v type="int" >      259 </v>
  <v type="int" >      216 </v>
  <v type="int" >      233 </v>
  <v type="int" >       21 </v>
  <v type="int" >       98 </v>
  <v type="int" >      235 </v>
  <v type="int" >       68 </v>
  <v type="int" >       16 </v>
  <v type="int" >       59 </v>
  <v type="int" >       66 </v>
  <v type="int" >      177 </v>
  <v type="int" >        6 </v>
  <v type="int" >       75 </v>
  <v type="int" >        7 </v>
  <v type="int" >       73 </v>
  <v type="int" >      150 </v>
  <v type="int" >      271 </v>
  <v type="int" >      152 </v>
  <v type="int" >      129 </v>
  <v type="int" >      188 </v>
  <v type="int" >      174 </v>
  <v type="int" >      221 </v>
  <v type="int" >      269 </v>
  <v type="int" >      103 </v>
  <v type="int" >      180 </v>
  <v type="int" >      245 </v>
  <v type="int" >       82 </v>
  <v type="int" >      194 </v>
  <v type="int" >      201 </v>
  <v type="int" >       51 </v>
  <v type="int" >      280 </v>
  <v type="int" >      102 </v>
  <v type="int" >      228 </v>
  <v type="int" >        3 </v>
  <v type="int" >        4 </v>
  <v type="int" >      260 </v>
  <v type="int" >      167 </v>
  <v type="int" >       30 </v>
  <v type="int" >       77 </v>
  <v type="int" >      284 </v>
  <v type="int" >      149 </v>
  <v type="int" >       36 </v>
  <v type="int" >      275 </v>
  <v type="int" >      106 </v>
  <v type="int" >       60 </v>
  <v type="int" >       67 </v>
  <v type="int" >      199 </v>
  <v type="int" >       88 </v>
  <v type="int" >       54 </v>
  <v type="int" >      253 </v>
  <v type="int" >      114 </v>
  <v type="int" >       85 </v>
  <v type="int" >      121 </v>
  <v type="int" >      182 </v>
  <v type="int" >      127 </v>
  <v type="int" >       44 </v>
  <v type="int" >      196 </v>
  <v type="int" >      157 </v>
  <v type="int" >      113 </v>
  <v type="int" >       42 </v>
  <v type="int" >       49 </v>
  <v type="int" >      135 </v>
  <v type="int" >       69 </v>
  <v type="int" >      210 </v>
  <v type="int" >      200 </v>
  <v type="int" >      213 </v>
  <v type="int" >      186 </v>
  <v type="int" >       53 </v>
  <v type="int" >       31 </v>
  <v type="int" >       76 </v>
  <v type="int" >      159 </v>
  <v type="int" >      140 </v>
  <v type="int" >      204 </v>
  <v type="int" >      119 </v>
  <v type="int" >      110 </v>
  <v type="int" >      202 </v>
  <v type="int" >       84 </v>
  <v type="int" >      287 </v>
  <v type="int" >      237 </v>
  <v type="int" >      137 </v>
  <v type="int" >        9 </v>
  <v type="int" >       80 </v>
  <v type="int" >       78 </v>
  <v type="int" >       20 </v>
  <v type="int" >       64 </v>
  <v type="int" >      272 </v>
  <v type="int" >       96 </v>
  <v type="int" >      138 </v>
  <v type="int" >      164 </v>
  <v type="int" >      195 </v>
  <v type="int" >       74 </v>
  <v type="int" >      163 </v>
  <v type="int" >       65 </v>
  <v type="int" >      219 </v>
  <v type="int" >      231 </v>
  <v type="int" >       56 </v>
  <v type="int" >      139 </v>
  <v type="int" >      270 </v>
  <v type="int" >      165 </v>
  <v type="int" >        8 </v>
  <v type="int" >       22 </v>
  <v type="int" >      224 </v>
  <v type="int" >       37 </v>
  <v type="int" >       47 </v>
 </varray>
 <kpoints>
  <generation param="Gamma">
   <v type="int" name="divisions">       4        4        1 </v>
   <v name="usershift">      0.00000000       0.00000000       0.00000000 </v>
   <v name="genvec1">      0.25000000       0.00000000       0.00000000 </v>
   <v name="genvec2">      0.00000000       0.25000000       0.00000000 </v>
   <v name="genvec3">      0.00000000       0.00000000       1.00000000 </v>
   <v name="shift">      0.00000000       0.00000000       0.00000000 </v>
  </generation>
  <varray name="kpointlist" >
   <v>       0.00000000       0.00000000       0.00000000 </v>
   <v>       0.25000000       0.00000000       0.00000000 </v>
   <v>       0.50000000       0.00000000       0.00000000 </v>
   <v>       0.00000000       0.25000000       0.00000000 </v>
   <v>       0.25000000       0.25000000       0.00000000 </v>
   <v>       0.50000000       0.25000000       0.00000000 </v>
   <v>      -0.25000000       0.25000000       0.00000000 </v>
   <v>       0.00000000       0.50000000       0.00000000 </v>
   <v>       0.25000000       0.50000000       0.00000000 </v>
   <v>       0.50000000       0.50000000       0.00000000 </v>
  </varray>
  <varray name="weights" >
   <v>       0.06250000 </v>
   <v>       0.12500000 </v>
   <v>       0.06250000 </v>
   <v>       0.12500000 </v>
   <v>       0.12500000 </v>
   <v>       0.12500000 </v>
   <v>       0.12500000 </v>
   <v>       0.06250000 </v>
   <v>       0.12500000 </v>
   <v>       0.06250000 </v>
  </varray>
 </kpoints>
 <parameters>
  <separator name="general" >
   <i type="string" name="SYSTEM">unknown system</i>
   <i type="logical" name="LCOMPAT"> F  </i>
  </separator>
  <separator name="electronic" >
   <i type="string" name="PREC">accura</i>
   <i name="ENMAX">    450.00000000</i>
   <i name="ENAUG">    838.43500000</i>
   <i name="EDIFF">      0.00000100</i>
   <i type="int" name="IALGO">    68</i>
   <i type="int" name="IWAVPR">    11</i>
   <i type="int" name="NBANDS">  1386</i>
   <i name="NELECT">   2297.00000000</i>
   <i type="int" name="TURBO">     0</i>
   <i type="int" name="IRESTART">     0</i>
   <i type="int" name="NREBOOT">     0</i>
   <i type="int" name="NMIN">     0</i>
   <i name="EREF">      0.00000000</i>
   <separator name="electronic smearing" >
    <i type="int" name="ISMEAR">     0</i>
    <i name="SIGMA">      0.15000000</i>
    <i name="KSPACING">      0.50000000</i>
    <i type="logical" name="KGAMMA"> T  </i>
   </separator>
   <separator name="electronic projectors" >
    <i type="logical" name="LREAL"> T  </i>
    <v name="ROPT">     -0.00025000     -0.00025000</v>
    <i type="int" name="LMAXPAW">  -100</i>
    <i type="int" name="LMAXMIX">     2</i>
    <i type="logical" name="NLSPLINE"> F  </i>
   </separator>
   <separator name="electronic startup" >
    <i type="int" name="ISTART">     0</i>
    <i type="int" name="ICHARG">     2</i>
    <i type="int" name="INIWAV">     1</i>
   </separator>
   <separator name="electronic spin" >
    <i type="int" name="ISPIN">     1</i>
    <i type="logical" name="LNONCOLLINEAR"> F  </i>
    <v name="MAGMOM">      1.00000000      1.00000000      1.00000000      1.00000000      1.00000000      1.00000000      1.00000000      1.00000000      1.00000000      1.00000000      1.00000000      1.00000000      1.00000000      1.00000000      1.00000000      1.00000000      1.00000000      1.00000000      1.00000000      1.00000000
      1.00000000      1.00000000      1.00000000      1.00000000      1.00000000      1.00000000      1.00000000      1.00000000      1.00000000      1.00000000      1.00000000      1.00000000      1.00000000      1.00000000      1.00000000      1.00000000      1.00000000      1.00000000      1.00000000      1.00000000
      1.00000000      1.00000000      1.00000000      1.00000000      1.00000000      1.00000000      1.00000000      1.00000000      1.00000000      1.00000000      1.00000000      1.00000000      1.00000000      1.00000000      1.00000000      1.00000000      1.00000000      1.00000000      1.00000000      1.00000000
      1.00000000      1.00000000      1.00000000      1.00000000      1.00000000      1.00000000      1.00000000      1.00000000      1.00000000      1.00000000      1.00000000      1.00000000      1.00000000      1.00000000      1.00000000      1.00000000      1.00000000      1.00000000      1.00000000      1.00000000
      1.00000000      1.00000000      1.00000000      1.00000000      1.00000000      1.00000000      1.00000000      1.00000000      1.00000000      1.00000000      1.00000000      1.00000000      1.00000000      1.00000000      1.00000000      1.00000000      1.00000000      1.00000000      1.00000000      1.00000000
      1.00000000      1.00000000      1.00000000      1.00000000      1.00000000      1.00000000      1.00000000      1.00000000      1.00000000      1.00000000      1.00000000      1.00000000      1.00000000      1.00000000      1.00000000      1.00000000      1.00000000      1.00000000      1.00000000      1.00000000
      1.00000000      1.00000000      1.00000000      1.00000000      1.00000000      1.00000000      1.00000000      1.00000000      1.00000000      1.00000000      1.00000000      1.00000000      1.00000000      1.00000000      1.00000000      1.00000000      1.00000000      1.00000000      1.00000000      1.00000000
      1.00000000      1.00000000      1.00000000      1.00000000      1.00000000      1.00000000      1.00000000      1.00000000      1.00000000      1.00000000      1.00000000      1.00000000      1.00000000      1.00000000      1.00000000      1.00000000      1.00000000      1.00000000      1.00000000      1.00000000
      1.00000000      1.00000000      1.00000000      1.00000000      1.00000000      1.00000000      1.00000000      1.00000000      1.00000000      1.00000000      1.00000000      1.00000000      1.00000000      1.00000000      1.00000000      1.00000000      1.00000000      1.00000000      1.00000000      1.00000000
      1.00000000      1.00000000      1.00000000      1.00000000      1.00000000      1.00000000      1.00000000      1.00000000      1.00000000      1.00000000      1.00000000      1.00000000      1.00000000      1.00000000      1.00000000      1.00000000      1.00000000      1.00000000      1.00000000      1.00000000
      1.00000000      1.00000000      1.00000000      1.00000000      1.00000000      1.00000000      1.00000000      1.00000000      1.00000000      1.00000000      1.00000000      1.00000000      1.00000000      1.00000000      1.00000000      1.00000000      1.00000000      1.00000000      1.00000000      1.00000000
      1.00000000      1.00000000      1.00000000      1.00000000      1.00000000      1.00000000      1.00000000      1.00000000      1.00000000      1.00000000      1.00000000      1.00000000      1.00000000      1.00000000      1.00000000      1.00000000      1.00000000      1.00000000      1.00000000      1.00000000
      1.00000000      1.00000000      1.00000000      1.00000000      1.00000000      1.00000000      1.00000000      1.00000000      1.00000000      1.00000000      1.00000000      1.00000000      1.00000000      1.00000000      1.00000000      1.00000000      1.00000000      1.00000000      1.00000000      1.00000000
      1.00000000      1.00000000      1.00000000      1.00000000      1.00000000      1.00000000      1.00000000      1.00000000      1.00000000      1.00000000      1.00000000      1.00000000      1.00000000      1.00000000      1.00000000      1.00000000      1.00000000      1.00000000      1.00000000      1.00000000
      1.00000000      1.00000000      1.00000000      1.00000000      1.00000000      1.00000000      1.00000000      1.00000000</v>
    <i name="NUPDOWN">     -1.00000000</i>
    <i type="logical" name="LSORBIT"> F  </i>
    <v name="SAXIS">      0.00000000      0.00000000      1.00000000</v>
    <i type="logical" name="LSPIRAL"> F  </i>
    <v name="QSPIRAL">      0.00000000      0.00000000      0.00000000</v>
    <i type="logical" name="LZEROZ"> F  </i>
   </separator>
   <separator name="electronic exchange-correlation" >
    <i type="logical" name="LASPH"> F  </i>
    <i type="logical" name="LMETAGGA"> F  </i>
   </separator>
   <separator name="electronic convergence" >
    <i type="int" name="NELM">   200</i>
    <i type="int" name="NELMDL">     0</i>
    <i type="int" name="NELMIN">     4</i>
    <i name="ENINI">    450.00000000</i>
    <separator name="electronic convergence detail" >
     <i type="logical" name="LDIAG"> T  </i>
     <i type="logical" name="LSUBROT"> F  </i>
     <i name="WEIMIN">      0.00100000</i>
     <i name="EBREAK">      0.00000000</i>
     <i name="DEPER">      0.30000000</i>
     <i type="int" name="NRMM">     4</i>
     <i name="TIME">      0.40000000</i>
    </separator>
   </separator>
   <separator name="electronic mixer" >
    <i name="AMIX">      0.40000000</i>
    <i name="BMIX">      1.00000000</i>
    <i name="AMIN">      0.10000000</i>
    <i name="AMIX_MAG">      1.60000000</i>
    <i name="BMIX_MAG">      1.00000000</i>
    <separator name="electronic mixer details" >
     <i type="int" name="IMIX">     4</i>
     <i type="logical" name="MIXFIRST"> F  </i>
     <i type="int" name="MAXMIX">   -45</i>
     <i name="WC">    100.00000000</i>
     <i type="int" name="INIMIX">     1</i>
     <i type="int" name="MIXPRE">     1</i>
     <i type="int" name="MREMOVE">     5</i>
    </separator>
   </separator>
   <separator name="electronic dipolcorrection" >
    <i type="logical" name="LDIPOL"> F  </i>
    <i type="logical" name="LMONO"> F  </i>
    <i type="int" name="IDIPOL">     0</i>
    <i name="EPSILON">      1.00000000</i>
    <v name="DIPOL">   -100.00000000   -100.00000000   -100.00000000</v>
    <i name="EFIELD">      0.00000000</i>
   </separator>
  </separator>
  <separator name="grids" >
   <i type="int" name="NGX">    70</i>
   <i type="int" name="NGY">    60</i>
   <i type="int" name="NGZ">   320</i>
   <i type="int" name="NGXF">   140</i>
   <i type="int" name="NGYF">   120</i>
   <i type="int" name="NGZF">   640</i>
   <i type="logical" name="ADDGRID"> F  </i>
  </separator>
  <separator name="ionic" >
   <i type="int" name="NSW">     5</i>
   <i type="int" name="IBRION">     2</i>
   <i type="int" name="MDALGO">     0</i>
   <i type="int" name="ISIF">     2</i>
   <i name="PSTRESS">      0.00000000</i>
   <i name="EDIFFG">      0.00001000</i>
   <i type="int" name="NFREE">     1</i>
   <i name="POTIM">      0.25000000</i>
   <i name="SMASS">     -3.00000000</i>
   <i name="SCALEE">      1.00000000</i>
  </separator>
  <separator name="ionic md" >
   <i name="TEBEG">      0.00010000</i>
   <i name="TEEND">      0.00010000</i>
   <i type="int" name="NBLOCK">     1</i>
   <i type="int" name="KBLOCK">     5</i>
   <i type="int" name="NPACO">   256</i>
   <i name="APACO">     16.00000000</i>
  </separator>
  <separator name="symmetry" >
   <i type="int" name="ISYM">     2</i>
   <i name="SYMPREC">      0.00001000</i>
  </separator>
  <separator name="dos" >
   <i type="int" name="LORBIT">     0</i>
   <v name="RWIGS">     -1.00000000     -1.00000000</v>
   <i type="int" name="NEDOS">   301</i>
   <i name="EMIN">     10.00000000</i>
   <i name="EMAX">    -10.00000000</i>
   <i name="EFERMI">      0.00000000</i>
  </separator>
  <separator name="writing" >
   <i type="int" name="NWRITE">     2</i>
   <i type="logical" name="LWAVE"> F  </i>
   <i type="logical" name="LDOWNSAMPLE"> F  </i>
   <i type="logical" name="LCHARG"> F  </i>
   <i type="logical" name="LPARD"> F  </i>
   <i type="logical" name="LVTOT"> F  </i>
   <i type="logical" name="LVHAR"> F  </i>
   <i type="logical" name="LELF"> F  </i>
   <i type="logical" name="LOPTICS"> F  </i>
   <v name="STM">      0.00000000      0.00000000      0.00000000      0.00000000      0.00000000      0.00000000      0.00000000</v>
  </separator>
  <separator name="performance" >
   <i type="int" name="NPAR">    14</i>
   <i type="int" name="NSIM">     4</i>
   <i type="int" name="NBLK">    -1</i>
   <i type="logical" name="LPLANE"> T  </i>
   <i type="logical" name="LSCALAPACK"> T  </i>
   <i type="logical" name="LSCAAWARE"> T  </i>
   <i type="logical" name="LSCALU"> F  </i>
   <i type="logical" name="LASYNC"> F  </i>
   <i type="logical" name="LORBITALREAL"> F  </i>
  </separator>
  <separator name="miscellaneous" >
   <i type="int" name="IDIOT">     3</i>
   <i type="int" name="ISPECIAL">     0</i>
   <i type="logical" name="LMUSIC"> F  </i>
   <v name="POMASS">     55.84700000     54.93800000</v>
   <v name="DARWINR">      0.00000000      0.00000000</v>
   <v name="DARWINV">      1.00000000      1.00000000</v>
   <i type="logical" name="LCORR"> T  </i>
  </separator>
  <i type="logical" name="GGA_COMPAT"> T  </i>
  <i type="logical" name="LBERRY"> F  </i>
  <i type="int" name="ICORELEVEL">     0</i>
  <i type="logical" name="LDAU"> F  </i>
  <i type="int" name="I_CONSTRAINED_M">     0</i>
  <separator name="electronic exchange-correlation" >
   <i type="string" name="GGA">--</i>
   <i type="int" name="VOSKOWN">     0</i>
   <i type="logical" name="LHFCALC"> F  </i>
   <i type="string" name="PRECFOCK"></i>
   <i type="logical" name="LSYMGRAD"> F  </i>
   <i type="logical" name="LHFONE"> F  </i>
   <i type="logical" name="LRHFCALC"> F  </i>
   <i type="logical" name="LTHOMAS"> F  </i>
   <i type="logical" name="LMODELHF"> F  </i>
   <i name="ENCUT4O">     -1.00000000</i>
   <i type="int" name="EXXOEP">     0</i>
   <i type="int" name="FOURORBIT">     0</i>
   <i name="AEXX">      0.00000000</i>
   <i name="HFALPHA">      0.00000000</i>
   <i name="MCALPHA">      0.00000000</i>
   <i name="ALDAX">      1.00000000</i>
   <i name="AGGAX">      1.00000000</i>
   <i name="ALDAC">      1.00000000</i>
   <i name="AGGAC">      1.00000000</i>
   <i type="int" name="NKREDX">     1</i>
   <i type="int" name="NKREDY">     1</i>
   <i type="int" name="NKREDZ">     1</i>
   <i type="logical" name="SHIFTRED"> F  </i>
   <i type="logical" name="ODDONLY"> F  </i>
   <i type="logical" name="EVENONLY"> F  </i>
   <i type="int" name="LMAXFOCK">     0</i>
   <i type="int" name="NMAXFOCKAE">     0</i>
   <i type="logical" name="LFOCKAEDFT"> F  </i>
   <i name="HFSCREEN">      0.00000000</i>
   <i name="HFSCREENC">      0.00000000</i>
   <i type="int" name="NBANDSGWLOW">     0</i>
  </separator>
  <separator name="vdW DFT" >
   <i type="logical" name="LUSE_VDW"> F  </i>
   <i name="Zab_VDW">     -0.84910000</i>
   <i name="PARAM1">      0.12340000</i>
   <i name="PARAM2">      1.00000000</i>
   <i name="PARAM3">      0.00000000</i>
  </separator>
  <separator name="model GW" >
   <i type="int" name="MODEL_GW">     0</i>
   <i name="MODEL_EPS0">      7.68123389</i>
   <i name="MODEL_ALPHA">      1.00000000</i>
  </separator>
  <separator name="linear response parameters" >
   <i type="logical" name="LEPSILON"> F  </i>
   <i type="logical" name="LRPA"> F  </i>
   <i type="logical" name="LNABLA"> F  </i>
   <i type="logical" name="LVEL"> F  </i>
   <i type="int" name="KINTER">     0</i>
   <i name="CSHIFT">      0.10000000</i>
   <i name="OMEGAMAX">     -1.00000000</i>
   <i name="DEG_THRESHOLD">      0.00200000</i>
   <i name="RTIME">     -0.10000000</i>
   <i name="WPLASMAI">      0.00000000</i>
   <v name="DFIELD">      0.00000000      0.00000000      0.00000000</v>
   <v name="WPLASMA">      0.00000000      0.00000000      0.00000000      0.00000000      0.00000000      0.00000000      0.00000000      0.00000000      0.00000000</v>
  </separator>
  <separator name="orbital magnetization" >
   <i type="logical" name="NUCIND"> F  </i>
   <v name="MAGPOS">      0.00000000      0.00000000      0.00000000</v>
   <i type="logical" name="LNICSALL"> T  </i>
   <i type="logical" name="ORBITALMAG"> F  </i>
   <i type="logical" name="LMAGBLOCH"> F  </i>
   <i type="logical" name="LCHIMAG"> F  </i>
   <i type="logical" name="LGAUGE"> T  </i>
   <i type="int" name="MAGATOM">     0</i>
   <v name="MAGDIPOL">      0.00000000      0.00000000      0.00000000</v>
   <v name="AVECCONST">      0.00000000      0.00000000      0.00000000</v>
  </separator>
  <separator name="response functions" >
   <i type="logical" name="LADDER"> F  </i>
   <i type="logical" name="LRPAFORCE"> F  </i>
   <i type="logical" name="LFXC"> F  </i>
   <i type="logical" name="LHARTREE"> T  </i>
   <i type="int" name="IBSE">     0</i>
   <v type="int" name="KPOINT">    -1     0     0     0</v>
   <i type="logical" name="LTCTE"> F  </i>
   <i type="logical" name="LTETE"> F  </i>
   <i type="logical" name="LTRIPLET"> F  </i>
   <i type="logical" name="LFXCEPS"> F  </i>
   <i type="logical" name="LFXHEG"> F  </i>
   <i type="int" name="NATURALO">     2</i>
   <i type="logical" name="L2ORDER"> F  </i>
   <i type="logical" name="LMP2LT"> F  </i>
   <i type="logical" name="LUSEW"> F  </i>
   <i name="ENCUTGW">     -2.00000000</i>
   <i name="ENCUTGWSOFT">     -2.00000000</i>
   <i name="ENCUTLF">     -1.00000000</i>
   <i type="int" name="LMAXMP2">    -1</i>
   <i name="SCISSOR">      0.00000000</i>
   <i type="int" name="NOMEGA">     0</i>
   <i type="int" name="NOMEGAR">     0</i>
   <i type="int" name="NBANDSGW">    -1</i>
   <i type="int" name="NBANDSO">    -1</i>
   <i type="int" name="NBANDSV">    -1</i>
   <i type="int" name="NELM">   200</i>
   <i type="int" name="NELMHF">     1</i>
   <i type="int" name="DIM">     3</i>
   <i type="int" name="ANTIRES">     0</i>
   <i name="OMEGAMAX">    -30.00000000</i>
   <i name="OMEGAMIN">    -30.00000000</i>
   <i name="OMEGATL">   -200.00000000</i>
   <i type="int" name="OMEGAGRID">   140</i>
   <i name="CSHIFT">     -0.10000000</i>
   <i type="logical" name="SELFENERGY"> F  </i>
   <i type="logical" name="LSPECTRAL"> F  </i>
   <i type="logical" name="LSPECTRALGW"> F  </i>
   <i type="logical" name="LSINGLES"> F  </i>
   <i type="logical" name="LFERMIGW"> F  </i>
   <i type="logical" name="ODDONLYGW"> F  </i>
   <i type="logical" name="EVENONLYGW"> F  </i>
   <i type="int" name="NKREDLFX">     1</i>
   <i type="int" name="NKREDLFY">     1</i>
   <i type="int" name="NKREDLFZ">     1</i>
   <i type="int" name="MAXMEM">  2800</i>
   <i type="int" name="TELESCOPE">     0</i>
   <i type="int" name="TAUPAR">     1</i>
   <i type="int" name="OMEGAPAR">    -1</i>
   <i name="LAMBDA">      1.00000000</i>
  </separator>
  <separator name="External order field" >
   <i name="OFIELD_KAPPA">      0.00000000</i>
   <v name="OFIELD_K">      0.00000000      0.00000000      0.00000000</v>
   <i name="OFIELD_Q6_NEAR">      0.00000000</i>
   <i name="OFIELD_Q6_FAR">      0.00000000</i>
   <i name="OFIELD_A">      0.00000000</i>
  </separator>
 </parameters>
 <atominfo>
  <atoms>     288 </atoms>
  <types>       2 </types>
  <array name="atoms" >
   <dimension dim="1">ion</dimension>
   <field type="string">element</field>
   <field type="int">atomtype</field>
   <set>
    <rc><c>Fe</c><c>   1</c></rc>
    <rc><c>Fe</c><c>   1</c></rc>
    <rc><c>Fe</c><c>   1</c></rc>
    <rc><c>Fe</c><c>   1</c></rc>
    <rc><c>Fe</c><c>   1</c></rc>
    <rc><c>Fe</c><c>   1</c></rc>
    <rc><c>Fe</c><c>   1</c></rc>
    <rc><c>Fe</c><c>   1</c></rc>
    <rc><c>Fe</c><c>   1</c></rc>
    <rc><c>Fe</c><c>   1</c></rc>
    <rc><c>Fe</c><c>   1</c></rc>
    <rc><c>Fe</c><c>   1</c></rc>
    <rc><c>Fe</c><c>   1</c></rc>
    <rc><c>Fe</c><c>   1</c></rc>
    <rc><c>Fe</c><c>   1</c></rc>
    <rc><c>Fe</c><c>   1</c></rc>
    <rc><c>Fe</c><c>   1</c></rc>
    <rc><c>Fe</c><c>   1</c></rc>
    <rc><c>Fe</c><c>   1</c></rc>
    <rc><c>Fe</c><c>   1</c></rc>
    <rc><c>Fe</c><c>   1</c></rc>
    <rc><c>Fe</c><c>   1</c></rc>
    <rc><c>Fe</c><c>   1</c></rc>
    <rc><c>Fe</c><c>   1</c></rc>
    <rc><c>Fe</c><c>   1</c></rc>
    <rc><c>Fe</c><c>   1</c></rc>
    <rc><c>Fe</c><c>   1</c></rc>
    <rc><c>Fe</c><c>   1</c></rc>
    <rc><c>Fe</c><c>   1</c></rc>
    <rc><c>Fe</c><c>   1</c></rc>
    <rc><c>Fe</c><c>   1</c></rc>
    <rc><c>Fe</c><c>   1</c></rc>
    <rc><c>Fe</c><c>   1</c></rc>
    <rc><c>Fe</c><c>   1</c></rc>
    <rc><c>Fe</c><c>   1</c></rc>
    <rc><c>Fe</c><c>   1</c></rc>
    <rc><c>Fe</c><c>   1</c></rc>
    <rc><c>Fe</c><c>   1</c></rc>
    <rc><c>Fe</c><c>   1</c></rc>
    <rc><c>Fe</c><c>   1</c></rc>
    <rc><c>Fe</c><c>   1</c></rc>
    <rc><c>Fe</c><c>   1</c></rc>
    <rc><c>Fe</c><c>   1</c></rc>
    <rc><c>Fe</c><c>   1</c></rc>
    <rc><c>Fe</c><c>   1</c></rc>
    <rc><c>Fe</c><c>   1</c></rc>
    <rc><c>Fe</c><c>   1</c></rc>
    <rc><c>Fe</c><c>   1</c></rc>
    <rc><c>Fe</c><c>   1</c></rc>
    <rc><c>Fe</c><c>   1</c></rc>
    <rc><c>Fe</c><c>   1</c></rc>
    <rc><c>Fe</c><c>   1</c></rc>
    <rc><c>Fe</c><c>   1</c></rc>
    <rc><c>Fe</c><c>   1</c></rc>
    <rc><c>Fe</c><c>   1</c></rc>
    <rc><c>Fe</c><c>   1</c></rc>
    <rc><c>Fe</c><c>   1</c></rc>
    <rc><c>Fe</c><c>   1</c></rc>
    <rc><c>Fe</c><c>   1</c></rc>
    <rc><c>Fe</c><c>   1</c></rc>
    <rc><c>Fe</c><c>   1</c></rc>
    <rc><c>Fe</c><c>   1</c></rc>
    <rc><c>Fe</c><c>   1</c></rc>
    <rc><c>Fe</c><c>   1</c></rc>
    <rc><c>Fe</c><c>   1</c></rc>
    <rc><c>Fe</c><c>   1</c></rc>
    <rc><c>Fe</c><c>   1</c></rc>
    <rc><c>Fe</c><c>   1</c></rc>
    <rc><c>Fe</c><c>   1</c></rc>
    <rc><c>Fe</c><c>   1</c></rc>
    <rc><c>Fe</c><c>   1</c></rc>
    <rc><c>Fe</c><c>   1</c></rc>
    <rc><c>Fe</c><c>   1</c></rc>
    <rc><c>Fe</c><c>   1</c></rc>
    <rc><c>Fe</c><c>   1</c></rc>
    <rc><c>Fe</c><c>   1</c></rc>
    <rc><c>Fe</c><c>   1</c></rc>
    <rc><c>Fe</c><c>   1</c></rc>
    <rc><c>Fe</c><c>   1</c></rc>
    <rc><c>Fe</c><c>   1</c></rc>
    <rc><c>Fe</c><c>   1</c></rc>
    <rc><c>Fe</c><c>   1</c></rc>
    <rc><c>Fe</c><c>   1</c></rc>
    <rc><c>Fe</c><c>   1</c></rc>
    <rc><c>Fe</c><c>   1</c></rc>
    <rc><c>Fe</c><c>   1</c></rc>
    <rc><c>Fe</c><c>   1</c></rc>
    <rc><c>Fe</c><c>   1</c></rc>
    <rc><c>Fe</c><c>   1</c></rc>
    <rc><c>Fe</c><c>   1</c></rc>
    <rc><c>Fe</c><c>   1</c></rc>
    <rc><c>Fe</c><c>   1</c></rc>
    <rc><c>Fe</c><c>   1</c></rc>
    <rc><c>Fe</c><c>   1</c></rc>
    <rc><c>Fe</c><c>   1</c></rc>
    <rc><c>Fe</c><c>   1</c></rc>
    <rc><c>Fe</c><c>   1</c></rc>
    <rc><c>Fe</c><c>   1</c></rc>
    <rc><c>Fe</c><c>   1</c></rc>
    <rc><c>Fe</c><c>   1</c></rc>
    <rc><c>Fe</c><c>   1</c></rc>
    <rc><c>Fe</c><c>   1</c></rc>
    <rc><c>Fe</c><c>   1</c></rc>
    <rc><c>Fe</c><c>   1</c></rc>
    <rc><c>Fe</c><c>   1</c></rc>
    <rc><c>Fe</c><c>   1</c></rc>
    <rc><c>Fe</c><c>   1</c></rc>
    <rc><c>Fe</c><c>   1</c></rc>
    <rc><c>Fe</c><c>   1</c></rc>
    <rc><c>Fe</c><c>   1</c></rc>
    <rc><c>Fe</c><c>   1</c></rc>
    <rc><c>Fe</c><c>   1</c></rc>
    <rc><c>Fe</c><c>   1</c></rc>
    <rc><c>Fe</c><c>   1</c></rc>
    <rc><c>Fe</c><c>   1</c></rc>
    <rc><c>Fe</c><c>   1</c></rc>
    <rc><c>Fe</c><c>   1</c></rc>
    <rc><c>Fe</c><c>   1</c></rc>
    <rc><c>Fe</c><c>   1</c></rc>
    <rc><c>Fe</c><c>   1</c></rc>
    <rc><c>Fe</c><c>   1</c></rc>
    <rc><c>Fe</c><c>   1</c></rc>
    <rc><c>Fe</c><c>   1</c></rc>
    <rc><c>Fe</c><c>   1</c></rc>
    <rc><c>Fe</c><c>   1</c></rc>
    <rc><c>Fe</c><c>   1</c></rc>
    <rc><c>Fe</c><c>   1</c></rc>
    <rc><c>Fe</c><c>   1</c></rc>
    <rc><c>Fe</c><c>   1</c></rc>
    <rc><c>Fe</c><c>   1</c></rc>
    <rc><c>Fe</c><c>   1</c></rc>
    <rc><c>Fe</c><c>   1</c></rc>
    <rc><c>Fe</c><c>   1</c></rc>
    <rc><c>Fe</c><c>   1</c></rc>
    <rc><c>Fe</c><c>   1</c></rc>
    <rc><c>Fe</c><c>   1</c></rc>
    <rc><c>Fe</c><c>   1</c></rc>
    <rc><c>Fe</c><c>   1</c></rc>
    <rc><c>Fe</c><c>   1</c></rc>
    <rc><c>Fe</c><c>   1</c></rc>
    <rc><c>Fe</c><c>   1</c></rc>
    <rc><c>Fe</c><c>   1</c></rc>
    <rc><c>Fe</c><c>   1</c></rc>
    <rc><c>Fe</c><c>   1</c></rc>
    <rc><c>Fe</c><c>   1</c></rc>
    <rc><c>Fe</c><c>   1</c></rc>
    <rc><c>Fe</c><c>   1</c></rc>
    <rc><c>Fe</c><c>   1</c></rc>
    <rc><c>Fe</c><c>   1</c></rc>
    <rc><c>Fe</c><c>   1</c></rc>
    <rc><c>Fe</c><c>   1</c></rc>
    <rc><c>Fe</c><c>   1</c></rc>
    <rc><c>Fe</c><c>   1</c></rc>
    <rc><c>Fe</c><c>   1</c></rc>
    <rc><c>Fe</c><c>   1</c></rc>
    <rc><c>Fe</c><c>   1</c></rc>
    <rc><c>Fe</c><c>   1</c></rc>
    <rc><c>Fe</c><c>   1</c></rc>
    <rc><c>Fe</c><c>   1</c></rc>
    <rc><c>Fe</c><c>   1</c></rc>
    <rc><c>Fe</c><c>   1</c></rc>
    <rc><c>Fe</c><c>   1</c></rc>
    <rc><c>Fe</c><c>   1</c></rc>
    <rc><c>Fe</c><c>   1</c></rc>
    <rc><c>Fe</c><c>   1</c></rc>
    <rc><c>Fe</c><c>   1</c></rc>
    <rc><c>Fe</c><c>   1</c></rc>
    <rc><c>Fe</c><c>   1</c></rc>
    <rc><c>Fe</c><c>   1</c></rc>
    <rc><c>Fe</c><c>   1</c></rc>
    <rc><c>Fe</c><c>   1</c></rc>
    <rc><c>Fe</c><c>   1</c></rc>
    <rc><c>Fe</c><c>   1</c></rc>
    <rc><c>Fe</c><c>   1</c></rc>
    <rc><c>Fe</c><c>   1</c></rc>
    <rc><c>Fe</c><c>   1</c></rc>
    <rc><c>Fe</c><c>   1</c></rc>
    <rc><c>Fe</c><c>   1</c></rc>
    <rc><c>Fe</c><c>   1</c></rc>
    <rc><c>Fe</c><c>   1</c></rc>
    <rc><c>Fe</c><c>   1</c></rc>
    <rc><c>Fe</c><c>   1</c></rc>
    <rc><c>Fe</c><c>   1</c></rc>
    <rc><c>Fe</c><c>   1</c></rc>
    <rc><c>Fe</c><c>   1</c></rc>
    <rc><c>Fe</c><c>   1</c></rc>
    <rc><c>Fe</c><c>   1</c></rc>
    <rc><c>Fe</c><c>   1</c></rc>
    <rc><c>Fe</c><c>   1</c></rc>
    <rc><c>Fe</c><c>   1</c></rc>
    <rc><c>Fe</c><c>   1</c></rc>
    <rc><c>Fe</c><c>   1</c></rc>
    <rc><c>Fe</c><c>   1</c></rc>
    <rc><c>Fe</c><c>   1</c></rc>
    <rc><c>Fe</c><c>   1</c></rc>
    <rc><c>Fe</c><c>   1</c></rc>
    <rc><c>Fe</c><c>   1</c></rc>
    <rc><c>Fe</c><c>   1</c></rc>
    <rc><c>Fe</c><c>   1</c></rc>
    <rc><c>Fe</c><c>   1</c></rc>
    <rc><c>Fe</c><c>   1</c></rc>
    <rc><c>Fe</c><c>   1</c></rc>
    <rc><c>Fe</c><c>   1</c></rc>
    <rc><c>Fe</c><c>   1</c></rc>
    <rc><c>Fe</c><c>   1</c></rc>
    <rc><c>Fe</c><c>   1</c></rc>
    <rc><c>Fe</c><c>   1</c></rc>
    <rc><c>Fe</c><c>   1</c></rc>
    <rc><c>Fe</c><c>   1</c></rc>
    <rc><c>Fe</c><c>   1</c></rc>
    <rc><c>Fe</c><c>   1</c></rc>
    <rc><c>Fe</c><c>   1</c></rc>
    <rc><c>Fe</c><c>   1</c></rc>
    <rc><c>Fe</c><c>   1</c></rc>
    <rc><c>Fe</c><c>   1</c></rc>
    <rc><c>Fe</c><c>   1</c></rc>
    <rc><c>Fe</c><c>   1</c></rc>
    <rc><c>Fe</c><c>   1</c></rc>
    <rc><c>Fe</c><c>   1</c></rc>
    <rc><c>Fe</c><c>   1</c></rc>
    <rc><c>Fe</c><c>   1</c></rc>
    <rc><c>Fe</c><c>   1</c></rc>
    <rc><c>Fe</c><c>   1</c></rc>
    <rc><c>Fe</c><c>   1</c></rc>
    <rc><c>Fe</c><c>   1</c></rc>
    <rc><c>Fe</c><c>   1</c></rc>
    <rc><c>Fe</c><c>   1</c></rc>
    <rc><c>Fe</c><c>   1</c></rc>
    <rc><c>Fe</c><c>   1</c></rc>
    <rc><c>Fe</c><c>   1</c></rc>
    <rc><c>Fe</c><c>   1</c></rc>
    <rc><c>Fe</c><c>   1</c></rc>
    <rc><c>Fe</c><c>   1</c></rc>
    <rc><c>Fe</c><c>   1</c></rc>
    <rc><c>Fe</c><c>   1</c></rc>
    <rc><c>Fe</c><c>   1</c></rc>
    <rc><c>Fe</c><c>   1</c></rc>
    <rc><c>Fe</c><c>   1</c></rc>
    <rc><c>Fe</c><c>   1</c></rc>
    <rc><c>Fe</c><c>   1</c></rc>
    <rc><c>Fe</c><c>   1</c></rc>
    <rc><c>Fe</c><c>   1</c></rc>
    <rc><c>Fe</c><c>   1</c></rc>
    <rc><c>Fe</c><c>   1</c></rc>
    <rc><c>Fe</c><c>   1</c></rc>
    <rc><c>Fe</c><c>   1</c></rc>
    <rc><c>Fe</c><c>   1</c></rc>
    <rc><c>Fe</c><c>   1</c></rc>
    <rc><c>Fe</c><c>   1</c></rc>
    <rc><c>Fe</c><c>   1</c></rc>
    <rc><c>Fe</c><c>   1</c></rc>
    <rc><c>Fe</c><c>   1</c></rc>
    <rc><c>Fe</c><c>   1</c></rc>
    <rc><c>Fe</c><c>   1</c></rc>
    <rc><c>Fe</c><c>   1</c></rc>
    <rc><c>Fe</c><c>   1</c></rc>
    <rc><c>Fe</c><c>   1</c></rc>
    <rc><c>Fe</c><c>   1</c></rc>
    <rc><c>Fe</c><c>   1</c></rc>
    <rc><c>Fe</c><c>   1</c></rc>
    <rc><c>Fe</c><c>   1</c></rc>
    <rc><c>Fe</c><c>   1</c></rc>
    <rc><c>Fe</c><c>   1</c></rc>
    <rc><c>Fe</c><c>   1</c></rc>
    <rc><c>Fe</c><c>   1</c></rc>
    <rc><c>Fe</c><c>   1</c></rc>
    <rc><c>Fe</c><c>   1</c></rc>
    <rc><c>Fe</c><c>   1</c></rc>
    <rc><c>Fe</c><c>   1</c></rc>
    <rc><c>Fe</c><c>   1</c></rc>
    <rc><c>Fe</c><c>   1</c></rc>
    <rc><c>Fe</c><c>   1</c></rc>
    <rc><c>Fe</c><c>   1</c></rc>
    <rc><c>Fe</c><c>   1</c></rc>
    <rc><c>Fe</c><c>   1</c></rc>
    <rc><c>Fe</c><c>   1</c></rc>
    <rc><c>Fe</c><c>   1</c></rc>
    <rc><c>Fe</c><c>   1</c></rc>
    <rc><c>Fe</c><c>   1</c></rc>
    <rc><c>Fe</c><c>   1</c></rc>
    <rc><c>Fe</c><c>   1</c></rc>
    <rc><c>Mn</c><c>   2</c></rc>
    <rc><c>Mn</c><c>   2</c></rc>
    <rc><c>Mn</c><c>   2</c></rc>
    <rc><c>Mn</c><c>   2</c></rc>
    <rc><c>Mn</c><c>   2</c></rc>
    <rc><c>Mn</c><c>   2</c></rc>
    <rc><c>Mn</c><c>   2</c></rc>
   </set>
  </array>
  <array name="atomtypes" >
   <dimension dim="1">type</dimension>
   <field type="int">atomspertype</field>
   <field type="string">element</field>
   <field>mass</field>
   <field>valence</field>
   <field type="string">pseudopotential</field>
   <set>
    <rc><c> 281</c><c>Fe</c><c>     55.84700000</c><c>      8.00000000</c><c>  PAW_PBE Fe_GW 31Mar2010               </c></rc>
    <rc><c>   7</c><c>Mn</c><c>     54.93800000</c><c>      7.00000000</c><c>  PAW_PBE Mn_GW 31Mar2010               </c></rc>
   </set>
  </array>
 </atominfo>
 <structure name="initialpos" >
  <crystal>
   <varray name="basis" >
    <v>       9.72667804       0.00000000       0.00000000 </v>
    <v>       0.00000000       8.42355028       0.00000000 </v>
    <v>       0.00000000       0.00000000      45.00000000 </v>
   </varray>
   <i name="volume">   3686.99226691 </i>
   <varray name="rec_basis" >
    <v>       0.10281002       0.00000000       0.00000000 </v>
    <v>       0.00000000       0.11871479       0.00000000 </v>
    <v>       0.00000000       0.00000000       0.02222222 </v>
   </varray>
  </crystal>
  <varray name="positions" >
   <v>       0.05375952       0.70118207       0.21123582 </v>
   <v>       0.31818475       0.72375606       0.87625289 </v>
   <v>       0.68838301       0.95876460       0.61150827 </v>
   <v>       0.43836087       0.45835844       0.61157940 </v>
   <v>       0.44096332       0.28737334       0.25510115 </v>
   <v>       0.05860732       0.38855263       0.83354191 </v>
   <v>       0.30855914       0.88769134       0.83348531 </v>
   <v>       0.44701389       0.62630007       0.70040107 </v>
   <v>       0.05970841       0.21262665       0.74490210 </v>
   <v>       0.17884224       0.45136558       0.21135006 </v>
   <v>       0.56783230       0.21073931       0.47746575 </v>
   <v>       0.06653564       0.87508345       0.56688471 </v>
   <v>       0.56818346       0.22388219       0.87613763 </v>
   <v>       0.80916158       0.52805811       0.12393333 </v>
   <v>       0.42895322       0.95141808       0.21137751 </v>
   <v>       0.56665540       0.37498577       0.56684557 </v>
   <v>       0.81121869       0.04141048       0.38829759 </v>
   <v>       0.68172166       0.78890973       0.52244813 </v>
   <v>       0.44285891       0.46069472       0.47743374 </v>
   <v>       0.43384979       0.96255968       0.74476996 </v>
   <v>       0.44166895       0.62501670       0.56685974 </v>
   <v>       0.57155390       0.87651256       0.70055132 </v>
   <v>       0.30915741       0.02571674       0.12398605 </v>
   <v>       0.68998456       0.95889900       0.34410130 </v>
   <v>       0.68755753       0.78210167       0.12421619 </v>
   <v>       0.05295805       0.37374801       0.29955323 </v>
   <v>       0.68987980       0.46796507       0.87610526 </v>
   <v>       0.42874723       0.45126275       0.21149528 </v>
   <v>       0.80846560       0.37497073       0.43308636 </v>
   <v>       0.56351744       0.70857487       0.61156258 </v>
   <v>       0.55977128       0.54075967       0.65593414 </v>
   <v>       0.81771064       0.86182187       0.16663679 </v>
   <v>       0.56538729       0.53717530       0.25512601 </v>
   <v>       0.68995939       0.45925233       0.34398620 </v>
   <v>       0.19198416       0.61170411       0.16643835 </v>
   <v>       0.19457968       0.79946674       0.78885240 </v>
   <v>       0.44717202       0.12609964       0.70044025 </v>
   <v>       0.92801556       0.62356197       0.29958507 </v>
   <v>       0.31739419       0.22366553       0.87613863 </v>
   <v>       0.31654431       0.87469946       0.56684586 </v>
   <v>       0.81757507       0.22400089       0.87618613 </v>
   <v>       0.80969839       0.54075857       0.65582662 </v>
   <v>       0.55923584       0.52707536       0.12390670 </v>
   <v>       0.56926746       0.04995957       0.78896290 </v>
   <v>       0.19053464       0.28718774       0.25518324 </v>
   <v>       0.80877502       0.87495608       0.43301624 </v>
   <v>       0.57221006       0.37631322       0.70039511 </v>
   <v>       0.05726183       0.02662562       0.12413340 </v>
   <v>       0.30959619       0.54075017       0.65592009 </v>
   <v>       0.56438796       0.20860510       0.34392344 </v>
   <v>       0.18823260       0.95855376       0.61149996 </v>
   <v>       0.30292672       0.37388441       0.29961481 </v>
   <v>       0.43475652       0.79052019       0.65597473 </v>
   <v>       0.19494438       0.29882663       0.78881523 </v>
   <v>       0.06742393       0.36296562       0.16658816 </v>
   <v>       0.69700983       0.62631907       0.70043693 </v>
   <v>       0.31165177       0.54125695       0.38847208 </v>
   <v>       0.06750775       0.72340690       0.87620255 </v>
   <v>       0.93366609       0.63761491       0.83392284 </v>
   <v>       0.31964213       0.54966924       0.78891449 </v>
   <v>       0.30471114       0.20032129       0.21117524 </v>
   <v>       0.06792273       0.71067679       0.47747111 </v>
   <v>       0.55384475       0.20065014       0.21111724 </v>
   <v>       0.30969618       0.21240530       0.74493697 </v>
   <v>       0.07191685       0.37636470       0.70052106 </v>
   <v>       0.18323374       0.63754357       0.83356217 </v>
   <v>       0.06951273       0.04963150       0.78899299 </v>
   <v>       0.44167276       0.12501133       0.56691545 </v>
   <v>       0.93483857       0.29067650       0.65584745 </v>
   <v>       0.80411589       0.20113923       0.21123360 </v>
   <v>       0.92922858       0.95157001       0.21123826 </v>
   <v>       0.94159171       0.62503243       0.56686872 </v>
   <v>       0.80837005       0.38752359       0.83352426 </v>
   <v>       0.19714640       0.62615053       0.70033351 </v>
   <v>       0.80859703       0.88768152       0.83354090 </v>
   <v>       0.68493784       0.29070527       0.65603198 </v>
   <v>       0.31310014       0.20821890       0.61149059 </v>
   <v>       0.43454385       0.46273461       0.74487505 </v>
   <v>       0.43616588       0.79129896       0.38837658 </v>
   <v>       0.68449518       0.96264987       0.74487602 </v>
   <v>       0.80374077       0.70098913       0.21129393 </v>
   <v>       0.81358452       0.70864511       0.61156945 </v>
   <v>       0.43697511       0.78384755       0.12403079 </v>
   <v>       0.30968434       0.71211745       0.74481669 </v>
   <v>       0.32016714       0.04960299       0.78884693 </v>
   <v>       0.81127448       0.54150229       0.38827092 </v>
   <v>       0.68227912       0.28838928       0.52230663 </v>
   <v>       0.69501335       0.79932835       0.78888696 </v>
   <v>       0.19033767       0.78755584       0.25518774 </v>
   <v>       0.69168731       0.11255066       0.16664623 </v>
   <v>       0.69266230       0.96065547       0.47742384 </v>
   <v>       0.93967408       0.95860280       0.34397961 </v>
   <v>       0.80737147       0.03913842       0.52254877 </v>
   <v>       0.68380971       0.62476552       0.43307938 </v>
   <v>       0.43957086       0.45846874       0.34397284 </v>
   <v>       0.81041507       0.21182441       0.74460294 </v>
   <v>       0.43962103       0.96804051       0.87609037 </v>
   <v>       0.56664523       0.87490585       0.56684772 </v>
   <v>       0.80921513       0.02809934       0.12396869 </v>
   <v>       0.42779911       0.62423219       0.29948306 </v>
   <v>       0.81665464       0.72393180       0.87636335 </v>
   <v>       0.68809323       0.45838976       0.61149535 </v>
   <v>       0.55854211       0.38768468       0.83348644 </v>
   <v>       0.80312334       0.37365223       0.29948463 </v>
   <v>       0.18623560       0.29117148       0.38838070 </v>
   <v>       0.81991505       0.54961234       0.78893333 </v>
   <v>       0.18235216       0.78924112       0.52250975 </v>
   <v>       0.30294790       0.87379137       0.29952022 </v>
   <v>       0.17831362       0.95114067       0.21128461 </v>
   <v>       0.18452404       0.46262283       0.74498387 </v>
   <v>       0.43250714       0.28843566       0.52226402 </v>
   <v>       0.06467904       0.70877824       0.34399964 </v>
   <v>       0.18485537       0.79043561       0.65591410 </v>
   <v>       0.44467810       0.79927510       0.78884718 </v>
   <v>       0.68339694       0.12507388       0.43302765 </v>
   <v>       0.93207995       0.78869965       0.52237080 </v>
   <v>       0.69178525       0.61270580       0.16671358 </v>
   <v>       0.93340962       0.12497542       0.43312724 </v>
   <v>       0.93416208       0.46280804       0.74493681 </v>
   <v>       0.18994914       0.45869079       0.34403195 </v>
   <v>       0.56994735       0.54994111       0.78901282 </v>
   <v>       0.56675254       0.36252362       0.16646430 </v>
   <v>       0.56460231       0.70890228       0.34390568 </v>
   <v>       0.55290486       0.37378912       0.29953558 </v>
   <v>       0.18955490       0.46802001       0.87608768 </v>
   <v>       0.19171549       0.11164299       0.16642678 </v>
   <v>       0.44466078       0.29918647       0.78883146 </v>
   <v>       0.69107019       0.78757071       0.25536277 </v>
   <v>       0.93373003       0.13765708       0.83354063 </v>
   <v>       0.44259151       0.96054108       0.47730631 </v>
   <v>       0.56751547       0.72466691       0.87623690 </v>
   <v>       0.19269860       0.46071481       0.47744361 </v>
   <v>       0.93446691       0.28196848       0.12421167 </v>
   <v>       0.31143956       0.04143579       0.38840681 </v>
   <v>       0.06013443       0.04043271       0.65602094 </v>
   <v>       0.55854210       0.37464014       0.43305992 </v>
   <v>       0.68404206       0.46275396       0.74497594 </v>
   <v>       0.55982118       0.21249384       0.74487471 </v>
   <v>       0.94715725       0.12627650       0.70035203 </v>
   <v>       0.55966028       0.04061123       0.65584668 </v>
   <v>       0.55692942       0.53913698       0.52248014 </v>
   <v>       0.17793553       0.12383602       0.29956060 </v>
   <v>       0.44169354       0.11057673       0.16645829 </v>
   <v>       0.67759501       0.62403850       0.29952121 </v>
   <v>       0.92768342       0.12355001       0.29956167 </v>
   <v>       0.81660594       0.37501902       0.56689444 </v>
   <v>       0.05293614       0.87381971       0.29952060 </v>
   <v>       0.19166300       0.62501225       0.56690594 </v>
   <v>       0.94468304       0.79960727       0.78883342 </v>
   <v>       0.30843587       0.38737640       0.83353703 </v>
   <v>       0.93972426       0.46848948       0.87611100 </v>
   <v>       0.43367626       0.63769017       0.83352031 </v>
   <v>       0.06472972       0.20858526       0.34390479 </v>
   <v>       0.18972449       0.96797696       0.87610686 </v>
   <v>       0.93462623       0.78188093       0.12418117 </v>
   <v>       0.68659127       0.79147540       0.38846067 </v>
   <v>       0.93479061       0.79068868       0.65591912 </v>
   <v>       0.94145466       0.11225582       0.16647273 </v>
   <v>       0.43504323       0.29064987       0.65608688 </v>
   <v>       0.05463631       0.20078507       0.21126103 </v>
   <v>       0.67883596       0.95135635       0.21126656 </v>
   <v>       0.17823802       0.62407453       0.29950179 </v>
   <v>       0.82205340       0.87616071       0.70044087 </v>
   <v>       0.94680745       0.62643892       0.70051519 </v>
   <v>       0.19714413       0.12619497       0.70034252 </v>
   <v>       0.94301696       0.46061266       0.47741280 </v>
   <v>       0.81339334       0.20846431       0.61153551 </v>
   <v>       0.18342206       0.62472913       0.43313943 </v>
   <v>       0.42793110       0.12375895       0.29946318 </v>
   <v>       0.67804024       0.12378922       0.29950485 </v>
   <v>       0.56179807       0.54153417       0.38847240 </v>
   <v>       0.81431831       0.20860928       0.34390061 </v>
   <v>       0.43972783       0.46794277       0.87595480 </v>
   <v>       0.55846910       0.88753248       0.83348701 </v>
   <v>       0.31778195       0.21060911       0.47742081 </v>
   <v>       0.19275112       0.96060866       0.47740913 </v>
   <v>       0.05859853       0.88771022       0.83351194 </v>
   <v>       0.05714367       0.53907041       0.52233197 </v>
   <v>       0.94264198       0.96059091       0.47733783 </v>
   <v>       0.06329893       0.70830932       0.61159287 </v>
   <v>       0.55732030       0.03866255       0.52233933 </v>
   <v>       0.69499262       0.29913190       0.78877748 </v>
   <v>       0.81757229       0.36185826       0.16669333 </v>
   <v>       0.43359191       0.12482852       0.43300309 </v>
   <v>       0.06783679       0.21068395       0.47739958 </v>
   <v>       0.30972866       0.04065330       0.65590635 </v>
   <v>       0.43230590       0.78895727       0.52241131 </v>
   <v>       0.18363838       0.13780249       0.83360096 </v>
   <v>       0.18557662       0.28312232       0.12433047 </v>
   <v>       0.93989222       0.45897086       0.34407241 </v>
   <v>       0.56690856       0.86282531       0.16646059 </v>
   <v>       0.30370073       0.70070282       0.21128167 </v>
   <v>       0.94125438       0.61235960       0.16653265 </v>
   <v>       0.18834045       0.45869623       0.61154735 </v>
   <v>       0.07228482       0.87647154       0.70035640 </v>
   <v>       0.05979788       0.54064143       0.65589610 </v>
   <v>       0.30820621       0.52586571       0.12395061 </v>
   <v>       0.93630313       0.79109558       0.38848066 </v>
   <v>       0.94497293       0.29867995       0.78877699 </v>
   <v>       0.18463234       0.29062284       0.65592568 </v>
   <v>       0.93826606       0.95845359       0.61150713 </v>
   <v>       0.80996500       0.71212109       0.74486034 </v>
   <v>       0.69084031       0.28782655       0.25517482 </v>
   <v>       0.05934407       0.71230332       0.74498149 </v>
   <v>       0.67884010       0.45142262       0.21124539 </v>
   <v>       0.81785063       0.21089271       0.47740216 </v>
   <v>       0.56769913       0.71069459       0.47741352 </v>
   <v>       0.06780427       0.86331212       0.16662473 </v>
   <v>       0.93241628       0.28847269       0.52241908 </v>
   <v>       0.68448871       0.79039839       0.65587948 </v>
   <v>       0.05850304       0.87481619       0.43315678 </v>
   <v>       0.06822181       0.22322548       0.87617059 </v>
   <v>       0.80975360       0.04062630       0.65592437 </v>
   <v>       0.55973974       0.02690629       0.12391326 </v>
   <v>       0.30863740       0.37494829       0.43289503 </v>
   <v>       0.31660534       0.37496334       0.56684964 </v>
   <v>       0.31763066       0.71046221       0.47736760 </v>
   <v>       0.05706663       0.03917705       0.52248211 </v>
   <v>       0.32203130       0.87634680       0.70051102 </v>
   <v>       0.06558711       0.53744827       0.25515865 </v>
   <v>       0.68345188       0.13772165       0.83349371 </v>
   <v>       0.81495287       0.03768988       0.25512804 </v>
   <v>       0.18372015       0.12504729       0.43308209 </v>
   <v>       0.69739428       0.12624857       0.70043774 </v>
   <v>       0.18229209       0.28902689       0.52250808 </v>
   <v>       0.44049946       0.78791526       0.25524676 </v>
   <v>       0.44143701       0.61064891       0.16647153 </v>
   <v>       0.06350873       0.20857749       0.61155210 </v>
   <v>       0.18646975       0.79065365       0.38826783 </v>
   <v>       0.30737924       0.53890507       0.52247081 </v>
   <v>       0.82184546       0.37653802       0.70025455 </v>
   <v>       0.68643885       0.29126092       0.38840622 </v>
   <v>       0.19161216       0.12502756       0.56687978 </v>
   <v>       0.68981324       0.96843791       0.87609362 </v>
   <v>       0.69156572       0.12494803       0.56689937 </v>
   <v>       0.44002927       0.95893695       0.34404543 </v>
   <v>       0.18391295       0.96267655       0.74475959 </v>
   <v>       0.94047568       0.78744168       0.25508020 </v>
   <v>       0.55853593       0.87503449       0.43311024 </v>
   <v>       0.30845072       0.87519706       0.43307960 </v>
   <v>       0.80727313       0.53924751       0.52248165 </v>
   <v>       0.92888218       0.45152361       0.21132220 </v>
   <v>       0.31543756       0.53783263       0.25518148 </v>
   <v>       0.56136097       0.04152405       0.38842562 </v>
   <v>       0.93832436       0.45846306       0.61157311 </v>
   <v>       0.06146798       0.04139944       0.38844703 </v>
   <v>       0.06148084       0.54168015       0.38842873 </v>
   <v>       0.43622147       0.29106702       0.38844314 </v>
   <v>       0.69287849       0.46071882       0.47746520 </v>
   <v>       0.06659858       0.37504704       0.56689112 </v>
   <v>       0.55371983       0.70082976       0.21113826 </v>
   <v>       0.94076546       0.28755092       0.25521629 </v>
   <v>       0.81931736       0.04982096       0.78905371 </v>
   <v>       0.18953523       0.95876979       0.34392896 </v>
   <v>       0.55329210       0.87351764       0.29952976 </v>
   <v>       0.05853629       0.37510425       0.43296635 </v>
   <v>       0.31518543       0.70908185       0.34404286 </v>
   <v>       0.31451742       0.20896340       0.34388632 </v>
   <v>       0.94161242       0.12495077       0.56679050 </v>
   <v>       0.43855756       0.95867354       0.61154567 </v>
   <v>       0.56526679       0.03746987       0.25504624 </v>
   <v>       0.18612285       0.78285853       0.12428307 </v>
   <v>       0.06560418       0.03754727       0.25519908 </v>
   <v>       0.69165057       0.62498420       0.56690036 </v>
   <v>       0.05704500       0.52614264       0.12416169 </v>
   <v>       0.30702780       0.03896742       0.52232917 </v>
   <v>       0.68755639       0.28208690       0.12422055 </v>
   <v>       0.81771419       0.71079691       0.47744234 </v>
   <v>       0.43344958       0.13766523       0.83350630 </v>
   <v>       0.32231758       0.37641028       0.70039484 </v>
   <v>       0.68361752       0.63772219       0.83350115 </v>
   <v>       0.55985900       0.71209232       0.74487294 </v>
   <v>       0.93697707       0.29151434       0.38849931 </v>
   <v>       0.93979143       0.96840594       0.87612560 </v>
   <v>       0.56301493       0.20823243       0.61136988 </v>
   <v>       0.81669601       0.87500087       0.56686873 </v>
   <v>       0.80312317       0.87337247       0.29948292 </v>
   <v>       0.31518179       0.03760927       0.25515309 </v>
   <v>       0.43684351       0.28347023       0.12408873 </v>
   <v>       0.31351211       0.70852148       0.61154520 </v>
   <v>       0.43364257       0.62490673       0.43299695 </v>
   <v>       0.93269708       0.62540047       0.43323513 </v>
   <v>       0.31824258       0.86260900       0.16576440 </v>
   <v>       0.07061187       0.54943985       0.78876806 </v>
   <v>       0.81516594       0.70802013       0.34397445 </v>
   <v>       0.31858687       0.36311272       0.16581334 </v>
   <v>       0.93331956       0.96222133       0.74467416 </v>
   <v>       0.81584522       0.53767469       0.25552727 </v>
  </varray>
 </structure>
 <calculation>
  <scstep>
   <time name="dav">   53.93   53.94</time>
   <time name="total">   54.07   54.13</time>
   <energy>
    <i name="alphaZ">  16403.00255340 </i>
    <i name="ewald"> 716084.99095033 </i>
    <i name="hartreedc">-907754.18280422 </i>
    <i name="XCdc">  -6389.69605831 </i>
    <i name="pawpsdc"> 163151.95320885 </i>
    <i name="pawaedc">-160818.84594568 </i>
    <i name="eentropy">     -1.05298825 </i>
    <i name="bandstr">  38625.78537838 </i>
    <i name="atom"> 169914.59583762 </i>
    <i name="e_fr_energy">  29216.55013212 </i>
    <i name="e_wo_entrp">  29217.60312037 </i>
    <i name="e_0_energy">  29217.07662625 </i>
   </energy>
  </scstep>
  <scstep>
   <time name="dav">   53.38   53.41</time>
   <time name="total">   53.39   53.41</time>
   <energy>
    <i name="e_fr_energy">   1193.63364659 </i>
    <i name="e_wo_entrp">   1195.10523834 </i>
    <i name="e_0_energy">   1194.36944246 </i>
   </energy>
  </scstep>
  <scstep>
   <time name="dav">   70.32   70.36</time>
   <time name="total">   70.33   70.37</time>
   <energy>
    <i name="e_fr_energy">  -1939.51331802 </i>
    <i name="e_wo_entrp">  -1935.94386100 </i>
    <i name="e_0_energy">  -1937.72858951 </i>
   </energy>
  </scstep>
  <scstep>
   <time name="dav">   88.06   88.10</time>
   <time name="total">   88.06   88.10</time>
   <energy>
    <i name="e_fr_energy">  -2606.48016302 </i>
    <i name="e_wo_entrp">  -2602.85944646 </i>
    <i name="e_0_energy">  -2604.66980474 </i>
   </energy>
  </scstep>
  <scstep>
   <time name="dav">   84.06   84.11</time>
   <time name="total">   86.08   86.13</time>
   <energy>
    <i name="e_fr_energy">  -2726.90025421 </i>
    <i name="e_wo_entrp">  -2723.11094283 </i>
    <i name="e_0_energy">  -2725.00559852 </i>
   </energy>
  </scstep>
  <scstep>
   <time name="diag">    8.22    8.22</time>
   <time name="diis">   37.45   37.45</time>
   <time name="orth">    2.29    2.29</time>
   <time name="total">   50.19   50.24</time>
   <energy>
    <i name="e_fr_energy">  -5436.76514919 </i>
    <i name="e_wo_entrp">  -5433.34486101 </i>
    <i name="e_0_energy">  -5435.05500510 </i>
   </energy>
  </scstep>
  <scstep>
   <time name="diag">    8.26    8.26</time>
   <time name="diis">   29.74   29.74</time>
   <time name="orth">    2.28    2.28</time>
   <time name="total">   42.33   42.38</time>
[...]
       <r>     5.8799     0.0000  2772.0000 </r>
       <r>     5.9227     0.0000  2772.0000 </r>
       <r>     5.9655     0.0000  2772.0000 </r>
       <r>     6.0083     0.0000  2772.0000 </r>
       <r>     6.0510     0.0000  2772.0000 </r>
       <r>     6.0938     0.0000  2772.0000 </r>
       <r>     6.1366     0.0000  2772.0000 </r>
       <r>     6.1794     0.0000  2772.0000 </r>
       <r>     6.2222     0.0000  2772.0000 </r>
       <r>     6.2650     0.0000  2772.0000 </r>
       <r>     6.3078     0.0000  2772.0000 </r>
       <r>     6.3506     0.0000  2772.0000 </r>
       <r>     6.3934     0.0000  2772.0000 </r>
       <r>     6.4362     0.0000  2772.0000 </r>
       <r>     6.4790     0.0000  2772.0000 </r>
       <r>     6.5218     0.0000  2772.0000 </r>
       <r>     6.5646     0.0000  2772.0000 </r>
       <r>     6.6074     0.0000  2772.0000 </r>
       <r>     6.6502     0.0000  2772.0000 </r>
       <r>     6.6929     0.0000  2772.0000 </r>
       <r>     6.7357     0.0000  2772.0000 </r>
       <r>     6.7785     0.0000  2772.0000 </r>
       <r>     6.8213     0.0000  2772.0000 </r>
      </set>
     </set>
    </array>
   </total>
  </dos>
 </calculation>
 <structure name="finalpos" >
  <crystal>
   <varray name="basis" >
    <v>       9.72667804       0.00000000       0.00000000 </v>
    <v>       0.00000000       8.42355028       0.00000000 </v>
    <v>       0.00000000       0.00000000      45.00000000 </v>
   </varray>
   <i name="volume">   3686.99226691 </i>
   <varray name="rec_basis" >
    <v>       0.10281002       0.00000000       0.00000000 </v>
    <v>       0.00000000       0.11871479       0.00000000 </v>
    <v>       0.00000000       0.00000000       0.02222222 </v>
   </varray>
  </crystal>
  <varray name="positions" >
   <v>       0.05796035       0.70074125       0.21105574 </v>
   <v>       0.31593726       0.72043887       0.87572038 </v>
   <v>       0.68836404       0.95800447       0.61140462 </v>
   <v>       0.43848318       0.45799082       0.61143395 </v>
   <v>       0.43634374       0.28671056       0.25553878 </v>
   <v>       0.06093832       0.38671628       0.83415951 </v>
   <v>       0.31124629       0.88669677       0.83425628 </v>
   <v>       0.44224154       0.62650920       0.70040856 </v>
   <v>       0.06368809       0.21333533       0.74450517 </v>
   <v>       0.18226186       0.45137511       0.21127626 </v>
   <v>       0.56385340       0.20892254       0.47782680 </v>
   <v>       0.06422216       0.87467858       0.56684150 </v>
   <v>       0.56572088       0.21986303       0.87567618 </v>
   <v>       0.81007497       0.53033152       0.12453102 </v>
   <v>       0.43317781       0.95118036       0.21116572 </v>
   <v>       0.56416731       0.37464766       0.56678589 </v>
   <v>       0.81173725       0.04206792       0.38840632 </v>
   <v>       0.68618797       0.79074741       0.52216574 </v>
   <v>       0.43884086       0.45902896       0.47780134 </v>
   <v>       0.43800734       0.96280033       0.74449265 </v>
   <v>       0.43899418       0.62458731       0.56683044 </v>
   <v>       0.56743755       0.87649053       0.70033916 </v>
   <v>       0.31067168       0.03105161       0.12412749 </v>
   <v>       0.68647308       0.95817047       0.34414116 </v>
   <v>       0.68779714       0.77971219       0.12463199 </v>
   <v>       0.05773101       0.37332411       0.29961315 </v>
   <v>       0.68888984       0.47133240       0.87546641 </v>
   <v>       0.43306149       0.45148464       0.21115810 </v>
   <v>       0.81104165       0.37467525       0.43312091 </v>
   <v>       0.56330705       0.70805520       0.61149620 </v>
   <v>       0.56296410       0.54121240       0.65578019 </v>
   <v>       0.81446262       0.86381796       0.16602202 </v>
   <v>       0.56082636       0.53726445       0.25542677 </v>
   <v>       0.68624606       0.45805815       0.34406656 </v>
   <v>       0.18839030       0.61258238       0.16617189 </v>
   <v>       0.19178057       0.79930651       0.78873080 </v>
   <v>       0.44252662       0.12655449       0.70040957 </v>
   <v>       0.93297940       0.62346814       0.29969160 </v>
   <v>       0.31538356       0.21996672       0.87569836 </v>
   <v>       0.31399792       0.87479997       0.56677384 </v>
   <v>       0.81530569       0.21998290       0.87568943 </v>
   <v>       0.81282466       0.54170197       0.65575603 </v>
   <v>       0.56008005       0.52946811       0.12446859 </v>
   <v>       0.56688246       0.04949047       0.78896761 </v>
   <v>       0.18671380       0.28697784       0.25547747 </v>
   <v>       0.81074743       0.87529466       0.43304028 </v>
   <v>       0.56715349       0.37649313       0.70046202 </v>
   <v>       0.06122835       0.02924302       0.12439974 </v>
   <v>       0.31309325       0.54113342       0.65578952 </v>
   <v>       0.56142480       0.20809617       0.34418659 </v>
   <v>       0.18838632       0.95788892       0.61140558 </v>
   <v>       0.30760929       0.37375664       0.29958853 </v>
   <v>       0.43795342       0.79162560       0.65579967 </v>
   <v>       0.19163701       0.29856761       0.78888124 </v>
   <v>       0.06400045       0.36368736       0.16610494 </v>
   <v>       0.69211774       0.62664933       0.70035781 </v>
   <v>       0.31156024       0.54173740       0.38840939 </v>
   <v>       0.06537728       0.71987298       0.87586301 </v>
   <v>       0.93631745       0.63683478       0.83430222 </v>
   <v>       0.31736906       0.54981753       0.78896606 </v>
   <v>       0.30723282       0.20037058       0.21108602 </v>
   <v>       0.06402082       0.70907717       0.47791557 </v>
   <v>       0.55762127       0.20095713       0.21109716 </v>
   <v>       0.31367564       0.21348039       0.74439171 </v>
   <v>       0.06726857       0.37696641       0.70039049 </v>
   <v>       0.18622611       0.63681879       0.83406382 </v>
   <v>       0.06679320       0.04918022       0.78893563 </v>
   <v>       0.43902221       0.12463487       0.56678459 </v>
   <v>       0.93810720       0.29172661       0.65571290 </v>
   <v>       0.80755626       0.20141786       0.21111399 </v>
   <v>       0.93250252       0.95160721       0.21126878 </v>
   <v>       0.93916278       0.62478198       0.56677654 </v>
   <v>       0.81092999       0.38669176       0.83421140 </v>
   <v>       0.19209358       0.62662656       0.70038663 </v>
   <v>       0.81112312       0.88663362       0.83428533 </v>
   <v>       0.68806612       0.29138643       0.65580799 </v>
   <v>       0.31356482       0.20806459       0.61149072 </v>
   <v>       0.43819160       0.46274621       0.74439982 </v>
   <v>       0.43658684       0.79177756       0.38846249 </v>
   <v>       0.68767463       0.96282309       0.74450433 </v>
   <v>       0.80735536       0.70101135       0.21110816 </v>
   <v>       0.81322512       0.70801515       0.61142050 </v>
   <v>       0.43713279       0.77927594       0.12428278 </v>
   <v>       0.31313627       0.71298714       0.74441749 </v>
   <v>       0.31715991       0.04946303       0.78898292 </v>
   <v>       0.81167884       0.54138473       0.38849953 </v>
   <v>       0.68628708       0.29097690       0.52212644 </v>
   <v>       0.69192060       0.79952878       0.78890972 </v>
   <v>       0.18672125       0.78765740       0.25553122 </v>
   <v>       0.68900054       0.11353732       0.16616741 </v>
   <v>       0.68867539       0.95917704       0.47789642 </v>
   <v>       0.93697497       0.95847821       0.34414331 </v>
   <v>       0.81089780       0.04023684       0.52210291 </v>
   <v>       0.68545176       0.62513939       0.43306445 </v>
   <v>       0.43704205       0.45819956       0.34411445 </v>
   <v>       0.81324765       0.21343729       0.74449278 </v>
   <v>       0.43908110       0.97152181       0.87549117 </v>
   <v>       0.56411700       0.87453558       0.56676495 </v>
   <v>       0.81042369       0.02983184       0.12452139 </v>
   <v>       0.43260301       0.62315128       0.29970764 </v>
   <v>       0.81522362       0.72045815       0.87581177 </v>
   <v>       0.68831451       0.45796805       0.61141704 </v>
   <v>       0.56112422       0.38689681       0.83409444 </v>
   <v>       0.80736454       0.37332234       0.29970122 </v>
   <v>       0.18659826       0.29169895       0.38838728 </v>
   <v>       0.81652614       0.54953818       0.78907623 </v>
   <v>       0.18629956       0.79062904       0.52221099 </v>
   <v>       0.30761755       0.87348119       0.29964151 </v>
   <v>       0.18252639       0.95175687       0.21128635 </v>
   <v>       0.18852127       0.46284045       0.74442896 </v>
   <v>       0.43599995       0.29088692       0.52210624 </v>
   <v>       0.06242600       0.70841833       0.34424084 </v>
   <v>       0.18817388       0.79121922       0.65570736 </v>
   <v>       0.44172862       0.79950334       0.78879058 </v>
   <v>       0.68548085       0.12487338       0.43302548 </v>
   <v>       0.93628359       0.79062200       0.52216546 </v>
   <v>       0.68890769       0.61329633       0.16607942 </v>
   <v>       0.93618611       0.12495237       0.43301229 </v>
   <v>       0.93836410       0.46263823       0.74444075 </v>
   <v>       0.18682141       0.45790335       0.34412458 </v>
   <v>       0.56719257       0.54930916       0.78899211 </v>
   <v>       0.56515489       0.36392907       0.16580566 </v>
   <v>       0.56114377       0.70840067       0.34429956 </v>
   <v>       0.55793779       0.37351616       0.29958267 </v>
   <v>       0.18889450       0.47138838       0.87557561 </v>
   <v>       0.18877172       0.11267803       0.16616064 </v>
   <v>       0.44176658       0.29894480       0.78884270 </v>
   <v>       0.68590733       0.78707807       0.25546508 </v>
   <v>       0.93674153       0.13667988       0.83412220 </v>
   <v>       0.43887008       0.95887700       0.47782254 </v>
   <v>       0.56536994       0.72025698       0.87570275 </v>
   <v>       0.18871461       0.45905464       0.47783096 </v>
   <v>       0.93626058       0.27964612       0.12455446 </v>
   <v>       0.31133132       0.04173443       0.38843864 </v>
   <v>       0.06289755       0.04109663       0.65577406 </v>
   <v>       0.56103867       0.37486587       0.43300657 </v>
   <v>       0.68766172       0.46254934       0.74446763 </v>
   <v>       0.56360697       0.21354288       0.74441282 </v>
   <v>       0.94244826       0.12700872       0.70038070 </v>
   <v>       0.56306637       0.04129751       0.65580133 </v>
   <v>       0.56132132       0.54065557       0.52208274 </v>
   <v>       0.18252067       0.12328025       0.29961706 </v>
   <v>       0.43845903       0.11237432       0.16601025 </v>
   <v>       0.68186163       0.62320713       0.29966065 </v>
   <v>       0.93259511       0.12314544       0.29965938 </v>
   <v>       0.81405752       0.37476547       0.56683035 </v>
   <v>       0.05765872       0.87333416       0.29963219 </v>
   <v>       0.18902342       0.62468613       0.56687937 </v>
   <v>       0.94111921       0.79916797       0.78892025 </v>
   <v>       0.31131686       0.38683043       0.83420418 </v>
   <v>       0.93924016       0.47160083       0.87555187 </v>
   <v>       0.43656554       0.63711708       0.83412807 </v>
   <v>       0.06208741       0.20824752       0.34423062 </v>
   <v>       0.18886680       0.97111932       0.87549684 </v>
   <v>       0.93637584       0.77968747       0.12457139 </v>
   <v>       0.68655227       0.79172898       0.38846873 </v>
   <v>       0.93801917       0.79150498       0.65578213 </v>
   <v>       0.93865570       0.11373467       0.16622979 </v>
   <v>       0.43779037       0.29148793       0.65583174 </v>
   <v>       0.05810552       0.20126855       0.21109751 </v>
   <v>       0.68271018       0.95143086       0.21126723 </v>
   <v>       0.18259677       0.62324083       0.29967578 </v>
   <v>       0.81703375       0.87663613       0.70034757 </v>
   <v>       0.94244736       0.62677072       0.70040983 </v>
   <v>       0.19226175       0.12696445       0.70040289 </v>
   <v>       0.93891833       0.45890670       0.47785286 </v>
   <v>       0.81321286       0.20799210       0.61142567 </v>
   <v>       0.18641582       0.62526492       0.43303758 </v>
   <v>       0.43257245       0.12335601       0.29966194 </v>
   <v>       0.68241202       0.12324253       0.29963673 </v>
   <v>       0.56159771       0.54166926       0.38843016 </v>
   <v>       0.81168710       0.20796461       0.34432832 </v>
   <v>       0.43915807       0.47149438       0.87548045 </v>
   <v>       0.56121575       0.88663887       0.83425060 </v>
   <v>       0.31381788       0.20916218       0.47781869 </v>
   <v>       0.18875937       0.95893518       0.47782430 </v>
   <v>       0.06097258       0.88677128       0.83420715 </v>
   <v>       0.06117973       0.54073917       0.52213846 </v>
   <v>       0.93891304       0.95890716       0.47785161 </v>
   <v>       0.06340080       0.70803281       0.61140516 </v>
   <v>       0.56100179       0.04088386       0.52207891 </v>
   <v>       0.69198077       0.29884394       0.78877430 </v>
   <v>       0.81449001       0.36391079       0.16606607 </v>
   <v>       0.43563176       0.12496091       0.43302924 </v>
   <v>       0.06387163       0.20888012       0.47783391 </v>
   <v>       0.31318183       0.04130879       0.65577378 </v>
   <v>       0.43592447       0.79063098       0.52208952 </v>
   <v>       0.18670024       0.13678212       0.83411922 </v>
   <v>       0.18616248       0.27883460       0.12442897 </v>
   <v>       0.93685742       0.45790356       0.34418984 </v>
   <v>       0.56550691       0.86380667       0.16587253 </v>
   <v>       0.30761451       0.70019189       0.21113678 </v>
   <v>       0.93816559       0.61333848       0.16621401 </v>
   <v>       0.18835944       0.45788466       0.61141234 </v>
   <v>       0.06724069       0.87675008       0.70025801 </v>
   <v>       0.06296041       0.54143793       0.65588189 </v>
   <v>       0.31075867       0.53083715       0.12412478 </v>
   <v>       0.93656819       0.79213400       0.38849768 </v>
   <v>       0.94154943       0.29879374       0.78881912 </v>
   <v>       0.18798011       0.29153079       0.65582352 </v>
   <v>       0.93845254       0.95797052       0.61147842 </v>
   <v>       0.81349441       0.71304050       0.74454395 </v>
   <v>       0.68617100       0.28722917       0.25551830 </v>
   <v>       0.06391050       0.71308878       0.74442878 </v>
   <v>       0.68267162       0.45137878       0.21127293 </v>
   <v>       0.81378428       0.20896822       0.47780743 </v>
   <v>       0.56375471       0.70909270       0.47788477 </v>
   <v>       0.06357885       0.86372477       0.16604338 </v>
   <v>       0.93608184       0.29071577       0.52217256 </v>
   <v>       0.68775794       0.79143088       0.65578984 </v>
   <v>       0.06120734       0.87523488       0.43309555 </v>
   <v>       0.06556195       0.21948196       0.87579391 </v>
   <v>       0.81300868       0.04122731       0.65577191 </v>
   <v>       0.56018232       0.02952756       0.12441530 </v>
   <v>       0.31078314       0.37463335       0.43307419 </v>
   <v>       0.31415065       0.37471869       0.56679203 </v>
   <v>       0.31397833       0.70910316       0.47783223 </v>
   <v>       0.06128750       0.04037613       0.52203036 </v>
   <v>       0.31713295       0.87655459       0.70040067 </v>
   <v>       0.06169225       0.53697457       0.25548299 </v>
   <v>       0.68656143       0.13721253       0.83410853 </v>
   <v>       0.81138081       0.03700023       0.25548340 </v>
   <v>       0.18627575       0.12506407       0.43299821 </v>
   <v>       0.69215253       0.12656572       0.70033778 </v>
   <v>       0.18625164       0.29063550       0.52210153 </v>
   <v>       0.43646123       0.78736634       0.25555590 </v>
   <v>       0.43859207       0.61240008       0.16606887 </v>
   <v>       0.06324714       0.20807194       0.61137481 </v>
   <v>       0.18622819       0.79195404       0.38844007 </v>
   <v>       0.31110595       0.54062099       0.52209769 </v>
   <v>       0.81714926       0.37666748       0.70033872 </v>
   <v>       0.68628245       0.29171112       0.38840507 </v>
   <v>       0.18920417       0.12467895       0.56680435 </v>
   <v>       0.68888710       0.97177317       0.87549316 </v>
   <v>       0.68901575       0.12482499       0.56681559 </v>
   <v>       0.43678357       0.95888435       0.34415898 </v>
   <v>       0.18841489       0.96287034       0.74450931 </v>
   <v>       0.93642599       0.78744872       0.25553634 </v>
   <v>       0.56097665       0.87557034       0.43306847 </v>
   <v>       0.31090351       0.87525847       0.43306654 </v>
   <v>       0.81119099       0.54043259       0.52215630 </v>
   <v>       0.93277187       0.45134563       0.21136830 </v>
   <v>       0.31136208       0.53678857       0.25560217 </v>
   <v>       0.56134828       0.04180537       0.38846160 </v>
   <v>       0.93828038       0.45784604       0.61143846 </v>
   <v>       0.06159101       0.04173380       0.38848349 </v>
   <v>       0.06120898       0.54169855       0.38845450 </v>
   <v>       0.43677761       0.29177921       0.38837449 </v>
   <v>       0.68889179       0.45901871       0.47788790 </v>
   <v>       0.06417385       0.37473806       0.56684670 </v>
   <v>       0.55766394       0.70078571       0.21113653 </v>
   <v>       0.93673385       0.28708368       0.25555061 </v>
   <v>       0.81653582       0.04939332       0.78890934 </v>
   <v>       0.18664799       0.95873780       0.34422700 </v>
   <v>       0.55773529       0.87339959       0.29968136 </v>
   <v>       0.06099879       0.37497343       0.43303176 </v>
   <v>       0.31176063       0.70802467       0.34418171 </v>
   <v>       0.31169840       0.20796932       0.34419264 </v>
   <v>       0.93905091       0.12499078       0.56681065 </v>
   <v>       0.43814643       0.95808494       0.61147998 </v>
   <v>       0.56075293       0.03716918       0.25552643 </v>
   <v>       0.18612271       0.77882500       0.12436879 </v>
   <v>       0.06174043       0.03708230       0.25553774 </v>
   <v>       0.68912207       0.62457675       0.56685239 </v>
   <v>       0.06099495       0.52945187       0.12444643 </v>
   <v>       0.31123147       0.04089466       0.52214210 </v>
   <v>       0.68744683       0.28004569       0.12464689 </v>
   <v>       0.81370211       0.70918486       0.47787537 </v>
   <v>       0.43678404       0.13672261       0.83400295 </v>
   <v>       0.31741339       0.37635373       0.70036552 </v>
   <v>       0.68685190       0.63707722       0.83411433 </v>
   <v>       0.56326784       0.71283651       0.74447039 </v>
   <v>       0.93613450       0.29159989       0.38847225 </v>
   <v>       0.93923371       0.97132634       0.87551610 </v>
   <v>       0.56353249       0.20807659       0.61145506 </v>
   <v>       0.81408992       0.87476850       0.56683514 </v>
   <v>       0.80743858       0.87334598       0.29960162 </v>
   <v>       0.31114933       0.03670638       0.25560611 </v>
   <v>       0.43707904       0.27974173       0.12430140 </v>
   <v>       0.31329336       0.70807150       0.61144023 </v>
   <v>       0.43555783       0.62521219       0.43305495 </v>
   <v>       0.93583895       0.62493462       0.43312559 </v>
   <v>       0.31508391       0.86332093       0.16562041 </v>
   <v>       0.06714662       0.54934749       0.78880179 </v>
   <v>       0.81211084       0.70832041       0.34421831 </v>
   <v>       0.31498704       0.36336736       0.16556761 </v>
   <v>       0.93760955       0.96316935       0.74462450 </v>
   <v>       0.81177357       0.53700831       0.25529501 </v>
  </varray>
 </structure>
</modeling>
