unknown system                          
           1
     9.726678    0.000000    0.000000
     0.000000    8.423550    0.000000
     0.000000    0.000000   45.000000
   Fe   Mn
 281   7
Direct configuration=     1
   0.05375952  0.70118207  0.21123582
   0.31818475  0.72375606  0.87625289
   0.68838301  0.95876460  0.61150827
   0.43836087  0.45835844  0.61157940
   0.44096332  0.28737334  0.25510115
   0.05860732  0.38855263  0.83354191
   0.30855914  0.88769134  0.83348531
   0.44701389  0.62630007  0.70040107
   0.05970841  0.21262665  0.74490210
   0.17884224  0.45136558  0.21135006
   0.56783230  0.21073931  0.47746575
   0.06653564  0.87508345  0.56688471
   0.56818346  0.22388219  0.87613763
   0.80916158  0.52805811  0.12393333
   0.42895322  0.95141808  0.21137751
   0.56665540  0.37498577  0.56684557
   0.81121869  0.04141048  0.38829759
   0.68172166  0.78890973  0.52244813
   0.44285891  0.46069472  0.47743374
   0.43384979  0.96255968  0.74476996
   0.44166895  0.62501670  0.56685974
   0.57155390  0.87651256  0.70055132
   0.30915741  0.02571674  0.12398605
   0.68998456  0.95889900  0.34410130
   0.68755753  0.78210167  0.12421619
   0.05295805  0.37374801  0.29955323
   0.68987980  0.46796507  0.87610526
   0.42874723  0.45126275  0.21149528
   0.80846560  0.37497073  0.43308636
   0.56351744  0.70857487  0.61156258
   0.55977128  0.54075967  0.65593414
   0.81771064  0.86182187  0.16663679
   0.56538729  0.53717530  0.25512601
   0.68995939  0.45925233  0.34398620
   0.19198416  0.61170411  0.16643835
   0.19457968  0.79946674  0.78885240
   0.44717202  0.12609964  0.70044025
   0.92801556  0.62356197  0.29958507
   0.31739419  0.22366553  0.87613863
   0.31654431  0.87469946  0.56684586
   0.81757507  0.22400089  0.87618613
   0.80969839  0.54075857  0.65582662
   0.55923584  0.52707536  0.12390670
   0.56926746  0.04995957  0.78896290
   0.19053464  0.28718774  0.25518324
   0.80877502  0.87495608  0.43301624
   0.57221006  0.37631322  0.70039511
   0.05726183  0.02662562  0.12413340
   0.30959619  0.54075017  0.65592009
   0.56438796  0.20860510  0.34392344
   0.18823260  0.95855376  0.61149996
   0.30292672  0.37388441  0.29961481
   0.43475652  0.79052019  0.65597473
   0.19494438  0.29882663  0.78881523
   0.06742393  0.36296562  0.16658816
   0.69700983  0.62631907  0.70043693
   0.31165177  0.54125695  0.38847208
   0.06750775  0.72340690  0.87620255
   0.93366609  0.63761491  0.83392284
   0.31964213  0.54966924  0.78891449
   0.30471114  0.20032129  0.21117524
   0.06792273  0.71067679  0.47747111
   0.55384475  0.20065014  0.21111724
   0.30969618  0.21240530  0.74493697
   0.07191685  0.37636470  0.70052106
   0.18323374  0.63754357  0.83356217
   0.06951273  0.04963150  0.78899299
   0.44167276  0.12501133  0.56691545
   0.93483857  0.29067650  0.65584745
   0.80411589  0.20113923  0.21123360
   0.92922858  0.95157001  0.21123826
   0.94159171  0.62503243  0.56686872
   0.80837005  0.38752359  0.83352426
   0.19714640  0.62615053  0.70033351
   0.80859703  0.88768152  0.83354090
   0.68493784  0.29070527  0.65603198
   0.31310014  0.20821890  0.61149059
   0.43454385  0.46273461  0.74487505
   0.43616588  0.79129896  0.38837658
   0.68449518  0.96264987  0.74487602
   0.80374077  0.70098913  0.21129393
   0.81358452  0.70864511  0.61156945
   0.43697511  0.78384755  0.12403079
   0.30968434  0.71211745  0.74481669
   0.32016714  0.04960299  0.78884693
   0.81127448  0.54150229  0.38827092
   0.68227912  0.28838928  0.52230663
   0.69501335  0.79932835  0.78888696
   0.19033767  0.78755584  0.25518774
   0.69168731  0.11255066  0.16664623
   0.69266230  0.96065547  0.47742384
   0.93967408  0.95860280  0.34397961
   0.80737147  0.03913842  0.52254877
   0.68380971  0.62476552  0.43307938
   0.43957086  0.45846874  0.34397284
   0.81041507  0.21182441  0.74460294
   0.43962103  0.96804051  0.87609037
   0.56664523  0.87490585  0.56684772
   0.80921513  0.02809934  0.12396869
   0.42779911  0.62423219  0.29948306
   0.81665464  0.72393180  0.87636335
   0.68809323  0.45838976  0.61149535
   0.55854211  0.38768468  0.83348644
   0.80312334  0.37365223  0.29948463
   0.18623560  0.29117148  0.38838070
   0.81991505  0.54961234  0.78893333
   0.18235216  0.78924112  0.52250975
   0.30294790  0.87379137  0.29952022
   0.17831362  0.95114067  0.21128461
   0.18452404  0.46262283  0.74498387
   0.43250714  0.28843566  0.52226402
   0.06467904  0.70877824  0.34399964
   0.18485537  0.79043561  0.65591410
   0.44467810  0.79927510  0.78884718
   0.68339694  0.12507388  0.43302765
   0.93207995  0.78869965  0.52237080
   0.69178525  0.61270580  0.16671358
   0.93340962  0.12497542  0.43312724
   0.93416208  0.46280804  0.74493681
   0.18994914  0.45869079  0.34403195
   0.56994735  0.54994111  0.78901282
   0.56675254  0.36252362  0.16646430
   0.56460231  0.70890228  0.34390568
   0.55290486  0.37378912  0.29953558
   0.18955490  0.46802001  0.87608768
   0.19171549  0.11164299  0.16642678
   0.44466078  0.29918647  0.78883146
   0.69107019  0.78757071  0.25536277
   0.93373003  0.13765708  0.83354063
   0.44259151  0.96054108  0.47730631
   0.56751547  0.72466691  0.87623690
   0.19269860  0.46071481  0.47744361
   0.93446691  0.28196848  0.12421167
   0.31143956  0.04143579  0.38840681
   0.06013443  0.04043271  0.65602094
   0.55854210  0.37464014  0.43305992
   0.68404206  0.46275396  0.74497594
   0.55982118  0.21249384  0.74487471
   0.94715725  0.12627650  0.70035203
   0.55966028  0.04061123  0.65584668
   0.55692942  0.53913698  0.52248014
   0.17793553  0.12383602  0.29956060
   0.44169354  0.11057673  0.16645829
   0.67759501  0.62403850  0.29952121
   0.92768342  0.12355001  0.29956167
   0.81660594  0.37501902  0.56689444
   0.05293614  0.87381971  0.29952060
   0.19166300  0.62501225  0.56690594
   0.94468304  0.79960727  0.78883342
   0.30843587  0.38737640  0.83353703
   0.93972426  0.46848948  0.87611100
   0.43367626  0.63769017  0.83352031
   0.06472972  0.20858526  0.34390479
   0.18972449  0.96797696  0.87610686
   0.93462623  0.78188093  0.12418117
   0.68659127  0.79147540  0.38846067
   0.93479061  0.79068868  0.65591912
   0.94145466  0.11225582  0.16647273
   0.43504323  0.29064987  0.65608688
   0.05463631  0.20078507  0.21126103
   0.67883596  0.95135635  0.21126656
   0.17823802  0.62407453  0.29950179
   0.82205340  0.87616071  0.70044087
   0.94680745  0.62643892  0.70051519
   0.19714413  0.12619497  0.70034252
   0.94301696  0.46061266  0.47741280
   0.81339334  0.20846431  0.61153551
   0.18342206  0.62472913  0.43313943
   0.42793110  0.12375895  0.29946318
   0.67804024  0.12378922  0.29950485
   0.56179807  0.54153417  0.38847240
   0.81431831  0.20860928  0.34390061
   0.43972783  0.46794277  0.87595480
   0.55846910  0.88753248  0.83348701
   0.31778195  0.21060911  0.47742081
   0.19275112  0.96060866  0.47740913
   0.05859853  0.88771022  0.83351194
   0.05714367  0.53907041  0.52233197
   0.94264198  0.96059091  0.47733783
   0.06329893  0.70830932  0.61159287
   0.55732030  0.03866255  0.52233933
   0.69499262  0.29913190  0.78877748
   0.81757229  0.36185826  0.16669333
   0.43359191  0.12482852  0.43300309
   0.06783679  0.21068395  0.47739958
   0.30972866  0.04065330  0.65590635
   0.43230590  0.78895727  0.52241131
   0.18363838  0.13780249  0.83360096
   0.18557662  0.28312232  0.12433047
   0.93989222  0.45897086  0.34407241
   0.56690856  0.86282531  0.16646059
   0.30370073  0.70070282  0.21128167
   0.94125438  0.61235960  0.16653265
   0.18834045  0.45869623  0.61154735
   0.07228482  0.87647154  0.70035640
   0.05979788  0.54064143  0.65589610
   0.30820621  0.52586571  0.12395061
   0.93630313  0.79109558  0.38848066
   0.94497293  0.29867995  0.78877699
   0.18463234  0.29062284  0.65592568
   0.93826606  0.95845359  0.61150713
   0.80996500  0.71212109  0.74486034
   0.69084031  0.28782655  0.25517482
   0.05934407  0.71230332  0.74498149
   0.67884010  0.45142262  0.21124539
   0.81785063  0.21089271  0.47740216
   0.56769913  0.71069459  0.47741352
   0.06780427  0.86331212  0.16662473
   0.93241628  0.28847269  0.52241908
   0.68448871  0.79039839  0.65587948
   0.05850304  0.87481619  0.43315678
   0.06822181  0.22322548  0.87617059
   0.80975360  0.04062630  0.65592437
   0.55973974  0.02690629  0.12391326
   0.30863740  0.37494829  0.43289503
   0.31660534  0.37496334  0.56684964
   0.31763066  0.71046221  0.47736760
   0.05706663  0.03917705  0.52248211
   0.32203130  0.87634680  0.70051102
   0.06558711  0.53744827  0.25515865
   0.68345188  0.13772165  0.83349371
   0.81495287  0.03768988  0.25512804
   0.18372015  0.12504729  0.43308209
   0.69739428  0.12624857  0.70043774
   0.18229209  0.28902689  0.52250808
   0.44049946  0.78791526  0.25524676
   0.44143701  0.61064891  0.16647153
   0.06350873  0.20857749  0.61155210
   0.18646975  0.79065365  0.38826783
   0.30737924  0.53890507  0.52247081
   0.82184546  0.37653802  0.70025455
   0.68643885  0.29126092  0.38840622
   0.19161216  0.12502756  0.56687978
   0.68981324  0.96843791  0.87609362
   0.69156572  0.12494803  0.56689937
   0.44002927  0.95893695  0.34404543
   0.18391295  0.96267655  0.74475959
   0.94047568  0.78744168  0.25508020
   0.55853593  0.87503449  0.43311024
   0.30845072  0.87519706  0.43307960
   0.80727313  0.53924751  0.52248165
   0.92888218  0.45152361  0.21132220
   0.31543756  0.53783263  0.25518148
   0.56136097  0.04152405  0.38842562
   0.93832436  0.45846306  0.61157311
   0.06146798  0.04139944  0.38844703
   0.06148084  0.54168015  0.38842873
   0.43622147  0.29106702  0.38844314
   0.69287849  0.46071882  0.47746520
   0.06659858  0.37504704  0.56689112
   0.55371983  0.70082976  0.21113826
   0.94076546  0.28755092  0.25521629
   0.81931736  0.04982096  0.78905371
   0.18953523  0.95876979  0.34392896
   0.55329210  0.87351764  0.29952976
   0.05853629  0.37510425  0.43296635
   0.31518543  0.70908185  0.34404286
   0.31451742  0.20896340  0.34388632
   0.94161242  0.12495077  0.56679050
   0.43855756  0.95867354  0.61154567
   0.56526679  0.03746987  0.25504624
   0.18612285  0.78285853  0.12428307
   0.06560418  0.03754727  0.25519908
   0.69165057  0.62498420  0.56690036
   0.05704500  0.52614264  0.12416169
   0.30702780  0.03896742  0.52232917
   0.68755639  0.28208690  0.12422055
   0.81771419  0.71079691  0.47744234
   0.43344958  0.13766523  0.83350630
   0.32231758  0.37641028  0.70039484
   0.68361752  0.63772219  0.83350115
   0.55985900  0.71209232  0.74487294
   0.93697707  0.29151434  0.38849931
   0.93979143  0.96840594  0.87612560
   0.56301493  0.20823243  0.61136988
   0.81669601  0.87500087  0.56686873
   0.80312317  0.87337247  0.29948292
   0.31518179  0.03760927  0.25515309
   0.43684351  0.28347023  0.12408873
   0.31351211  0.70852148  0.61154520
   0.43364257  0.62490673  0.43299695
   0.93269708  0.62540047  0.43323513
   0.31824258  0.86260900  0.16576440
   0.07061187  0.54943985  0.78876806
   0.81516594  0.70802013  0.34397445
   0.31858687  0.36311272  0.16581334
   0.93331956  0.96222133  0.74467416
   0.81584522  0.53767469  0.25552727
Direct configuration=     2
   0.05435425  0.70111966  0.21121032
   0.31786656  0.72328643  0.87617750
   0.68838032  0.95865699  0.61149360
   0.43837819  0.45830640  0.61155881
   0.44030931  0.28727951  0.25516311
   0.05893733  0.38829265  0.83362935
   0.30893957  0.88755054  0.83359446
   0.44633825  0.62632968  0.70040213
   0.06027183  0.21272698  0.74484591
   0.17932636  0.45136693  0.21133961
   0.56726900  0.21048210  0.47751686
   0.06620812  0.87502613  0.56687859
   0.56783482  0.22331318  0.87607230
   0.80929089  0.52837997  0.12401795
   0.42955131  0.95138442  0.21134753
   0.56630316  0.37493790  0.56683712
   0.81129210  0.04150356  0.38831298
   0.68235397  0.78916989  0.52240815
   0.44229006  0.46045889  0.47748578
   0.43443839  0.96259375  0.74473070
   0.44129027  0.62495591  0.56685559
   0.57097113  0.87650944  0.70052129
   0.30937179  0.02647202  0.12400607
   0.68948743  0.95879586  0.34410694
   0.68759145  0.78176338  0.12427505
   0.05363378  0.37368800  0.29956172
   0.68973965  0.46844179  0.87601482
   0.42935801  0.45129417  0.21144755
   0.80883030  0.37492890  0.43309125
   0.56348765  0.70850130  0.61155319
   0.56022330  0.54082376  0.65591235
   0.81725081  0.86210446  0.16654976
   0.56474159  0.53718792  0.25516859
   0.68943368  0.45908327  0.34399758
   0.19147536  0.61182845  0.16640063
   0.19418340  0.79944406  0.78883518
   0.44651436  0.12616403  0.70043591
   0.92871831  0.62354869  0.29960015
   0.31710954  0.22314187  0.87607630
   0.31618380  0.87471369  0.56683567
   0.81725379  0.22343205  0.87611581
   0.81014099  0.54089213  0.65581662
   0.55935535  0.52741411  0.12398625
   0.56892981  0.04989316  0.78896357
   0.18999371  0.28715803  0.25522490
   0.80905426  0.87500401  0.43301964
   0.57149419  0.37633869  0.70040458
   0.05782339  0.02699617  0.12417111
   0.31009128  0.54080443  0.65590161
   0.56396846  0.20853305  0.34396069
   0.18825437  0.95845964  0.61148660
   0.30358965  0.37386632  0.29961109
   0.43520912  0.79067669  0.65594995
   0.19447614  0.29878996  0.78882457
   0.06693926  0.36306780  0.16651975
   0.69631724  0.62636583  0.70042573
   0.31163881  0.54132497  0.38846320
   0.06720613  0.72290659  0.87615448
   0.93404145  0.63750447  0.83397655
   0.31932032  0.54969023  0.78892179
   0.30506814  0.20032826  0.21116261
   0.06737032  0.71045033  0.47753404
   0.55437940  0.20069360  0.21111439
   0.31025956  0.21255750  0.74485977
   0.07125878  0.37644989  0.70050258
   0.18365738  0.63744096  0.83363319
   0.06912772  0.04956761  0.78898487
   0.44129751  0.12495804  0.56689692
   0.93530132  0.29082517  0.65582841
   0.80460295  0.20117868  0.21121667
   0.92969209  0.95157528  0.21124258
   0.94124784  0.62499697  0.56685567
   0.80873247  0.38740582  0.83362154
   0.19643106  0.62621792  0.70034103
   0.80895465  0.88753316  0.83364629
   0.68538072  0.29080171  0.65600027
   0.31316593  0.20819705  0.61149061
   0.43506028  0.46273626  0.74480777
   0.43622548  0.79136672  0.38838874
   0.68494530  0.96267439  0.74482340
   0.80425250  0.70099227  0.21126763
   0.81353364  0.70855593  0.61154836
   0.43699743  0.78320033  0.12406646
   0.31017305  0.71224057  0.74476018
   0.31974140  0.04958317  0.78886618
   0.81133173  0.54148565  0.38830329
   0.68284654  0.28875562  0.52228112
   0.69457550  0.79935672  0.78889019
   0.18982568  0.78757022  0.25523637
   0.69130694  0.11269034  0.16657845
   0.69209786  0.96044616  0.47749074
   0.93929195  0.95858516  0.34400279
   0.80787071  0.03929392  0.52248565
   0.68404218  0.62481845  0.43307726
   0.43921285  0.45843063  0.34399289
   0.81081609  0.21205276  0.74458734
   0.43954459  0.96853337  0.87600554
   0.56628730  0.87485343  0.56683600
   0.80938623  0.02834462  0.12404693
   0.42847922  0.62407916  0.29951486
   0.81645205  0.72344002  0.87628526
   0.68812456  0.45833005  0.61148426
   0.55890767  0.38757314  0.83357251
   0.80372378  0.37360553  0.29951529
   0.18628695  0.29124616  0.38838163
   0.81943527  0.54960184  0.78895356
   0.18291101  0.78943761  0.52246746
   0.30360900  0.87374746  0.29953739
   0.17891003  0.95122790  0.21128486
   0.18508994  0.46265364  0.74490531
   0.43300163  0.28878270  0.52224168
   0.06436007  0.70872729  0.34403379
   0.18532518  0.79054655  0.65588483
   0.44426053  0.79930742  0.78883916
   0.68369197  0.12504550  0.43302734
   0.93267507  0.78897181  0.52234173
   0.69137787  0.61278940  0.16662380
   0.93380270  0.12497215  0.43311097
   0.93475698  0.46278400  0.74486658
   0.18950634  0.45857931  0.34404507
   0.56955735  0.54985164  0.78900989
   0.56652636  0.36272259  0.16637105
   0.56411267  0.70883127  0.34396144
   0.55361739  0.37375048  0.29954225
   0.18946140  0.46849688  0.87601519
   0.19129873  0.11178952  0.16638910
   0.44425104  0.29915225  0.78883305
   0.69033926  0.78750097  0.25537726
   0.93415638  0.13751874  0.83362296
   0.44206465  0.96030549  0.47737940
   0.56721172  0.72404258  0.87616128
   0.19213458  0.46047977  0.47749845
   0.93472085  0.28163970  0.12426020
   0.31142424  0.04147807  0.38841131
   0.06052561  0.04052670  0.65598599
   0.55889555  0.37467209  0.43305237
   0.68455451  0.46272499  0.74490397
   0.56035715  0.21264235  0.74480932
   0.94649058  0.12638017  0.70035609
   0.56014250  0.04070839  0.65584026
   0.55755120  0.53935197  0.52242388
   0.17858466  0.12375734  0.29956859
   0.44123562  0.11083122  0.16639486
   0.67819905  0.62392080  0.29954095
   0.92837879  0.12349274  0.29957550
   0.81624515  0.37498312  0.56688536
   0.05360473  0.87375097  0.29953640
   0.19128931  0.62496608  0.56690218
   0.94417850  0.79954508  0.78884572
   0.30884375  0.38729911  0.83363148
   0.93965573  0.46892996  0.87603184
   0.43408530  0.63760904  0.83360635
   0.06435564  0.20853745  0.34395092
   0.18960307  0.96842184  0.87602050
   0.93487393  0.78157039  0.12423641
   0.68658575  0.79151130  0.38846181
   0.93524769  0.79080424  0.65589972
   0.94105841  0.11246518  0.16643834
   0.43543216  0.29076851  0.65605076
   0.05512746  0.20085352  0.21123788
   0.67938444  0.95136690  0.21126666
   0.17885510  0.62395650  0.29952643
   0.82134275  0.87622802  0.70042766
   0.94619018  0.62648589  0.70050027
   0.19645292  0.12630391  0.70035106
   0.94243671  0.46037114  0.47747510
   0.81336779  0.20839746  0.61151996
   0.18384590  0.62480498  0.43312501
   0.42858820  0.12370190  0.29949132
   0.67865917  0.12371183  0.29952352
   0.56176971  0.54155329  0.38846642
   0.81394580  0.20851801  0.34396116
   0.43964716  0.46844558  0.87588764
   0.55885796  0.88740597  0.83359511
   0.31722075  0.21040426  0.47747714
   0.19218599  0.96037174  0.47746791
   0.05893463  0.88757729  0.83361036
   0.05771507  0.53930666  0.52230457
   0.94211406  0.96035254  0.47741057
   0.06331335  0.70827017  0.61156629
   0.55784150  0.03897703  0.52230246
   0.69456622  0.29909114  0.78877703
   0.81713592  0.36214885  0.16660452
   0.43388070  0.12484727  0.43300679
   0.06727543  0.21042858  0.47746107
   0.31021754  0.04074610  0.65588758
   0.43281819  0.78919422  0.52236575
   0.18407186  0.13765803  0.83367433
   0.18565957  0.28251529  0.12434441
   0.93946257  0.45881976  0.34408903
   0.56671013  0.86296424  0.16637734
   0.30425482  0.70063049  0.21126115
   0.94081709  0.61249818  0.16648754
   0.18834314  0.45858134  0.61152823
   0.07157070  0.87651097  0.70034247
   0.06024561  0.54075419  0.65589408
   0.30856757  0.52656954  0.12397527
   0.93634065  0.79124259  0.38848307
   0.94448825  0.29869606  0.78878295
   0.18510629  0.29075138  0.65591122
   0.93829246  0.95838520  0.61150306
   0.81046467  0.71225125  0.74481555
   0.69017926  0.28774198  0.25522345
   0.05999056  0.71241452  0.74490324
   0.67938254  0.45141641  0.21124929
   0.81727495  0.21062025  0.47745953
   0.56714070  0.71046780  0.47748024
   0.06720607  0.86337054  0.16654243
   0.93293522  0.28879025  0.52238418
   0.68495155  0.79054456  0.65586679
   0.05888590  0.87487546  0.43314811
   0.06784525  0.22269550  0.87611726
   0.81021443  0.04071139  0.65590279
   0.55980240  0.02727739  0.12398433
   0.30894118  0.37490371  0.43292040
   0.31625782  0.37492871  0.56684148
   0.31711359  0.71026981  0.47743338
   0.05766419  0.03934680  0.52241815
   0.32133782  0.87637621  0.70049540
   0.06503570  0.53738120  0.25520457
   0.68389211  0.13764957  0.83358075
   0.81444716  0.03759224  0.25517835
   0.18408195  0.12504966  0.43307022
   0.69665219  0.12629347  0.70042359
   0.18285265  0.28925463  0.52245052
   0.43992776  0.78783754  0.25529052
   0.44103424  0.61089683  0.16641452
   0.06347169  0.20850591  0.61152700
   0.18643555  0.79083775  0.38829221
   0.30790684  0.53914800  0.52241799
   0.82118060  0.37655635  0.70026647
   0.68641671  0.29132466  0.38840606
   0.19127126  0.12497821  0.56686910
   0.68968213  0.96891009  0.87600861
   0.69120471  0.12493061  0.56688751
   0.43956976  0.95892950  0.34406150
   0.18455031  0.96270399  0.74472416
   0.93990235  0.78744268  0.25514478
   0.55888147  0.87511035  0.43310433
   0.30879797  0.87520575  0.43307775
   0.80782780  0.53941529  0.52243558
   0.92943286  0.45149841  0.21132873
   0.31486058  0.53768482  0.25524104
   0.56135917  0.04156388  0.38843071
   0.93831813  0.45837571  0.61155405
   0.06148540  0.04144677  0.38845219
   0.06144236  0.54168276  0.38843238
   0.43630021  0.29116785  0.38843342
   0.69231408  0.46047813  0.47752505
   0.06625531  0.37500330  0.56688483
   0.55427821  0.70082352  0.21113801
   0.94019469  0.28748477  0.25526362
   0.81892356  0.04976042  0.78903327
   0.18912648  0.95876527  0.34397115
   0.55392114  0.87350093  0.29955122
   0.05888492  0.37508573  0.43297561
   0.31470057  0.70893218  0.34406252
   0.31411833  0.20882266  0.34392968
   0.94124978  0.12495643  0.56679335
   0.43849936  0.95859021  0.61153637
   0.56462775  0.03742730  0.25511423
   0.18612283  0.78228749  0.12429521
   0.06505717  0.03748144  0.25524702
   0.69129261  0.62492651  0.56689357
   0.05760421  0.52661114  0.12420201
   0.30762293  0.03924027  0.52230268
   0.68754088  0.28179792  0.12428091
   0.81714619  0.71056869  0.47750365
   0.43392165  0.13753178  0.83357661
   0.32162328  0.37640228  0.70039069
   0.68407542  0.63763088  0.83358796
   0.56034160  0.71219768  0.74481595
   0.93685779  0.29152646  0.38849548
   0.93971247  0.96881939  0.87603931
   0.56308820  0.20821036  0.61138194
   0.81632706  0.87496798  0.56686397
   0.80373412  0.87336872  0.29949973
   0.31461090  0.03748145  0.25521722
   0.43687686  0.28294237  0.12411884
   0.31348114  0.70845777  0.61153034
   0.43391372  0.62494998  0.43300516
   0.93314189  0.62533452  0.43321962
   0.31779540  0.86270979  0.16574401
   0.07012129  0.54942677  0.78877284
   0.81473342  0.70806264  0.34400897
   0.31807723  0.36314877  0.16577855
   0.93392691  0.96235555  0.74466713
   0.81526878  0.53758035  0.25549439
Direct configuration=     3
   0.05613843  0.70093244  0.21113384
   0.31691201  0.72187755  0.87595133
   0.68837227  0.95833414  0.61144958
   0.43843013  0.45815026  0.61149703
   0.43834728  0.28699801  0.25534898
   0.05992736  0.38751272  0.83389166
   0.31008086  0.88712812  0.83392191
   0.44431134  0.62641850  0.70040531
   0.06196208  0.21302797  0.74467732
   0.18077875  0.45137097  0.21130827
   0.56557908  0.20971048  0.47767021
   0.06522554  0.87485418  0.56686024
   0.56678892  0.22160617  0.87587632
   0.80967882  0.52934553  0.12427180
   0.43134558  0.95128346  0.21125757
   0.56524641  0.37479430  0.56681177
   0.81151234  0.04178278  0.38835917
   0.68425090  0.78995039  0.52228822
   0.44058352  0.45975141  0.47764191
   0.43620418  0.96269596  0.74461292
   0.44015424  0.62477354  0.56684315
   0.56922284  0.87650009  0.70043118
   0.31001493  0.02873785  0.12406615
   0.68799603  0.95848644  0.34412387
   0.68769322  0.78074852  0.12445165
   0.05566095  0.37350796  0.29958716
   0.68931919  0.46987197  0.87574349
   0.43119037  0.45138841  0.21130434
   0.80992440  0.37480340  0.43310592
   0.56339830  0.70828058  0.61152499
   0.56157935  0.54101605  0.65584696
   0.81587131  0.86295224  0.16628865
   0.56280447  0.53722579  0.25529633
   0.68785655  0.45857608  0.34403171
   0.18994898  0.61220147  0.16628746
   0.19299456  0.79937601  0.78878354
   0.44454136  0.12635722  0.70042287
   0.93082655  0.62350884  0.29964540
   0.31625558  0.22157091  0.87588930
   0.31510230  0.87475638  0.56680507
   0.81628993  0.22172552  0.87590485
   0.81146878  0.54129281  0.65578664
   0.55971391  0.52843036  0.12422489
   0.56791685  0.04969392  0.78896557
   0.18837092  0.28706888  0.25534986
   0.80989198  0.87514781  0.43302985
   0.56934656  0.37641510  0.70043300
   0.05950805  0.02810784  0.12428423
   0.31157655  0.54096720  0.65584615
   0.56270994  0.20831689  0.34407246
   0.18831965  0.95817727  0.61144651
   0.30557843  0.37381205  0.29959992
   0.43656691  0.79114618  0.65587559
   0.19307144  0.29867995  0.78885261
   0.06548524  0.36337434  0.16631451
   0.69423947  0.62650609  0.70039213
   0.31159994  0.54152902  0.38843658
   0.06630127  0.72140566  0.87601027
   0.93516754  0.63717313  0.83413768
   0.31835491  0.54975322  0.78894369
   0.30613915  0.20034920  0.21112471
   0.06571310  0.70977093  0.47772281
   0.55598337  0.20082398  0.21110587
   0.31194972  0.21301411  0.74462819
   0.06928456  0.37670545  0.70044712
   0.18492830  0.63713314  0.83384625
   0.06797268  0.04937595  0.78896051
   0.44017177  0.12479814  0.56684134
   0.93668957  0.29127117  0.65577126
   0.80606415  0.20129702  0.21116586
   0.93108259  0.95159108  0.21125555
   0.94021622  0.62489060  0.56681652
   0.80981972  0.38705253  0.83391339
   0.19428502  0.62642010  0.70036359
   0.81002754  0.88708810  0.83396247
   0.68670937  0.29109101  0.65590513
   0.31336329  0.20813152  0.61149066
   0.43660955  0.46274118  0.74460593
   0.43640427  0.79156999  0.38842523
   0.68629568  0.96274796  0.74466554
   0.80578769  0.70100171  0.21118873
   0.81338099  0.70828837  0.61148510
   0.43706440  0.78125868  0.12417349
   0.31163915  0.71260995  0.74459062
   0.31846417  0.04952373  0.78892394
   0.81150347  0.54143572  0.38840038
   0.68454880  0.28985463  0.52220459
   0.69326195  0.79944185  0.78889985
   0.18828971  0.78761335  0.25538225
   0.69016581  0.11310940  0.16637508
   0.69040454  0.95981824  0.47769146
   0.93814559  0.95853224  0.34407231
   0.80936841  0.03976045  0.52229628
   0.68473960  0.62497724  0.43307092
   0.43813881  0.45831630  0.34405303
   0.81201914  0.21273778  0.74454056
   0.43931527  0.97001195  0.87575104
   0.56521351  0.87469617  0.56680085
   0.80989953  0.02908045  0.12428168
   0.43051953  0.62362007  0.29961024
   0.81584426  0.72196469  0.87605100
   0.68821854  0.45815095  0.61145100
   0.56000434  0.38723852  0.83383074
   0.80552511  0.37346542  0.29960729
   0.18644097  0.29147018  0.38838442
   0.81799593  0.54957035  0.78901425
   0.18458755  0.79002709  0.52234056
   0.30559229  0.87361572  0.29958890
   0.18069929  0.95148962  0.21128559
   0.18678764  0.46274607  0.74466963
   0.43448510  0.28982379  0.52217467
   0.06340316  0.70857443  0.34413623
   0.18673462  0.79087936  0.65579703
   0.44300783  0.79940436  0.78881513
   0.68457705  0.12496034  0.43302642
   0.93446044  0.78978827  0.52225452
   0.69015571  0.61304021  0.16635446
   0.93498193  0.12496237  0.43306214
   0.93654166  0.46271188  0.74465590
   0.18817793  0.45824486  0.34408441
   0.56838733  0.54958324  0.78900109
   0.56584780  0.36331952  0.16609132
   0.56264376  0.70861822  0.34412873
   0.55575498  0.37363455  0.29956224
   0.18918092  0.46992750  0.87579770
   0.19004845  0.11222912  0.16627607
   0.44302182  0.29904961  0.78883783
   0.68814650  0.78729173  0.25542071
   0.93543543  0.13710370  0.83386997
   0.44048409  0.95959872  0.47759865
   0.56630047  0.72216959  0.87593441
   0.19044250  0.45977467  0.47766296
   0.93548266  0.28065334  0.12440579
   0.31137826  0.04160491  0.38842483
   0.06169917  0.04080868  0.65588113
   0.55995589  0.37476797  0.43302971
   0.68609185  0.46263808  0.74468808
   0.56196505  0.21308790  0.74461315
   0.94449058  0.12669116  0.70036826
   0.56158913  0.04099986  0.65582100
   0.55941652  0.53999695  0.52225509
   0.18053206  0.12352129  0.29959257
   0.43986186  0.11159470  0.16620457
   0.68001117  0.62356770  0.29960017
   0.93046488  0.12332090  0.29961700
   0.81516278  0.37487543  0.56685815
   0.05561051  0.87354475  0.29958379
   0.19016822  0.62482757  0.56689089
   0.94266487  0.79935850  0.78888259
   0.31006736  0.38706722  0.83391483
   0.93945012  0.47025141  0.87579437
   0.43531244  0.63736564  0.83386448
   0.06323340  0.20839400  0.34408930
   0.18923879  0.96975646  0.87576141
   0.93561702  0.78063879  0.12440215
   0.68656918  0.79161900  0.38846524
   0.93661892  0.79115095  0.65584154
   0.93986963  0.11309328  0.16633516
   0.43659892  0.29112446  0.65594240
   0.05660090  0.20105886  0.21116843
   0.68102991  0.95139855  0.21126694
   0.18070635  0.62360241  0.29960032
   0.81921080  0.87642994  0.70038803
   0.94433836  0.62662681  0.70045553
   0.19437927  0.12663072  0.70037671
   0.94069593  0.45964659  0.47766200
   0.81329114  0.20819690  0.61147331
   0.18511741  0.62503254  0.43308175
   0.43055947  0.12353077  0.29957574
   0.68051595  0.12347963  0.29957953
   0.56168461  0.54161067  0.38844848
   0.81282827  0.20824421  0.34414282
   0.43940517  0.46995402  0.87568618
   0.56002451  0.88702644  0.83391943
   0.31553712  0.20978972  0.47764613
   0.19049062  0.95966098  0.47764424
   0.05994294  0.88717850  0.83390564
   0.05942927  0.54001542  0.52222239
   0.94053031  0.95963742  0.47762878
   0.06335662  0.70815274  0.61148657
   0.55940510  0.03992047  0.52219185
   0.69328703  0.29896883  0.78877568
   0.81582682  0.36302060  0.16633811
   0.43474706  0.12490350  0.43301790
   0.06559135  0.20966245  0.47764554
   0.31168417  0.04102450  0.65583128
   0.43435507  0.78990508  0.52222908
   0.18537229  0.13722466  0.83389445
   0.18590839  0.28069421  0.12438625
   0.93817363  0.45836645  0.34413891
   0.56611481  0.86338105  0.16612757
   0.30591708  0.70041349  0.21119962
   0.93950522  0.61291393  0.16635221
   0.18835120  0.45823665  0.61147089
   0.06942836  0.87662928  0.70030068
   0.06158880  0.54109248  0.65588805
   0.30965166  0.52868101  0.12404924
   0.93645323  0.79168363  0.38849030
   0.94303422  0.29874439  0.78880085
   0.18652816  0.29113701  0.65586783
   0.93837166  0.95818003  0.61149087
   0.81196368  0.71264175  0.74468117
   0.68819611  0.28748826  0.25536933
   0.06193001  0.71274812  0.74466849
   0.68100986  0.45139779  0.21126098
   0.81554788  0.20980288  0.47763166