unknown system                          
            1
     9.726678    0.000000    0.000000
     0.000000    8.423550    0.000000
     0.000000    0.000000   45.000000
   Fe   Mn
 273  15
Direct configuration=     1
   0.56349165  0.02825728  0.12466575
   0.56202611  0.36203455  0.16695428
   0.43703858  0.11259352  0.16694347
   0.56225248  0.71187102  0.69956449
   0.31325020  0.69560100  0.21197493
   0.06268446  0.20772995  0.56554293
   0.81280744  0.37599214  0.65476549
   0.56276667  0.20782932  0.56560004
   0.06352890  0.69524903  0.21194271
   0.18739438  0.95544050  0.47850076
   0.06207589  0.38164071  0.78794655
   0.93753383  0.78054951  0.25618957
   0.43755221  0.45502003  0.47842294
   0.81187282  0.21178523  0.69940526
   0.93828268  0.77717416  0.12492829
   0.31284188  0.71512589  0.83297140
   0.81221360  0.20178534  0.34513784
   0.18753567  0.28615027  0.38935908
   0.81293880  0.21578291  0.83314614
   0.81276252  0.71446245  0.83306053
   0.18813313  0.27755924  0.12487362
   0.56324896  0.71552847  0.83312124
   0.43786323  0.62658295  0.65483586
   0.31204457  0.71184433  0.69955511
   0.43798071  0.77707556  0.12494850
   0.43737596  0.28574337  0.38934193
   0.06191911  0.21193558  0.69940307
   0.68636295  0.63242884  0.78814643
   0.18721503  0.29234559  0.61060764
   0.56285370  0.04625560  0.74380351
   0.93707946  0.96175713  0.69953579
   0.56246653  0.37035370  0.43429492
   0.06265270  0.54667839  0.74369252
   0.06358352  0.02815910  0.12493089
   0.18675040  0.63193855  0.78810082
   0.31224256  0.37098382  0.43437296
   0.56249858  0.21520898  0.83293018
   0.68589523  0.79991670  0.87519413
   0.81238592  0.03571798  0.38942311
   0.31224332  0.20751889  0.56556146
   0.18628642  0.13208702  0.78821312
   0.81286101  0.20804179  0.56559564
   0.93786780  0.96514664  0.83301322
   0.06304561  0.21502353  0.83291601
   0.18803453  0.12653705  0.65475182
   0.81137117  0.38227627  0.78808189
   0.31276125  0.87677707  0.65497228
   0.31308972  0.52734476  0.12478667
   0.93758031  0.29210674  0.61063795
   0.68741822  0.46175234  0.69961187
   0.18710200  0.96222772  0.69956606
   0.43819438  0.79682826  0.74379585
   0.81244962  0.87043701  0.43449139
   0.43836008  0.44554291  0.21192309
   0.56314149  0.87594719  0.65475819
   0.31184988  0.20122941  0.34519405
   0.68747117  0.61253956  0.16696841
   0.68677928  0.45201318  0.34531069
   0.81371688  0.19591308  0.21199104
   0.43687771  0.29925242  0.87522898
   0.81209588  0.03061969  0.25610633
   0.06208588  0.70157697  0.34515923
   0.81160153  0.88257517  0.78790858
   0.06183200  0.04973908  0.87516154
   0.43688509  0.61240080  0.16701998
   0.81290097  0.36585082  0.30056187
   0.31276790  0.37282498  0.52146858
   0.31319713  0.19552727  0.21188038
   0.18727439  0.28087453  0.25632386
   0.81285140  0.70775647  0.56566249
   0.68735440  0.45512518  0.47844642
   0.43755123  0.62030852  0.43445004
   0.93781533  0.94589459  0.21197620
   0.93772097  0.45733557  0.56545489
   0.93760543  0.95539144  0.47856711
   0.56316416  0.69565694  0.21190065
   0.43678814  0.63188136  0.78826240
   0.31280852  0.21523526  0.83305445
   0.56267335  0.53110253  0.25618147
   0.18821510  0.44547806  0.21185572
   0.43660205  0.78144750  0.25623869
   0.18732444  0.79206668  0.61066636
   0.43697396  0.46155411  0.69960120
   0.81244044  0.04211429  0.61062303
   0.18674930  0.29958779  0.87516622
   0.06355030  0.19557119  0.21189877
   0.18693324  0.45169304  0.34519653
   0.18818839  0.46501508  0.83311674
   0.18796271  0.94593592  0.21195734
   0.31290875  0.54698109  0.74378169
   0.81236421  0.36203297  0.16704167
   0.93756387  0.12285208  0.52151473
   0.93756596  0.95813061  0.56555516
   0.43698761  0.80020016  0.87527450
   0.93731657  0.12034673  0.43437209
   0.43690397  0.28103991  0.25625131
   0.56302307  0.54718084  0.74380523
   0.43795520  0.62294387  0.52137122
   0.31228856  0.53143015  0.25629794
   0.68700993  0.29894172  0.87520709
   0.31253073  0.87355720  0.52145766
   0.81177757  0.05006141  0.87513368
   0.93726180  0.46210550  0.69963180
   0.18762882  0.45541905  0.47836723
   0.93680910  0.13249991  0.78804507
   0.93659958  0.63229502  0.78812081
   0.31244921  0.70733920  0.56542468
   0.18705736  0.46145603  0.69954819
   0.68803508  0.44551374  0.21187166
   0.68810730  0.11642535  0.30037976
   0.56340973  0.20586442  0.47855348
   0.93830934  0.62657061  0.65471803
   0.31202744  0.38197928  0.78817219
   0.31223669  0.86190477  0.16698715
   0.06229533  0.04197103  0.61046116
   0.06307165  0.37591993  0.65474311
   0.68759078  0.28565426  0.38933881
   0.81236608  0.20519869  0.47848741
   0.81320114  0.87624003  0.65488534
   0.68793908  0.62279582  0.52151267
   0.31238776  0.04202702  0.61054914
   0.68776542  0.61611269  0.30043838
   0.06180219  0.20167213  0.34520309
   0.18733522  0.12036074  0.43432193
   0.68764851  0.95549284  0.47847358
   0.31279501  0.86617481  0.30051619
   0.06251442  0.36278689  0.16702074
   0.56305118  0.37613352  0.65494639
   0.93663902  0.29913538  0.87525737
   0.31196959  0.20560607  0.47858107
   0.81245992  0.37050080  0.43446428
   0.81218437  0.71148160  0.69950672
   0.43745560  0.95461805  0.47851412
   0.68765846  0.12257243  0.52153860
   0.81187730  0.86255260  0.16695370
   0.93813867  0.28595114  0.38933712
   0.06232689  0.53574469  0.38926078
   0.56243969  0.03106604  0.25622174
   0.06283858  0.04754059  0.74381816
   0.68877581  0.29671137  0.74381559
   0.31265295  0.53594832  0.38934547
   0.31281606  0.36593846  0.30037217
   0.43735715  0.95167723  0.34515247
   0.31172382  0.88123081  0.78816814
   0.93723659  0.79191014  0.61065568
   0.06216231  0.20540283  0.47848567
   0.31270620  0.04659326  0.74375718
   0.06231348  0.70548778  0.47843256
   0.31154460  0.54965436  0.87518631
   0.06261073  0.54194199  0.61056186
   0.43777771  0.95756837  0.56570702
   0.43726828  0.45693400  0.56566513
   0.93750271  0.45540316  0.47840882
   0.81209902  0.53093887  0.25622120
   0.43855258  0.94607282  0.21194470
   0.93762140  0.62302148  0.52146524
   0.56252792  0.86644432  0.30058484
   0.56158511  0.04974272  0.87516714
   0.31175200  0.04996502  0.87512951
   0.43791510  0.29673980  0.74376263
   0.56300939  0.53565443  0.38928188
   0.06277606  0.36591115  0.30050181
   0.56243168  0.03591543  0.38940225
   0.56219978  0.86971008  0.43437041
   0.93774292  0.79991158  0.87515263
   0.31230191  0.87051492  0.43432432
   0.06260673  0.70783609  0.56577519
   0.56192181  0.70159296  0.34511196
   0.43734415  0.29226614  0.61046636
   0.81223328  0.87257752  0.52148884
   0.68719051  0.95813199  0.56553706
   0.68760501  0.12002296  0.43425620
   0.81359444  0.52849096  0.12488374
   0.81245779  0.70183274  0.34510864
   0.43737620  0.79190203  0.61075621
   0.06219743  0.03060994  0.25618137
   0.93728554  0.62044017  0.43438418
   0.43745201  0.78594725  0.38939035
   0.06265654  0.87257335  0.52151282
   0.68828206  0.94575087  0.21206642
   0.81308229  0.04635503  0.74375540
   0.56242620  0.37267654  0.52155217
   0.93738353  0.46553661  0.83319600
   0.93794929  0.79708147  0.74379541
   0.43758410  0.61598392  0.30039686
   0.31291446  0.03686445  0.38933717
   0.06244984  0.71471125  0.83305360
   0.18762216  0.11596436  0.30052490
   0.56271338  0.36640818  0.30055034
   0.06229793  0.86172678  0.16685720
   0.43656090  0.13200035  0.78814604
   0.31168342  0.70117747  0.34523992
   0.68742004  0.61992010  0.43443434
   0.18725282  0.62056684  0.43437066
   0.18781207  0.95817244  0.56571192
   0.81248812  0.70521227  0.47846238
   0.06275616  0.87051038  0.43436006
   0.81286032  0.54737343  0.74385847
   0.18768879  0.45723597  0.56559745
   0.31302226  0.37645934  0.65478040
   0.68799991  0.46555847  0.83315890
   0.18727483  0.61235129  0.16708929
   0.43805901  0.11635581  0.30049305
   0.68759988  0.79188010  0.61060457
   0.06363484  0.52744609  0.12481453
   0.93805199  0.44550377  0.21196999
   0.56279421  0.86268676  0.16689964
   0.93802729  0.27791799  0.12487874
   0.06262568  0.03643104  0.38939358
   0.06168332  0.53124619  0.25633296
   0.68830483  0.27747585  0.12476922
   0.43786368  0.46509489  0.83307166
   0.68739067  0.29246010  0.61076803
   0.68803298  0.96541720  0.83301619
   0.93730339  0.61248633  0.16696823
   0.06153763  0.88165101  0.78797153
   0.31230079  0.54242129  0.61056459
   0.18693892  0.95136754  0.34512564
   0.18804648  0.62662621  0.65473453
   0.93805510  0.61586609  0.30043690
   0.56178072  0.88226262  0.78807498
   0.06311406  0.86626222  0.30055506
   0.68668857  0.13266262  0.78813068
   0.43712845  0.45153043  0.34519380
   0.68811648  0.77805348  0.12489838
   0.06248753  0.37280552  0.52149805
   0.56239289  0.04207945  0.61049056
   0.56094688  0.55041355  0.87508600
   0.56230454  0.52807532  0.12488916
   0.06241044  0.37057806  0.43437450
   0.56259662  0.87272096  0.52153486
   0.68717790  0.78066739  0.25620180
   0.31226996  0.36296217  0.16693380
   0.18839415  0.79702062  0.74373654
   0.56222524  0.54189968  0.61061171
   0.06248619  0.55057607  0.87515679
   0.93768934  0.11608790  0.30051289
   0.93709167  0.28106768  0.25628275
   0.18734934  0.78119079  0.25628227
   0.43721294  0.12045894  0.43461886
   0.18780901  0.61601949  0.30049144
   0.93740714  0.11264846  0.16698468
   0.56263186  0.70540084  0.47853056
   0.81282854  0.86594910  0.30047154
   0.06290594  0.87666709  0.65481984
   0.43784621  0.12615007  0.65481563
   0.56141815  0.38170358  0.78798787
   0.18652852  0.62264501  0.52140322
   0.93681558  0.95132895  0.34514762
   0.06194669  0.71177019  0.69946464
   0.68749608  0.79672552  0.74375644
   0.18781142  0.78599600  0.38936040
   0.93812882  0.12614455  0.65475923
   0.93730570  0.45208092  0.34529315
   0.68711527  0.95155001  0.34523473
   0.68701577  0.96100776  0.69946641
   0.81230992  0.37254665  0.52145804
   0.18721847  0.11210476  0.16702186
   0.81217344  0.54202666  0.61060451
   0.18826392  0.77745225  0.12487985
   0.18648652  0.80013426  0.87527435
   0.81274021  0.02892032  0.12465493
   0.43774625  0.96503087  0.83301825
   0.18777571  0.96452500  0.83316410
   0.18732769  0.12252584  0.52151390
   0.31250332  0.02793517  0.12493808
   0.93779713  0.78607807  0.38936084
   0.56216389  0.21142915  0.69951081
   0.68777951  0.45768645  0.56558814
   0.43821904  0.27780474  0.12482450
   0.68798481  0.12573517  0.65478509
   0.81254665  0.53618418  0.38939603
   0.56225718  0.19578152  0.21200131
   0.68837769  0.62588436  0.65470387
   0.93716065  0.29724706  0.74380044
   0.43744246  0.12280821  0.52141631
   0.68770086  0.78579131  0.38918024
   0.31231954  0.21183527  0.69924062
   0.81330918  0.69573394  0.21214381
   0.68699948  0.28075311  0.25627476
   0.43735514  0.96113941  0.69958726
   0.81185912  0.54960070  0.87491715
   0.18851428  0.29743613  0.74411300
   0.31246585  0.70545080  0.47846124
   0.56289426  0.70754619  0.56572202
   0.56199785  0.20193418  0.34533431
   0.31198104  0.03062202  0.25612211
   0.68709133  0.11236059  0.16635291
Direct configuration=     2
   0.56346465  0.02830038  0.12467258
   0.56208252  0.36195296  0.16698322
   0.43709011  0.11254024  0.16696167
   0.56230614  0.71187358  0.69953798
   0.31319139  0.69571846  0.21198238
   0.06267182  0.20769347  0.56554551
   0.81279336  0.37603579  0.65475313
   0.56276886  0.20779024  0.56560523
   0.06349051  0.69535837  0.21194989
   0.18737074  0.95542500  0.47849528
   0.06212764  0.38159742  0.78794259
   0.93757449  0.78056405  0.25618845
   0.43758773  0.45480622  0.47843103
   0.81193499  0.21179014  0.69938699
   0.93823407  0.77726312  0.12491792
   0.31278731  0.71515732  0.83295456
   0.81225003  0.20174667  0.34515384
   0.18752128  0.28615504  0.38937299
   0.81287413  0.21583429  0.83311813
   0.81271200  0.71447051  0.83304628
   0.18809802  0.27763572  0.12486813
   0.56320573  0.71554703  0.83310500
   0.43782782  0.62665234  0.65482191
   0.31205452  0.71183086  0.69953235
   0.43796279  0.77717526  0.12493997
   0.43734597  0.28575797  0.38935995
   0.06193655  0.21193045  0.69938999
   0.68643167  0.63232175  0.78814204
   0.18723407  0.29233181  0.61059571
   0.56279180  0.04626349  0.74380545
   0.93712826  0.96177949  0.69951831
   0.56246857  0.37041572  0.43429237
   0.06262767  0.54668388  0.74369586
   0.06355088  0.02821871  0.12493118
   0.18680757  0.63182266  0.78808787
   0.31223067  0.37101184  0.43436988
   0.56245519  0.21525747  0.83290797
   0.68593039  0.79987183  0.87518936
   0.81239169  0.03570978  0.38943231
   0.31222826  0.20749714  0.56557074
   0.18635308  0.13200286  0.78820490
   0.81287787  0.20799529  0.56559677
   0.93779442  0.96520099  0.83298850
   0.06298409  0.21506140  0.83289408
   0.18802061  0.12655958  0.65473515
   0.81146864  0.38222469  0.78808950
   0.31273723  0.87683386  0.65495144
   0.31305886  0.52741313  0.12479496
   0.93758134  0.29209758  0.61062074
   0.68746823  0.46177330  0.69958840
   0.18710617  0.96223489  0.69954463
   0.43813611  0.79682117  0.74380366
   0.81245677  0.87046363  0.43448400
   0.43833409  0.44559501  0.21192994
   0.56307781  0.87600591  0.65474570
   0.31187318  0.20118739  0.34521061
   0.68751730  0.61251040  0.16698241
   0.68684202  0.45196151  0.34532328
   0.81366490  0.19599534  0.21199961
   0.43691745  0.29923971  0.87522393
   0.81216242  0.03065374  0.25611081
   0.06213106  0.70153029  0.34517636
   0.81166748  0.88253181  0.78791007
   0.06185813  0.04965965  0.87517215
   0.43693084  0.61238133  0.16704485
   0.81285737  0.36584579  0.30058425
   0.31269207  0.37313120  0.52147263
   0.31315710  0.19560608  0.21189365
   0.18728026  0.28088262  0.25631539
   0.81286138  0.70772466  0.56565887
   0.68731981  0.45503881  0.47845408
   0.43756251  0.62033865  0.43443503
   0.93779880  0.94592243  0.21197488
   0.93770623  0.45729454  0.56545636
   0.93762785  0.95536028  0.47856089
   0.56309879  0.69573587  0.21190666
   0.43683564  0.63177439  0.78824885
   0.31276247  0.21525196  0.83303017
   0.56269707  0.53110466  0.25617357
   0.18816123  0.44553850  0.21186530
   0.43666537  0.78143079  0.25623638
   0.18736766  0.79205764  0.61065354
   0.43703785  0.46157959  0.69958102
   0.81246858  0.04210982  0.61061713
   0.18677379  0.29955101  0.87516569
   0.06351125  0.19564441  0.21190920
   0.18698326  0.45165594  0.34520810
   0.18811989  0.46507067  0.83308407
   0.18793078  0.94600103  0.21196089
   0.31287226  0.54696446  0.74378732
   0.81240678  0.36194440  0.16706612
   0.93751100  0.12286791  0.52151733
   0.93755122  0.95810016  0.56556109
   0.43702057  0.80013507  0.87526850
   0.93732921  0.12039054  0.43437189
   0.43695540  0.28106365  0.25624643
   0.56296722  0.54715441  0.74380928
   0.43782440  0.62289267  0.52139323
   0.31233094  0.53142509  0.25629688
   0.68701677  0.29891936  0.87520061
   0.31241214  0.87336956  0.52147533
   0.81181546  0.04994289  0.87514462
   0.93729531  0.46210526  0.69960403
   0.18759892  0.45520526  0.47837290
   0.93687340  0.13240532  0.78803981
   0.93666415  0.63217960  0.78811361
   0.31242346  0.70731152  0.56540615
   0.18707048  0.46143866  0.69952556
   0.68797390  0.44557458  0.21187276
   0.68805091  0.11641534  0.30040427
   0.56323024  0.20562217  0.47853482
   0.93827004  0.62663093  0.65470673
   0.31205258  0.38192692  0.78816915
   0.31228083  0.86187008  0.16702147
   0.06230023  0.04195177  0.61045395
   0.06303829  0.37596075  0.65473022
   0.68757071  0.28567129  0.38935218
   0.81241005  0.20513924  0.47848011
   0.81316261  0.87628526  0.65487058
   0.68790027  0.62277371  0.52151997
   0.31241063  0.04200867  0.61054449
   0.68775468  0.61609927  0.30046069
   0.06184355  0.20162569  0.34522005
   0.18733003  0.12041296  0.43432172
   0.68751305  0.95548212  0.47847215
   0.31276149  0.86615650  0.30053336
   0.06255077  0.36272963  0.16705300
   0.56299748  0.37616607  0.65493386
   0.93669050  0.29909624  0.87525083
   0.31204636  0.20552046  0.47855857
   0.81249789  0.37053380  0.43446116
   0.81220303  0.71148256  0.69948421
   0.43759250  0.95478727  0.47849837
   0.68776991  0.12253125  0.52154334
   0.81192848  0.86250311  0.16697932
   0.93811686  0.28594662  0.38935163
   0.06230673  0.53573612  0.38927186
   0.56247459  0.03111206  0.25622355
   0.06281328  0.04751159  0.74381776
   0.68866843  0.29668107  0.74381376
   0.31263212  0.53595631  0.38935566
   0.31279917  0.36593423  0.30039648
   0.43736345  0.95162733  0.34516994
   0.31177538  0.88119555  0.78816532
   0.93724581  0.79192364  0.61064556
   0.06222026  0.20535412  0.47847810
   0.31269053  0.04660803  0.74376064
   0.06221969  0.70554181  0.47842295
   0.31160189  0.54956478  0.87519337
   0.06261285  0.54195438  0.61054785
   0.43775570  0.95752147  0.56571385
   0.43725226  0.45690380  0.56565803
   0.93752195  0.45529386  0.47840893
   0.81217239  0.53094987  0.25622033
   0.43848449  0.94611563  0.21194396
   0.93757305  0.62302787  0.52146895
   0.56248829  0.86643091  0.30060239
   0.56163326  0.04966516  0.87517457
   0.31179886  0.04988693  0.87514408
   0.43784130  0.29669960  0.74376385
   0.56295971  0.53564552  0.38929441
   0.06275084  0.36591581  0.30052513
   0.56239419  0.03592036  0.38941592
   0.56222039  0.86977704  0.43437154
   0.93777259  0.79988042  0.87514562
   0.31231236  0.87057255  0.43431996
   0.06259582  0.70780343  0.56577488
   0.56195436  0.70154169  0.34513031
   0.43736663  0.29223977  0.61045771
   0.81224272  0.87258139  0.52149594
   0.68721569  0.95809844  0.56553836
   0.68759733  0.12005468  0.43425981
   0.81356057  0.52852853  0.12488269
   0.81250544  0.70177833  0.34512401
   0.43740266  0.79190270  0.61073796
   0.06222733  0.03066084  0.25618913
   0.93728715  0.62047576  0.43437919
   0.43741348  0.78592782  0.38940499
   0.06273064  0.87256669  0.52151509
   0.68822338  0.94579030  0.21206229
   0.81300503  0.04634091  0.74375421
   0.56245066  0.37299166  0.52155503
   0.93726642  0.46562049  0.83317034
   0.93787764  0.79706203  0.74379453
   0.43753605  0.61599251  0.30041738
   0.31288982  0.03683944  0.38934746
   0.06237665  0.71474985  0.83303730
   0.18761557  0.11598101  0.30054220
   0.56268522  0.36639600  0.30057157
   0.06233053  0.86170024  0.16688736
   0.43660518  0.13192490  0.78813598
   0.31171650  0.70114391  0.34525349
   0.68742837  0.61997257  0.43443070
   0.18724694  0.62058727  0.43436017
   0.18780183  0.95812128  0.56571091
   0.81254540  0.70524189  0.47846324
   0.06273838  0.87053769  0.43436113
   0.81280419  0.54736063  0.74385779
   0.18767913  0.45718735  0.56559211
   0.31298042  0.37647458  0.65476343
   0.68799028  0.46563708  0.83313473
   0.18730001  0.61236270  0.16711341
   0.43802454  0.11634876  0.30051121
   0.68761885  0.79188945  0.61058977
   0.06360228  0.52753316  0.12481572
   0.93802444  0.44558203  0.21197613
   0.56284617  0.86264686  0.16692429
   0.93797461  0.27795800  0.12487281
   0.06260159  0.03641172  0.38940178
   0.06171868  0.53125566  0.25632825
   0.68828257  0.27751940  0.12475752
   0.43782932  0.46515221  0.83304299
   0.68741909  0.29243573  0.61075275
   0.68798986  0.96545836  0.83298763
   0.93736981  0.61245984  0.16698856
   0.06158917  0.88161250  0.78797097
   0.31233129  0.54243072  0.61054719
   0.18698747  0.95130941  0.34514536
   0.18798242  0.62668649  0.65472141
   0.93802676  0.61587307  0.30045854
   0.56181709  0.88220687  0.78807566
   0.06309469  0.86626159  0.30057365
   0.68675867  0.13257159  0.78812069
   0.43712762  0.45149545  0.34520754
   0.68809256  0.77812812  0.12489208
   0.06254436  0.37293364  0.52150044
   0.56240663  0.04206326  0.61048269
   0.56099803  0.55028840  0.87509340
   0.56228119  0.52813634  0.12488709
   0.06240437  0.37060619  0.43437475
   0.56264382  0.87274727  0.52152930
   0.68723224  0.78067459  0.25620477
   0.31230557  0.36291717  0.16696253
   0.18834471  0.79699035  0.74373559
   0.56224712  0.54189374  0.61060062
   0.06251468  0.55047361  0.87516413
   0.93766570  0.11608351  0.30052832
   0.93717433  0.28108908  0.25628209
   0.18735974  0.78117687  0.25627829
   0.43724103  0.12049636  0.43463414
   0.18778906  0.61602262  0.30051150
   0.93744173  0.11259940  0.16700147
   0.56273745  0.70543200  0.47852182
   0.81280899  0.86594167  0.30049004
   0.06287818  0.87671831  0.65480122
   0.43777262  0.12619265  0.65480118
   0.56146891  0.38166603  0.78799121
   0.18674761  0.62273053  0.52142083
   0.93685487  0.95129203  0.34516738
   0.06196546  0.71177715  0.69944570
   0.68743389  0.79671763  0.74376059
   0.18778995  0.78599881  0.38937435
   0.93809771  0.12617848  0.65474138
   0.93734139  0.45204379  0.34530777
   0.68717372  0.95150504  0.34524878
   0.68708927  0.96105137  0.69944901
   0.81232357  0.37271760  0.52146400
   0.18726158  0.11207599  0.16705007
   0.81219866  0.54204210  0.61058896
   0.18822108  0.77755754  0.12487418
   0.18652583  0.80009370  0.87526493
   0.81270257  0.02893936  0.12466326
   0.43770258  0.96507844  0.83298541
   0.18772032  0.96459224  0.83313389
   0.18722727  0.12256402  0.52151754
   0.31249228  0.02800414  0.12493939
   0.93778586  0.78606837  0.38937301
   0.56222140  0.21143702  0.69949410
   0.68779476  0.45765475  0.56558453
   0.43819583  0.27785084  0.12481719
   0.68791545  0.12578294  0.65476857
   0.81255394  0.53618084  0.38941222
   0.56222432  0.19586075  0.21200732
   0.68830821  0.62596885  0.65469451
   0.93706988  0.29719884  0.74379888
   0.43748442  0.12281657  0.52139804
   0.68767132  0.78579186  0.38919516
   0.31233021  0.21183996  0.69922499
   0.81326628  0.69583015  0.21214395
   0.68706058  0.28076884  0.25627252
   0.43742412  0.96114137  0.69956542
   0.81190450  0.54954080  0.87491822
   0.18845051  0.29738823  0.74411178
   0.31239993  0.70544669  0.47847627
   0.56288587  0.70751722  0.56571833
   0.56206035  0.20189446  0.34534595
   0.31202026  0.03064805  0.25612216
   0.68715229  0.11232617  0.16637362
Direct configuration=     3
   0.56342245  0.02836776  0.12468327
   0.56217070  0.36182540  0.16702846
   0.43717067  0.11245695  0.16699012
   0.56239004  0.71187759  0.69949652
   0.31309946  0.69590211  0.21199403
   0.06265205  0.20763643  0.56554955
   0.81277133  0.37610405  0.65473380
   0.56277228  0.20772915  0.56561333
   0.06343049  0.69552933  0.21196110
   0.18733378  0.95540077  0.47848670
   0.06220856  0.38152972  0.78793640
   0.93763805  0.78058678  0.25618670
   0.43764326  0.45447193  0.47844367
   0.81203219  0.21179781  0.69935841
   0.93815807  0.77740220  0.12490171
   0.31270198  0.71520647  0.83292824
   0.81230698  0.20168620  0.34517886
   0.18749879  0.28616249  0.38939473
   0.81277301  0.21591463  0.83307434
   0.81263302  0.71448313  0.83302401
   0.18804313  0.27775530  0.12485956
   0.56313813  0.71557604  0.83307961
   0.43777246  0.62676082  0.65480011
   0.31207009  0.71180980  0.69949677
   0.43793477  0.77733114  0.12492663
   0.43729908  0.28578079  0.38938811
   0.06196381  0.21192242  0.69936954
   0.68653910  0.63215431  0.78813518
   0.18726384  0.29231026  0.61057706
   0.56269501  0.04627584  0.74380847
   0.93720457  0.96181445  0.69949098
   0.56247176  0.37051270  0.43428838
   0.06258854  0.54669247  0.74370110
   0.06349984  0.02831192  0.12493165
   0.18689696  0.63164147  0.78806761
   0.31221209  0.37105565  0.43436508
   0.56238736  0.21533329  0.83287325
   0.68598537  0.79980166  0.87518189
   0.81240070  0.03569696  0.38944669
   0.31220470  0.20746313  0.56558526
   0.18645730  0.13187127  0.78819205
   0.81290423  0.20792257  0.56559853
   0.93767969  0.96528596  0.83294985
   0.06288791  0.21512060  0.83285978
   0.18799885  0.12659480  0.65470908
   0.81162101  0.38214404  0.78810138
   0.31269969  0.87692267  0.65491885
   0.31301062  0.52752001  0.12480791
   0.93758296  0.29208325  0.61059383
   0.68754641  0.46180608  0.69955172
   0.18711269  0.96224609  0.69951114
   0.43804500  0.79681009  0.74381586
   0.81246794  0.87050523  0.43447245
   0.43829344  0.44567646  0.21194064
   0.56297824  0.87609772  0.65472618
   0.31190961  0.20112169  0.34523649
   0.68758943  0.61246482  0.16700430
   0.68694012  0.45188074  0.34534296
   0.81358365  0.19612396  0.21201300
   0.43697959  0.29921985  0.87521602
   0.81226647  0.03070698  0.25611782
   0.06220172  0.70145732  0.34520315
   0.81177059  0.88246401  0.78791240
   0.06189900  0.04953546  0.87518873
   0.43700238  0.61235089  0.16708375
   0.81278920  0.36583792  0.30061923
   0.31257352  0.37360997  0.52147895
   0.31309451  0.19572931  0.21191441
   0.18728943  0.28089527  0.25630214
   0.81287698  0.70767491  0.56565321
   0.68726573  0.45490376  0.47846605
   0.43758014  0.62038575  0.43441155
   0.93777295  0.94596595  0.21197281
   0.93768317  0.45723039  0.56545865
   0.93766290  0.95531155  0.47855118
   0.56299659  0.69585927  0.21191607
   0.43690990  0.63160714  0.78822765
   0.31269047  0.21527808  0.83299220
   0.56273415  0.53110799  0.25616122
   0.18807700  0.44563301  0.21188029
   0.43676438  0.78140466  0.25623276
   0.18743523  0.79204350  0.61063349
   0.43713774  0.46161943  0.69954947
   0.81251258  0.04210283  0.61060790
   0.18681208  0.29949350  0.87516487
   0.06345019  0.19575889  0.21192552
   0.18706148  0.45159794  0.34522618
   0.18801279  0.46515759  0.83303298
   0.18788084  0.94610282  0.21196644
   0.31281521  0.54693844  0.74379612
   0.81247334  0.36180594  0.16710433
   0.93742833  0.12289267  0.52152140
   0.93752816  0.95805256  0.56557037
   0.43707211  0.80003331  0.87525911
   0.93734897  0.12045903  0.43437159
   0.43703581  0.28110077  0.25623880
   0.56287990  0.54711309  0.74381561
   0.43761989  0.62281261  0.52142763
   0.31239719  0.53141719  0.25629522
   0.68702747  0.29888440  0.87519047
   0.31222672  0.87307620  0.52150295
   0.81187471  0.04975757  0.87516171
   0.93734772  0.46210487  0.69956060
   0.18755218  0.45487100  0.47838178
   0.93697392  0.13225743  0.78803158
   0.93676511  0.63199915  0.78810235
   0.31238322  0.70726825  0.56537719
   0.18709099  0.46141150  0.69949018
   0.68787826  0.44566970  0.21187448
   0.68796275  0.11639970  0.30044259
   0.56294962  0.20524341  0.47850564
   0.93820859  0.62672525  0.65468908
   0.31209190  0.38184506  0.78816439
   0.31234984  0.86181586  0.16707513
   0.06230791  0.04192166  0.61044269
   0.06298614  0.37602457  0.65471006
   0.68753933  0.28569792  0.38937309
   0.81247878  0.20504630  0.47846870
   0.81310236  0.87635598  0.65484752
   0.68783960  0.62273913  0.52153138
   0.31244638  0.04197999  0.61053722
   0.68773788  0.61607829  0.30049557
   0.06190821  0.20155308  0.34524657
   0.18732192  0.12049460  0.43432140
   0.68730125  0.95546536  0.47846992
   0.31270909  0.86612786  0.30056020
   0.06260759  0.36264010  0.16710342
   0.56291353  0.37621697  0.65491427
   0.93677098  0.29903503  0.87524061
   0.31216639  0.20538662  0.47852339
   0.81255724  0.37058538  0.43445628
   0.81223221  0.71148406  0.69944902
   0.43780654  0.95505184  0.47847376
   0.68794414  0.12246686  0.52155076
   0.81200848  0.86242574  0.16701938
   0.93808275  0.28593956  0.38937433
   0.06227522  0.53572272  0.38928918
   0.56252914  0.03118400  0.25622637
   0.06277373  0.04746624  0.74381713
   0.68850054  0.29663370  0.74381089
   0.31259956  0.53596879  0.38937159
   0.31277275  0.36592761  0.30043450
   0.43737330  0.95154931  0.34519724
   0.31185599  0.88114043  0.78816090
   0.93726022  0.79194474  0.61062973
   0.06231085  0.20527796  0.47846626
   0.31266602  0.04663112  0.74376604
   0.06207303  0.70562628  0.47840793
   0.31169146  0.54942471  0.87520440
   0.06261615  0.54197375  0.61052595
   0.43772130  0.95744813  0.56572454
   0.43722722  0.45685657  0.56564694
   0.93755203  0.45512298  0.47840911
   0.81228712  0.53096705  0.25621897
   0.43837804  0.94618255  0.21194281
   0.93749744  0.62303786  0.52147475
   0.56242634  0.86640994  0.30062984
   0.56170855  0.04954391  0.87518619
   0.31187213  0.04976484  0.87516686
   0.43772593  0.29663676  0.74376575
   0.56288203  0.53563160  0.38931400
   0.06271141  0.36592309  0.30056161
   0.56233558  0.03592806  0.38943727
   0.56225263  0.86988172  0.43437331
   0.93781900  0.79983170  0.87513465
   0.31232869  0.87066266  0.43431314
   0.06257877  0.70775236  0.56577440
   0.56200526  0.70146152  0.34515900
   0.43740179  0.29219855  0.61044417
   0.81225748  0.87258743  0.52150704
   0.68725506  0.95804597  0.56554038
   0.68758533  0.12010426  0.43426546
   0.81350762  0.52858726  0.12488103
   0.81257994  0.70169326  0.34514804
   0.43744402  0.79190376  0.61070943
   0.06227408  0.03074042  0.25620127
   0.93728966  0.62053141  0.43437139
   0.43735325  0.78589744  0.38942789
   0.06284648  0.87255627  0.52151864
   0.68813163  0.94585196  0.21205583
   0.81288424  0.04631883  0.74375233
   0.56248890  0.37348433  0.52155950
   0.93708333  0.46575163  0.83313022
   0.93776563  0.79703165  0.74379314
   0.43746094  0.61600593  0.30044946
   0.31285130  0.03680034  0.38936354
   0.06226221  0.71481019  0.83301182
   0.18760528  0.11600705  0.30056925
   0.56264120  0.36637697  0.30060476
   0.06238152  0.86165875  0.16693452
   0.43667441  0.13180692  0.78812026
   0.31176823  0.70109144  0.34527470
   0.68744139  0.62005459  0.43442501
   0.18723774  0.62061920  0.43434376
   0.18778583  0.95804129  0.56570934
   0.81263496  0.70528821  0.47846457
   0.06271057  0.87058040  0.43436279
   0.81271644  0.54734061  0.74385673
   0.18766404  0.45711133  0.56558375
   0.31291501  0.37649843  0.65473690
   0.68797523  0.46575999  0.83309693
   0.18733937  0.61238054  0.16715112
   0.43797063  0.11633772  0.30053958
   0.68764852  0.79190408  0.61056661
   0.06355138  0.52766928  0.12481758
   0.93798138  0.44570438  0.21198573