       N       E                     dE             d eps       ncg     rms          rms(c)
DAV:   1     0.290751766815E+05    0.29075E+05   -0.86150E+05 27930   0.196E+03
DAV:   2     0.118830122703E+04   -0.27887E+05   -0.27267E+05 27720   0.601E+02
DAV:   3    -0.194857655549E+04   -0.31369E+04   -0.27182E+04 38962   0.279E+02
DAV:   4    -0.261840420741E+04   -0.66983E+03   -0.60959E+03 50918   0.974E+01
DAV:   5    -0.273814963105E+04   -0.11975E+03   -0.11208E+03 48286   0.397E+01    0.203E+02
RMM:   6    -0.511458851244E+04   -0.23764E+04   -0.91073E+03 47337   0.218E+02    0.534E+02
RMM:   7    -0.407549605849E+04    0.10391E+04   -0.53329E+03 29437   0.161E+02    0.404E+02
RMM:   8    -0.862125855564E+04   -0.45458E+04   -0.94841E+03 38291   0.272E+02    0.635E+02
RMM:   9    -0.789659600095E+04    0.72466E+03   -0.63201E+03 49314   0.107E+02    0.539E+02
RMM:  10    -0.454245258118E+04    0.33541E+04   -0.67598E+03 29130   0.185E+02    0.467E+02
RMM:  11    -0.388897208528E+04    0.65348E+03   -0.30207E+03 28432   0.112E+02    0.359E+02
RMM:  12    -0.472044429034E+04   -0.83147E+03   -0.41656E+03 44276   0.188E+02    0.411E+02
RMM:  13    -0.668682101777E+04   -0.19664E+04   -0.78089E+03 49811   0.147E+02    0.556E+02
RMM:  14    -0.467121179383E+04    0.20156E+04   -0.48648E+03 30788   0.147E+02    0.390E+02
RMM:  15    -0.458563657171E+04    0.85575E+02   -0.28471E+03 48075   0.857E+01    0.347E+02
RMM:  16    -0.398030715118E+04    0.60533E+03   -0.17401E+03 33655   0.685E+01    0.298E+02
RMM:  17    -0.310451272641E+04    0.87579E+03   -0.61808E+02 27773   0.515E+01    0.243E+02
RMM:  18    -0.309873609866E+04    0.57766E+01   -0.52318E+02 29698   0.413E+01    0.253E+02
RMM:  19    -0.261610431075E+04    0.48263E+03   -0.38918E+02 34937   0.261E+01    0.196E+02
RMM:  20    -0.252160626909E+04    0.94498E+02   -0.19612E+02 36778   0.171E+01    0.165E+02
RMM:  21    -0.246315346590E+04    0.58453E+02   -0.12025E+02 40286   0.987E+00    0.148E+02
RMM:  22    -0.243702247252E+04    0.26131E+02   -0.12081E+02 33919   0.139E+01    0.142E+02
RMM:  23    -0.235861245596E+04    0.78410E+02   -0.45876E+01 31904   0.993E+00    0.932E+01
RMM:  24    -0.233874528051E+04    0.19867E+02   -0.41744E+01 34253   0.814E+00    0.679E+01
RMM:  25    -0.233965495479E+04   -0.90967E+00   -0.58280E+01 37121   0.808E+00    0.707E+01
RMM:  26    -0.233900255837E+04    0.65240E+00   -0.20818E+01 35817   0.540E+00    0.654E+01
RMM:  27    -0.234514111379E+04   -0.61386E+01   -0.10415E+01 30605   0.532E+00    0.694E+01
RMM:  28    -0.234460585623E+04    0.53526E+00   -0.10884E+01 41899   0.286E+00    0.654E+01
RMM:  29    -0.234211242292E+04    0.24934E+01   -0.28706E+00 30752   0.282E+00    0.621E+01
RMM:  30    -0.234370985822E+04   -0.15974E+01   -0.53248E+00 32912   0.327E+00    0.644E+01
RMM:  31    -0.234279800664E+04    0.91185E+00   -0.21641E+00 29998   0.260E+00    0.620E+01
RMM:  32    -0.233560754386E+04    0.71905E+01   -0.29935E+00 32608   0.255E+00    0.494E+01
RMM:  33    -0.232640794528E+04    0.91996E+01   -0.81260E+00 40092   0.279E+00    0.305E+01
RMM:  34    -0.232504911257E+04    0.13588E+01   -0.11149E+01 37895   0.291E+00    0.271E+01
RMM:  35    -0.232959290636E+04   -0.45438E+01   -0.83697E+00 36869   0.292E+00    0.361E+01
RMM:  36    -0.232924936980E+04    0.34354E+00   -0.51047E+00 32520   0.284E+00    0.327E+01
RMM:  37    -0.232913507799E+04    0.11429E+00   -0.52336E+00 43141   0.136E+00    0.321E+01
RMM:  38    -0.232779043130E+04    0.13446E+01   -0.14442E+00 31534   0.131E+00    0.297E+01
RMM:  39    -0.232585053996E+04    0.19399E+01   -0.84286E-01 29407   0.168E+00    0.241E+01
RMM:  40    -0.232660960287E+04   -0.75906E+00   -0.22380E+00 31359   0.225E+00    0.253E+01
RMM:  41    -0.232661334708E+04   -0.37442E-02   -0.17198E+00 30937   0.216E+00    0.242E+01
RMM:  42    -0.232603867218E+04    0.57467E+00   -0.15453E+00 34855   0.161E+00    0.215E+01
RMM:  43    -0.232574108833E+04    0.29758E+00   -0.82153E-01 32540   0.134E+00    0.204E+01
RMM:  44    -0.232497873053E+04    0.76236E+00   -0.37971E-01 28715   0.122E+00    0.166E+01
RMM:  45    -0.232461865268E+04    0.36008E+00   -0.43484E-01 29659   0.123E+00    0.143E+01
RMM:  46    -0.232454538012E+04    0.73273E-01   -0.76290E-01 34869   0.116E+00    0.136E+01
RMM:  47    -0.232466866633E+04   -0.12329E+00   -0.65256E-01 35547   0.991E-01    0.138E+01
RMM:  48    -0.232458532956E+04    0.83337E-01   -0.42177E-01 35352   0.793E-01    0.130E+01
RMM:  49    -0.232436451730E+04    0.22081E+00   -0.29910E-01 30148   0.960E-01    0.114E+01
RMM:  50    -0.232445400326E+04   -0.89486E-01   -0.33202E-01 34057   0.767E-01    0.119E+01
RMM:  51    -0.232664400895E+04   -0.21900E+01   -0.23831E+00 29882   0.279E+00    0.224E+01
RMM:  52    -0.232577367995E+04    0.87033E+00   -0.13250E+00 29104   0.228E+00    0.184E+01
RMM:  53    -0.232489782797E+04    0.87585E+00   -0.10613E+00 30081   0.183E+00    0.132E+01
RMM:  54    -0.232476643194E+04    0.13140E+00   -0.69133E-01 28873   0.173E+00    0.124E+01
RMM:  55    -0.232446182195E+04    0.30461E+00   -0.60263E-01 29358   0.147E+00    0.103E+01
RMM:  56    -0.232709485605E+04   -0.26330E+01   -0.16771E+00 29191   0.243E+00    0.246E+01
RMM:  57    -0.232668150995E+04    0.41335E+00   -0.16900E+00 32230   0.196E+00    0.226E+01
RMM:  58    -0.232553132513E+04    0.11502E+01   -0.97081E-01 28615   0.200E+00    0.174E+01
RMM:  59    -0.232496756388E+04    0.56376E+00   -0.86833E-01 30082   0.161E+00    0.139E+01
RMM:  60    -0.232429838999E+04    0.66917E+00   -0.56025E-01 28226   0.154E+00    0.844E+00
RMM:  61    -0.232445099474E+04   -0.15260E+00   -0.80558E-01 28247   0.189E+00    0.958E+00
RMM:  62    -0.232409578226E+04    0.35521E+00   -0.57385E-01 27966   0.160E+00    0.604E+00
RMM:  63    -0.232405335045E+04    0.42432E-01   -0.28283E-01 29690   0.941E-01    0.539E+00
RMM:  64    -0.232393873400E+04    0.11462E+00   -0.12517E-01 28976   0.692E-01    0.281E+00
RMM:  65    -0.232394603521E+04   -0.73012E-02   -0.17575E-01 35102   0.486E-01    0.284E+00
RMM:  66    -0.232395838941E+04   -0.12354E-01   -0.10152E-01 30331   0.537E-01    0.323E+00
RMM:  67    -0.232395033655E+04    0.80529E-02   -0.49251E-02 28692   0.463E-01    0.299E+00
RMM:  68    -0.232395081400E+04   -0.47745E-03   -0.46540E-02 32269   0.315E-01    0.295E+00
RMM:  69    -0.232394878748E+04    0.20265E-02   -0.27741E-02 30095   0.297E-01    0.284E+00
RMM:  70    -0.232393292064E+04    0.15867E-01   -0.17182E-02 28825   0.268E-01    0.230E+00
RMM:  71    -0.232393976808E+04   -0.68474E-02   -0.48747E-02 28035   0.455E-01    0.253E+00
RMM:  72    -0.232392519087E+04    0.14577E-01   -0.26754E-02 27928   0.396E-01    0.185E+00
RMM:  73    -0.232391548176E+04    0.97091E-02   -0.11261E-02 28334   0.242E-01    0.126E+00
RMM:  74    -0.232390964096E+04    0.58408E-02   -0.91370E-03 29024   0.187E-01    0.850E-01
RMM:  75    -0.232390872993E+04    0.91103E-03   -0.97455E-03 31334   0.153E-01    0.707E-01
RMM:  76    -0.232390887925E+04   -0.14933E-03   -0.61864E-03 28834   0.160E-01    0.720E-01
RMM:  77    -0.232390806090E+04    0.81835E-03   -0.30757E-03 28996   0.114E-01    0.593E-01
RMM:  78    -0.232390767199E+04    0.38891E-03   -0.23913E-03 30634   0.813E-02    0.516E-01
RMM:  79    -0.232390687136E+04    0.80062E-03   -0.16459E-03 32637   0.579E-02    0.314E-01
RMM:  80    -0.232390660228E+04    0.26908E-03   -0.10645E-03 32157   0.488E-02    0.198E-01
RMM:  81    -0.232390708731E+04   -0.48503E-03   -0.13260E-03 34163   0.491E-02    0.334E-01
RMM:  82    -0.232390660563E+04    0.48168E-03   -0.36849E-04 29308   0.374E-02    0.151E-01
RMM:  83    -0.232390664987E+04   -0.44235E-04   -0.39108E-04 36479   0.216E-02    0.169E-01
RMM:  84    -0.232390663016E+04    0.19704E-04   -0.18723E-04 31529   0.205E-02    0.142E-01
RMM:  85    -0.232390662605E+04    0.41128E-05   -0.17136E-04 30648   0.216E-02    0.104E-01
RMM:  86    -0.232390671354E+04   -0.87492E-04   -0.24264E-04 31519   0.240E-02    0.154E-01
RMM:  87    -0.232390662484E+04    0.88704E-04   -0.82335E-05 28442   0.192E-02    0.779E-02
RMM:  88    -0.232390662205E+04    0.27936E-05   -0.67082E-05 31507   0.121E-02    0.529E-02
RMM:  89    -0.232390664122E+04   -0.19176E-04   -0.57674E-05 33063   0.985E-03    0.543E-02
RMM:  90    -0.232390664463E+04   -0.34089E-05   -0.34554E-05 31797   0.771E-03    0.311E-02
RMM:  91    -0.232390666117E+04   -0.16538E-04   -0.41082E-05 31628   0.890E-03    0.548E-02
RMM:  92    -0.232390665103E+04    0.10139E-04   -0.16221E-05 26044   0.655E-03    0.186E-02
RMM:  93    -0.232390666036E+04   -0.93270E-05   -0.16714E-05 25017   0.332E-03    0.238E-02
RMM:  94    -0.232390666823E+04   -0.78715E-05   -0.87316E-06 19464   0.356E-03    0.171E-02
RMM:  95    -0.232390667247E+04   -0.42427E-05   -0.70501E-06 18433   0.276E-03    0.111E-02
RMM:  96    -0.232390667575E+04   -0.32746E-05   -0.61993E-06 17303   0.305E-03    0.136E-02
RMM:  97    -0.232390667917E+04   -0.34241E-05   -0.56200E-06 16980   0.300E-03    0.106E-02
RMM:  98    -0.232390668584E+04   -0.66728E-05   -0.49245E-06 16696   0.219E-03    0.640E-03
RMM:  99    -0.232390668910E+04   -0.32596E-05   -0.43289E-06 16317   0.176E-03    0.481E-03
RMM: 100    -0.232390669327E+04   -0.41695E-05   -0.39227E-06 16132   0.153E-03
   1 F= -.23239067E+04 E0= -.23211491E+04  d E =-.232391E+04
       N       E                     dE             d eps       ncg     rms          rms(c)
DAV:   1    -0.232407822975E+04   -0.17154E+00   -0.42416E+01 28532   0.679E+00    0.112E+00
RMM:   2    -0.232687878463E+04   -0.28006E+01   -0.93551E-01 27921   0.195E+00    0.226E+01
RMM:   3    -0.232470747909E+04    0.21713E+01   -0.41108E-01 37061   0.833E-01    0.960E+00
RMM:   4    -0.232423541739E+04    0.47206E+00   -0.16832E-01 27720   0.975E-01    0.456E+00
RMM:   5    -0.232480586672E+04   -0.57045E+00   -0.14508E-01 41126   0.324E-01    0.112E+01
RMM:   6    -0.232460808323E+04    0.19778E+00   -0.17843E-01 34011   0.574E-01    0.934E+00
RMM:   7    -0.232439000652E+04    0.21808E+00   -0.17911E-01 28709   0.760E-01    0.676E+00
RMM:   8    -0.232416529581E+04    0.22471E+00   -0.61054E-02 27720   0.603E-01    0.244E+00
RMM:   9    -0.232414699085E+04    0.18305E-01   -0.34935E-02 27801   0.418E-01    0.202E+00
RMM:  10    -0.232415235410E+04   -0.53632E-02   -0.37829E-02 28003   0.378E-01    0.229E+00
RMM:  11    -0.232416110534E+04   -0.87512E-02   -0.28503E-02 29345   0.301E-01    0.248E+00
RMM:  12    -0.232413295995E+04    0.28145E-01   -0.11641E-02 27883   0.224E-01    0.112E+00
RMM:  13    -0.232412727665E+04    0.56833E-02   -0.70259E-03 28230   0.175E-01    0.729E-01
RMM:  14    -0.232412700173E+04    0.27492E-03   -0.91615E-03 34659   0.116E-01    0.646E-01
RMM:  15    -0.232412623990E+04    0.76183E-03   -0.49208E-03 32629   0.102E-01    0.485E-01
RMM:  16    -0.232412534470E+04    0.89520E-03   -0.17421E-03 29408   0.808E-02    0.280E-01
RMM:  17    -0.232412534054E+04    0.41515E-05   -0.19706E-03 37883   0.482E-02    0.253E-01
RMM:  18    -0.232412524909E+04    0.91452E-04   -0.96339E-04 30981   0.501E-02    0.203E-01
RMM:  19    -0.232412510751E+04    0.14158E-03   -0.58602E-04 31897   0.377E-02    0.110E-01
RMM:  20    -0.232412513892E+04   -0.31402E-04   -0.47399E-04 38915   0.206E-02    0.119E-01
RMM:  21    -0.232412511459E+04    0.24328E-04   -0.15598E-04 30347   0.224E-02    0.993E-02
RMM:  22    -0.232412508373E+04    0.30854E-04   -0.10071E-04 31732   0.156E-02    0.589E-02
RMM:  23    -0.232412508910E+04   -0.53647E-05   -0.98747E-05 39613   0.954E-03    0.559E-02
RMM:  24    -0.232412508425E+04    0.48469E-05   -0.40320E-05 31635   0.945E-03    0.403E-02
RMM:  25    -0.232412507868E+04    0.55754E-05   -0.20789E-05 30529   0.679E-03    0.205E-02
RMM:  26    -0.232412507985E+04   -0.11790E-05   -0.17035E-05 28190   0.354E-03    0.201E-02
RMM:  27    -0.232412507913E+04    0.72131E-06   -0.51680E-06 20453   0.382E-03
   2 F= -.23241251E+04 E0= -.23213609E+04  d E =-.218386E+00
       N       E                     dE             d eps       ncg     rms          rms(c)
DAV:   1    -0.232394920380E+04    0.17588E+00   -0.38089E+02 27720   0.205E+01    0.393E+00
RMM:   2    -0.234883576861E+04   -0.24887E+02   -0.11357E+01 27809   0.704E+00    0.669E+01
RMM:   3    -0.233382609378E+04    0.15010E+02   -0.47167E+00 37701   0.279E+00    0.387E+01
RMM:   4    -0.234578015901E+04   -0.11954E+02   -0.20282E+00 27755   0.316E+00    0.614E+01
RMM:   5    -0.232639425819E+04    0.19386E+02   -0.17031E+00 36528   0.169E+00    0.157E+01
RMM:   6    -0.233268940477E+04   -0.62951E+01   -0.24722E+00 30417   0.246E+00    0.396E+01
RMM:   7    -0.232628666272E+04    0.64027E+01   -0.14106E+00 27832   0.245E+00    0.175E+01
RMM:   8    -0.232536967736E+04    0.91699E+00   -0.65516E-01 27722   0.190E+00    0.121E+01
RMM:   9    -0.232535571818E+04    0.13959E-01   -0.51959E-01 27975   0.149E+00    0.126E+01
RMM:  10    -0.232531485246E+04    0.40866E-01   -0.59998E-01 28298   0.145E+00    0.117E+01
RMM:  11    -0.232465794547E+04    0.65691E+00   -0.28983E-01 27825   0.123E+00    0.508E+00
RMM:  12    -0.232455928314E+04    0.98662E-01   -0.12101E-01 27995   0.784E-01    0.337E+00
RMM:  13    -0.232453870343E+04    0.20580E-01   -0.98712E-02 30498   0.498E-01    0.259E+00
RMM:  14    -0.232453844557E+04    0.25786E-03   -0.96181E-02 32603   0.439E-01    0.254E+00
RMM:  15    -0.232452121494E+04    0.17231E-01   -0.40791E-02 29495   0.366E-01    0.177E+00
RMM:  16    -0.232451705691E+04    0.41580E-02   -0.32981E-02 33069   0.251E-01    0.149E+00
RMM:  17    -0.232451612735E+04    0.92956E-03   -0.32188E-02 33323   0.250E-01    0.131E+00
RMM:  18    -0.232450922043E+04    0.69069E-02   -0.10566E-02 28307   0.216E-01    0.774E-01
RMM:  19    -0.232450791120E+04    0.13092E-02   -0.81445E-03 31998   0.133E-01    0.598E-01
RMM:  20    -0.232450893105E+04   -0.10199E-02   -0.75623E-03 34663   0.112E-01    0.697E-01
RMM:  21    -0.232450767020E+04    0.12609E-02   -0.30377E-03 30144   0.970E-02    0.474E-01
RMM:  22    -0.232450736283E+04    0.30737E-03   -0.29312E-03 39094   0.531E-02    0.382E-01
RMM:  23    -0.232450707081E+04    0.29202E-03   -0.12497E-03 32933   0.491E-02    0.287E-01
RMM:  24    -0.232450678243E+04    0.28838E-03   -0.63401E-04 30264   0.455E-02    0.176E-01
RMM:  25    -0.232450678647E+04   -0.40385E-05   -0.65412E-04 38233   0.259E-02    0.154E-01
RMM:  26    -0.232450679642E+04   -0.99558E-05   -0.29710E-04 32420   0.238E-02    0.154E-01
RMM:  27    -0.232450671438E+04    0.82048E-04   -0.12058E-04 30936   0.183E-02    0.855E-02
RMM:  28    -0.232450671105E+04    0.33230E-05   -0.13066E-04 38735   0.100E-02    0.704E-02
RMM:  29    -0.232450670068E+04    0.10369E-04   -0.54607E-05 35465   0.867E-03    0.491E-02
RMM:  30    -0.232450669584E+04    0.48464E-05   -0.20438E-05 29718   0.759E-03    0.383E-02
RMM:  31    -0.232450669579E+04    0.49768E-07   -0.21554E-05 31293   0.523E-03    0.351E-02
RMM:  32    -0.232450669244E+04    0.33472E-05   -0.12285E-05 27873   0.505E-03    0.218E-02
RMM:  33    -0.232450669056E+04    0.18818E-05   -0.51210E-06 20980   0.399E-03    0.103E-02
RMM:  34    -0.232450669072E+04   -0.16112E-06   -0.35626E-06 19629   0.243E-03
   3 F= -.23245067E+04 E0= -.23217251E+04  d E =-.599997E+00
       N       E                     dE             d eps       ncg     rms          rms(c)
DAV:   1    -0.232446065122E+04    0.46039E-01   -0.75010E+01 27720   0.903E+00    0.153E+00
RMM:   2    -0.232755762015E+04   -0.30970E+01   -0.16408E+00 27877   0.263E+00    0.237E+01
RMM:   3    -0.232601889030E+04    0.15387E+01   -0.76433E-01 38492   0.104E+00    0.158E+01
RMM:   4    -0.232626878018E+04   -0.24989E+00   -0.28164E-01 27730   0.122E+00    0.178E+01
RMM:   5    -0.232479701763E+04    0.14718E+01   -0.21787E-01 38254   0.529E-01    0.606E+00
RMM:   6    -0.232546842494E+04   -0.67141E+00   -0.39595E-01 30576   0.953E-01    0.130E+01
RMM:   7    -0.232521388899E+04    0.25454E+00   -0.27086E-01 28347   0.962E-01    0.109E+01
RMM:   8    -0.232470173334E+04    0.51216E+00   -0.11867E-01 27734   0.747E-01    0.516E+00
RMM:   9    -0.232461635717E+04    0.85376E-01   -0.57743E-02 27928   0.513E-01    0.347E+00
RMM:  10    -0.232459479147E+04    0.21566E-01   -0.61726E-02 28045   0.491E-01    0.296E+00
RMM:  11    -0.232456705783E+04    0.27734E-01   -0.57528E-02 28585   0.456E-01    0.185E+00
RMM:  12    -0.232455401930E+04    0.13039E-01   -0.20967E-02 27863   0.338E-01    0.118E+00
RMM:  13    -0.232455028480E+04    0.37345E-02   -0.12689E-02 30167   0.190E-01    0.864E-01
RMM:  14    -0.232455252609E+04   -0.22413E-02   -0.15097E-02 33867   0.156E-01    0.101E+00
RMM:  15    -0.232454931338E+04    0.32127E-02   -0.65686E-03 30631   0.133E-01    0.636E-01
RMM:  16    -0.232454746559E+04    0.18478E-02   -0.29888E-03 29473   0.104E-01    0.273E-01
RMM:  17    -0.232454758919E+04   -0.12360E-03   -0.35419E-03 36119   0.675E-02    0.264E-01
RMM:  18    -0.232454766845E+04   -0.79256E-04   -0.17529E-03 31619   0.644E-02    0.267E-01
RMM:  19    -0.232454741874E+04    0.24971E-03   -0.89598E-04 32008   0.458E-02    0.148E-01
RMM:  20    -0.232454746332E+04   -0.44583E-04   -0.78707E-04 40698   0.235E-02    0.148E-01
RMM:  21    -0.232454742146E+04    0.41860E-04   -0.24398E-04 30607   0.270E-02    0.120E-01
RMM:  22    -0.232454737420E+04    0.47261E-04   -0.19140E-04 33375   0.192E-02    0.644E-02
RMM:  23    -0.232454738461E+04   -0.10416E-04   -0.15150E-04 39459   0.122E-02    0.651E-02
RMM:  24    -0.232454737826E+04    0.63519E-05   -0.58660E-05 31208   0.122E-02    0.509E-02
RMM:  25    -0.232454736986E+04    0.84014E-05   -0.33950E-05 31629   0.858E-03    0.270E-02
RMM:  26    -0.232454737265E+04   -0.27848E-05   -0.29781E-05 33183   0.471E-03    0.295E-02
RMM:  27    -0.232454737131E+04    0.13317E-05   -0.95154E-06 24824   0.451E-03    0.216E-02
RMM:  28    -0.232454736997E+04    0.13446E-05   -0.41240E-06 19919   0.373E-03    0.140E-02
RMM:  29    -0.232454736989E+04    0.78697E-07   -0.29039E-06 18972   0.232E-03
   4 F= -.23245474E+04 E0= -.23217599E+04  d E =-.640677E+00
       N       E                     dE             d eps       ncg     rms          rms(c)
DAV:   1    -0.232460250818E+04   -0.55138E-01   -0.69868E+01 27720   0.876E+00    0.141E+00
RMM:   2    -0.232691314943E+04   -0.23106E+01   -0.13944E+00 27979   0.242E+00    0.211E+01
RMM:   3    -0.232595217990E+04    0.96097E+00   -0.63533E-01 39297   0.899E-01    0.149E+01
RMM:   4    -0.232644063916E+04   -0.48846E+00   -0.18596E-01 27859   0.892E-01    0.179E+01
RMM:   5    -0.232513138082E+04    0.13093E+01   -0.18142E-01 34176   0.600E-01    0.840E+00
RMM:   6    -0.232492657418E+04    0.20481E+00   -0.22075E-01 28104   0.892E-01    0.648E+00
RMM:   7    -0.232518404678E+04   -0.25747E+00   -0.27374E-01 29265   0.913E-01    0.971E+00
RMM:   8    -0.232488576129E+04    0.29829E+00   -0.11452E-01 28589   0.637E-01    0.614E+00
RMM:   9    -0.232470177402E+04    0.18399E+00   -0.55669E-02 27778   0.528E-01    0.194E+00
RMM:  10    -0.232471106893E+04   -0.92949E-02   -0.56105E-02 29766   0.397E-01    0.252E+00
RMM:  11    -0.232470468096E+04    0.63880E-02   -0.60853E-02 29812   0.409E-01    0.213E+00
RMM:  12    -0.232468919463E+04    0.15486E-01   -0.21376E-02 27736   0.323E-01    0.138E+00
RMM:  13    -0.232467999394E+04    0.92007E-02   -0.92256E-03 28012   0.204E-01    0.680E-01
RMM:  14    -0.232468029646E+04   -0.30252E-03   -0.11764E-02 34409   0.135E-01    0.634E-01
RMM:  15    -0.232467984577E+04    0.45069E-03   -0.73054E-03 32259   0.128E-01    0.533E-01
RMM:  16    -0.232467880157E+04    0.10442E-02   -0.29014E-03 30113   0.933E-02    0.305E-01
RMM:  17    -0.232467886516E+04   -0.63593E-04   -0.30584E-03 39834   0.532E-02    0.283E-01
RMM:  18    -0.232467864881E+04    0.21635E-03   -0.10556E-03 30696   0.545E-02    0.199E-01
RMM:  19    -0.232467853082E+04    0.11800E-03   -0.75404E-04 33381   0.379E-02    0.110E-01
RMM:  20    -0.232467857656E+04   -0.45742E-04   -0.57351E-04 39488   0.225E-02    0.122E-01
RMM:  21    -0.232467856660E+04    0.99580E-05   -0.20352E-04 30316   0.251E-02    0.106E-01
RMM:  22    -0.232467852666E+04    0.39940E-04   -0.11348E-04 30762   0.181E-02    0.579E-02
RMM:  23    -0.232467853553E+04   -0.88714E-05   -0.12518E-04 38854   0.110E-02    0.612E-02
RMM:  24    -0.232467852757E+04    0.79617E-05   -0.46100E-05 31513   0.105E-02    0.438E-02
RMM:  25    -0.232467852160E+04    0.59689E-05   -0.28910E-05 32405   0.694E-03    0.234E-02
RMM:  26    -0.232467852202E+04   -0.42381E-06   -0.19184E-05 28982   0.357E-03    0.188E-02
RMM:  27    -0.232467852162E+04    0.40146E-06   -0.60594E-06 21685   0.388E-03
   5 F= -.23246785E+04 E0= -.23218943E+04  d E =-.131152E+00
