       N       E                     dE             d eps       ncg     rms          rms(c)
DAV:   1     0.290746938744E+05    0.29075E+05   -0.86150E+05 27930   0.196E+03
DAV:   2     0.118782175401E+04   -0.27887E+05   -0.27268E+05 27720   0.601E+02
DAV:   3    -0.194930070825E+04   -0.31371E+04   -0.27188E+04 38948   0.279E+02
DAV:   4    -0.261878363529E+04   -0.66948E+03   -0.60932E+03 50932   0.973E+01
DAV:   5    -0.273850611068E+04   -0.11972E+03   -0.11206E+03 48258   0.397E+01    0.204E+02
RMM:   6    -0.581109906655E+04   -0.30726E+04   -0.11036E+04 47897   0.238E+02    0.605E+02
RMM:   7    -0.340483930662E+04    0.24063E+04   -0.35387E+03 32182   0.108E+02    0.349E+02
RMM:   8    -0.107901181743E+05   -0.73853E+04   -0.18271E+04 45520   0.365E+02    0.114E+03
RMM:   9    -0.138365619700E+05   -0.30464E+04   -0.16577E+04 50202   0.181E+02    0.774E+02
RMM:  10    -0.754735324234E+04    0.62892E+04   -0.46925E+03 36341   0.136E+02    0.492E+02
RMM:  11    -0.948380166345E+04   -0.19364E+04   -0.14249E+04 43672   0.280E+02    0.773E+02
RMM:  12    -0.100002713426E+05   -0.51647E+03   -0.11759E+04 48644   0.140E+02    0.731E+02
RMM:  13    -0.903566642141E+04    0.96460E+03   -0.63469E+03 48242   0.125E+02    0.681E+02
RMM:  14    -0.915778335379E+04   -0.12212E+03   -0.85739E+03 36568   0.210E+02    0.642E+02
RMM:  15    -0.540599830307E+04    0.37518E+04   -0.48568E+03 31024   0.133E+02    0.477E+02
RMM:  16    -0.781014675074E+04   -0.24041E+04   -0.36721E+03 36685   0.122E+02    0.523E+02
RMM:  17    -0.309229169244E+04    0.47179E+04   -0.36212E+03 35737   0.144E+02    0.359E+02
RMM:  18    -0.267418223842E+04    0.41811E+03   -0.23421E+03 49446   0.605E+01    0.286E+02
RMM:  19    -0.279593507889E+04   -0.12175E+03   -0.16996E+03 48681   0.603E+01    0.300E+02
RMM:  20    -0.255503590053E+04    0.24090E+03   -0.19255E+03 46816   0.525E+01    0.207E+02
RMM:  21    -0.263780090977E+04   -0.82765E+02   -0.17486E+03 50467   0.473E+01    0.193E+02
RMM:  22    -0.266336701074E+04   -0.25566E+02   -0.10523E+03 46389   0.330E+01    0.196E+02
RMM:  23    -0.260809643306E+04    0.55271E+02   -0.84278E+02 44406   0.329E+01    0.158E+02
RMM:  24    -0.260125911266E+04    0.68373E+01   -0.78139E+02 43332   0.257E+01    0.159E+02
RMM:  25    -0.260202495047E+04   -0.76584E+00   -0.70947E+02 43318   0.196E+01    0.135E+02
RMM:  26    -0.261126085156E+04   -0.92359E+01   -0.62823E+02 42971   0.168E+01    0.137E+02
RMM:  27    -0.262236054416E+04   -0.11100E+02   -0.49361E+02 45363   0.112E+01    0.142E+02
RMM:  28    -0.263503390312E+04   -0.12673E+02   -0.35634E+02 44842   0.812E+00    0.155E+02
RMM:  29    -0.270371411239E+04   -0.68680E+02   -0.30415E+02 43527   0.723E+00    0.175E+02
RMM:  30    -0.270648279801E+04   -0.27687E+01   -0.20508E+02 41646   0.570E+00    0.187E+02
RMM:  31    -0.265885026710E+04    0.47633E+02   -0.95530E+01 39640   0.448E+00    0.192E+02
RMM:  32    -0.260476558841E+04    0.54085E+02   -0.46668E+01 39237   0.345E+00    0.191E+02
RMM:  33    -0.250625631453E+04    0.98509E+02   -0.23356E+01 36449   0.415E+00    0.172E+02
RMM:  34    -0.235327445159E+04    0.15298E+03   -0.80636E+01 34907   0.873E+00    0.790E+01
RMM:  35    -0.234427947076E+04    0.89950E+01   -0.12051E+02 35371   0.126E+01    0.775E+01
RMM:  36    -0.234178913691E+04    0.24903E+01   -0.64799E+01 36111   0.880E+00    0.674E+01
RMM:  37    -0.234822868985E+04   -0.64396E+01   -0.53189E+01 43312   0.443E+00    0.687E+01
RMM:  38    -0.235014619292E+04   -0.19175E+01   -0.22273E+01 43337   0.273E+00    0.686E+01
RMM:  39    -0.234880307371E+04    0.13431E+01   -0.81074E+00 36162   0.241E+00    0.661E+01
RMM:  40    -0.234337944053E+04    0.54236E+01   -0.35991E+00 33140   0.225E+00    0.587E+01
RMM:  41    -0.233946306711E+04    0.39164E+01   -0.29821E+00 30639   0.280E+00    0.530E+01
RMM:  42    -0.233882507309E+04    0.63799E+00   -0.46163E+00 34962   0.262E+00    0.510E+01
RMM:  43    -0.234087889347E+04   -0.20538E+01   -0.43171E+00 31992   0.307E+00    0.534E+01
RMM:  44    -0.233929347892E+04    0.15854E+01   -0.37178E+00 37204   0.233E+00    0.514E+01
RMM:  45    -0.233626710574E+04    0.30264E+01   -0.22176E+00 39723   0.155E+00    0.474E+01
RMM:  46    -0.233211508715E+04    0.41520E+01   -0.16649E+00 30878   0.208E+00    0.407E+01
RMM:  47    -0.233124334405E+04    0.87174E+00   -0.37258E+00 31479   0.299E+00    0.397E+01
RMM:  48    -0.233367388655E+04   -0.24305E+01   -0.39556E+00 33362   0.270E+00    0.452E+01
RMM:  49    -0.233361062681E+04    0.63260E-01   -0.22413E+00 32867   0.214E+00    0.446E+01
RMM:  50    -0.233226727988E+04    0.13433E+01   -0.20655E+00 35988   0.188E+00    0.425E+01
RMM:  51    -0.239441520439E+04   -0.62148E+02   -0.40500E+01 31593   0.929E+00    0.102E+02
RMM:  52    -0.247622171241E+04   -0.81807E+02   -0.82488E+01 32429   0.126E+01    0.151E+02
RMM:  53    -0.247073120716E+04    0.54905E+01   -0.57709E+01 37935   0.766E+00    0.159E+02
RMM:  54    -0.241651276741E+04    0.54218E+02   -0.13265E+01 33737   0.464E+00    0.136E+02
RMM:  55    -0.240198707538E+04    0.14526E+02   -0.55116E+00 31684   0.349E+00    0.127E+02
RMM:  56    -0.255657682461E+04   -0.15459E+03   -0.99152E+01 34302   0.112E+01    0.179E+02
RMM:  57    -0.253282112261E+04    0.23756E+02   -0.70965E+01 34987   0.784E+00    0.174E+02
RMM:  58    -0.250253003662E+04    0.30291E+02   -0.49186E+01 41594   0.456E+00    0.168E+02
RMM:  59    -0.249657495980E+04    0.59551E+01   -0.32188E+01 42241   0.277E+00    0.169E+02
RMM:  60    -0.249573523422E+04    0.83973E+00   -0.23475E+01 45260   0.153E+00    0.171E+02
RMM:  61    -0.243545203834E+04    0.60283E+02   -0.11151E+01 30837   0.522E+00    0.144E+02
RMM:  62    -0.240219310237E+04    0.33259E+02   -0.13725E+01 29508   0.664E+00    0.128E+02
RMM:  63    -0.235986421928E+04    0.42329E+02   -0.15368E+01 30635   0.623E+00    0.864E+01
RMM:  64    -0.235260247413E+04    0.72617E+01   -0.18003E+01 31643   0.637E+00    0.751E+01
RMM:  65    -0.235000888373E+04    0.25936E+01   -0.23930E+01 32343   0.689E+00    0.710E+01
RMM:  66    -0.241326814784E+04   -0.63259E+02   -0.35417E+01 31108   0.929E+00    0.133E+02
RMM:  67    -0.239812601878E+04    0.15142E+02   -0.27221E+01 42226   0.407E+00    0.122E+02
RMM:  68    -0.236339204044E+04    0.34734E+02   -0.12275E+01 28799   0.681E+00    0.824E+01
RMM:  69    -0.234477021325E+04    0.18622E+02   -0.16800E+01 33318   0.586E+00    0.633E+01
RMM:  70    -0.233609555976E+04    0.86747E+01   -0.99234E+00 36805   0.364E+00    0.519E+01
RMM:  71    -0.234061970650E+04   -0.45241E+01   -0.14472E+01 31857   0.571E+00    0.586E+01
RMM:  72    -0.233569098089E+04    0.49287E+01   -0.51567E+00 28663   0.484E+00    0.505E+01
RMM:  73    -0.233213293050E+04    0.35581E+01   -0.42953E+00 30641   0.348E+00    0.443E+01
RMM:  74    -0.232947078029E+04    0.26622E+01   -0.43694E+00 29789   0.368E+00    0.380E+01
RMM:  75    -0.232924328387E+04    0.22750E+00   -0.44543E+00 31879   0.323E+00    0.355E+01
RMM:  76    -0.233053057918E+04   -0.12873E+01   -0.70135E+00 32397   0.391E+00    0.399E+01
RMM:  77    -0.232703759317E+04    0.34930E+01   -0.38801E+00 30248   0.344E+00    0.299E+01
RMM:  78    -0.232633763569E+04    0.69996E+00   -0.43772E+00 38465   0.227E+00    0.274E+01
RMM:  79    -0.232658994284E+04   -0.25231E+00   -0.16310E+00 33262   0.172E+00    0.280E+01
RMM:  80    -0.232682783845E+04   -0.23790E+00   -0.11115E+00 31199   0.167E+00    0.285E+01
RMM:  81    -0.233109700448E+04   -0.42692E+01   -0.40912E+00 29598   0.361E+00    0.386E+01
RMM:  82    -0.233414330180E+04   -0.30463E+01   -0.24223E+00 28768   0.330E+00    0.459E+01
RMM:  83    -0.233320362008E+04    0.93968E+00   -0.29575E+00 38851   0.159E+00    0.434E+01
RMM:  84    -0.233364057560E+04   -0.43696E+00   -0.10493E+00 30346   0.179E+00    0.447E+01
RMM:  85    -0.233190986771E+04    0.17307E+01   -0.19390E+00 37707   0.159E+00    0.406E+01
RMM:  86    -0.232875906194E+04    0.31508E+01   -0.40062E+00 27758   0.404E+00    0.305E+01
RMM:  87    -0.232656204514E+04    0.21970E+01   -0.29254E+00 27721   0.397E+00    0.231E+01
RMM:  88    -0.232620512372E+04    0.35692E+00   -0.14881E+00 29873   0.208E+00    0.225E+01
RMM:  89    -0.232633581943E+04   -0.13070E+00   -0.15555E+00 35428   0.154E+00    0.229E+01
RMM:  90    -0.232611313071E+04    0.22269E+00   -0.72324E-01 32618   0.124E+00    0.217E+01
RMM:  91    -0.232629779191E+04   -0.18466E+00   -0.16142E+00 28219   0.252E+00    0.227E+01
RMM:  92    -0.232550071954E+04    0.79707E+00   -0.95761E-01 27721   0.243E+00    0.191E+01
RMM:  93    -0.232519935562E+04    0.30136E+00   -0.47523E-01 28256   0.140E+00    0.175E+01
RMM:  94    -0.232483484090E+04    0.36451E+00   -0.52443E-01 38319   0.848E-01    0.154E+01
RMM:  95    -0.232472207343E+04    0.11277E+00   -0.28526E-01 30401   0.898E-01    0.149E+01
RMM:  96    -0.233035513824E+04   -0.56331E+01   -0.80644E+00 29594   0.496E+00    0.351E+01
RMM:  97    -0.232624389843E+04    0.41112E+01   -0.24321E+00 27720   0.401E+00    0.216E+01
RMM:  98    -0.232546483058E+04    0.77907E+00   -0.73126E-01 30116   0.146E+00    0.187E+01
RMM:  99    -0.232457370935E+04    0.89112E+00   -0.56285E-01 29137   0.140E+00    0.131E+01
RMM: 100    -0.232439029688E+04    0.18341E+00   -0.50059E-01 29982   0.118E+00
   1 F= -.23243903E+04 E0= -.23216116E+04  d E =-.232439E+04
       N       E                     dE             d eps       ncg     rms          rms(c)
DAV:   1    -0.232674086705E+04   -0.21672E+01   -0.57959E+01 42910   0.120E+01    0.225E+01
RMM:   2    -0.362994253462E+04   -0.13032E+04   -0.13915E+03 44403   0.611E+01    0.275E+02
RMM:   3    -0.339434733284E+04    0.23560E+03   -0.51596E+02 28194   0.475E+01    0.296E+02
RMM:   4    -0.272683385285E+04    0.66751E+03   -0.12756E+02 27765   0.241E+01    0.229E+02
RMM:   5    -0.257870486429E+04    0.14813E+03   -0.66338E+01 37191   0.106E+01    0.188E+02
RMM:   6    -0.238029639556E+04    0.19841E+03   -0.41919E+01 27872   0.132E+01    0.941E+01
RMM:   7    -0.239011506538E+04   -0.98187E+01   -0.54294E+01 32227   0.116E+01    0.108E+02
RMM:   8    -0.235173660752E+04    0.38378E+02   -0.59727E+01 35653   0.104E+01    0.682E+01
RMM:   9    -0.233226550759E+04    0.19471E+02   -0.26963E+01 30119   0.850E+00    0.402E+01
RMM:  10    -0.236006604986E+04   -0.27801E+02   -0.34213E+01 35032   0.750E+00    0.780E+01
RMM:  11    -0.233909488815E+04    0.20971E+02   -0.88597E+00 29192   0.551E+00    0.503E+01
RMM:  12    -0.233167378890E+04    0.74211E+01   -0.35473E+00 29163   0.346E+00    0.365E+01
RMM:  13    -0.233025781585E+04    0.14160E+01   -0.35120E+00 31847   0.268E+00    0.335E+01
RMM:  14    -0.232739495742E+04    0.28629E+01   -0.32687E+00 37844   0.208E+00    0.242E+01
RMM:  15    -0.232606734120E+04    0.13276E+01   -0.14701E+00 31685   0.183E+00    0.189E+01
RMM:  16    -0.232534732847E+04    0.72001E+00   -0.15897E+00 38661   0.139E+00    0.150E+01
RMM:  17    -0.232504204133E+04    0.30529E+00   -0.59790E-01 32751   0.105E+00    0.131E+01
RMM:  18    -0.232497826388E+04    0.63777E-01   -0.45102E-01 41101   0.638E-01    0.126E+01
RMM:  19    -0.232490934496E+04    0.68919E-01   -0.14737E-01 30730   0.635E-01    0.122E+01
RMM:  20    -0.232465064076E+04    0.25870E+00   -0.20491E-01 28134   0.901E-01    0.105E+01
RMM:  21    -0.232418114878E+04    0.46949E+00   -0.30114E-01 31487   0.853E-01    0.596E+00
RMM:  22    -0.232413867012E+04    0.42479E-01   -0.22811E-01 32262   0.679E-01    0.539E+00
RMM:  23    -0.232416099308E+04   -0.22323E-01   -0.20950E-01 39748   0.479E-01    0.548E+00
RMM:  24    -0.232413471046E+04    0.26283E-01   -0.51593E-02 31035   0.369E-01    0.496E+00
RMM:  25    -0.232412241557E+04    0.12295E-01   -0.53678E-02 37520   0.273E-01    0.464E+00
RMM:  26    -0.232411654100E+04    0.58746E-02   -0.36912E-02 30491   0.325E-01    0.437E+00
RMM:  27    -0.232414574167E+04   -0.29201E-01   -0.27149E-02 29294   0.314E-01    0.488E+00
RMM:  28    -0.232415997530E+04   -0.14234E-01   -0.35266E-02 29769   0.336E-01    0.507E+00
RMM:  29    -0.232413209999E+04    0.27875E-01   -0.41600E-02 28604   0.401E-01    0.435E+00
RMM:  30    -0.232410979534E+04    0.22305E-01   -0.43154E-02 30904   0.335E-01    0.379E+00
RMM:  31    -0.232410647964E+04    0.33157E-02   -0.48894E-02 30182   0.371E-01    0.363E+00
RMM:  32    -0.232409923659E+04    0.72431E-02   -0.32376E-02 29221   0.333E-01    0.334E+00
RMM:  33    -0.232409837853E+04    0.85806E-03   -0.21286E-02 30156   0.256E-01    0.330E+00
RMM:  34    -0.232410367089E+04   -0.52924E-02   -0.24379E-02 32383   0.231E-01    0.339E+00
RMM:  35    -0.232411376151E+04   -0.10091E-01   -0.14909E-02 28698   0.243E-01    0.360E+00
RMM:  36    -0.232411382885E+04   -0.67335E-04   -0.11914E-02 30879   0.180E-01    0.357E+00
RMM:  37    -0.232410353425E+04    0.10295E-01   -0.13902E-02 34346   0.162E-01    0.327E+00
RMM:  38    -0.232408349146E+04    0.20043E-01   -0.60731E-03 29871   0.136E-01    0.266E+00
RMM:  39    -0.232407902510E+04    0.44664E-02   -0.64543E-03 41254   0.806E-02    0.249E+00
RMM:  40    -0.232407407710E+04    0.49480E-02   -0.33681E-03 31584   0.891E-02    0.228E+00
RMM:  41    -0.232406983675E+04    0.42403E-02   -0.28625E-03 31321   0.855E-02    0.209E+00
RMM:  42    -0.232406529546E+04    0.45413E-02   -0.41685E-03 36780   0.790E-02    0.188E+00
RMM:  43    -0.232405480205E+04    0.10493E-01   -0.33763E-03 31610   0.887E-02    0.129E+00
RMM:  44    -0.232405253647E+04    0.22656E-02   -0.32331E-03 39060   0.645E-02    0.112E+00
RMM:  45    -0.232405129637E+04    0.12401E-02   -0.23683E-03 39974   0.473E-02    0.101E+00
RMM:  46    -0.232404981383E+04    0.14825E-02   -0.15081E-03 34868   0.480E-02    0.868E-01
RMM:  47    -0.232405254174E+04   -0.27279E-02   -0.86201E-03 38365   0.109E-01    0.112E+00
RMM:  48    -0.232404925786E+04    0.32839E-02   -0.28569E-03 33304   0.774E-02    0.770E-01
RMM:  49    -0.232404736301E+04    0.18949E-02   -0.13074E-03 29191   0.713E-02    0.534E-01
RMM:  50    -0.232404707775E+04    0.28527E-03   -0.15372E-03 34289   0.523E-02    0.474E-01
RMM:  51    -0.232404626252E+04    0.81523E-03   -0.64132E-04 29962   0.448E-02    0.267E-01
RMM:  52    -0.232404601181E+04    0.25071E-03   -0.47793E-04 30258   0.384E-02    0.163E-01
RMM:  53    -0.232404608479E+04   -0.72982E-04   -0.63680E-04 33496   0.359E-02    0.187E-01
RMM:  54    -0.232404597031E+04    0.11448E-03   -0.19499E-04 28319   0.304E-02    0.125E-01
RMM:  55    -0.232404596781E+04    0.24965E-05   -0.21013E-04 37873   0.154E-02    0.113E-01
RMM:  56    -0.232404594300E+04    0.24816E-04   -0.88129E-05 32376   0.136E-02    0.871E-02
RMM:  57    -0.232404606253E+04   -0.11953E-03   -0.86683E-05 29298   0.181E-02    0.173E-01
RMM:  58    -0.232404595249E+04    0.11004E-03   -0.50464E-05 29417   0.144E-02    0.901E-02
RMM:  59    -0.232404593300E+04    0.19488E-04   -0.41066E-05 31135   0.981E-03    0.686E-02
RMM:  60    -0.232404591665E+04    0.16356E-04   -0.20714E-05 29486   0.771E-03    0.377E-02
RMM:  61    -0.232404591529E+04    0.13574E-05   -0.16727E-05 28708   0.482E-03    0.317E-02
RMM:  62    -0.232404592344E+04   -0.81531E-05   -0.12212E-05 28389   0.617E-03    0.477E-02
RMM:  63    -0.232404591405E+04    0.93956E-05   -0.45668E-06 20960   0.496E-03    0.208E-02
RMM:  64    -0.232404591237E+04    0.16775E-05   -0.18593E-06 17425   0.276E-03    0.109E-02
RMM:  65    -0.232404591343E+04   -0.10623E-05   -0.14520E-06 16677   0.254E-03    0.156E-02
RMM:  66    -0.232404591421E+04   -0.78345E-06   -0.13135E-06 16593   0.234E-03
   2 F= -.23240459E+04 E0= -.23212755E+04  d E =0.344383E+00
       N       E                     dE             d eps       ncg     rms          rms(c)
DAV:   1    -0.232411097521E+04   -0.65062E-01   -0.12409E+02 27720   0.116E+01    0.224E+00
RMM:   2    -0.233282145040E+04   -0.87105E+01   -0.34150E+00 27880   0.377E+00    0.396E+01
RMM:   3    -0.233073070461E+04    0.20907E+01   -0.23221E+00 41366   0.141E+00    0.339E+01
RMM:   4    -0.232813271334E+04    0.25980E+01   -0.88954E-01 27776   0.202E+00    0.258E+01
RMM:   5    -0.232515372475E+04    0.29790E+01   -0.67491E-01 35829   0.108E+00    0.132E+01
RMM:   6    -0.232500781714E+04    0.14591E+00   -0.55496E-01 29148   0.132E+00    0.117E+01
RMM:   7    -0.232687924980E+04   -0.18714E+01   -0.15655E+00 34859   0.159E+00    0.220E+01
RMM:   8    -0.232502096829E+04    0.18583E+01   -0.52371E-01 27770   0.143E+00    0.118E+01
RMM:   9    -0.232443252706E+04    0.58844E+00   -0.25108E-01 27903   0.104E+00    0.578E+00
RMM:  10    -0.232433244865E+04    0.10008E+00   -0.15536E-01 28735   0.731E-01    0.402E+00
RMM:  11    -0.232431794750E+04    0.14501E-01   -0.23701E-01 32261   0.705E-01    0.348E+00
RMM:  12    -0.232427341027E+04    0.44537E-01   -0.65660E-02 27841   0.542E-01    0.216E+00
RMM:  13    -0.232426516839E+04    0.82419E-02   -0.51412E-02 33457   0.288E-01    0.166E+00
RMM:  14    -0.232426601340E+04   -0.84501E-03   -0.36161E-02 34739   0.240E-01    0.165E+00
RMM:  15    -0.232425533032E+04    0.10683E-01   -0.11382E-02 28588   0.207E-01    0.801E-01
RMM:  16    -0.232425305847E+04    0.22718E-02   -0.89576E-03 33064   0.131E-01    0.422E-01
RMM:  17    -0.232425397215E+04   -0.91368E-03   -0.67272E-03 33139   0.116E-01    0.556E-01
RMM:  18    -0.232425332556E+04    0.64659E-03   -0.27777E-03 29674   0.944E-02    0.422E-01
RMM:  19    -0.232425269193E+04    0.63363E-03   -0.14213E-03 30107   0.685E-02    0.227E-01
RMM:  20    -0.232425279075E+04   -0.98819E-04   -0.16850E-03 36271   0.480E-02    0.232E-01
RMM:  21    -0.232425285579E+04   -0.65040E-04   -0.11206E-03 32477   0.483E-02    0.235E-01
RMM:  22    -0.232425274690E+04    0.10889E-03   -0.48223E-04 30499   0.383E-02    0.181E-01
RMM:  23    -0.232425273769E+04    0.92148E-05   -0.53830E-04 38377   0.236E-02    0.162E-01
RMM:  24    -0.232425265442E+04    0.83271E-04   -0.24075E-04 32922   0.216E-02    0.988E-02
RMM:  25    -0.232425262569E+04    0.28723E-04   -0.10634E-04 31023   0.167E-02    0.695E-02
RMM:  26    -0.232425262930E+04   -0.36066E-05   -0.11788E-04 40719   0.946E-03    0.633E-02
RMM:  27    -0.232425262448E+04    0.48179E-05   -0.47380E-05 32913   0.934E-03    0.510E-02
RMM:  28    -0.232425261594E+04    0.85431E-05   -0.20943E-05 29948   0.743E-03    0.288E-02
RMM:  29    -0.232425261630E+04   -0.35830E-06   -0.19295E-05 29199   0.384E-03    0.255E-02
RMM:  30    -0.232425261555E+04    0.74954E-06   -0.67768E-06 23606   0.432E-03
   3 F= -.23242526E+04 E0= -.23214747E+04  d E =0.137681E+00
       N       E                     dE             d eps       ncg     rms          rms(c)
DAV:   1    -0.232351140911E+04    0.74121E+00   -0.49548E+02 27720   0.234E+01    0.490E+00
RMM:   2    -0.235673202448E+04   -0.33221E+02   -0.17098E+01 27772   0.853E+00    0.759E+01
RMM:   3    -0.235695888651E+04   -0.22686E+00   -0.11748E+01 41881   0.303E+00    0.749E+01
RMM:   4    -0.234353304866E+04    0.13426E+02   -0.43913E+00 27879   0.439E+00    0.578E+01
RMM:   5    -0.232852588463E+04    0.15007E+02   -0.34518E+00 36550   0.236E+00    0.283E+01
RMM:   6    -0.232778887819E+04    0.73701E+00   -0.24736E+00 29311   0.275E+00    0.244E+01
RMM:   7    -0.233430513072E+04   -0.65163E+01   -0.55871E+00 33019   0.325E+00    0.427E+01
RMM:   8    -0.232725263857E+04    0.70525E+01   -0.20078E+00 27779   0.287E+00    0.235E+01
RMM:   9    -0.232512243042E+04    0.21302E+01   -0.97325E-01 27913   0.207E+00    0.128E+01
RMM:  10    -0.232465668958E+04    0.46574E+00   -0.71299E-01 27895   0.174E+00    0.883E+00
RMM:  11    -0.232454634208E+04    0.11035E+00   -0.81219E-01 29215   0.160E+00    0.748E+00
RMM:  12    -0.232434957559E+04    0.19677E+00   -0.28816E-01 27781   0.119E+00    0.480E+00
RMM:  13    -0.232429346344E+04    0.56112E-01   -0.22069E-01 32212   0.615E-01    0.333E+00
RMM:  14    -0.232430080434E+04   -0.73409E-02   -0.16934E-01 35788   0.485E-01    0.339E+00
RMM:  15    -0.232426794094E+04    0.32863E-01   -0.52943E-02 28911   0.431E-01    0.216E+00
RMM:  16    -0.232425576549E+04    0.12175E-01   -0.32390E-02 29998   0.314E-01    0.153E+00
RMM:  17    -0.232425339468E+04    0.23708E-02   -0.37608E-02 33492   0.270E-01    0.136E+00
RMM:  18    -0.232424832552E+04    0.50692E-02   -0.15656E-02 30346   0.213E-01    0.925E-01
RMM:  19    -0.232424766598E+04    0.65954E-03   -0.13292E-02 35260   0.137E-01    0.780E-01
RMM:  20    -0.232424706634E+04    0.59964E-03   -0.78742E-03 35180   0.108E-01    0.672E-01
RMM:  21    -0.232424718077E+04   -0.11443E-03   -0.34912E-03 31374   0.916E-02    0.662E-01
RMM:  22    -0.232424702656E+04    0.15421E-03   -0.23229E-03 31315   0.775E-02    0.615E-01
RMM:  23    -0.232424613173E+04    0.89483E-03   -0.24258E-03 31514   0.764E-02    0.438E-01
RMM:  24    -0.232424531413E+04    0.81761E-03   -0.87478E-04 28618   0.618E-02    0.253E-01
RMM:  25    -0.232424525451E+04    0.59619E-04   -0.71500E-04 32101   0.390E-02    0.216E-01
RMM:  26    -0.232424523450E+04    0.20004E-04   -0.75390E-04 35026   0.348E-02    0.186E-01
RMM:  27    -0.232424511317E+04    0.12133E-03   -0.31086E-04 30382   0.306E-02    0.998E-02
RMM:  28    -0.232424510347E+04    0.96949E-05   -0.29746E-04 35710   0.200E-02    0.712E-02
RMM:  29    -0.232424512428E+04   -0.20809E-04   -0.20262E-04 37201   0.162E-02    0.867E-02
RMM:  30    -0.232424510683E+04    0.17453E-04   -0.68483E-05 31157   0.131E-02    0.627E-02
RMM:  31    -0.232424510293E+04    0.38993E-05   -0.65143E-05 38959   0.696E-03    0.483E-02
RMM:  32    -0.232424509525E+04    0.76810E-05   -0.22197E-05 30733   0.505E-03    0.257E-02
RMM:  33    -0.232424509365E+04    0.15966E-05   -0.91478E-06 23960   0.464E-03    0.204E-02
RMM:  34    -0.232424509454E+04   -0.88708E-06   -0.75318E-06 23818   0.406E-03
   4 F= -.23242451E+04 E0= -.23214584E+04  d E =0.145202E+00
       N       E                     dE             d eps       ncg     rms          rms(c)
DAV:   1    -0.232416668613E+04    0.78408E-01   -0.13162E+02 27720   0.120E+01    0.232E+00
RMM:   2    -0.233109115303E+04   -0.69245E+01   -0.37629E+00 28023   0.398E+00    0.356E+01
RMM:   3    -0.233315879961E+04   -0.20676E+01   -0.22578E+00 40992   0.142E+00    0.407E+01
RMM:   4    -0.232562200975E+04    0.75368E+01   -0.92376E-01 27723   0.210E+00    0.141E+01
RMM:   5    -0.232715866909E+04   -0.15367E+01   -0.70516E-01 29456   0.146E+00    0.229E+01
RMM:   6    -0.232538802596E+04    0.17706E+01   -0.78983E-01 38085   0.104E+00    0.133E+01
RMM:   7    -0.232708850473E+04   -0.17005E+01   -0.13860E+00 32219   0.165E+00    0.228E+01
RMM:   8    -0.232524316109E+04    0.18453E+01   -0.52085E-01 28059   0.140E+00    0.127E+01
RMM:   9    -0.232445570710E+04    0.78745E+00   -0.26252E-01 27759   0.115E+00    0.508E+00
RMM:  10    -0.232436090972E+04    0.94797E-01   -0.15916E-01 28163   0.794E-01    0.299E+00
RMM:  11    -0.232440244343E+04   -0.41534E-01   -0.23838E-01 31052   0.752E-01    0.397E+00
RMM:  12    -0.232434690426E+04    0.55539E-01   -0.76896E-02 28000   0.581E-01    0.239E+00
RMM:  13    -0.232432725996E+04    0.19644E-01   -0.48042E-02 31259   0.323E-01    0.134E+00
RMM:  14    -0.232432745575E+04   -0.19579E-03   -0.39913E-02 34731   0.241E-01    0.133E+00
RMM:  15    -0.232432290354E+04    0.45522E-02   -0.16019E-02 29107   0.233E-01    0.917E-01
RMM:  16    -0.232432019156E+04    0.27120E-02   -0.84661E-03 30045   0.159E-01    0.557E-01
RMM:  17    -0.232432030117E+04   -0.10961E-03   -0.83470E-03 36072   0.107E-01    0.542E-01
RMM:  18    -0.232431972964E+04    0.57153E-03   -0.36839E-03 31030   0.964E-02    0.420E-01
RMM:  19    -0.232431916191E+04    0.56773E-03   -0.16390E-03 30200   0.722E-02    0.262E-01
RMM:  20    -0.232431918830E+04   -0.26388E-04   -0.19633E-03 36502   0.507E-02    0.239E-01
RMM:  21    -0.232431925114E+04   -0.62839E-04   -0.11787E-03 32773   0.498E-02    0.247E-01
RMM:  22    -0.232431912777E+04    0.12337E-03   -0.43453E-04 29263   0.404E-02    0.192E-01
RMM:  23    -0.232431912544E+04    0.23296E-05   -0.53099E-04 39232   0.228E-02    0.176E-01
RMM:  24    -0.232431906136E+04    0.64074E-04   -0.21891E-04 33244   0.202E-02    0.132E-01
RMM:  25    -0.232431899133E+04    0.70033E-04   -0.88050E-05 30256   0.168E-02    0.681E-02
RMM:  26    -0.232431899042E+04    0.91438E-06   -0.10356E-04 39506   0.933E-03    0.560E-02
RMM:  27    -0.232431898747E+04    0.29492E-05   -0.53350E-05 32597   0.101E-02    0.471E-02
RMM:  28    -0.232431898134E+04    0.61315E-05   -0.29645E-05 31405   0.797E-03    0.294E-02
RMM:  29    -0.232431898218E+04   -0.84226E-06   -0.25724E-05 32269   0.432E-03    0.265E-02
RMM:  30    -0.232431898004E+04    0.21374E-05   -0.57268E-06 21788   0.415E-03    0.166E-02
RMM:  31    -0.232431897934E+04    0.70219E-06   -0.27440E-06 18452   0.336E-03
   5 F= -.23243190E+04 E0= -.23215355E+04  d E =0.713175E-01
