 288 288   0   0
  0.1280206E+02  0.9726678E-09  0.8423550E-09  0.4500000E-08  0.2500000E-15
  1.000000000000000E-004
  CAR 
 unknown system                          
      6.77993069     -6.04137261  301      4.31215640      1.00000000
     -6.041  0.0000E+00  0.0000E+00
     -5.999  0.0000E+00  0.0000E+00
     -5.956  0.0000E+00  0.0000E+00
     -5.913  0.0000E+00  0.0000E+00
     -5.870  0.0000E+00  0.0000E+00
     -5.828  0.0000E+00  0.0000E+00
     -5.785  0.0000E+00  0.0000E+00
     -5.742  0.0000E+00  0.0000E+00
     -5.699  0.0000E+00  0.0000E+00
     -5.657  0.0000E+00  0.0000E+00
     -5.614  0.0000E+00  0.0000E+00
     -5.571  0.0000E+00  0.0000E+00
     -5.529  0.0000E+00  0.0000E+00
     -5.486  0.0000E+00  0.0000E+00
     -5.443  0.0000E+00  0.0000E+00
     -5.400  0.1624E-15  0.6939E-17
     -5.358  0.3962E-14  0.1762E-15
     -5.315  0.8511E-13  0.3814E-14
     -5.272  0.1552E-11  0.7014E-13
     -5.229  0.2411E-10  0.1101E-11
     -5.187  0.3190E-09  0.1473E-10
     -5.144  0.3596E-08  0.1684E-09
     -5.101  0.3454E-07  0.1645E-08
     -5.058  0.2828E-06  0.1373E-07
     -5.016  0.1975E-05  0.9815E-07
     -4.973  0.1178E-04  0.6016E-06
     -4.930  0.6006E-04  0.3168E-05
     -4.887  0.2624E-03  0.1438E-04
     -4.845  0.9852E-03  0.5649E-04
     -4.802  0.3194E-02  0.1930E-03
     -4.759  0.9005E-02  0.5778E-03
     -4.717  0.2227E-01  0.1529E-02
     -4.674  0.4886E-01  0.3618E-02
     -4.631  0.9638E-01  0.7737E-02
     -4.588  0.1731E+00  0.1514E-01
     -4.546  0.2864E+00  0.2737E-01
     -4.503  0.4397E+00  0.4616E-01
     -4.460  0.6303E+00  0.7310E-01
     -4.417  0.8479E+00  0.1093E+00
     -4.375  0.1075E+01  0.1553E+00
     -4.332  0.1291E+01  0.2105E+00
     -4.289  0.1476E+01  0.2735E+00
     -4.246  0.1616E+01  0.3426E+00
     -4.204  0.1714E+01  0.4159E+00
     -4.161  0.1785E+01  0.4921E+00
     -4.118  0.1855E+01  0.5714E+00
     -4.075  0.1953E+01  0.6549E+00
     -4.033  0.2101E+01  0.7447E+00
     -3.990  0.2303E+01  0.8431E+00
     -3.947  0.2540E+01  0.9516E+00
     -3.904  0.2780E+01  0.1070E+01
     -3.862  0.2982E+01  0.1198E+01
     -3.819  0.3112E+01  0.1331E+01
     -3.776  0.3158E+01  0.1466E+01
     -3.734  0.3134E+01  0.1600E+01
     -3.691  0.3079E+01  0.1731E+01
     -3.648  0.3041E+01  0.1861E+01
     -3.605  0.3063E+01  0.1992E+01
     -3.563  0.3166E+01  0.2128E+01
     -3.520  0.3345E+01  0.2271E+01
     -3.477  0.3570E+01  0.2423E+01
     -3.434  0.3800E+01  0.2585E+01
     -3.392  0.3995E+01  0.2756E+01
     -3.349  0.4129E+01  0.2933E+01
     -3.306  0.4193E+01  0.3112E+01
     -3.263  0.4201E+01  0.3291E+01
     -3.221  0.4185E+01  0.3470E+01
     -3.178  0.4185E+01  0.3649E+01
     -3.135  0.4241E+01  0.3830E+01
     -3.092  0.4373E+01  0.4017E+01
     -3.050  0.4578E+01  0.4213E+01
     -3.007  0.4826E+01  0.4419E+01
     -2.964  0.5073E+01  0.4636E+01
     -2.922  0.5271E+01  0.4861E+01
     -2.879  0.5384E+01  0.5091E+01
     -2.836  0.5412E+01  0.5323E+01
     -2.793  0.5390E+01  0.5553E+01
     -2.751  0.5376E+01  0.5783E+01
     -2.708  0.5414E+01  0.6014E+01
     -2.665  0.5502E+01  0.6249E+01
     -2.622  0.5593E+01  0.6488E+01
     -2.580  0.5632E+01  0.6729E+01
     -2.537  0.5599E+01  0.6968E+01
     -2.494  0.5547E+01  0.7205E+01
     -2.451  0.5574E+01  0.7444E+01
     -2.409  0.5776E+01  0.7690E+01
     -2.366  0.6184E+01  0.7955E+01
     -2.323  0.6725E+01  0.8242E+01
     -2.280  0.7237E+01  0.8551E+01
     -2.238  0.7537E+01  0.8874E+01
     -2.195  0.7526E+01  0.9195E+01
     -2.152  0.7260E+01  0.9506E+01
     -2.110  0.6928E+01  0.9802E+01
     -2.067  0.6759E+01  0.1009E+02
     -2.024  0.6897E+01  0.1039E+02
     -1.981  0.7342E+01  0.1070E+02
     -1.939  0.7952E+01  0.1104E+02
     -1.896  0.8517E+01  0.1140E+02
     -1.853  0.8861E+01  0.1178E+02
     -1.810  0.8924E+01  0.1216E+02
     -1.768  0.8791E+01  0.1254E+02
     -1.725  0.8632E+01  0.1291E+02
     -1.682  0.8593E+01  0.1327E+02
     -1.639  0.8728E+01  0.1365E+02
     -1.597  0.8994E+01  0.1403E+02
     -1.554  0.9311E+01  0.1443E+02
     -1.511  0.9620E+01  0.1484E+02
     -1.468  0.9898E+01  0.1526E+02
     -1.426  0.1014E+02  0.1570E+02
     -1.383  0.1035E+02  0.1614E+02
     -1.340  0.1051E+02  0.1659E+02
     -1.297  0.1066E+02  0.1704E+02
     -1.255  0.1092E+02  0.1751E+02
     -1.212  0.1145E+02  0.1800E+02
     -1.169  0.1231E+02  0.1853E+02
     -1.127  0.1342E+02  0.1910E+02
     -1.084  0.1449E+02  0.1972E+02
     -1.041  0.1522E+02  0.2037E+02
     -0.998  0.1551E+02  0.2103E+02
     -0.956  0.1553E+02  0.2170E+02
     -0.913  0.1567E+02  0.2237E+02
     -0.870  0.1631E+02  0.2306E+02
     -0.827  0.1762E+02  0.2382E+02
     -0.785  0.1953E+02  0.2465E+02
     -0.742  0.2190E+02  0.2559E+02
     -0.699  0.2472E+02  0.2664E+02
     -0.656  0.2809E+02  0.2784E+02
     -0.614  0.3209E+02  0.2922E+02
     -0.571  0.3653E+02  0.3078E+02
     -0.528  0.4098E+02  0.3253E+02
     -0.485  0.4491E+02  0.3445E+02
     -0.443  0.4802E+02  0.3650E+02
     -0.400  0.5034E+02  0.3865E+02
     -0.357  0.5213E+02  0.4088E+02
     -0.315  0.5366E+02  0.4317E+02
     -0.272  0.5504E+02  0.4552E+02
     -0.229  0.5620E+02  0.4793E+02
     -0.186  0.5700E+02  0.5036E+02
     -0.144  0.5741E+02  0.5282E+02
     -0.101  0.5754E+02  0.5528E+02
     -0.058  0.5764E+02  0.5774E+02
     -0.015  0.5797E+02  0.6022E+02
      0.027  0.5874E+02  0.6273E+02
      0.070  0.6007E+02  0.6529E+02
      0.113  0.6209E+02  0.6795E+02
      0.156  0.6480E+02  0.7072E+02
      0.198  0.6802E+02  0.7362E+02
      0.241  0.7145E+02  0.7668E+02
      0.284  0.7473E+02  0.7987E+02
      0.327  0.7763E+02  0.8319E+02
      0.369  0.8009E+02  0.8661E+02
      0.412  0.8211E+02  0.9012E+02
      0.455  0.8376E+02  0.9370E+02
      0.497  0.8504E+02  0.9734E+02
      0.540  0.8592E+02  0.1010E+03
      0.583  0.8636E+02  0.1047E+03
      0.626  0.8634E+02  0.1084E+03
      0.668  0.8588E+02  0.1121E+03
      0.711  0.8498E+02  0.1157E+03
      0.754  0.8361E+02  0.1193E+03
      0.797  0.8183E+02  0.1228E+03
      0.839  0.7990E+02  0.1262E+03
      0.882  0.7817E+02  0.1295E+03
      0.925  0.7694E+02  0.1328E+03
      0.968  0.7627E+02  0.1361E+03
      1.010  0.7593E+02  0.1393E+03
      1.053  0.7560E+02  0.1425E+03
      1.096  0.7503E+02  0.1457E+03
      1.139  0.7422E+02  0.1489E+03
      1.181  0.7341E+02  0.1521E+03
      1.224  0.7295E+02  0.1552E+03
      1.267  0.7303E+02  0.1583E+03
      1.310  0.7346E+02  0.1614E+03
      1.352  0.7373E+02  0.1646E+03
      1.395  0.7333E+02  0.1677E+03
      1.438  0.7209E+02  0.1708E+03
      1.480  0.7036E+02  0.1738E+03
      1.523  0.6878E+02  0.1767E+03
      1.566  0.6796E+02  0.1796E+03
      1.609  0.6822E+02  0.1826E+03
      1.651  0.6954E+02  0.1855E+03
      1.694  0.7161E+02  0.1886E+03
      1.737  0.7404E+02  0.1918E+03
      1.780  0.7650E+02  0.1950E+03
      1.822  0.7878E+02  0.1984E+03
      1.865  0.8081E+02  0.2019E+03
      1.908  0.8262E+02  0.2054E+03
      1.951  0.8429E+02  0.2090E+03
      1.993  0.8592E+02  0.2127E+03
      2.036  0.8754E+02  0.2164E+03
      2.079  0.8915E+02  0.2202E+03
      2.122  0.9070E+02  0.2241E+03
      2.164  0.9216E+02  0.2280E+03
      2.207  0.9357E+02  0.2320E+03
      2.250  0.9511E+02  0.2361E+03
      2.292  0.9703E+02  0.2402E+03
      2.335  0.9963E+02  0.2445E+03
      2.378  0.1031E+03  0.2489E+03
      2.421  0.1072E+03  0.2535E+03
      2.463  0.1117E+03  0.2583E+03
      2.506  0.1162E+03  0.2632E+03
      2.549  0.1203E+03  0.2684E+03
      2.592  0.1238E+03  0.2736E+03
      2.634  0.1263E+03  0.2790E+03
      2.677  0.1278E+03  0.2845E+03
      2.720  0.1285E+03  0.2900E+03
      2.763  0.1290E+03  0.2955E+03
      2.805  0.1297E+03  0.3011E+03
      2.848  0.1314E+03  0.3067E+03
      2.891  0.1342E+03  0.3124E+03
      2.934  0.1376E+03  0.3183E+03
      2.976  0.1402E+03  0.3243E+03
      3.019  0.1404E+03  0.3303E+03
      3.062  0.1371E+03  0.3361E+03
      3.104  0.1305E+03  0.3417E+03
      3.147  0.1216E+03  0.3469E+03
      3.190  0.1123E+03  0.3517E+03
      3.233  0.1041E+03  0.3562E+03
      3.275  0.9791E+02  0.3604E+03
      3.318  0.9400E+02  0.3644E+03
      3.361  0.9204E+02  0.3683E+03
      3.404  0.9138E+02  0.3722E+03
      3.446  0.9121E+02  0.3761E+03
      3.489  0.9076E+02  0.3800E+03
      3.532  0.8953E+02  0.3838E+03
      3.575  0.8754E+02  0.3876E+03
      3.617  0.8537E+02  0.3912E+03
      3.660  0.8397E+02  0.3948E+03
      3.703  0.8409E+02  0.3984E+03
      3.746  0.8588E+02  0.4021E+03
      3.788  0.8881E+02  0.4058E+03
      3.831  0.9205E+02  0.4098E+03
      3.874  0.9493E+02  0.4138E+03
      3.917  0.9723E+02  0.4180E+03
      3.959  0.9906E+02  0.4222E+03
      4.002  0.1006E+03  0.4265E+03
      4.045  0.1019E+03  0.4309E+03
      4.087  0.1029E+03  0.4353E+03
      4.130  0.1032E+03  0.4397E+03
      4.173  0.1027E+03  0.4441E+03
      4.216  0.1016E+03  0.4484E+03
      4.258  0.1001E+03  0.4527E+03
      4.301  0.9876E+02  0.4569E+03
      4.344  0.9787E+02  0.4611E+03
      4.387  0.9766E+02  0.4653E+03
      4.429  0.9806E+02  0.4695E+03
      4.472  0.9878E+02  0.4737E+03
      4.515  0.9937E+02  0.4779E+03
      4.558  0.9950E+02  0.4822E+03
      4.600  0.9907E+02  0.4864E+03
      4.643  0.9837E+02  0.4906E+03
      4.686  0.9791E+02  0.4948E+03
      4.729  0.9819E+02  0.4990E+03
      4.771  0.9951E+02  0.5033E+03
      4.814  0.1018E+03  0.5076E+03
      4.857  0.1048E+03  0.5121E+03
      4.899  0.1080E+03  0.5167E+03
      4.942  0.1110E+03  0.5215E+03
      4.985  0.1132E+03  0.5263E+03
      5.028  0.1138E+03  0.5312E+03
      5.070  0.1116E+03  0.5359E+03
      5.113  0.1053E+03  0.5404E+03
      5.156  0.9411E+02  0.5445E+03
      5.199  0.7841E+02  0.5478E+03
      5.241  0.6005E+02  0.5504E+03
      5.284  0.4175E+02  0.5522E+03
      5.327  0.2608E+02  0.5533E+03
      5.370  0.1451E+02  0.5539E+03
      5.412  0.7152E+01  0.5542E+03
      5.455  0.3104E+01  0.5543E+03
      5.498  0.1181E+01  0.5544E+03
      5.541  0.3929E+00  0.5544E+03
      5.583  0.1139E+00  0.5544E+03
      5.626  0.2874E-01  0.5544E+03
      5.669  0.6291E-02  0.5544E+03
      5.711  0.1193E-02  0.5544E+03
      5.754  0.1958E-03  0.5544E+03
      5.797  0.2777E-04  0.5544E+03
      5.840  0.3398E-05  0.5544E+03
      5.882  0.3584E-06  0.5544E+03
      5.925  0.3254E-07  0.5544E+03
      5.968  0.2542E-08  0.5544E+03
      6.011  0.1706E-09  0.5544E+03
      6.053  0.9834E-11  0.5544E+03
      6.096  0.4855E-12  0.5544E+03
      6.139  0.1974E-13  0.5544E+03
      6.182  0.1948E-15  0.5544E+03
      6.224  0.0000E+00  0.5544E+03
      6.267  0.0000E+00  0.5544E+03
      6.310  0.0000E+00  0.5544E+03
      6.353  0.0000E+00  0.5544E+03
      6.395  0.0000E+00  0.5544E+03
      6.438  0.0000E+00  0.5544E+03
      6.481  0.0000E+00  0.5544E+03
      6.524  0.0000E+00  0.5544E+03
      6.566  0.0000E+00  0.5544E+03
      6.609  0.0000E+00  0.5544E+03
      6.652  0.0000E+00  0.5544E+03
      6.694  0.0000E+00  0.5544E+03
      6.737  0.0000E+00  0.5544E+03
      6.780  0.0000E+00  0.5544E+03
