<?xml version="1.0" encoding="ISO-8859-1"?>
<modeling>
 <generator>
  <i name="program" type="string">vasp </i>
  <i name="version" type="string">5.4.4.18Apr17-6-g9f103f2a35  </i>
  <i name="subversion" type="string">(build Sep 27 2018 12:46:37) complex + VL-xray_ parallel </i>
  <i name="platform" type="string">LLNL_Quartz_ifc </i>
  <i name="date" type="string">2021 09 26 </i>
  <i name="time" type="string">22:01:34 </i>
 </generator>
 <incar>
  <i type="int" name="ISTART">     2</i>
  <i type="string" name="PREC">accurate</i>
  <i type="string" name="ALGO"> Fast</i>
  <i type="int" name="ICHARG">     2</i>
  <i type="int" name="INIWAV">     1</i>
  <i type="int" name="NELM">   100</i>
  <i type="int" name="NELMIN">     4</i>
  <i type="int" name="IBRION">     2</i>
  <i name="EDIFF">      0.00000100</i>
  <i type="int" name="NSW">     5</i>
  <i type="int" name="ISIF">     2</i>
  <i type="int" name="ISYM">     2</i>
  <i name="ENCUT">    450.00000000</i>
  <i name="POTIM">      0.25000000</i>
  <i type="string" name="LREAL"> Auto</i>
  <i type="int" name="ISMEAR">     0</i>
  <i name="SIGMA">      0.15000000</i>
  <i type="logical" name="LWAVE"> F  </i>
  <i type="logical" name="LCHARG"> F  </i>
  <i type="int" name="ICORELEVEL">     0</i>
  <i type="int" name="CLNT">     1</i>
  <i type="int" name="CLN">     1</i>
  <i type="int" name="INCAR     ">     0</i>
  <i name="CLZ">      0.00000000</i>
  <v type="int" name="KPOINT_BSE">    -1     0     0     0</v>
  <i type="int" name="NELM">   100</i>
 </incar>
 <structure name="primitive_cell" >
  <crystal>
   <varray name="basis" >
    <v>       9.72667804       0.00000000       0.00000000 </v>
    <v>       0.00000000       8.42355028       0.00000000 </v>
    <v>       0.00000000       0.00000000      45.00000000 </v>
   </varray>
   <i name="volume">   3686.99226691 </i>
   <varray name="rec_basis" >
    <v>       0.10281002       0.00000000       0.00000000 </v>
    <v>       0.00000000       0.11871479       0.00000000 </v>
    <v>       0.00000000       0.00000000       0.02222222 </v>
   </varray>
  </crystal>
  <varray name="positions" >
   <v>       0.06256017       0.03323949       0.12486054 </v>
   <v>       0.18621425       0.11516011       0.16700488 </v>
   <v>       0.06117297      -0.13231110       0.16733336 </v>
   <v>      -0.06368691      -0.20969230       0.12509488 </v>
   <v>       0.18913308      -0.21160631       0.12459945 </v>
   <v>      -0.06492384       0.11694140       0.16780955 </v>
   <v>      -0.18722187       0.03299235       0.12486236 </v>
   <v>       0.31250221       0.03343569       0.12485612 </v>
   <v>       0.18753964       0.28977822       0.12500389 </v>
   <v>      -0.06292206       0.29073509       0.12495197 </v>
   <v>       0.31072912      -0.13286831       0.16639965 </v>
   <v>       0.06009466       0.36694085       0.16723170 </v>
   <v>      -0.18894527      -0.13325971       0.16753985 </v>
   <v>       0.43581828       0.11570861       0.16709800 </v>
   <v>      -0.06112422      -0.04248533       0.21225811 </v>
   <v>       0.31091475       0.36490859       0.16781849 </v>
   <v>       0.43512677      -0.21184683       0.12458285 </v>
   <v>       0.18758399      -0.04156648       0.21243896 </v>
   <v>       0.18750996      -0.38322071       0.16718099 </v>
   <v>      -0.31217831      -0.20936566       0.12505050 </v>
   <v>      -0.18900784       0.36699064       0.16696208 </v>
   <v>      -0.31353383       0.11667345       0.16756136 </v>
   <v>      -0.06434478      -0.38500805       0.16730515 </v>
   <v>       0.06315014       0.20716472       0.21232777 </v>
   <v>       0.06257016      -0.46711386       0.12498694 </v>
   <v>       0.43748217       0.29010388       0.12505119 </v>
   <v>      -0.31240660       0.29115295       0.12490111 </v>
   <v>       0.06399180      -0.29255238       0.21232050 </v>
   <v>      -0.18638059       0.20786509       0.21212029 </v>
   <v>       0.31339130      -0.46480869       0.12454224 </v>
   <v>      -0.18734592      -0.46701795       0.12475672 </v>
   <v>      -0.43740949       0.03327560       0.12483659 </v>
   <v>       0.31365707       0.20803753       0.21259725 </v>
   <v>      -0.18628350      -0.29227164       0.21212317 </v>
   <v>       0.43364246      -0.38277013       0.16725625 </v>
   <v>      -0.43929221      -0.13298053       0.16734268 </v>
   <v>      -0.31251057      -0.04245249       0.21225882 </v>
   <v>       0.31352557      -0.29408731       0.21272944 </v>
   <v>       0.43838896      -0.04135110       0.21245706 </v>
   <v>      -0.31371221      -0.38480440       0.16731053 </v>
   <v>      -0.06150886       0.45813165       0.21244560 </v>
   <v>       0.18808998       0.45818947       0.21240811 </v>
   <v>      -0.43816999       0.36662672       0.16721523 </v>
   <v>       0.05973543       0.04141102       0.25674356 </v>
   <v>       0.18483511      -0.20895291       0.25653283 </v>
   <v>      -0.06558134      -0.20838328       0.25644047 </v>
   <v>       0.30998173       0.04051539       0.25628122 </v>
   <v>      -0.43627157       0.20680023       0.21226446 </v>
   <v>       0.18489130       0.29186344       0.25654217 </v>
   <v>      -0.19023650       0.04120665       0.25676265 </v>
   <v>      -0.43686323      -0.46747844       0.12488199 </v>
   <v>      -0.06481531       0.29176199       0.25650342 </v>
   <v>       0.43825908       0.45822015       0.21241290 </v>
   <v>      -0.31242511       0.45798354       0.21260076 </v>
   <v>      -0.43722979      -0.29299107       0.21217627 </v>
   <v>       0.05979241      -0.45841163       0.25652274 </v>
   <v>       0.43442976      -0.20918856       0.25662687 </v>
   <v>      -0.31512161      -0.20824228       0.25641076 </v>
   <v>       0.43395734       0.29128988       0.25648498 </v>
   <v>      -0.31580680       0.29116214       0.25649212 </v>
   <v>       0.31001629      -0.45953717       0.25598366 </v>
   <v>      -0.19032122      -0.45839088       0.25654357 </v>
   <v>      -0.44010982       0.04117894       0.25631789 </v>
   <v>       0.06384187      -0.12506858       0.30086803 </v>
   <v>      -0.06110334       0.12445998       0.30069775 </v>
   <v>       0.18957632       0.12497998       0.30095227 </v>
   <v>      -0.18610522      -0.12459489       0.30083024 </v>
   <v>       0.31428223      -0.12518277       0.30084144 </v>
   <v>       0.06382577       0.37513348       0.30098828 </v>
   <v>      -0.44048984      -0.45903743       0.25643206 </v>
   <v>      -0.06088281      -0.37553566       0.30072626 </v>
   <v>      -0.31016543       0.12462777       0.30078371 </v>
   <v>       0.18928224      -0.37449388       0.30138070 </v>
   <v>       0.43869654       0.12482813       0.30078852 </v>
   <v>      -0.18607541       0.37510840       0.30074152 </v>
   <v>       0.31411822       0.37451682       0.30096827 </v>
   <v>      -0.31069247      -0.37525945       0.30083916 </v>
   <v>      -0.43506074      -0.12516326       0.30094910 </v>
   <v>       0.43956010      -0.37457909       0.30128571 </v>
   <v>      -0.43493595       0.37529181       0.30096248 </v>
   <v>       0.18518762      -0.04449779       0.34549541 </v>
   <v>       0.06054717       0.20397918       0.34535451 </v>
   <v>      -0.06376108      -0.04563222       0.34555725 </v>
   <v>       0.06057515      -0.29524011       0.34533191 </v>
   <v>      -0.18835652       0.20534313       0.34537182 </v>
   <v>       0.31132591       0.20468587       0.34556476 </v>
   <v>       0.31132294      -0.29551162       0.34534385 </v>
   <v>       0.43616286      -0.04578973       0.34544389 </v>
   <v>      -0.18964877      -0.29544645       0.34548713 </v>
   <v>      -0.31454457      -0.04592127       0.34540459 </v>
   <v>      -0.06426049       0.45401012       0.34551087 </v>
   <v>       0.18606209       0.45418549       0.34566063 </v>
   <v>      -0.43893885       0.20667360       0.34586151 </v>
   <v>      -0.31450423       0.45373477       0.34557190 </v>
   <v>       0.43582679       0.45470307       0.34582850 </v>
   <v>       0.06382495       0.03335311      -0.12522399 </v>
   <v>      -0.43952136      -0.29326970       0.34543508 </v>
   <v>       0.18756205      -0.20804082      -0.12496663 </v>
   <v>      -0.05934299      -0.21077794      -0.12494837 </v>
   <v>       0.18792143       0.29262258      -0.12480584 </v>
   <v>      -0.18615416       0.03635489      -0.12521928 </v>
   <v>       0.31536891       0.03699926      -0.12509682 </v>
   <v>      -0.06428334       0.29352776      -0.12522938 </v>
   <v>       0.06361782       0.04000992       0.38933487 </v>
   <v>       0.06561223      -0.46253920      -0.12482712 </v>
   <v>       0.43764950      -0.20788117      -0.12493921 </v>
   <v>      -0.31263857      -0.20798004      -0.12493031 </v>
   <v>       0.43753479       0.29235369      -0.12458553 </v>
   <v>      -0.31282585       0.29305459      -0.12488461 </v>
   <v>      -0.06163082      -0.20932132       0.38941086 </v>
   <v>       0.18749814      -0.20937978       0.38957790 </v>
   <v>       0.31339753       0.03975834       0.38947863 </v>
   <v>      -0.18656782       0.04013033       0.38957240 </v>
   <v>      -0.06169468       0.29021155       0.38952304 </v>
   <v>       0.18810892       0.29023988       0.38971568 </v>
   <v>      -0.18680827      -0.46457879      -0.12453979 </v>
   <v>       0.31536228      -0.46334394      -0.12467311 </v>
   <v>      -0.43671051       0.03430017      -0.12481586 </v>
   <v>       0.06375326      -0.45978409       0.38931967 </v>
   <v>      -0.31137688      -0.21043418       0.38937029 </v>
   <v>       0.43846830      -0.21012079       0.38952897 </v>
   <v>      -0.31223058       0.28961391       0.38928904 </v>
   <v>       0.43869320       0.29018531       0.38932729 </v>
   <v>       0.31351713      -0.45972231       0.38934285 </v>
   <v>      -0.18669153      -0.46000786       0.38962272 </v>
   <v>      -0.43654212       0.03990903       0.38957449 </v>
   <v>      -0.43557336      -0.46359781      -0.12466612 </v>
   <v>      -0.05982927      -0.03833953      -0.16705455 </v>
   <v>       0.06435369       0.21120162      -0.16687431 </v>
   <v>       0.18857366      -0.03905612      -0.16726096 </v>
   <v>       0.06342919      -0.28793572      -0.16714651 </v>
   <v>      -0.18473333       0.21211778      -0.16701646 </v>
   <v>       0.31344626       0.20897889      -0.16713658 </v>
   <v>      -0.43601910      -0.45940372       0.38941142 </v>
   <v>      -0.18662153      -0.28912017      -0.16742227 </v>
   <v>       0.43955995      -0.04063433      -0.16731932 </v>
   <v>      -0.31221174      -0.04049035      -0.16749709 </v>
   <v>       0.31480087      -0.28986940      -0.16789105 </v>
   <v>      -0.06124586       0.45989947      -0.16713394 </v>
   <v>       0.18863580       0.45987733      -0.16713649 </v>
   <v>       0.06280844      -0.12832176       0.43444159 </v>
   <v>       0.18780504       0.12161270       0.43449949 </v>
   <v>      -0.06332462       0.12368057       0.43500112 </v>
   <v>      -0.31060350       0.45886061      -0.16724003 </v>
   <v>      -0.43729723       0.21023935      -0.16749826 </v>
   <v>       0.43884188       0.45958175      -0.16730514 </v>
   <v>       0.31211577      -0.12820513       0.43448864 </v>
   <v>      -0.18773959      -0.12726282       0.43456220 </v>
   <v>       0.06267301       0.37208157       0.43434384 </v>
   <v>      -0.43647214      -0.28969214      -0.16727465 </v>
   <v>      -0.06251333      -0.37721584       0.43462865 </v>
   <v>       0.18742937      -0.37728714       0.43463936 </v>
   <v>      -0.31224831       0.12113352       0.43448952 </v>
   <v>       0.43729579       0.12102972       0.43455203 </v>
   <v>       0.31241457       0.37120803       0.43460960 </v>
   <v>      -0.18680371       0.37323649       0.43457782 </v>
   <v>      -0.31200705      -0.37799345       0.43436076 </v>
   <v>       0.43727745      -0.37825303       0.43437494 </v>
   <v>      -0.43736026      -0.12698669       0.43462155 </v>
   <v>      -0.43691141       0.37390933       0.43498607 </v>
   <v>      -0.06227937       0.11799365      -0.21218527 </v>
   <v>       0.06258105      -0.13191911      -0.21227124 </v>
   <v>       0.18743365       0.11754197      -0.21229827 </v>
   <v>       0.06304605       0.36923659      -0.21221698 </v>
   <v>      -0.18849343      -0.13230561      -0.21231817 </v>
   <v>       0.31268587      -0.13269407      -0.21240971 </v>
   <v>       0.43721077       0.11792218      -0.21220980 </v>
   <v>      -0.18669313       0.36892662      -0.21216707 </v>
   <v>       0.31283904       0.36794422      -0.21224094 </v>
   <v>       0.18755809      -0.38246692      -0.21236336 </v>
   <v>      -0.31395279       0.11746028      -0.21229816 </v>
   <v>      -0.06310580      -0.38165916      -0.21246714 </v>
   <v>       0.18725749      -0.04421110       0.47861167 </v>
   <v>      -0.06244421      -0.04441575       0.47867705 </v>
   <v>       0.43737140      -0.38220715      -0.21212479 </v>
   <v>      -0.31185439      -0.38190098      -0.21223408 </v>
   <v>       0.06295807       0.20572523       0.47867117 </v>
   <v>      -0.43757075      -0.13202014      -0.21221238 </v>
   <v>       0.06251772      -0.29413229       0.47856332 </v>
   <v>       0.31261499       0.20591267       0.47861555 </v>
   <v>      -0.18809770       0.20587040       0.47873531 </v>
   <v>      -0.43735974       0.36760986      -0.21226134 </v>
   <v>      -0.18760312      -0.29417917       0.47865674 </v>
   <v>       0.31302444      -0.29465194       0.47864237 </v>
   <v>       0.43740649      -0.04408152       0.47861121 </v>
   <v>      -0.31227393      -0.04416303       0.47863526 </v>
   <v>       0.18745824       0.45568642       0.47860727 </v>
   <v>      -0.06241368       0.45582584       0.47862986 </v>
   <v>      -0.43732435       0.20572799       0.47864662 </v>
   <v>       0.43727503       0.45579094       0.47875004 </v>
   <v>      -0.31216623       0.45565126       0.47881382 </v>
   <v>      -0.43779954      -0.29428824       0.47865006 </v>
   <v>       0.06253020       0.03761079      -0.25656467 </v>
   <v>      -0.06076683      -0.21154512      -0.25612007 </v>
   <v>       0.18816386      -0.21235514      -0.25654595 </v>
   <v>       0.19017753       0.28883107      -0.25632858 </v>
   <v>      -0.18663842       0.03891196      -0.25656306 </v>
   <v>       0.31264477       0.03837621      -0.25662924 </v>
   <v>      -0.06219830       0.28751755      -0.25662888 </v>
   <v>      -0.31130280      -0.21055080      -0.25622962 </v>
   <v>       0.06355151      -0.46214401      -0.25640064 </v>
   <v>       0.43780166      -0.21228119      -0.25653196 </v>
   <v>       0.43793541       0.28965661      -0.25633403 </v>
   <v>      -0.31147484       0.28827642      -0.25647705 </v>
   <v>       0.31350069      -0.46298548      -0.25643216 </v>
   <v>      -0.18679776      -0.46221509      -0.25652388 </v>
   <v>      -0.43642499       0.03797833      -0.25638416 </v>
   <v>       0.06248793      -0.12874606      -0.47871517 </v>
   <v>       0.18815010       0.12059826      -0.47880964 </v>
   <v>      -0.06288614       0.12101896      -0.47873954 </v>
   <v>       0.31151408      -0.12897140      -0.47882607 </v>
   <v>      -0.18768167      -0.12931243      -0.47873773 </v>
   <v>       0.06183004       0.37124324      -0.47872012 </v>
   <v>       0.18754656      -0.37931774      -0.47876973 </v>
   <v>      -0.06292992      -0.37903316      -0.47867149 </v>
   <v>       0.43713984       0.12134335      -0.47877011 </v>
   <v>      -0.31312910       0.12105059      -0.47876691 </v>
   <v>       0.31162181       0.37099870      -0.47878074 </v>
   <v>      -0.18663181       0.37115287      -0.47875165 </v>
   <v>      -0.43669588      -0.46152082      -0.25660969 </v>
   <v>      -0.31342137      -0.37831770      -0.47875405 </v>
   <v>       0.43778751      -0.37812419      -0.47865966 </v>
   <v>      -0.43722304      -0.12872990      -0.47873072 </v>
   <v>      -0.43771076       0.37084367      -0.47868409 </v>
   <v>      -0.06297832      -0.04243414      -0.30079052 </v>
   <v>       0.18732839      -0.04257349      -0.30081766 </v>
   <v>       0.06204235       0.20711600      -0.30086493 </v>
   <v>       0.06209573      -0.29305443      -0.30087626 </v>
   <v>      -0.18772585       0.20736607      -0.30076075 </v>
   <v>       0.31212275       0.20738612      -0.30078475 </v>
   <v>       0.31224289      -0.29288632      -0.30084921 </v>
   <v>      -0.18818611      -0.29307376      -0.30090010 </v>
   <v>      -0.31310820      -0.04274047      -0.30082941 </v>
   <v>       0.43687331      -0.04298043      -0.30091820 </v>
   <v>       0.18679945       0.45727076      -0.30084900 </v>
   <v>      -0.06316152       0.45724515      -0.30083235 </v>
   <v>      -0.43793346       0.20685195      -0.30082376 </v>
   <v>       0.43703524       0.45735946      -0.30080723 </v>
   <v>      -0.31281392       0.45734153      -0.30080807 </v>
   <v>      -0.06257966      -0.04217606      -0.43475115 </v>
   <v>       0.18757183      -0.04261397      -0.43461911 </v>
   <v>       0.06373201       0.20586485      -0.43454200 </v>
   <v>      -0.43809227      -0.29299049      -0.30084380 </v>
   <v>       0.06252810      -0.29372289      -0.43482776 </v>
   <v>      -0.18796557       0.20673849      -0.43490887 </v>
   <v>       0.31242394       0.20723176      -0.43460184 </v>
   <v>       0.43728264      -0.04331630      -0.43511319 </v>
   <v>      -0.18774955      -0.29329895      -0.43478023 </v>
   <v>       0.31247914      -0.29296238      -0.43470220 </v>
   <v>      -0.31154047      -0.04324649      -0.43464601 </v>
   <v>       0.18748926       0.45744305      -0.43478304 </v>
   <v>      -0.06221389       0.45695931      -0.43458585 </v>
   <v>       0.43701230       0.45725900      -0.43486730 </v>
   <v>      -0.43635188       0.20748049      -0.43456738 </v>
   <v>      -0.31217586       0.45714119      -0.43463340 </v>
   <v>      -0.43754476      -0.29283133      -0.43452501 </v>
   <v>      -0.06036820       0.12347746      -0.34534080 </v>
   <v>       0.06382084      -0.12774597      -0.34546090 </v>
   <v>       0.18913329       0.12337449      -0.34549590 </v>
   <v>      -0.18600560      -0.12680422      -0.34553258 </v>
   <v>       0.31415747      -0.12668939      -0.34547676 </v>
   <v>       0.06356920       0.37275564      -0.34555093 </v>
   <v>      -0.06101487      -0.37659078      -0.34552761 </v>
   <v>       0.18891001      -0.37701696      -0.34553325 </v>
   <v>      -0.18538818       0.37270802      -0.34531757 </v>
   <v>      -0.31130388       0.12267393      -0.34546559 </v>
   <v>       0.31460002       0.37315635      -0.34543994 </v>
   <v>       0.43923713       0.12297700      -0.34556057 </v>
   <v>      -0.31139048      -0.37691955      -0.34545750 </v>
   <v>      -0.43644202      -0.12669966      -0.34553440 </v>
   <v>       0.43907747      -0.37712662      -0.34554401 </v>
   <v>       0.06078276       0.03650751      -0.38961368 </v>
   <v>      -0.43526505       0.37295134      -0.34552691 </v>
   <v>       0.18614857       0.28705146      -0.38959033 </v>
   <v>      -0.18876184       0.03660863      -0.38956997 </v>
   <v>      -0.06380738      -0.21312568      -0.38940336 </v>
   <v>       0.18473753      -0.21248342      -0.38931235 </v>
   <v>       0.31007313       0.03755030      -0.38926848 </v>
   <v>      -0.06444591       0.28758473      -0.38937125 </v>
   <v>       0.43620439      -0.21295214      -0.38953663 </v>
   <v>       0.43603334       0.28665520      -0.38957811 </v>
   <v>       0.06102273      -0.46340572      -0.38944793 </v>
   <v>      -0.31434222      -0.21290648      -0.38944056 </v>
   <v>      -0.31497601       0.28736817      -0.38936822 </v>
   <v>       0.31006624      -0.46251106      -0.38933407 </v>
   <v>      -0.18953057      -0.46301194      -0.38939111 </v>
   <v>      -0.43939034       0.03718366      -0.38928089 </v>
   <v>      -0.43883691      -0.46320123      -0.38955936 </v>
  </varray>
 </structure>
 <varray name="primitive_index" >
  <v type="int" >        1 </v>
  <v type="int" >      125 </v>
  <v type="int" >       60 </v>
  <v type="int" >       44 </v>
  <v type="int" >       83 </v>
  <v type="int" >       26 </v>
  <v type="int" >      202 </v>
  <v type="int" >      256 </v>
  <v type="int" >      111 </v>
  <v type="int" >      155 </v>
  <v type="int" >      277 </v>
  <v type="int" >       51 </v>
  <v type="int" >      102 </v>
  <v type="int" >      182 </v>
  <v type="int" >      212 </v>
  <v type="int" >      108 </v>
  <v type="int" >      170 </v>
  <v type="int" >      146 </v>
  <v type="int" >       20 </v>
  <v type="int" >      163 </v>
  <v type="int" >      284 </v>
  <v type="int" >      166 </v>
  <v type="int" >      104 </v>
  <v type="int" >       50 </v>
  <v type="int" >      176 </v>
  <v type="int" >      117 </v>
  <v type="int" >      145 </v>
  <v type="int" >      250 </v>
  <v type="int" >      167 </v>
  <v type="int" >       91 </v>
  <v type="int" >      205 </v>
  <v type="int" >      114 </v>
  <v type="int" >      278 </v>
  <v type="int" >      213 </v>
  <v type="int" >      174 </v>
  <v type="int" >      192 </v>
  <v type="int" >       92 </v>
  <v type="int" >      276 </v>
  <v type="int" >      229 </v>
  <v type="int" >       97 </v>
  <v type="int" >      175 </v>
  <v type="int" >      189 </v>
  <v type="int" >       30 </v>
  <v type="int" >      185 </v>
  <v type="int" >      200 </v>
  <v type="int" >       52 </v>
  <v type="int" >      179 </v>
  <v type="int" >      103 </v>
  <v type="int" >      112 </v>
  <v type="int" >       24 </v>
  <v type="int" >      164 </v>
  <v type="int" >      127 </v>
  <v type="int" >      139 </v>
  <v type="int" >      261 </v>
  <v type="int" >      243 </v>
  <v type="int" >      168 </v>
  <v type="int" >      137 </v>
  <v type="int" >      118 </v>
  <v type="int" >      265 </v>
  <v type="int" >       58 </v>
  <v type="int" >      275 </v>
  <v type="int" >       81 </v>
  <v type="int" >      221 </v>
  <v type="int" >      214 </v>
  <v type="int" >      135 </v>
  <v type="int" >      215 </v>
  <v type="int" >       72 </v>
  <v type="int" >       98 </v>
  <v type="int" >      226 </v>
  <v type="int" >       28 </v>
  <v type="int" >      178 </v>
  <v type="int" >      109 </v>
  <v type="int" >      263 </v>
  <v type="int" >      159 </v>
  <v type="int" >      220 </v>
  <v type="int" >      242 </v>
  <v type="int" >      130 </v>
  <v type="int" >      210 </v>
  <v type="int" >      101 </v>
  <v type="int" >      171 </v>
  <v type="int" >      258 </v>
  <v type="int" >       47 </v>
  <v type="int" >      194 </v>
  <v type="int" >      216 </v>
  <v type="int" >      207 </v>
  <v type="int" >       86 </v>
  <v type="int" >      208 </v>
  <v type="int" >      172 </v>
  <v type="int" >       73 </v>
  <v type="int" >       25 </v>
  <v type="int" >       12 </v>
  <v type="int" >      116 </v>
  <v type="int" >      219 </v>
  <v type="int" >      279 </v>
  <v type="int" >      206 </v>
  <v type="int" >      282 </v>
  <v type="int" >      283 </v>
  <v type="int" >      268 </v>
  <v type="int" >      105 </v>
  <v type="int" >      120 </v>
  <v type="int" >       14 </v>
  <v type="int" >      245 </v>
  <v type="int" >      280 </v>
  <v type="int" >      124 </v>
  <v type="int" >      266 </v>
  <v type="int" >      150 </v>
  <v type="int" >       29 </v>
  <v type="int" >      255 </v>
  <v type="int" >      191 </v>
  <v type="int" >      190 </v>
  <v type="int" >       62 </v>
  <v type="int" >      165 </v>
  <v type="int" >       48 </v>
  <v type="int" >       13 </v>
  <v type="int" >      248 </v>
  <v type="int" >      247 </v>
  <v type="int" >       18 </v>
  <v type="int" >      161 </v>
  <v type="int" >      273 </v>
  <v type="int" >       45 </v>
  <v type="int" >      264 </v>
  <v type="int" >       84 </v>
  <v type="int" >        4 </v>
  <v type="int" >       67 </v>
  <v type="int" >      123 </v>
  <v type="int" >       16 </v>
  <v type="int" >       64 </v>
  <v type="int" >       17 </v>
  <v type="int" >      259 </v>
  <v type="int" >        7 </v>
  <v type="int" >      134 </v>
  <v type="int" >        6 </v>
  <v type="int" >       39 </v>
  <v type="int" >      222 </v>
  <v type="int" >      253 </v>
  <v type="int" >      110 </v>
  <v type="int" >       88 </v>
  <v type="int" >        5 </v>
  <v type="int" >       36 </v>
  <v type="int" >      181 </v>
  <v type="int" >      204 </v>
  <v type="int" >      160 </v>
  <v type="int" >      158 </v>
  <v type="int" >       82 </v>
  <v type="int" >      143 </v>
  <v type="int" >       74 </v>
  <v type="int" >       23 </v>
  <v type="int" >      235 </v>
  <v type="int" >      218 </v>
  <v type="int" >      241 </v>
  <v type="int" >      131 </v>
  <v type="int" >      238 </v>
  <v type="int" >      257 </v>
  <v type="int" >      201 </v>
  <v type="int" >      113 </v>
  <v type="int" >       80 </v>
  <v type="int" >      232 </v>
  <v type="int" >      249 </v>
  <v type="int" >       69 </v>
  <v type="int" >      251 </v>
  <v type="int" >      149 </v>
  <v type="int" >      197 </v>
  <v type="int" >        3 </v>
  <v type="int" >      254 </v>
  <v type="int" >       55 </v>
  <v type="int" >      224 </v>
  <v type="int" >       49 </v>
  <v type="int" >       57 </v>
  <v type="int" >      138 </v>
  <v type="int" >      272 </v>
  <v type="int" >      188 </v>
  <v type="int" >      132 </v>
  <v type="int" >       94 </v>
  <v type="int" >      236 </v>
  <v type="int" >      184 </v>
  <v type="int" >       66 </v>
  <v type="int" >      223 </v>
  <v type="int" >       33 </v>
  <v type="int" >      157 </v>
  <v type="int" >      230 </v>
  <v type="int" >       21 </v>
  <v type="int" >      106 </v>
  <v type="int" >      234 </v>
  <v type="int" >       99 </v>
  <v type="int" >      281 </v>
  <v type="int" >       75 </v>
  <v type="int" >      244 </v>
  <v type="int" >      269 </v>
  <v type="int" >      237 </v>
  <v type="int" >      156 </v>
  <v type="int" >      199 </v>
  <v type="int" >      169 </v>
  <v type="int" >        9 </v>
  <v type="int" >       46 </v>
  <v type="int" >      262 </v>
  <v type="int" >       11 </v>
  <v type="int" >      151 </v>
  <v type="int" >      239 </v>
  <v type="int" >      187 </v>
  <v type="int" >       43 </v>
  <v type="int" >      211 </v>
  <v type="int" >       31 </v>
  <v type="int" >       71 </v>
  <v type="int" >       19 </v>
  <v type="int" >      288 </v>
  <v type="int" >       87 </v>
  <v type="int" >      267 </v>
  <v type="int" >       27 </v>
  <v type="int" >      140 </v>
  <v type="int" >      286 </v>
  <v type="int" >      144 </v>
  <v type="int" >       10 </v>
  <v type="int" >      107 </v>
  <v type="int" >       68 </v>
  <v type="int" >      203 </v>
  <v type="int" >      119 </v>
  <v type="int" >       34 </v>
  <v type="int" >      183 </v>
  <v type="int" >      177 </v>
  <v type="int" >      270 </v>
  <v type="int" >      195 </v>
  <v type="int" >      252 </v>
  <v type="int" >       77 </v>
  <v type="int" >      285 </v>
  <v type="int" >      225 </v>
  <v type="int" >      173 </v>
  <v type="int" >       37 </v>
  <v type="int" >      274 </v>
  <v type="int" >      233 </v>
  <v type="int" >       63 </v>
  <v type="int" >      154 </v>
  <v type="int" >      141 </v>
  <v type="int" >       54 </v>
  <v type="int" >       38 </v>
  <v type="int" >      246 </v>
  <v type="int" >      152 </v>
  <v type="int" >       53 </v>
  <v type="int" >      193 </v>
  <v type="int" >       76 </v>
  <v type="int" >      129 </v>
  <v type="int" >      162 </v>
  <v type="int" >      287 </v>
  <v type="int" >      133 </v>
  <v type="int" >       65 </v>
  <v type="int" >      271 </v>
  <v type="int" >       93 </v>
  <v type="int" >       56 </v>
  <v type="int" >       32 </v>
  <v type="int" >       90 </v>
  <v type="int" >       95 </v>
  <v type="int" >       59 </v>
  <v type="int" >       42 </v>
  <v type="int" >       70 </v>
  <v type="int" >        8 </v>
  <v type="int" >      228 </v>
  <v type="int" >      186 </v>
  <v type="int" >      122 </v>
  <v type="int" >      196 </v>
  <v type="int" >      121 </v>
  <v type="int" >       79 </v>
  <v type="int" >        2 </v>
  <v type="int" >      198 </v>
  <v type="int" >      240 </v>
  <v type="int" >      153 </v>
  <v type="int" >       35 </v>
  <v type="int" >      209 </v>
  <v type="int" >       85 </v>
  <v type="int" >      231 </v>
  <v type="int" >      227 </v>
  <v type="int" >       89 </v>
  <v type="int" >       40 </v>
  <v type="int" >      142 </v>
  <v type="int" >       78 </v>
  <v type="int" >       61 </v>
  <v type="int" >      217 </v>
  <v type="int" >      136 </v>
  <v type="int" >       15 </v>
  <v type="int" >      148 </v>
  <v type="int" >      100 </v>
  <v type="int" >       96 </v>
  <v type="int" >      115 </v>
  <v type="int" >      126 </v>
  <v type="int" >      180 </v>
  <v type="int" >      147 </v>
  <v type="int" >       41 </v>
  <v type="int" >       22 </v>
  <v type="int" >      260 </v>
  <v type="int" >      128 </v>
 </varray>
 <kpoints>
  <generation param="Gamma">
   <v type="int" name="divisions">       4        4        1 </v>
   <v name="usershift">      0.00000000       0.00000000       0.00000000 </v>
   <v name="genvec1">      0.25000000       0.00000000       0.00000000 </v>
   <v name="genvec2">      0.00000000       0.25000000       0.00000000 </v>
   <v name="genvec3">      0.00000000       0.00000000       1.00000000 </v>
   <v name="shift">      0.00000000       0.00000000       0.00000000 </v>
  </generation>
  <varray name="kpointlist" >
   <v>       0.00000000       0.00000000       0.00000000 </v>
   <v>       0.25000000       0.00000000       0.00000000 </v>
   <v>       0.50000000       0.00000000       0.00000000 </v>
   <v>       0.00000000       0.25000000       0.00000000 </v>
   <v>       0.25000000       0.25000000       0.00000000 </v>
   <v>       0.50000000       0.25000000       0.00000000 </v>
   <v>      -0.25000000       0.25000000       0.00000000 </v>
   <v>       0.00000000       0.50000000       0.00000000 </v>
   <v>       0.25000000       0.50000000       0.00000000 </v>
   <v>       0.50000000       0.50000000       0.00000000 </v>
  </varray>
  <varray name="weights" >
   <v>       0.06250000 </v>
   <v>       0.12500000 </v>
   <v>       0.06250000 </v>
   <v>       0.12500000 </v>
   <v>       0.12500000 </v>
   <v>       0.12500000 </v>
   <v>       0.12500000 </v>
   <v>       0.06250000 </v>
   <v>       0.12500000 </v>
   <v>       0.06250000 </v>
  </varray>
 </kpoints>
 <parameters>
  <separator name="general" >
   <i type="string" name="SYSTEM">unknown system</i>
   <i type="logical" name="LCOMPAT"> F  </i>
  </separator>
  <separator name="electronic" >
   <i type="string" name="PREC">accura</i>
   <i name="ENMAX">    450.00000000</i>
   <i name="ENAUG">    838.43500000</i>
   <i name="EDIFF">      0.00000100</i>
   <i type="int" name="IALGO">    68</i>
   <i type="int" name="IWAVPR">    11</i>
   <i type="int" name="NBANDS">  1386</i>
   <i name="NELECT">   2290.00000000</i>
   <i type="int" name="TURBO">     0</i>
   <i type="int" name="IRESTART">     0</i>
   <i type="int" name="NREBOOT">     0</i>
   <i type="int" name="NMIN">     0</i>
   <i name="EREF">      0.00000000</i>
   <separator name="electronic smearing" >
    <i type="int" name="ISMEAR">     0</i>
    <i name="SIGMA">      0.15000000</i>
    <i name="KSPACING">      0.50000000</i>
    <i type="logical" name="KGAMMA"> T  </i>
   </separator>
   <separator name="electronic projectors" >
    <i type="logical" name="LREAL"> T  </i>
    <v name="ROPT">     -0.00025000     -0.00025000</v>
    <i type="int" name="LMAXPAW">  -100</i>
    <i type="int" name="LMAXMIX">     2</i>
    <i type="logical" name="NLSPLINE"> F  </i>
   </separator>
   <separator name="electronic startup" >
    <i type="int" name="ISTART">     0</i>
    <i type="int" name="ICHARG">     2</i>
    <i type="int" name="INIWAV">     1</i>
   </separator>
   <separator name="electronic spin" >
    <i type="int" name="ISPIN">     1</i>
    <i type="logical" name="LNONCOLLINEAR"> F  </i>
    <v name="MAGMOM">      1.00000000      1.00000000      1.00000000      1.00000000      1.00000000      1.00000000      1.00000000      1.00000000      1.00000000      1.00000000      1.00000000      1.00000000      1.00000000      1.00000000      1.00000000      1.00000000      1.00000000      1.00000000      1.00000000      1.00000000
      1.00000000      1.00000000      1.00000000      1.00000000      1.00000000      1.00000000      1.00000000      1.00000000      1.00000000      1.00000000      1.00000000      1.00000000      1.00000000      1.00000000      1.00000000      1.00000000      1.00000000      1.00000000      1.00000000      1.00000000
      1.00000000      1.00000000      1.00000000      1.00000000      1.00000000      1.00000000      1.00000000      1.00000000      1.00000000      1.00000000      1.00000000      1.00000000      1.00000000      1.00000000      1.00000000      1.00000000      1.00000000      1.00000000      1.00000000      1.00000000
      1.00000000      1.00000000      1.00000000      1.00000000      1.00000000      1.00000000      1.00000000      1.00000000      1.00000000      1.00000000      1.00000000      1.00000000      1.00000000      1.00000000      1.00000000      1.00000000      1.00000000      1.00000000      1.00000000      1.00000000
      1.00000000      1.00000000      1.00000000      1.00000000      1.00000000      1.00000000      1.00000000      1.00000000      1.00000000      1.00000000      1.00000000      1.00000000      1.00000000      1.00000000      1.00000000      1.00000000      1.00000000      1.00000000      1.00000000      1.00000000
      1.00000000      1.00000000      1.00000000      1.00000000      1.00000000      1.00000000      1.00000000      1.00000000      1.00000000      1.00000000      1.00000000      1.00000000      1.00000000      1.00000000      1.00000000      1.00000000      1.00000000      1.00000000      1.00000000      1.00000000
      1.00000000      1.00000000      1.00000000      1.00000000      1.00000000      1.00000000      1.00000000      1.00000000      1.00000000      1.00000000      1.00000000      1.00000000      1.00000000      1.00000000      1.00000000      1.00000000      1.00000000      1.00000000      1.00000000      1.00000000
      1.00000000      1.00000000      1.00000000      1.00000000      1.00000000      1.00000000      1.00000000      1.00000000      1.00000000      1.00000000      1.00000000      1.00000000      1.00000000      1.00000000      1.00000000      1.00000000      1.00000000      1.00000000      1.00000000      1.00000000
      1.00000000      1.00000000      1.00000000      1.00000000      1.00000000      1.00000000      1.00000000      1.00000000      1.00000000      1.00000000      1.00000000      1.00000000      1.00000000      1.00000000      1.00000000      1.00000000      1.00000000      1.00000000      1.00000000      1.00000000
      1.00000000      1.00000000      1.00000000      1.00000000      1.00000000      1.00000000      1.00000000      1.00000000      1.00000000      1.00000000      1.00000000      1.00000000      1.00000000      1.00000000      1.00000000      1.00000000      1.00000000      1.00000000      1.00000000      1.00000000
      1.00000000      1.00000000      1.00000000      1.00000000      1.00000000      1.00000000      1.00000000      1.00000000      1.00000000      1.00000000      1.00000000      1.00000000      1.00000000      1.00000000      1.00000000      1.00000000      1.00000000      1.00000000      1.00000000      1.00000000
      1.00000000      1.00000000      1.00000000      1.00000000      1.00000000      1.00000000      1.00000000      1.00000000      1.00000000      1.00000000      1.00000000      1.00000000      1.00000000      1.00000000      1.00000000      1.00000000      1.00000000      1.00000000      1.00000000      1.00000000
      1.00000000      1.00000000      1.00000000      1.00000000      1.00000000      1.00000000      1.00000000      1.00000000      1.00000000      1.00000000      1.00000000      1.00000000      1.00000000      1.00000000      1.00000000      1.00000000      1.00000000      1.00000000      1.00000000      1.00000000
      1.00000000      1.00000000      1.00000000      1.00000000      1.00000000      1.00000000      1.00000000      1.00000000      1.00000000      1.00000000      1.00000000      1.00000000      1.00000000      1.00000000      1.00000000      1.00000000      1.00000000      1.00000000      1.00000000      1.00000000
      1.00000000      1.00000000      1.00000000      1.00000000      1.00000000      1.00000000      1.00000000      1.00000000</v>
    <i name="NUPDOWN">     -1.00000000</i>
    <i type="logical" name="LSORBIT"> F  </i>
    <v name="SAXIS">      0.00000000      0.00000000      1.00000000</v>
    <i type="logical" name="LSPIRAL"> F  </i>
    <v name="QSPIRAL">      0.00000000      0.00000000      0.00000000</v>
    <i type="logical" name="LZEROZ"> F  </i>
   </separator>
   <separator name="electronic exchange-correlation" >
    <i type="logical" name="LASPH"> F  </i>
    <i type="logical" name="LMETAGGA"> F  </i>
   </separator>
   <separator name="electronic convergence" >
    <i type="int" name="NELM">   100</i>
    <i type="int" name="NELMDL">     0</i>
    <i type="int" name="NELMIN">     4</i>
    <i name="ENINI">    450.00000000</i>
    <separator name="electronic convergence detail" >
     <i type="logical" name="LDIAG"> T  </i>
     <i type="logical" name="LSUBROT"> F  </i>
     <i name="WEIMIN">      0.00100000</i>
     <i name="EBREAK">      0.00000000</i>
     <i name="DEPER">      0.30000000</i>
     <i type="int" name="NRMM">     4</i>
     <i name="TIME">      0.40000000</i>
    </separator>
   </separator>
   <separator name="electronic mixer" >
    <i name="AMIX">      0.40000000</i>
    <i name="BMIX">      1.00000000</i>
    <i name="AMIN">      0.10000000</i>
    <i name="AMIX_MAG">      1.60000000</i>
    <i name="BMIX_MAG">      1.00000000</i>
    <separator name="electronic mixer details" >
     <i type="int" name="IMIX">     4</i>
     <i type="logical" name="MIXFIRST"> F  </i>
     <i type="int" name="MAXMIX">   -45</i>
     <i name="WC">    100.00000000</i>
     <i type="int" name="INIMIX">     1</i>
     <i type="int" name="MIXPRE">     1</i>
     <i type="int" name="MREMOVE">     5</i>
    </separator>
   </separator>
   <separator name="electronic dipolcorrection" >
    <i type="logical" name="LDIPOL"> F  </i>
    <i type="logical" name="LMONO"> F  </i>
    <i type="int" name="IDIPOL">     0</i>
    <i name="EPSILON">      1.00000000</i>
    <v name="DIPOL">   -100.00000000   -100.00000000   -100.00000000</v>
    <i name="EFIELD">      0.00000000</i>
   </separator>
  </separator>
  <separator name="grids" >
   <i type="int" name="NGX">    70</i>
   <i type="int" name="NGY">    60</i>
   <i type="int" name="NGZ">   320</i>
   <i type="int" name="NGXF">   140</i>
   <i type="int" name="NGYF">   120</i>
   <i type="int" name="NGZF">   640</i>
   <i type="logical" name="ADDGRID"> F  </i>
  </separator>
  <separator name="ionic" >
   <i type="int" name="NSW">     5</i>
   <i type="int" name="IBRION">     2</i>
   <i type="int" name="MDALGO">     0</i>
   <i type="int" name="ISIF">     2</i>
   <i name="PSTRESS">      0.00000000</i>
   <i name="EDIFFG">      0.00001000</i>
   <i type="int" name="NFREE">     1</i>
   <i name="POTIM">      0.25000000</i>
   <i name="SMASS">     -3.00000000</i>
   <i name="SCALEE">      1.00000000</i>
  </separator>
  <separator name="ionic md" >
   <i name="TEBEG">      0.00010000</i>
   <i name="TEEND">      0.00010000</i>
   <i type="int" name="NBLOCK">     1</i>
   <i type="int" name="KBLOCK">     5</i>
   <i type="int" name="NPACO">   256</i>
   <i name="APACO">     16.00000000</i>
  </separator>
  <separator name="symmetry" >
   <i type="int" name="ISYM">     2</i>
   <i name="SYMPREC">      0.00001000</i>
  </separator>
  <separator name="dos" >
   <i type="int" name="LORBIT">     0</i>
   <v name="RWIGS">     -1.00000000     -1.00000000</v>
   <i type="int" name="NEDOS">   301</i>
   <i name="EMIN">     10.00000000</i>
   <i name="EMAX">    -10.00000000</i>
   <i name="EFERMI">      0.00000000</i>
  </separator>
  <separator name="writing" >
   <i type="int" name="NWRITE">     2</i>
   <i type="logical" name="LWAVE"> F  </i>
   <i type="logical" name="LDOWNSAMPLE"> F  </i>
   <i type="logical" name="LCHARG"> F  </i>
   <i type="logical" name="LPARD"> F  </i>
   <i type="logical" name="LVTOT"> F  </i>
   <i type="logical" name="LVHAR"> F  </i>
   <i type="logical" name="LELF"> F  </i>
   <i type="logical" name="LOPTICS"> F  </i>
   <v name="STM">      0.00000000      0.00000000      0.00000000      0.00000000      0.00000000      0.00000000      0.00000000</v>
  </separator>
  <separator name="performance" >
   <i type="int" name="NPAR">    14</i>
   <i type="int" name="NSIM">     4</i>
   <i type="int" name="NBLK">    -1</i>
   <i type="logical" name="LPLANE"> T  </i>
   <i type="logical" name="LSCALAPACK"> T  </i>
   <i type="logical" name="LSCAAWARE"> T  </i>
   <i type="logical" name="LSCALU"> F  </i>
   <i type="logical" name="LASYNC"> F  </i>
   <i type="logical" name="LORBITALREAL"> F  </i>
  </separator>
  <separator name="miscellaneous" >
   <i type="int" name="IDIOT">     3</i>
   <i type="int" name="ISPECIAL">     0</i>
   <i type="logical" name="LMUSIC"> F  </i>
   <v name="POMASS">     55.84700000     54.93800000</v>
   <v name="DARWINR">      0.00000000      0.00000000</v>
   <v name="DARWINV">      1.00000000      1.00000000</v>
   <i type="logical" name="LCORR"> T  </i>
  </separator>
  <i type="logical" name="GGA_COMPAT"> T  </i>
  <i type="logical" name="LBERRY"> F  </i>
  <i type="int" name="ICORELEVEL">     0</i>
  <i type="logical" name="LDAU"> F  </i>
  <i type="int" name="I_CONSTRAINED_M">     0</i>
  <separator name="electronic exchange-correlation" >
   <i type="string" name="GGA">--</i>
   <i type="int" name="VOSKOWN">     0</i>
   <i type="logical" name="LHFCALC"> F  </i>
   <i type="string" name="PRECFOCK"></i>
   <i type="logical" name="LSYMGRAD"> F  </i>
   <i type="logical" name="LHFONE"> F  </i>
   <i type="logical" name="LRHFCALC"> F  </i>
   <i type="logical" name="LTHOMAS"> F  </i>
   <i type="logical" name="LMODELHF"> F  </i>
   <i name="ENCUT4O">     -1.00000000</i>
   <i type="int" name="EXXOEP">     0</i>
   <i type="int" name="FOURORBIT">     0</i>
   <i name="AEXX">      0.00000000</i>
   <i name="HFALPHA">      0.00000000</i>
   <i name="MCALPHA">      0.00000000</i>
   <i name="ALDAX">      1.00000000</i>
   <i name="AGGAX">      1.00000000</i>
   <i name="ALDAC">      1.00000000</i>
   <i name="AGGAC">      1.00000000</i>
   <i type="int" name="NKREDX">     1</i>
   <i type="int" name="NKREDY">     1</i>
   <i type="int" name="NKREDZ">     1</i>
   <i type="logical" name="SHIFTRED"> F  </i>
   <i type="logical" name="ODDONLY"> F  </i>
   <i type="logical" name="EVENONLY"> F  </i>
   <i type="int" name="LMAXFOCK">     0</i>
   <i type="int" name="NMAXFOCKAE">     0</i>
   <i type="logical" name="LFOCKAEDFT"> F  </i>
   <i name="HFSCREEN">      0.00000000</i>
   <i name="HFSCREENC">      0.00000000</i>
   <i type="int" name="NBANDSGWLOW">     0</i>
  </separator>
  <separator name="vdW DFT" >
   <i type="logical" name="LUSE_VDW"> F  </i>
   <i name="Zab_VDW">     -0.84910000</i>
   <i name="PARAM1">      0.12340000</i>
   <i name="PARAM2">      1.00000000</i>
   <i name="PARAM3">      0.00000000</i>
  </separator>
  <separator name="model GW" >
   <i type="int" name="MODEL_GW">     0</i>
   <i name="MODEL_EPS0">      7.68123389</i>
   <i name="MODEL_ALPHA">      1.00000000</i>
  </separator>
  <separator name="linear response parameters" >
   <i type="logical" name="LEPSILON"> F  </i>
   <i type="logical" name="LRPA"> F  </i>
   <i type="logical" name="LNABLA"> F  </i>
   <i type="logical" name="LVEL"> F  </i>
   <i type="int" name="KINTER">     0</i>
   <i name="CSHIFT">      0.10000000</i>
   <i name="OMEGAMAX">     -1.00000000</i>
   <i name="DEG_THRESHOLD">      0.00200000</i>
   <i name="RTIME">     -0.10000000</i>
   <i name="WPLASMAI">      0.00000000</i>
   <v name="DFIELD">      0.00000000      0.00000000      0.00000000</v>
   <v name="WPLASMA">      0.00000000      0.00000000      0.00000000      0.00000000      0.00000000      0.00000000      0.00000000      0.00000000      0.00000000</v>
  </separator>
  <separator name="orbital magnetization" >
   <i type="logical" name="NUCIND"> F  </i>
   <v name="MAGPOS">      0.00000000      0.00000000      0.00000000</v>
   <i type="logical" name="LNICSALL"> T  </i>
   <i type="logical" name="ORBITALMAG"> F  </i>
   <i type="logical" name="LMAGBLOCH"> F  </i>
   <i type="logical" name="LCHIMAG"> F  </i>
   <i type="logical" name="LGAUGE"> T  </i>
   <i type="int" name="MAGATOM">     0</i>
   <v name="MAGDIPOL">      0.00000000      0.00000000      0.00000000</v>
   <v name="AVECCONST">      0.00000000      0.00000000      0.00000000</v>
  </separator>
  <separator name="response functions" >
   <i type="logical" name="LADDER"> F  </i>
   <i type="logical" name="LRPAFORCE"> F  </i>
   <i type="logical" name="LFXC"> F  </i>
   <i type="logical" name="LHARTREE"> T  </i>
   <i type="int" name="IBSE">     0</i>
   <v type="int" name="KPOINT">    -1     0     0     0</v>
   <i type="logical" name="LTCTE"> F  </i>
   <i type="logical" name="LTETE"> F  </i>
   <i type="logical" name="LTRIPLET"> F  </i>
   <i type="logical" name="LFXCEPS"> F  </i>
   <i type="logical" name="LFXHEG"> F  </i>
   <i type="int" name="NATURALO">     2</i>
   <i type="logical" name="L2ORDER"> F  </i>
   <i type="logical" name="LMP2LT"> F  </i>
   <i type="logical" name="LUSEW"> F  </i>
   <i name="ENCUTGW">     -2.00000000</i>
   <i name="ENCUTGWSOFT">     -2.00000000</i>
   <i name="ENCUTLF">     -1.00000000</i>
   <i type="int" name="LMAXMP2">    -1</i>
   <i name="SCISSOR">      0.00000000</i>
   <i type="int" name="NOMEGA">     0</i>
   <i type="int" name="NOMEGAR">     0</i>
   <i type="int" name="NBANDSGW">    -1</i>
   <i type="int" name="NBANDSO">    -1</i>
   <i type="int" name="NBANDSV">    -1</i>
   <i type="int" name="NELM">   100</i>
   <i type="int" name="NELMHF">     1</i>
   <i type="int" name="DIM">     3</i>
   <i type="int" name="ANTIRES">     0</i>
   <i name="OMEGAMAX">    -30.00000000</i>
   <i name="OMEGAMIN">    -30.00000000</i>
   <i name="OMEGATL">   -200.00000000</i>
   <i type="int" name="OMEGAGRID">   140</i>
   <i name="CSHIFT">     -0.10000000</i>
   <i type="logical" name="SELFENERGY"> F  </i>
   <i type="logical" name="LSPECTRAL"> F  </i>
   <i type="logical" name="LSPECTRALGW"> F  </i>
   <i type="logical" name="LSINGLES"> F  </i>
   <i type="logical" name="LFERMIGW"> F  </i>
   <i type="logical" name="ODDONLYGW"> F  </i>
   <i type="logical" name="EVENONLYGW"> F  </i>
   <i type="int" name="NKREDLFX">     1</i>
   <i type="int" name="NKREDLFY">     1</i>
   <i type="int" name="NKREDLFZ">     1</i>
   <i type="int" name="MAXMEM">  2800</i>
   <i type="int" name="TELESCOPE">     0</i>
   <i type="int" name="TAUPAR">     1</i>
   <i type="int" name="OMEGAPAR">    -1</i>
   <i name="LAMBDA">      1.00000000</i>
  </separator>
  <separator name="External order field" >
   <i name="OFIELD_KAPPA">      0.00000000</i>
   <v name="OFIELD_K">      0.00000000      0.00000000      0.00000000</v>
   <i name="OFIELD_Q6_NEAR">      0.00000000</i>
   <i name="OFIELD_Q6_FAR">      0.00000000</i>
   <i name="OFIELD_A">      0.00000000</i>
  </separator>
 </parameters>
 <atominfo>
  <atoms>     288 </atoms>
  <types>       2 </types>
  <array name="atoms" >
   <dimension dim="1">ion</dimension>
   <field type="string">element</field>
   <field type="int">atomtype</field>
   <set>
    <rc><c>Fe</c><c>   1</c></rc>
    <rc><c>Fe</c><c>   1</c></rc>
    <rc><c>Fe</c><c>   1</c></rc>
    <rc><c>Fe</c><c>   1</c></rc>
    <rc><c>Fe</c><c>   1</c></rc>
    <rc><c>Fe</c><c>   1</c></rc>
    <rc><c>Fe</c><c>   1</c></rc>
    <rc><c>Fe</c><c>   1</c></rc>
    <rc><c>Fe</c><c>   1</c></rc>
    <rc><c>Fe</c><c>   1</c></rc>
    <rc><c>Fe</c><c>   1</c></rc>
    <rc><c>Fe</c><c>   1</c></rc>
    <rc><c>Fe</c><c>   1</c></rc>
    <rc><c>Fe</c><c>   1</c></rc>
    <rc><c>Fe</c><c>   1</c></rc>
    <rc><c>Fe</c><c>   1</c></rc>
    <rc><c>Fe</c><c>   1</c></rc>
    <rc><c>Fe</c><c>   1</c></rc>
    <rc><c>Fe</c><c>   1</c></rc>
    <rc><c>Fe</c><c>   1</c></rc>
    <rc><c>Fe</c><c>   1</c></rc>
    <rc><c>Fe</c><c>   1</c></rc>
    <rc><c>Fe</c><c>   1</c></rc>
    <rc><c>Fe</c><c>   1</c></rc>
    <rc><c>Fe</c><c>   1</c></rc>
    <rc><c>Fe</c><c>   1</c></rc>
    <rc><c>Fe</c><c>   1</c></rc>
    <rc><c>Fe</c><c>   1</c></rc>
    <rc><c>Fe</c><c>   1</c></rc>
    <rc><c>Fe</c><c>   1</c></rc>
    <rc><c>Fe</c><c>   1</c></rc>
    <rc><c>Fe</c><c>   1</c></rc>
    <rc><c>Fe</c><c>   1</c></rc>
    <rc><c>Fe</c><c>   1</c></rc>
    <rc><c>Fe</c><c>   1</c></rc>
    <rc><c>Fe</c><c>   1</c></rc>
    <rc><c>Fe</c><c>   1</c></rc>
    <rc><c>Fe</c><c>   1</c></rc>
    <rc><c>Fe</c><c>   1</c></rc>
    <rc><c>Fe</c><c>   1</c></rc>
    <rc><c>Fe</c><c>   1</c></rc>
    <rc><c>Fe</c><c>   1</c></rc>
    <rc><c>Fe</c><c>   1</c></rc>
    <rc><c>Fe</c><c>   1</c></rc>
    <rc><c>Fe</c><c>   1</c></rc>
    <rc><c>Fe</c><c>   1</c></rc>
    <rc><c>Fe</c><c>   1</c></rc>
    <rc><c>Fe</c><c>   1</c></rc>
    <rc><c>Fe</c><c>   1</c></rc>
    <rc><c>Fe</c><c>   1</c></rc>
    <rc><c>Fe</c><c>   1</c></rc>
    <rc><c>Fe</c><c>   1</c></rc>
    <rc><c>Fe</c><c>   1</c></rc>
    <rc><c>Fe</c><c>   1</c></rc>
    <rc><c>Fe</c><c>   1</c></rc>
    <rc><c>Fe</c><c>   1</c></rc>
    <rc><c>Fe</c><c>   1</c></rc>
    <rc><c>Fe</c><c>   1</c></rc>
    <rc><c>Fe</c><c>   1</c></rc>
    <rc><c>Fe</c><c>   1</c></rc>
    <rc><c>Fe</c><c>   1</c></rc>
    <rc><c>Fe</c><c>   1</c></rc>
    <rc><c>Fe</c><c>   1</c></rc>
    <rc><c>Fe</c><c>   1</c></rc>
    <rc><c>Fe</c><c>   1</c></rc>
    <rc><c>Fe</c><c>   1</c></rc>
    <rc><c>Fe</c><c>   1</c></rc>
    <rc><c>Fe</c><c>   1</c></rc>
    <rc><c>Fe</c><c>   1</c></rc>
    <rc><c>Fe</c><c>   1</c></rc>
    <rc><c>Fe</c><c>   1</c></rc>
    <rc><c>Fe</c><c>   1</c></rc>
    <rc><c>Fe</c><c>   1</c></rc>
    <rc><c>Fe</c><c>   1</c></rc>
    <rc><c>Fe</c><c>   1</c></rc>
    <rc><c>Fe</c><c>   1</c></rc>
    <rc><c>Fe</c><c>   1</c></rc>
    <rc><c>Fe</c><c>   1</c></rc>
    <rc><c>Fe</c><c>   1</c></rc>
    <rc><c>Fe</c><c>   1</c></rc>
    <rc><c>Fe</c><c>   1</c></rc>
    <rc><c>Fe</c><c>   1</c></rc>
    <rc><c>Fe</c><c>   1</c></rc>
    <rc><c>Fe</c><c>   1</c></rc>
    <rc><c>Fe</c><c>   1</c></rc>
    <rc><c>Fe</c><c>   1</c></rc>
    <rc><c>Fe</c><c>   1</c></rc>
    <rc><c>Fe</c><c>   1</c></rc>
    <rc><c>Fe</c><c>   1</c></rc>
    <rc><c>Fe</c><c>   1</c></rc>
    <rc><c>Fe</c><c>   1</c></rc>
    <rc><c>Fe</c><c>   1</c></rc>
    <rc><c>Fe</c><c>   1</c></rc>
    <rc><c>Fe</c><c>   1</c></rc>
    <rc><c>Fe</c><c>   1</c></rc>
    <rc><c>Fe</c><c>   1</c></rc>
    <rc><c>Fe</c><c>   1</c></rc>
    <rc><c>Fe</c><c>   1</c></rc>
    <rc><c>Fe</c><c>   1</c></rc>
    <rc><c>Fe</c><c>   1</c></rc>
    <rc><c>Fe</c><c>   1</c></rc>
    <rc><c>Fe</c><c>   1</c></rc>
    <rc><c>Fe</c><c>   1</c></rc>
    <rc><c>Fe</c><c>   1</c></rc>
    <rc><c>Fe</c><c>   1</c></rc>
    <rc><c>Fe</c><c>   1</c></rc>
    <rc><c>Fe</c><c>   1</c></rc>
    <rc><c>Fe</c><c>   1</c></rc>
    <rc><c>Fe</c><c>   1</c></rc>
    <rc><c>Fe</c><c>   1</c></rc>
    <rc><c>Fe</c><c>   1</c></rc>
    <rc><c>Fe</c><c>   1</c></rc>
    <rc><c>Fe</c><c>   1</c></rc>
    <rc><c>Fe</c><c>   1</c></rc>
    <rc><c>Fe</c><c>   1</c></rc>
    <rc><c>Fe</c><c>   1</c></rc>
    <rc><c>Fe</c><c>   1</c></rc>
    <rc><c>Fe</c><c>   1</c></rc>
    <rc><c>Fe</c><c>   1</c></rc>
    <rc><c>Fe</c><c>   1</c></rc>
    <rc><c>Fe</c><c>   1</c></rc>
    <rc><c>Fe</c><c>   1</c></rc>
    <rc><c>Fe</c><c>   1</c></rc>
    <rc><c>Fe</c><c>   1</c></rc>
    <rc><c>Fe</c><c>   1</c></rc>
    <rc><c>Fe</c><c>   1</c></rc>
    <rc><c>Fe</c><c>   1</c></rc>
    <rc><c>Fe</c><c>   1</c></rc>
    <rc><c>Fe</c><c>   1</c></rc>
    <rc><c>Fe</c><c>   1</c></rc>
    <rc><c>Fe</c><c>   1</c></rc>
    <rc><c>Fe</c><c>   1</c></rc>
    <rc><c>Fe</c><c>   1</c></rc>
    <rc><c>Fe</c><c>   1</c></rc>
    <rc><c>Fe</c><c>   1</c></rc>
    <rc><c>Fe</c><c>   1</c></rc>
    <rc><c>Fe</c><c>   1</c></rc>
    <rc><c>Fe</c><c>   1</c></rc>
    <rc><c>Fe</c><c>   1</c></rc>
    <rc><c>Fe</c><c>   1</c></rc>
    <rc><c>Fe</c><c>   1</c></rc>
    <rc><c>Fe</c><c>   1</c></rc>
    <rc><c>Fe</c><c>   1</c></rc>
    <rc><c>Fe</c><c>   1</c></rc>
    <rc><c>Fe</c><c>   1</c></rc>
    <rc><c>Fe</c><c>   1</c></rc>
    <rc><c>Fe</c><c>   1</c></rc>
    <rc><c>Fe</c><c>   1</c></rc>
    <rc><c>Fe</c><c>   1</c></rc>
    <rc><c>Fe</c><c>   1</c></rc>
    <rc><c>Fe</c><c>   1</c></rc>
    <rc><c>Fe</c><c>   1</c></rc>
    <rc><c>Fe</c><c>   1</c></rc>
    <rc><c>Fe</c><c>   1</c></rc>
    <rc><c>Fe</c><c>   1</c></rc>
    <rc><c>Fe</c><c>   1</c></rc>
    <rc><c>Fe</c><c>   1</c></rc>
    <rc><c>Fe</c><c>   1</c></rc>
    <rc><c>Fe</c><c>   1</c></rc>
    <rc><c>Fe</c><c>   1</c></rc>
    <rc><c>Fe</c><c>   1</c></rc>
    <rc><c>Fe</c><c>   1</c></rc>
    <rc><c>Fe</c><c>   1</c></rc>
    <rc><c>Fe</c><c>   1</c></rc>
    <rc><c>Fe</c><c>   1</c></rc>
    <rc><c>Fe</c><c>   1</c></rc>
    <rc><c>Fe</c><c>   1</c></rc>
    <rc><c>Fe</c><c>   1</c></rc>
    <rc><c>Fe</c><c>   1</c></rc>
    <rc><c>Fe</c><c>   1</c></rc>
    <rc><c>Fe</c><c>   1</c></rc>
    <rc><c>Fe</c><c>   1</c></rc>
    <rc><c>Fe</c><c>   1</c></rc>
    <rc><c>Fe</c><c>   1</c></rc>
    <rc><c>Fe</c><c>   1</c></rc>
    <rc><c>Fe</c><c>   1</c></rc>
    <rc><c>Fe</c><c>   1</c></rc>
    <rc><c>Fe</c><c>   1</c></rc>
    <rc><c>Fe</c><c>   1</c></rc>
    <rc><c>Fe</c><c>   1</c></rc>
    <rc><c>Fe</c><c>   1</c></rc>
    <rc><c>Fe</c><c>   1</c></rc>
    <rc><c>Fe</c><c>   1</c></rc>
    <rc><c>Fe</c><c>   1</c></rc>
    <rc><c>Fe</c><c>   1</c></rc>
    <rc><c>Fe</c><c>   1</c></rc>
    <rc><c>Fe</c><c>   1</c></rc>
    <rc><c>Fe</c><c>   1</c></rc>
    <rc><c>Fe</c><c>   1</c></rc>
    <rc><c>Fe</c><c>   1</c></rc>
    <rc><c>Fe</c><c>   1</c></rc>
    <rc><c>Fe</c><c>   1</c></rc>
    <rc><c>Fe</c><c>   1</c></rc>
    <rc><c>Fe</c><c>   1</c></rc>
    <rc><c>Fe</c><c>   1</c></rc>
    <rc><c>Fe</c><c>   1</c></rc>
    <rc><c>Fe</c><c>   1</c></rc>
    <rc><c>Fe</c><c>   1</c></rc>
    <rc><c>Fe</c><c>   1</c></rc>
    <rc><c>Fe</c><c>   1</c></rc>
    <rc><c>Fe</c><c>   1</c></rc>
    <rc><c>Fe</c><c>   1</c></rc>
    <rc><c>Fe</c><c>   1</c></rc>
    <rc><c>Fe</c><c>   1</c></rc>
    <rc><c>Fe</c><c>   1</c></rc>
    <rc><c>Fe</c><c>   1</c></rc>
    <rc><c>Fe</c><c>   1</c></rc>
    <rc><c>Fe</c><c>   1</c></rc>
    <rc><c>Fe</c><c>   1</c></rc>
    <rc><c>Fe</c><c>   1</c></rc>
    <rc><c>Fe</c><c>   1</c></rc>
    <rc><c>Fe</c><c>   1</c></rc>
    <rc><c>Fe</c><c>   1</c></rc>
    <rc><c>Fe</c><c>   1</c></rc>
    <rc><c>Fe</c><c>   1</c></rc>
    <rc><c>Fe</c><c>   1</c></rc>
    <rc><c>Fe</c><c>   1</c></rc>
    <rc><c>Fe</c><c>   1</c></rc>
    <rc><c>Fe</c><c>   1</c></rc>
    <rc><c>Fe</c><c>   1</c></rc>
    <rc><c>Fe</c><c>   1</c></rc>
    <rc><c>Fe</c><c>   1</c></rc>
    <rc><c>Fe</c><c>   1</c></rc>
    <rc><c>Fe</c><c>   1</c></rc>
    <rc><c>Fe</c><c>   1</c></rc>
    <rc><c>Fe</c><c>   1</c></rc>
    <rc><c>Fe</c><c>   1</c></rc>
    <rc><c>Fe</c><c>   1</c></rc>
    <rc><c>Fe</c><c>   1</c></rc>
    <rc><c>Fe</c><c>   1</c></rc>
    <rc><c>Fe</c><c>   1</c></rc>
    <rc><c>Fe</c><c>   1</c></rc>
    <rc><c>Fe</c><c>   1</c></rc>
    <rc><c>Fe</c><c>   1</c></rc>
    <rc><c>Fe</c><c>   1</c></rc>
    <rc><c>Fe</c><c>   1</c></rc>
    <rc><c>Fe</c><c>   1</c></rc>
    <rc><c>Fe</c><c>   1</c></rc>
    <rc><c>Fe</c><c>   1</c></rc>
    <rc><c>Fe</c><c>   1</c></rc>
    <rc><c>Fe</c><c>   1</c></rc>
    <rc><c>Fe</c><c>   1</c></rc>
    <rc><c>Fe</c><c>   1</c></rc>
    <rc><c>Fe</c><c>   1</c></rc>
    <rc><c>Fe</c><c>   1</c></rc>
    <rc><c>Fe</c><c>   1</c></rc>
    <rc><c>Fe</c><c>   1</c></rc>
    <rc><c>Fe</c><c>   1</c></rc>
    <rc><c>Fe</c><c>   1</c></rc>
    <rc><c>Fe</c><c>   1</c></rc>
    <rc><c>Fe</c><c>   1</c></rc>
    <rc><c>Fe</c><c>   1</c></rc>
    <rc><c>Fe</c><c>   1</c></rc>
    <rc><c>Fe</c><c>   1</c></rc>
    <rc><c>Fe</c><c>   1</c></rc>
    <rc><c>Fe</c><c>   1</c></rc>
    <rc><c>Fe</c><c>   1</c></rc>
    <rc><c>Fe</c><c>   1</c></rc>
    <rc><c>Fe</c><c>   1</c></rc>
    <rc><c>Fe</c><c>   1</c></rc>
    <rc><c>Fe</c><c>   1</c></rc>
    <rc><c>Fe</c><c>   1</c></rc>
    <rc><c>Fe</c><c>   1</c></rc>
    <rc><c>Fe</c><c>   1</c></rc>
    <rc><c>Fe</c><c>   1</c></rc>
    <rc><c>Fe</c><c>   1</c></rc>
    <rc><c>Fe</c><c>   1</c></rc>
    <rc><c>Fe</c><c>   1</c></rc>
    <rc><c>Fe</c><c>   1</c></rc>
    <rc><c>Fe</c><c>   1</c></rc>
    <rc><c>Fe</c><c>   1</c></rc>
    <rc><c>Fe</c><c>   1</c></rc>
    <rc><c>Fe</c><c>   1</c></rc>
    <rc><c>Fe</c><c>   1</c></rc>
    <rc><c>Mn</c><c>   2</c></rc>
    <rc><c>Mn</c><c>   2</c></rc>
    <rc><c>Mn</c><c>   2</c></rc>
    <rc><c>Mn</c><c>   2</c></rc>
    <rc><c>Mn</c><c>   2</c></rc>
    <rc><c>Mn</c><c>   2</c></rc>
    <rc><c>Mn</c><c>   2</c></rc>
    <rc><c>Mn</c><c>   2</c></rc>
    <rc><c>Mn</c><c>   2</c></rc>
    <rc><c>Mn</c><c>   2</c></rc>
    <rc><c>Mn</c><c>   2</c></rc>
    <rc><c>Mn</c><c>   2</c></rc>
    <rc><c>Mn</c><c>   2</c></rc>
    <rc><c>Mn</c><c>   2</c></rc>
   </set>
  </array>
  <array name="atomtypes" >
   <dimension dim="1">type</dimension>
   <field type="int">atomspertype</field>
   <field type="string">element</field>
   <field>mass</field>
   <field>valence</field>
   <field type="string">pseudopotential</field>
   <set>
    <rc><c> 274</c><c>Fe</c><c>     55.84700000</c><c>      8.00000000</c><c>  PAW_PBE Fe_GW 31Mar2010               </c></rc>
    <rc><c>  14</c><c>Mn</c><c>     54.93800000</c><c>      7.00000000</c><c>  PAW_PBE Mn_GW 31Mar2010               </c></rc>
   </set>
  </array>
 </atominfo>
 <structure name="initialpos" >
  <crystal>
   <varray name="basis" >
    <v>       9.72667804       0.00000000       0.00000000 </v>
    <v>       0.00000000       8.42355028       0.00000000 </v>
    <v>       0.00000000       0.00000000      45.00000000 </v>
   </varray>
   <i name="volume">   3686.99226691 </i>
   <varray name="rec_basis" >
    <v>       0.10281002       0.00000000       0.00000000 </v>
    <v>       0.00000000       0.11871479       0.00000000 </v>
    <v>       0.00000000       0.00000000       0.02222222 </v>
   </varray>
  </crystal>
  <varray name="positions" >
   <v>       0.06256017       0.03323949       0.12486054 </v>
   <v>       0.31415747       0.87331061       0.65452324 </v>
   <v>       0.18743365       0.11754197       0.78770173 </v>
   <v>       0.43869320       0.29018531       0.38932729 </v>
   <v>       0.31480087       0.71013060       0.83210895 </v>
   <v>       0.81526667       0.21211778       0.83298354 </v>
   <v>       0.18857366       0.96094388       0.83273904 </v>
   <v>       0.56364812       0.20748049       0.56543262 </v>
   <v>       0.06253020       0.03761079       0.74343533 </v>
   <v>       0.81231833       0.87068757       0.52126227 </v>
   <v>       0.19017753       0.28883107       0.74367142 </v>
   <v>       0.93573951       0.45401012       0.34551087 </v>
   <v>       0.93830532       0.29021155       0.38952304 </v>
   <v>       0.81384584       0.03635489       0.87478072 </v>
   <v>       0.18473753       0.78751658       0.61068765 </v>
   <v>       0.56345788       0.03990903       0.38957449 </v>
   <v>       0.94017073       0.96166047       0.83294545 </v>
   <v>       0.31536228       0.53665606       0.87532689 </v>
   <v>       0.68852516       0.28827642       0.74352295 </v>
   <v>       0.18750996       0.61677929       0.16718099 </v>
   <v>       0.81190230       0.20587040       0.47873531 </v>
   <v>       0.81046943       0.53698806       0.61060889 </v>
   <v>       0.31211577       0.87179487       0.43448864 </v>
   <v>       0.80976350       0.04120665       0.25676265 </v>
   <v>       0.68545543       0.95407873       0.34540459 </v>
   <v>       0.93507616       0.11694140       0.16780955 </v>
   <v>       0.06248793       0.87125394       0.52128483 </v>
   <v>       0.55951016       0.54096257       0.25643206 </v>
   <v>       0.68736143       0.79201996       0.87506969 </v>
   <v>       0.56183001       0.36662672       0.16721523 </v>
   <v>       0.43780166       0.78771881       0.74346804 </v>
   <v>       0.81225045       0.70670105       0.56521977 </v>
   <v>       0.56242925       0.86797986       0.78778762 </v>
   <v>       0.68687090       0.12105059       0.52123309 </v>
   <v>       0.81461182       0.37270802       0.65468243 </v>
   <v>       0.93875414       0.45989947       0.83286606 </v>
   <v>       0.06204235       0.20711600       0.69913507 </v>
   <v>       0.43687331       0.95701957       0.69908180 </v>
   <v>       0.31344626       0.20897889       0.83286342 </v>
   <v>       0.43907747       0.62287338       0.65445599 </v>
   <v>       0.31006624       0.53748894       0.61066593 </v>
   <v>       0.93778611       0.45695931       0.56541415 </v>
   <v>       0.68869720       0.78944920       0.74377038 </v>
   <v>       0.93631309       0.79030770       0.12509488 </v>
   <v>       0.68862312       0.78956582       0.38937029 </v>
   <v>       0.93923317       0.78845488       0.74387993 </v>
   <v>       0.06054717       0.20397918       0.34535451 </v>
   <v>       0.81343218       0.04013033       0.38957240 </v>
   <v>       0.43721077       0.11792218       0.78779020 </v>
   <v>       0.06315014       0.20716472       0.21232777 </v>
   <v>       0.06009466       0.36694085       0.16723170 </v>
   <v>       0.93441866       0.79161672       0.25644047 </v>
   <v>       0.56206654       0.20685195       0.69917624 </v>
   <v>       0.68689180       0.95725953       0.69917059 </v>
   <v>       0.81150657       0.86769439       0.78768183 </v>
   <v>       0.43728264       0.95668370       0.56488681 </v>
   <v>       0.81330687       0.36892662       0.78783293 </v>
   <v>       0.68419320       0.29116214       0.25649212 </v>
   <v>       0.18748926       0.45744305       0.56521696 </v>
   <v>       0.06117297       0.86768890       0.16733336 </v>
   <v>       0.18614857       0.28705146       0.61040967 </v>
   <v>       0.18749814       0.79062022       0.38957790 </v>
   <v>       0.31212275       0.20738612       0.69921525 </v>
   <v>       0.56442664       0.53640219       0.87533388 </v>
   <v>       0.06252810       0.70627711       0.56517224 </v>
   <v>       0.68814561       0.61809902       0.78776592 </v>
   <v>       0.31351713       0.54027769       0.38934285 </v>
   <v>       0.18754656       0.62068226       0.52123027 </v>
   <v>       0.56263974       0.87301331       0.43462155 </v>
   <v>       0.43701230       0.45725900       0.56513270 </v>
   <v>       0.43793541       0.28965661       0.74366597 </v>
   <v>       0.81389478       0.87540511       0.30083024 </v>
   <v>       0.81035123       0.70455355       0.34548713 </v>
   <v>       0.43884188       0.45958175       0.83269486 </v>
   <v>       0.68772607       0.95583697       0.47863526 </v>
   <v>       0.68718608       0.45734153       0.69919193 </v>
   <v>       0.56277696       0.87127010       0.52126928 </v>
   <v>       0.56473495       0.37295134       0.65447309 </v>
   <v>       0.81399440       0.87319578       0.65446742 </v>
   <v>       0.81319629       0.37323649       0.43457782 </v>
   <v>       0.80967878       0.54160912       0.25654357 </v>
   <v>       0.68939650       0.45886061       0.83275997 </v>
   <v>       0.18913308       0.78839369       0.12459945 </v>
   <v>       0.68776942       0.28961391       0.38928904 </v>
   <v>       0.31460002       0.37315635       0.65456006 </v>
   <v>       0.31132591       0.20468587       0.34556476 </v>
   <v>       0.81320224       0.53778491       0.74347612 </v>
   <v>       0.68778826       0.95950965       0.83250291 </v>
   <v>       0.56355798       0.87330034       0.65446560 </v>
   <v>       0.31247914       0.70703762       0.56529780 </v>
   <v>       0.31339130       0.53519131       0.12454224 </v>
   <v>       0.68748943       0.95754751       0.21225882 </v>
   <v>       0.31242394       0.20723176       0.56539816 </v>
   <v>       0.18725749       0.95578890       0.47861167 </v>
   <v>       0.68845953       0.95675351       0.56535399 </v>
   <v>       0.43620439       0.78704786       0.61046337 </v>
   <v>       0.68628779       0.61519560       0.16731053 </v>
   <v>       0.31428223       0.87481723       0.30084144 </v>
   <v>       0.31302444       0.70534806       0.47864237 </v>
   <v>       0.93555409       0.28758473       0.61062875 </v>
   <v>       0.43956010       0.62542091       0.30128571 </v>
   <v>       0.81105473       0.86674029       0.16753985 </v>
   <v>       0.56372843       0.20680023       0.21226446 </v>
   <v>       0.93565522       0.61499195       0.16730515 </v>
   <v>       0.94065701       0.78922206       0.87505163 </v>
   <v>       0.56264026       0.36760986       0.78773866 </v>
   <v>       0.06183004       0.37124324       0.52127988 </v>
   <v>       0.31091475       0.36490859       0.16781849 </v>
   <v>       0.68983457       0.12462777       0.30078371 </v>
   <v>       0.43955995       0.95936567       0.83268068 </v>
   <v>       0.18753964       0.28977822       0.12500389 </v>
   <v>       0.18489130       0.29186344       0.25654217 </v>
   <v>       0.31241457       0.37120803       0.43460960 </v>
   <v>       0.56259051       0.03327560       0.12483659 </v>
   <v>       0.43603334       0.28665520       0.61042189 </v>
   <v>       0.18606209       0.45418549       0.34566063 </v>
   <v>       0.43748217       0.29010388       0.12505119 </v>
   <v>       0.68487839       0.79175772       0.25641076 </v>
   <v>       0.43713984       0.12134335       0.52122989 </v>
   <v>       0.18792143       0.29262258       0.87519416 </v>
   <v>       0.18913329       0.12337449       0.65450410 </v>
   <v>       0.93963180       0.12347746       0.65465920 </v>
   <v>       0.81330847       0.53999214       0.38962272 </v>
   <v>       0.06361782       0.04000992       0.38933487 </v>
   <v>       0.18621425       0.11516011       0.16700488 </v>
   <v>       0.06102273       0.53659428       0.61055207 </v>
   <v>       0.93518469       0.29176199       0.25650342 </v>
   <v>       0.56116309       0.53679877       0.61044064 </v>
   <v>       0.93742034       0.95782394       0.56524885 </v>
   <v>       0.68930753       0.62474055       0.30083916 </v>
   <v>       0.93748667       0.62278416       0.43462865 </v>
   <v>       0.93689420       0.61834084       0.78753286 </v>
   <v>       0.56190773       0.70700951       0.69915620 </v>
   <v>       0.06342919       0.71206428       0.83285349 </v>
   <v>       0.93889666       0.12445998       0.30069775 </v>
   <v>       0.93619262       0.78687432       0.61059664 </v>
   <v>       0.43442976       0.79081144       0.25662687 </v>
   <v>       0.31283904       0.36794422       0.78775906 </v>
   <v>       0.43825908       0.45822015       0.21241290 </v>
   <v>       0.18815010       0.12059826       0.52119036 </v>
   <v>       0.81181389       0.70692624       0.69909990 </v>
   <v>       0.06078276       0.03650751       0.61038632 </v>
   <v>       0.56270277       0.21023935       0.83250174 </v>
   <v>       0.31151408       0.87102860       0.52117393 </v>
   <v>       0.68759340       0.29115295       0.12490111 </v>
   <v>       0.18758399       0.95843352       0.21243896 </v>
   <v>       0.68502399       0.28736817       0.61063178 </v>
   <v>       0.31007313       0.03755030       0.61073152 </v>
   <v>       0.93772063       0.11799365       0.78781473 </v>
   <v>       0.43764950       0.79211883       0.87506079 </v>
   <v>       0.81336158       0.03891196       0.74343694 </v>
   <v>       0.93683848       0.45724515       0.69916765 </v>
   <v>       0.18891001       0.62298304       0.65446675 </v>
   <v>       0.31224289       0.70711368       0.69915079 </v>
   <v>       0.93707794       0.29073509       0.12495197 </v>
   <v>       0.43727503       0.45579094       0.47875004 </v>
   <v>       0.06251772       0.70586771       0.47856332 </v>
   <v>       0.93667538       0.12368057       0.43500112 </v>
   <v>       0.43869654       0.12482813       0.30078852 </v>
   <v>       0.18780504       0.12161270       0.43449949 </v>
   <v>       0.56328949       0.03430017       0.87518414 </v>
   <v>       0.18757183       0.95738603       0.56538089 </v>
   <v>       0.68782169       0.79063434       0.12505050 </v>
   <v>       0.56313677       0.53252156       0.12488199 </v>
   <v>       0.31339753       0.03975834       0.38947863 </v>
   <v>       0.68646617       0.11667345       0.16756136 </v>
   <v>       0.81361941       0.20786509       0.21212029 </v>
   <v>       0.05979241       0.54158837       0.25652274 </v>
   <v>       0.56220046       0.70571176       0.47865006 </v>
   <v>       0.43512677       0.78815317       0.12458285 </v>
   <v>       0.56506405       0.37529181       0.30096248 </v>
   <v>       0.43616286       0.95421027       0.34544389 </v>
   <v>       0.18732839       0.95742651       0.69918234 </v>
   <v>       0.43364246       0.61722987       0.16725625 </v>
   <v>       0.93849114       0.45813165       0.21244560 </v>
   <v>       0.06257016       0.53288614       0.12498694 </v>
   <v>       0.81336819       0.37115287       0.52124835 </v>
   <v>       0.93911719       0.62446434       0.30072626 </v>
   <v>       0.30998173       0.04051539       0.25628122 </v>
   <v>       0.68565778       0.78709352       0.61055944 </v>
   <v>       0.18863580       0.45987733       0.83286351 </v>
   <v>       0.43581828       0.11570861       0.16709800 </v>
   <v>       0.31162181       0.37099870       0.52121926 </v>
   <v>       0.43737140       0.61779285       0.78787521 </v>
   <v>       0.05973543       0.04141102       0.25674356 </v>
   <v>       0.56245524       0.70716867       0.56547499 </v>
   <v>       0.93780170       0.28751755       0.74337112 </v>
   <v>       0.68604721       0.11746028       0.78770184 </v>
   <v>       0.18808998       0.45818947       0.21240811 </v>
   <v>       0.93836918       0.79067868       0.38941086 </v>
   <v>       0.68717415       0.29305459       0.87511539 </v>
   <v>       0.56070779       0.86701947       0.16734268 </v>
   <v>       0.43703524       0.45735946       0.69919277 </v>
   <v>       0.93623892       0.95436778       0.34555725 </v>
   <v>       0.68657863       0.62168230       0.52124595 </v>
   <v>       0.06382084       0.87225403       0.65453910 </v>
   <v>       0.06258105       0.86808089       0.78772876 </v>
   <v>       0.06356920       0.37275564       0.65444907 </v>
   <v>       0.68783377       0.45565126       0.47881382 </v>
   <v>       0.18483511       0.79104709       0.25653283 </v>
   <v>       0.43729579       0.12102972       0.43455203 </v>
   <v>       0.81277813       0.03299235       0.12486236 </v>
   <v>       0.93707008       0.62096684       0.52132851 </v>
   <v>       0.06280844       0.87167824       0.43444159 </v>
   <v>       0.81265408       0.53298205       0.12475672 </v>
   <v>       0.43582679       0.45470307       0.34582850 </v>
   <v>       0.81164348       0.20534313       0.34537182 </v>
   <v>       0.31132294       0.70448838       0.34534385 </v>
   <v>       0.68869612       0.12267393       0.65453441 </v>
   <v>       0.56493926       0.87483674       0.30094910 </v>
   <v>       0.06355151       0.53785599       0.74359936 </v>
   <v>       0.93887578       0.95751467       0.21225811 </v>
   <v>       0.81371650       0.70772836       0.21212317 </v>
   <v>       0.06384187       0.87493142       0.30086803 </v>
   <v>       0.18957632       0.12497998       0.30095227 </v>
   <v>       0.06057515       0.70475989       0.34533191 </v>
   <v>       0.81123816       0.03660863       0.61043003 </v>
   <v>       0.06267301       0.37208157       0.43434384 </v>
   <v>       0.56106115       0.20667360       0.34586151 </v>
   <v>       0.81392459       0.37510840       0.30074152 </v>
   <v>       0.55989018       0.04117894       0.25631789 </v>
   <v>       0.56398090       0.54059628       0.38941142 </v>
   <v>       0.06295807       0.20572523       0.47867117 </v>
   <v>       0.31268587       0.86730593       0.78759029 </v>
   <v>       0.93702168       0.95756586       0.69920948 </v>
   <v>       0.06382577       0.37513348       0.30098828 </v>
   <v>       0.68860952       0.62308045       0.65454250 </v>
   <v>       0.68782414       0.45714119       0.56536660 </v>
   <v>       0.43838896       0.95864890       0.21245706 </v>
   <v>       0.31261499       0.20591267       0.47861555 </v>
   <v>       0.43923713       0.12297700       0.65443943 </v>
   <v>       0.68799295       0.62200655       0.43436076 </v>
   <v>       0.81227415       0.20736607       0.69923925 </v>
   <v>       0.81239688       0.70582083       0.47865674 </v>
   <v>       0.81226041       0.87273718       0.43456220 </v>
   <v>       0.93755579       0.95558425       0.47867705 </v>
   <v>       0.56267565       0.20572799       0.47864662 </v>
   <v>       0.18742937       0.62271286       0.43463936 </v>
   <v>       0.31264477       0.03837621       0.74337076 </v>
   <v>       0.93898513       0.62340922       0.65447239 </v>
   <v>       0.56352786       0.71030786       0.83272535 </v>
   <v>       0.31411822       0.37451682       0.30096827 </v>
   <v>       0.56277021       0.70700893       0.21217627 </v>
   <v>       0.18745824       0.45568642       0.47860727 </v>
   <v>       0.31536891       0.03699926       0.87490318 </v>
   <v>       0.18679945       0.45727076       0.69915100 </v>
   <v>       0.81319173       0.53542121       0.87546021 </v>
   <v>       0.18810892       0.29023988       0.38971568 </v>
   <v>       0.43727745       0.62174697       0.43437494 </v>
   <v>       0.06399180       0.70744762       0.21232050 </v>
   <v>       0.56308859       0.37390933       0.43498607 </v>
   <v>       0.43778751       0.62187581       0.52134034 </v>
   <v>       0.81337847       0.71087983       0.83257773 </v>
   <v>       0.06304605       0.36923659       0.78778302 </v>
   <v>       0.43753479       0.29235369       0.87541447 </v>
   <v>       0.31250221       0.03343569       0.12485612 </v>
   <v>       0.68775169       0.12113352       0.43448952 </v>
   <v>       0.18518762       0.95550221       0.34549541 </v>
   <v>       0.06435369       0.21120162       0.83312569 </v>
   <v>       0.56060966       0.03718366       0.61071911 </v>
   <v>       0.68757489       0.45798354       0.21260076 </v>
   <v>       0.18816386       0.78764486       0.74345405 </v>
   <v>       0.18928224       0.62550612       0.30138070 </v>
   <v>       0.43846830       0.78987921       0.38952897 </v>
   <v>       0.43395734       0.29128988       0.25648498 </v>
   <v>       0.06561223       0.53746080       0.87517288 </v>
   <v>       0.56357501       0.03797833       0.74361584 </v>
   <v>       0.18756205       0.79195918       0.87503337 </v>
   <v>       0.93758632       0.45582584       0.47862986 </v>
   <v>       0.56330412       0.53847918       0.74339031 </v>
   <v>       0.81203443       0.20673849       0.56509113 </v>
   <v>       0.18755809       0.61753308       0.78763664 </v>
   <v>       0.06375326       0.54021591       0.38931967 </v>
   <v>       0.06209573       0.70694557       0.69912374 </v>
   <v>       0.31001629       0.54046283       0.25598366 </v>
   <v>       0.31352557       0.70591269       0.21272944 </v>
   <v>       0.31072912       0.86713169       0.16639965 </v>
   <v>       0.31365707       0.20803753       0.21259725 </v>
   <v>       0.68549577       0.45373477       0.34557190 </v>
   <v>       0.93571666       0.29352776       0.87477062 </v>
   <v>       0.43740649       0.95591848       0.47861121 </v>
   <v>       0.06382495       0.03335311       0.87477601 </v>
   <v>       0.56047864       0.70673030       0.34543508 </v>
   <v>       0.81099216       0.36699064       0.16696208 </v>
   <v>       0.56228924       0.37084367       0.52131591 </v>
   <v>       0.93711386       0.12101896       0.52126046 </v>
   <v>       0.06373201       0.20586485       0.56545800 </v>
   <v>       0.31350069       0.53701452       0.74356784 </v>
  </varray>
 </structure>
 <calculation>
  <scstep>
   <time name="dav">   54.86   54.88</time>
   <time name="total">   55.01   55.05</time>
   <energy>
    <i name="alphaZ">  16293.21160653 </i>
    <i name="ewald"> 741513.15562046 </i>
    <i name="hartreedc">-931994.03201185 </i>
    <i name="XCdc">  -6510.98692097 </i>
    <i name="pawpsdc"> 162273.92519768 </i>
    <i name="pawaedc">-159623.75899949 </i>
    <i name="eentropy">     -1.06304017 </i>
    <i name="bandstr">  38478.49781204 </i>
    <i name="atom"> 168671.76673737 </i>
    <i name="e_fr_energy">  29100.71600161 </i>
    <i name="e_wo_entrp">  29101.77904178 </i>
    <i name="e_0_energy">  29101.24752169 </i>
   </energy>
  </scstep>
  <scstep>
   <time name="dav">   54.45   54.48</time>
   <time name="total">   54.45   54.48</time>
   <energy>
    <i name="e_fr_energy">   1192.16394082 </i>
    <i name="e_wo_entrp">   1193.67017923 </i>
    <i name="e_0_energy">   1192.91706002 </i>
   </energy>
  </scstep>
  <scstep>
   <time name="dav">   71.50   71.53</time>
   <time name="total">   71.50   71.54</time>
   <energy>
    <i name="e_fr_energy">  -1951.31115223 </i>
    <i name="e_wo_entrp">  -1947.74577757 </i>
    <i name="e_0_energy">  -1949.52846490 </i>
   </energy>
  </scstep>
  <scstep>
   <time name="dav">   89.18   89.22</time>
   <time name="total">   89.18   89.23</time>
   <energy>
    <i name="e_fr_energy">  -2621.05138251 </i>
    <i name="e_wo_entrp">  -2617.55323029 </i>
    <i name="e_0_energy">  -2619.30230640 </i>
   </energy>
  </scstep>
  <scstep>
   <time name="dav">   85.56   85.59</time>
   <time name="total">   87.66   87.70</time>
   <energy>
    <i name="e_fr_energy">  -2740.67722165 </i>
    <i name="e_wo_entrp">  -2737.08310224 </i>
    <i name="e_0_energy">  -2738.88016195 </i>
   </energy>
  </scstep>
  <scstep>
   <time name="diag">    8.32    8.32</time>
   <time name="diis">   38.03   38.03</time>
   <time name="orth">    2.35    2.35</time>
   <time name="total">   50.83   50.88</time>
   <energy>
    <i name="e_fr_energy">  -6213.08246499 </i>
    <i name="e_wo_entrp">  -6209.48077127 </i>
    <i name="e_0_energy">  -6211.28161813 </i>
   </energy>
  </scstep>
  <scstep>
   <time name="diag">    8.35    8.35</time>
   <time name="diis">   37.73   37.74</time>
   <time name="orth">    2.38    2.39</time>
   <time name="total">   50.68   50.71</time>
[...]
       <r>     5.8397     0.0000  2772.0000 </r>
       <r>     5.8824     0.0000  2772.0000 </r>
       <r>     5.9252     0.0000  2772.0000 </r>
       <r>     5.9679     0.0000  2772.0000 </r>
       <r>     6.0107     0.0000  2772.0000 </r>
       <r>     6.0534     0.0000  2772.0000 </r>
       <r>     6.0961     0.0000  2772.0000 </r>
       <r>     6.1389     0.0000  2772.0000 </r>
       <r>     6.1816     0.0000  2772.0000 </r>
       <r>     6.2243     0.0000  2772.0000 </r>
       <r>     6.2671     0.0000  2772.0000 </r>
       <r>     6.3098     0.0000  2772.0000 </r>
       <r>     6.3526     0.0000  2772.0000 </r>
       <r>     6.3953     0.0000  2772.0000 </r>
       <r>     6.4380     0.0000  2772.0000 </r>
       <r>     6.4808     0.0000  2772.0000 </r>
       <r>     6.5235     0.0000  2772.0000 </r>
       <r>     6.5662     0.0000  2772.0000 </r>
       <r>     6.6090     0.0000  2772.0000 </r>
       <r>     6.6517     0.0000  2772.0000 </r>
       <r>     6.6945     0.0000  2772.0000 </r>
       <r>     6.7372     0.0000  2772.0000 </r>
       <r>     6.7799     0.0000  2772.0000 </r>
      </set>
     </set>
    </array>
   </total>
  </dos>
 </calculation>
 <structure name="finalpos" >
  <crystal>
   <varray name="basis" >
    <v>       9.72667804       0.00000000       0.00000000 </v>
    <v>       0.00000000       8.42355028       0.00000000 </v>
    <v>       0.00000000       0.00000000      45.00000000 </v>
   </varray>
   <i name="volume">   3686.99226691 </i>
   <varray name="rec_basis" >
    <v>       0.10281002       0.00000000       0.00000000 </v>
    <v>       0.00000000       0.11871479       0.00000000 </v>
    <v>       0.00000000       0.00000000       0.02222222 </v>
   </varray>
  </crystal>
  <varray name="positions" >
   <v>       0.06256223       0.03340774       0.12471543 </v>
   <v>       0.31416823       0.87326993       0.65458151 </v>
   <v>       0.18746986       0.11753358       0.78779693 </v>
   <v>       0.43869106       0.28999304       0.38942362 </v>
   <v>       0.31450877       0.71003729       0.83222614 </v>
   <v>       0.81542178       0.21185676       0.83304273 </v>
   <v>       0.18834912       0.96085425       0.83281471 </v>
   <v>       0.56360942       0.20730260       0.56546760 </v>
   <v>       0.06256062       0.03754323       0.74338458 </v>
   <v>       0.81230297       0.87089449       0.52123824 </v>
   <v>       0.19021185       0.28869648       0.74355472 </v>
   <v>       0.93577320       0.45413964       0.34548405 </v>
   <v>       0.93817523       0.29022598       0.38963251 </v>
   <v>       0.81396777       0.03650442       0.87476191 </v>
   <v>       0.18493836       0.78757271       0.61076099 </v>
   <v>       0.56343612       0.03992107       0.38970178 </v>
   <v>       0.94023262       0.96151091       0.83301289 </v>
   <v>       0.31514167       0.53685785       0.87533421 </v>
   <v>       0.68834597       0.28824726       0.74343644 </v>
   <v>       0.18749990       0.61700615       0.16714554 </v>
   <v>       0.81184383       0.20576686       0.47869715 </v>
   <v>       0.81047883       0.53693895       0.61068763 </v>
   <v>       0.31219540       0.87208257       0.43453772 </v>
   <v>       0.80973393       0.04117493       0.25667975 </v>
   <v>       0.68547125       0.95420367       0.34538667 </v>
   <v>       0.93503212       0.11715178       0.16780104 </v>
   <v>       0.06246135       0.87145545       0.52126402 </v>
   <v>       0.55960472       0.54101624       0.25638788 </v>
   <v>       0.68750683       0.79181399       0.87508276 </v>
   <v>       0.56201024       0.36684301       0.16719742 </v>
   <v>       0.43801177       0.78784888       0.74335371 </v>
   <v>       0.81219551       0.70670251       0.56523047 </v>
   <v>       0.56250680       0.86818139       0.78778246 </v>
   <v>       0.68688226       0.12098836       0.52123435 </v>
   <v>       0.81446804       0.37275008       0.65472086 </v>
   <v>       0.93884765       0.45982106       0.83296846 </v>
   <v>       0.06220519       0.20721287       0.69903187 </v>
   <v>       0.43692057       0.95692600       0.69904443 </v>
   <v>       0.31322346       0.20881179       0.83292997 </v>
   <v>       0.43901205       0.62277540       0.65453630 </v>
   <v>       0.31022549       0.53740286       0.61075324 </v>
   <v>       0.93766496       0.45669994       0.56543905 </v>
   <v>       0.68848290       0.78944515       0.74368544 </v>
   <v>       0.93631918       0.79001543       0.12495775 </v>
   <v>       0.68852454       0.78965185       0.38947029 </v>
   <v>       0.93900616       0.78849063       0.74380783 </v>
   <v>       0.06069863       0.20411572       0.34530614 </v>
   <v>       0.81323441       0.04019015       0.38969898 </v>
   <v>       0.43725155       0.11797215       0.78781328 </v>
   <v>       0.06295761       0.20711609       0.21252680 </v>
   <v>       0.05998885       0.36698357       0.16720922 </v>
   <v>       0.93443935       0.79154903       0.25638822 </v>
   <v>       0.56193597       0.20686155       0.69911719 </v>
   <v>       0.68667723       0.95717054       0.69913371 </v>
   <v>       0.81156346       0.86785100       0.78773459 </v>
   <v>       0.43733661       0.95684246       0.56491823 </v>
   <v>       0.81323604       0.36896871       0.78790461 </v>
   <v>       0.68417000       0.29119583       0.25642332 </v>
   <v>       0.18749714       0.45714291       0.56526097 </v>
   <v>       0.06126444       0.86778967       0.16732025 </v>
   <v>       0.18623442       0.28710331       0.61048733 </v>
   <v>       0.18756425       0.79055947       0.38966990 </v>
   <v>       0.31230477       0.20740338       0.69912098 </v>
   <v>       0.56442654       0.53666438       0.87533166 </v>
   <v>       0.06244704       0.70636515       0.56518687 </v>
   <v>       0.68817005       0.61828734       0.78779192 </v>
   <v>       0.31348914       0.54023743       0.38943645 </v>
   <v>       0.18749452       0.62086730       0.52119545 </v>
   <v>       0.56259829       0.87321396       0.43466569 </v>
   <v>       0.43709065       0.45697835       0.56519898 </v>
   <v>       0.43814916       0.28951219       0.74354372 </v>
   <v>       0.81381644       0.87535912       0.30065548 </v>
   <v>       0.81034780       0.70448812       0.34545538 </v>
   <v>       0.43874209       0.45950963       0.83280197 </v>
   <v>       0.68769046       0.95586107       0.47861825 </v>
   <v>       0.68698622       0.45725185       0.69912011 </v>
   <v>       0.56275596       0.87149937       0.52122524 </v>
   <v>       0.56457495       0.37292851       0.65452853 </v>
   <v>       0.81387629       0.87315752       0.65451259 </v>
   <v>       0.81315377       0.37306469       0.43459648 </v>
   <v>       0.80960746       0.54159105       0.25646108 </v>
   <v>       0.68959624       0.45883539       0.83284946 </v>
   <v>       0.18916152       0.78832373       0.12446362 </v>
   <v>       0.68778697       0.28951151       0.38940215 </v>
   <v>       0.31457457       0.37314436       0.65462974 </v>
   <v>       0.31138229       0.20472037       0.34552988 </v>
   <v>       0.81297964       0.53789271       0.74339924 </v>
   <v>       0.68801712       0.95949159       0.83257212 </v>
   <v>       0.56345957       0.87325476       0.65452489 </v>
   <v>       0.31253831       0.70703746       0.56533616 </v>
   <v>       0.31347859       0.53538603       0.12440460 </v>
   <v>       0.68745018       0.95746548       0.21245705 </v>
   <v>       0.31252381       0.20710205       0.56543326 </v>
   <v>       0.18726812       0.95576008       0.47858424 </v>
   <v>       0.68844702       0.95688845       0.56536019 </v>
   <v>       0.43625878       0.78713539       0.61054867 </v>
   <v>       0.68624391       0.61523568       0.16732363 </v>
   <v>       0.31427517       0.87484191       0.30065247 </v>
   <v>       0.31300429       0.70559580       0.47862424 </v>
   <v>       0.93562969       0.28763708       0.61068688 </v>
   <v>       0.43968339       0.62538995       0.30108601 </v>
   <v>       0.81096762       0.86678696       0.16755241 </v>
   <v>       0.56383459       0.20682785       0.21245761 </v>
   <v>       0.93551364       0.61507742       0.16731571 </v>
   <v>       0.94063151       0.78916584       0.87503596 </v>
   <v>       0.56271750       0.36774141       0.78775920 </v>
   <v>       0.06184205       0.37123797       0.52127128 </v>
   <v>       0.31103665       0.36504410       0.16777885 </v>
   <v>       0.68966223       0.12462748       0.30061327 </v>
   <v>       0.43943715       0.95935151       0.83274463 </v>
   <v>       0.18752367       0.28954130       0.12486148 </v>
   <v>       0.18502745       0.29176428       0.25650313 </v>
   <v>       0.31237501       0.37107992       0.43462508 </v>
   <v>       0.56257455       0.03336160       0.12469871 </v>
   <v>       0.43606255       0.28672838       0.61049559 </v>
   <v>       0.18607384       0.45418787       0.34563814 </v>
   <v>       0.43758521       0.28993424       0.12490561 </v>
   <v>       0.68482565       0.79159099       0.25634069 </v>
   <v>       0.43717641       0.12129096       0.52121133 </v>
   <v>       0.18789325       0.29258977       0.87517287 </v>
   <v>       0.18917839       0.12347019       0.65454744 </v>
   <v>       0.93955780       0.12354014       0.65468331 </v>
   <v>       0.81326181       0.53987593       0.38970740 </v>
   <v>       0.06357651       0.04006000       0.38945809 </v>
   <v>       0.18622176       0.11519365       0.16698907 </v>
   <v>       0.06109457       0.53653830       0.61063398 </v>
   <v>       0.93521805       0.29170869       0.25644762 </v>
   <v>       0.56113820       0.53680004       0.61052195 </v>
   <v>       0.93736594       0.95783368       0.56525514 </v>
   <v>       0.68907682       0.62475267       0.30067237 </v>
   <v>       0.93744238       0.62278690       0.43465648 </v>
   <v>       0.93686083       0.61864584       0.78763109 </v>
   <v>       0.56172385       0.70687145       0.69911309 </v>
   <v>       0.06336327       0.71188855       0.83292873 </v>
   <v>       0.93887691       0.12445915       0.30053687 </v>
   <v>       0.93621198       0.78693314       0.61066304 </v>
   <v>       0.43461941       0.79070481       0.25658358 </v>
   <v>       0.31288576       0.36798003       0.78783381 </v>
   <v>       0.43852607       0.45813581       0.21263024 </v>
   <v>       0.18815149       0.12057105       0.52119163 </v>
   <v>       0.81173533       0.70679243       0.69905409 </v>
   <v>       0.06087382       0.03673059       0.61044566 </v>
   <v>       0.56280590       0.21002111       0.83256716 </v>
   <v>       0.31159718       0.87129673       0.52113209 </v>
   <v>       0.68761545       0.29099742       0.12477612 </v>
   <v>       0.18758240       0.95834209       0.21262348 </v>
   <v>       0.68505048       0.28745895       0.61068535 </v>
   <v>       0.31025076       0.03766538       0.61078292 </v>
   <v>       0.93766726       0.11797706       0.78792271 </v>
   <v>       0.43761680       0.79186463       0.87507020 </v>
   <v>       0.81311552       0.03877009       0.74338795 </v>
   <v>       0.93691273       0.45719504       0.69906698 </v>
   <v>       0.18895280       0.62285130       0.65454745 </v>
   <v>       0.31240133       0.70693784       0.69906924 </v>
   <v>       0.93690116       0.29052518       0.12481515 </v>
   <v>       0.43735835       0.45571793       0.47872729 </v>
   <v>       0.06243931       0.70597967       0.47855904 </v>
   <v>       0.93662552       0.12355117       0.43503768 </v>
   <v>       0.43866179       0.12476976       0.30061706 </v>
   <v>       0.18788419       0.12156364       0.43453491 </v>
   <v>       0.56339178       0.03443695       0.87516247 </v>
   <v>       0.18751909       0.95750746       0.56540115 </v>
   <v>       0.68765600       0.79023446       0.12491220 </v>
   <v>       0.56319827       0.53269860       0.12474182 </v>
   <v>       0.31353776       0.03981211       0.38960031 </v>
   <v>       0.68648447       0.11695119       0.16757073 </v>
   <v>       0.81344749       0.20785743       0.21230286 </v>
   <v>       0.05983362       0.54149659       0.25648061 </v>
   <v>       0.56230302       0.70591783       0.47863504 </v>
   <v>       0.43524047       0.78799708       0.12445125 </v>
   <v>       0.56492653       0.37534466       0.30079680 </v>
   <v>       0.43622486       0.95437153       0.34543008 </v>
   <v>       0.18755234       0.95733248       0.69910425 </v>
   <v>       0.43395820       0.61742188       0.16722912 </v>
   <v>       0.93823124       0.45802016       0.21262966 </v>
   <v>       0.06246099       0.53299778       0.12482593 </v>
   <v>       0.81329921       0.37113946       0.52125401 </v>
   <v>       0.93901497       0.62448606       0.30056798 </v>
   <v>       0.31014520       0.04052627       0.25627412 </v>
   <v>       0.68559090       0.78714925       0.61062956 </v>
   <v>       0.18845504       0.45979403       0.83296616 </v>
   <v>       0.43593164       0.11573854       0.16709298 </v>
   <v>       0.31160767       0.37088000       0.52123402 </v>
   <v>       0.43747409       0.61797921       0.78788758 </v>
   <v>       0.05980947       0.04136348       0.25668885 </v>
   <v>       0.56251411       0.70711919       0.56550480 </v>
   <v>       0.93764044       0.28752954       0.74329865 </v>
   <v>       0.68613420       0.11751980       0.78772785 </v>
   <v>       0.18796386       0.45803756       0.21263636 </v>
   <v>       0.93830022       0.79056645       0.38951875 </v>
   <v>       0.68735346       0.29295895       0.87510592 </v>
   <v>       0.56066556       0.86704834       0.16733678 </v>
   <v>       0.43703319       0.45734485       0.69910835 </v>
   <v>       0.93626131       0.95441381       0.34550516 </v>
   <v>       0.68668042       0.62182326       0.52122402 </v>
   <v>       0.06384219       0.87222527       0.65459326 </v>
   <v>       0.06251143       0.86822318       0.78783212 </v>
   <v>       0.06361928       0.37277090       0.65449948 </v>
   <v>       0.68790863       0.45564771       0.47878308 </v>
   <v>       0.18499571       0.79105819       0.25649586 </v>
   <v>       0.43736694       0.12093432       0.43457592 </v>
   <v>       0.81268013       0.03331035       0.12474480 </v>
   <v>       0.93702526       0.62114507       0.52128980 </v>
   <v>       0.06277607       0.87181996       0.43450110 </v>
   <v>       0.81248736       0.53300073       0.12461600 </v>
   <v>       0.43599319       0.45480771       0.34577803 </v>
   <v>       0.81159610       0.20542377       0.34535908 </v>
   <v>       0.31143819       0.70457240       0.34532129 </v>
   <v>       0.68855899       0.12275830       0.65457757 </v>
   <v>       0.56480039       0.87475840       0.30076755 </v>
   <v>       0.06343675       0.53797335       0.74348655 </v>
   <v>       0.93869515       0.95746099       0.21245816 </v>
   <v>       0.81348229       0.70758947       0.21233201 </v>
   <v>       0.06378364       0.87496916       0.30071063 </v>
   <v>       0.18952040       0.12490284       0.30078441 </v>
   <v>       0.06059317       0.70482725       0.34532319 </v>
   <v>       0.81122296       0.03682954       0.61047615 </v>
   <v>       0.06262071       0.37201912       0.43436885 </v>
   <v>       0.56104681       0.20666536       0.34581788 </v>
   <v>       0.81385414       0.37510448       0.30057912 </v>
   <v>       0.55996968       0.04113839       0.25628103 </v>
   <v>       0.56400273       0.54051558       0.38947397 </v>
   <v>       0.06289863       0.20557574       0.47864854 </v>
   <v>       0.31272753       0.86753027       0.78762791 </v>
   <v>       0.93703000       0.95745826       0.69914353 </v>
   <v>       0.06376816       0.37499710       0.30081727 </v>
   <v>       0.68847999       0.62294982       0.65459563 </v>
   <v>       0.68782921       0.45691758       0.56540403 </v>
   <v>       0.43847628       0.95848287       0.21264975 </v>
   <v>       0.31267106       0.20560743       0.47858731 </v>
   <v>       0.43916731       0.12305931       0.65449662 </v>
   <v>       0.68805580       0.62210921       0.43440860 </v>
   <v>       0.81213981       0.20738779       0.69915607 </v>
   <v>       0.81237853       0.70592397       0.47864468 </v>
   <v>       0.81225546       0.87287473       0.43460143 </v>
   <v>       0.93750303       0.95550296       0.47865770 </v>
   <v>       0.56272119       0.20540788       0.47861317 </v>
   <v>       0.18735549       0.62276774       0.43466004 </v>
   <v>       0.31293215       0.03833440       0.74328229 </v>
   <v>       0.93896052       0.62323624       0.65452170 </v>
   <v>       0.56363824       0.71023075       0.83281331 </v>
   <v>       0.31411343       0.37436797       0.30080031 </v>
   <v>       0.56295710       0.70694758       0.21238188 </v>
   <v>       0.18739257       0.45562748       0.47858348 </v>
   <v>       0.31514905       0.03714702       0.87487910 </v>
   <v>       0.18703594       0.45728884       0.69903244 </v>
   <v>       0.81330004       0.53564643       0.87543292 </v>
   <v>       0.18815136       0.29015528       0.38980245 </v>
   <v>       0.43731658       0.62195248       0.43441086 </v>
   <v>       0.06370260       0.70745469       0.21251860 </v>
   <v>       0.56315565       0.37356032       0.43500646 </v>
   <v>       0.43780065       0.62205065       0.52131075 </v>
   <v>       0.81360403       0.71075948       0.83264927 </v>
   <v>       0.06298907       0.36925558       0.78790044 </v>
   <v>       0.43743050       0.29233266       0.87540137 </v>
   <v>       0.31253372       0.03344041       0.12469623 </v>
   <v>       0.68767323       0.12112605       0.43450393 </v>
   <v>       0.18531596       0.95557114       0.34545212 </v>
   <v>       0.06421082       0.21091865       0.83320079 </v>
   <v>       0.56058534       0.03730945       0.61076822 </v>
   <v>       0.68755728       0.45795103       0.21276798 </v>
   <v>       0.18829590       0.78777922       0.74335850 </v>
   <v>       0.18920068       0.62545500       0.30117562 </v>
   <v>       0.43850004       0.79003439       0.38962915 </v>
   <v>       0.43413835       0.29127042       0.25642453 </v>
   <v>       0.06557576       0.53767214       0.87514374 </v>
   <v>       0.56351210       0.03792540       0.74352800 </v>
   <v>       0.18746926       0.79178548       0.87502552 </v>
   <v>       0.93750860       0.45576845       0.47860481 </v>
   <v>       0.56332574       0.53860444       0.74327703 </v>
   <v>       0.81193285       0.20665552       0.56512680 </v>
   <v>       0.18752665       0.61777587       0.78774423 </v>
   <v>       0.06365674       0.54018252       0.38942510 </v>
   <v>       0.06227903       0.70679960       0.69903611 </v>
   <v>       0.31027539       0.54047450       0.25595437 </v>
   <v>       0.31370269       0.70610836       0.21295980 </v>
   <v>       0.31086179       0.86722156       0.16638165 </v>
   <v>       0.31373014       0.20791084       0.21286226 </v>
   <v>       0.68548772       0.45396322       0.34552995 </v>
   <v>       0.93583909       0.29348554       0.87472011 </v>
   <v>       0.43749581       0.95592474       0.47859984 </v>
   <v>       0.06378004       0.03346935       0.87470958 </v>
   <v>       0.56056754       0.70649358       0.34538087 </v>
   <v>       0.81084267       0.36705096       0.16695941 </v>
   <v>       0.56238357       0.37071947       0.52130908 </v>
   <v>       0.93706817       0.12092667       0.52123056 </v>
   <v>       0.06369612       0.20580787       0.56550430 </v>
   <v>       0.31382198       0.53720834       0.74340465 </v>
  </varray>
 </structure>
</modeling>
