unknown system                          
           1
     9.726678    0.000000    0.000000
     0.000000    8.423550    0.000000
     0.000000    0.000000   45.000000
   Fe   Mn
 274  14
Direct configuration=     1
   0.06256017  0.03323949  0.12486054
   0.31415747  0.87331061  0.65452324
   0.18743365  0.11754197  0.78770173
   0.43869320  0.29018531  0.38932729
   0.31480087  0.71013060  0.83210895
   0.81526667  0.21211778  0.83298354
   0.18857366  0.96094388  0.83273904
   0.56364812  0.20748049  0.56543262
   0.06253020  0.03761079  0.74343533
   0.81231833  0.87068757  0.52126227
   0.19017753  0.28883107  0.74367142
   0.93573951  0.45401012  0.34551087
   0.93830532  0.29021155  0.38952304
   0.81384584  0.03635489  0.87478072
   0.18473753  0.78751658  0.61068765
   0.56345788  0.03990903  0.38957449
   0.94017073  0.96166047  0.83294545
   0.31536228  0.53665606  0.87532689
   0.68852516  0.28827642  0.74352295
   0.18750996  0.61677929  0.16718099
   0.81190230  0.20587040  0.47873531
   0.81046943  0.53698806  0.61060889
   0.31211577  0.87179487  0.43448864
   0.80976350  0.04120665  0.25676265
   0.68545543  0.95407873  0.34540459
   0.93507616  0.11694140  0.16780955
   0.06248793  0.87125394  0.52128483
   0.55951016  0.54096257  0.25643206
   0.68736143  0.79201996  0.87506969
   0.56183001  0.36662672  0.16721523
   0.43780166  0.78771881  0.74346804
   0.81225045  0.70670105  0.56521977
   0.56242925  0.86797986  0.78778762
   0.68687090  0.12105059  0.52123309
   0.81461182  0.37270802  0.65468243
   0.93875414  0.45989947  0.83286606
   0.06204235  0.20711600  0.69913507
   0.43687331  0.95701957  0.69908180
   0.31344626  0.20897889  0.83286342
   0.43907747  0.62287338  0.65445599
   0.31006624  0.53748894  0.61066593
   0.93778611  0.45695931  0.56541415
   0.68869720  0.78944920  0.74377038
   0.93631309  0.79030770  0.12509488
   0.68862312  0.78956582  0.38937029
   0.93923317  0.78845488  0.74387993
   0.06054717  0.20397918  0.34535451
   0.81343218  0.04013033  0.38957240
   0.43721077  0.11792218  0.78779020
   0.06315014  0.20716472  0.21232777
   0.06009466  0.36694085  0.16723170
   0.93441866  0.79161672  0.25644047
   0.56206654  0.20685195  0.69917624
   0.68689180  0.95725953  0.69917059
   0.81150657  0.86769439  0.78768183
   0.43728264  0.95668370  0.56488681
   0.81330687  0.36892662  0.78783293
   0.68419320  0.29116214  0.25649212
   0.18748926  0.45744305  0.56521696
   0.06117297  0.86768890  0.16733336
   0.18614857  0.28705146  0.61040967
   0.18749814  0.79062022  0.38957790
   0.31212275  0.20738612  0.69921525
   0.56442664  0.53640219  0.87533388
   0.06252810  0.70627711  0.56517224
   0.68814561  0.61809902  0.78776592
   0.31351713  0.54027769  0.38934285
   0.18754656  0.62068226  0.52123027
   0.56263974  0.87301331  0.43462155
   0.43701230  0.45725900  0.56513270
   0.43793541  0.28965661  0.74366597
   0.81389478  0.87540511  0.30083024
   0.81035123  0.70455355  0.34548713
   0.43884188  0.45958175  0.83269486
   0.68772607  0.95583697  0.47863526
   0.68718608  0.45734153  0.69919193
   0.56277696  0.87127010  0.52126928
   0.56473495  0.37295134  0.65447309
   0.81399440  0.87319578  0.65446742
   0.81319629  0.37323649  0.43457782
   0.80967878  0.54160912  0.25654357
   0.68939650  0.45886061  0.83275997
   0.18913308  0.78839369  0.12459945
   0.68776942  0.28961391  0.38928904
   0.31460002  0.37315635  0.65456006
   0.31132591  0.20468587  0.34556476
   0.81320224  0.53778491  0.74347612
   0.68778826  0.95950965  0.83250291
   0.56355798  0.87330034  0.65446560
   0.31247914  0.70703762  0.56529780
   0.31339130  0.53519131  0.12454224
   0.68748943  0.95754751  0.21225882
   0.31242394  0.20723176  0.56539816
   0.18725749  0.95578890  0.47861167
   0.68845953  0.95675351  0.56535399
   0.43620439  0.78704786  0.61046337
   0.68628779  0.61519560  0.16731053
   0.31428223  0.87481723  0.30084144
   0.31302444  0.70534806  0.47864237
   0.93555409  0.28758473  0.61062875
   0.43956010  0.62542091  0.30128571
   0.81105473  0.86674029  0.16753985
   0.56372843  0.20680023  0.21226446
   0.93565522  0.61499195  0.16730515
   0.94065701  0.78922206  0.87505163
   0.56264026  0.36760986  0.78773866
   0.06183004  0.37124324  0.52127988
   0.31091475  0.36490859  0.16781849
   0.68983457  0.12462777  0.30078371
   0.43955995  0.95936567  0.83268068
   0.18753964  0.28977822  0.12500389
   0.18489130  0.29186344  0.25654217
   0.31241457  0.37120803  0.43460960
   0.56259051  0.03327560  0.12483659
   0.43603334  0.28665520  0.61042189
   0.18606209  0.45418549  0.34566063
   0.43748217  0.29010388  0.12505119
   0.68487839  0.79175772  0.25641076
   0.43713984  0.12134335  0.52122989
   0.18792143  0.29262258  0.87519416
   0.18913329  0.12337449  0.65450410
   0.93963180  0.12347746  0.65465920
   0.81330847  0.53999214  0.38962272
   0.06361782  0.04000992  0.38933487
   0.18621425  0.11516011  0.16700488
   0.06102273  0.53659428  0.61055207
   0.93518469  0.29176199  0.25650342
   0.56116309  0.53679877  0.61044064
   0.93742034  0.95782394  0.56524885
   0.68930753  0.62474055  0.30083916
   0.93748667  0.62278416  0.43462865
   0.93689420  0.61834084  0.78753286
   0.56190773  0.70700951  0.69915620
   0.06342919  0.71206428  0.83285349
   0.93889666  0.12445998  0.30069775
   0.93619262  0.78687432  0.61059664
   0.43442976  0.79081144  0.25662687
   0.31283904  0.36794422  0.78775906
   0.43825908  0.45822015  0.21241290
   0.18815010  0.12059826  0.52119036
   0.81181389  0.70692624  0.69909990
   0.06078276  0.03650751  0.61038632
   0.56270277  0.21023935  0.83250174
   0.31151408  0.87102860  0.52117393
   0.68759340  0.29115295  0.12490111
   0.18758399  0.95843352  0.21243896
   0.68502399  0.28736817  0.61063178
   0.31007313  0.03755030  0.61073152
   0.93772063  0.11799365  0.78781473
   0.43764950  0.79211883  0.87506079
   0.81336158  0.03891196  0.74343694
   0.93683848  0.45724515  0.69916765
   0.18891001  0.62298304  0.65446675
   0.31224289  0.70711368  0.69915079
   0.93707794  0.29073509  0.12495197
   0.43727503  0.45579094  0.47875004
   0.06251772  0.70586771  0.47856332
   0.93667538  0.12368057  0.43500112
   0.43869654  0.12482813  0.30078852
   0.18780504  0.12161270  0.43449949
   0.56328949  0.03430017  0.87518414
   0.18757183  0.95738603  0.56538089
   0.68782169  0.79063434  0.12505050
   0.56313677  0.53252156  0.12488199
   0.31339753  0.03975834  0.38947863
   0.68646617  0.11667345  0.16756136
   0.81361941  0.20786509  0.21212029
   0.05979241  0.54158837  0.25652274
   0.56220046  0.70571176  0.47865006
   0.43512677  0.78815317  0.12458285
   0.56506405  0.37529181  0.30096248
   0.43616286  0.95421027  0.34544389
   0.18732839  0.95742651  0.69918234
   0.43364246  0.61722987  0.16725625
   0.93849114  0.45813165  0.21244560
   0.06257016  0.53288614  0.12498694
   0.81336819  0.37115287  0.52124835
   0.93911719  0.62446434  0.30072626
   0.30998173  0.04051539  0.25628122
   0.68565778  0.78709352  0.61055944
   0.18863580  0.45987733  0.83286351
   0.43581828  0.11570861  0.16709800
   0.31162181  0.37099870  0.52121926
   0.43737140  0.61779285  0.78787521
   0.05973543  0.04141102  0.25674356
   0.56245524  0.70716867  0.56547499
   0.93780170  0.28751755  0.74337112
   0.68604721  0.11746028  0.78770184
   0.18808998  0.45818947  0.21240811
   0.93836918  0.79067868  0.38941086
   0.68717415  0.29305459  0.87511539
   0.56070779  0.86701947  0.16734268
   0.43703524  0.45735946  0.69919277
   0.93623892  0.95436778  0.34555725
   0.68657863  0.62168230  0.52124595
   0.06382084  0.87225403  0.65453910
   0.06258105  0.86808089  0.78772876
   0.06356920  0.37275564  0.65444907
   0.68783377  0.45565126  0.47881382
   0.18483511  0.79104709  0.25653283
   0.43729579  0.12102972  0.43455203
   0.81277813  0.03299235  0.12486236
   0.93707008  0.62096684  0.52132851
   0.06280844  0.87167824  0.43444159
   0.81265408  0.53298205  0.12475672
   0.43582679  0.45470307  0.34582850
   0.81164348  0.20534313  0.34537182
   0.31132294  0.70448838  0.34534385
   0.68869612  0.12267393  0.65453441
   0.56493926  0.87483674  0.30094910
   0.06355151  0.53785599  0.74359936
   0.93887578  0.95751467  0.21225811
   0.81371650  0.70772836  0.21212317
   0.06384187  0.87493142  0.30086803
   0.18957632  0.12497998  0.30095227
   0.06057515  0.70475989  0.34533191
   0.81123816  0.03660863  0.61043003
   0.06267301  0.37208157  0.43434384
   0.56106115  0.20667360  0.34586151
   0.81392459  0.37510840  0.30074152
   0.55989018  0.04117894  0.25631789
   0.56398090  0.54059628  0.38941142
   0.06295807  0.20572523  0.47867117
   0.31268587  0.86730593  0.78759029
   0.93702168  0.95756586  0.69920948
   0.06382577  0.37513348  0.30098828
   0.68860952  0.62308045  0.65454250
   0.68782414  0.45714119  0.56536660
   0.43838896  0.95864890  0.21245706
   0.31261499  0.20591267  0.47861555
   0.43923713  0.12297700  0.65443943
   0.68799295  0.62200655  0.43436076
   0.81227415  0.20736607  0.69923925
   0.81239688  0.70582083  0.47865674
   0.81226041  0.87273718  0.43456220
   0.93755579  0.95558425  0.47867705
   0.56267565  0.20572799  0.47864662
   0.18742937  0.62271286  0.43463936
   0.31264477  0.03837621  0.74337076
   0.93898513  0.62340922  0.65447239
   0.56352786  0.71030786  0.83272535
   0.31411822  0.37451682  0.30096827
   0.56277021  0.70700893  0.21217627
   0.18745824  0.45568642  0.47860727
   0.31536891  0.03699926  0.87490318
   0.18679945  0.45727076  0.69915100
   0.81319173  0.53542121  0.87546021
   0.18810892  0.29023988  0.38971568
   0.43727745  0.62174697  0.43437494
   0.06399180  0.70744762  0.21232050
   0.56308859  0.37390933  0.43498607
   0.43778751  0.62187581  0.52134034
   0.81337847  0.71087983  0.83257773
   0.06304605  0.36923659  0.78778302
   0.43753479  0.29235369  0.87541447
   0.31250221  0.03343569  0.12485612
   0.68775169  0.12113352  0.43448952
   0.18518762  0.95550221  0.34549541
   0.06435369  0.21120162  0.83312569
   0.56060966  0.03718366  0.61071911
   0.68757489  0.45798354  0.21260076
   0.18816386  0.78764486  0.74345405
   0.18928224  0.62550612  0.30138070
   0.43846830  0.78987921  0.38952897
   0.43395734  0.29128988  0.25648498
   0.06561223  0.53746080  0.87517288
   0.56357501  0.03797833  0.74361584
   0.18756205  0.79195918  0.87503337
   0.93758632  0.45582584  0.47862986
   0.56330412  0.53847918  0.74339031
   0.81203443  0.20673849  0.56509113
   0.18755809  0.61753308  0.78763664
   0.06375326  0.54021591  0.38931967
   0.06209573  0.70694557  0.69912374
   0.31001629  0.54046283  0.25598366
   0.31352557  0.70591269  0.21272944
   0.31072912  0.86713169  0.16639965
   0.31365707  0.20803753  0.21259725
   0.68549577  0.45373477  0.34557190
   0.93571666  0.29352776  0.87477062
   0.43740649  0.95591848  0.47861121
   0.06382495  0.03335311  0.87477601
   0.56047864  0.70673030  0.34543508
   0.81099216  0.36699064  0.16696208
   0.56228924  0.37084367  0.52131591
   0.93711386  0.12101896  0.52126046
   0.06373201  0.20586485  0.56545800
   0.31350069  0.53701452  0.74356784
Direct configuration=     2
   0.06256629  0.03374037  0.12442853
   0.31418949  0.87318950  0.65469671
   0.18754145  0.11751699  0.78798515
   0.43868684  0.28961289  0.38961408
   0.31393126  0.70985283  0.83245783
   0.81572844  0.21134071  0.83315975
   0.18790519  0.96067704  0.83296430
   0.56353290  0.20695089  0.56553678
   0.06262076  0.03740966  0.74328425
   0.81227261  0.87130360  0.52119074
   0.19027968  0.28843038  0.74332398
   0.93583981  0.45439571  0.34543101
   0.93791803  0.29025450  0.38984895
   0.81420884  0.03680005  0.87472473
   0.18533541  0.78768369  0.61090599
   0.56339311  0.03994487  0.38995345
   0.94035498  0.96121522  0.83314621
   0.31470550  0.53725680  0.87534868
   0.68799170  0.28818959  0.74326539
   0.18748001  0.61745467  0.16707546
   0.81172824  0.20556214  0.47862171
   0.81049742  0.53684186  0.61084331
   0.31235282  0.87265137  0.43463477
   0.80967548  0.04111222  0.25651583
   0.68550255  0.95445069  0.34535124
   0.93494505  0.11756774  0.16778423
   0.06240882  0.87185387  0.52122287
   0.55979166  0.54112234  0.25630054
   0.68779429  0.79140678  0.87510860
   0.56236655  0.36727063  0.16716221
   0.43842717  0.78810602  0.74312766
   0.81208689  0.70670538  0.56525162
   0.56266013  0.86857982  0.78777226
   0.68690474  0.12086533  0.52123685
   0.81418378  0.37283325  0.65479682
   0.93903253  0.45966603  0.83317093
   0.06252712  0.20740441  0.69882783
   0.43701400  0.95674103  0.69897053
   0.31278297  0.20848141  0.83306155
   0.43888271  0.62258168  0.65469509
   0.31054034  0.53723267  0.61092586
   0.93742542  0.45618714  0.56548827
   0.68805922  0.78943714  0.74351751
   0.93633120  0.78943758  0.12468664
   0.68832965  0.78982192  0.38966799
   0.93855736  0.78856131  0.74366530
   0.06099807  0.20438568  0.34521052
   0.81284339  0.04030842  0.38994923
   0.43733217  0.11807094  0.78785892
   0.06257696  0.20701993  0.21292029
   0.05977966  0.36706801  0.16716480
   0.93448026  0.79141522  0.25628493
   0.56167784  0.20688054  0.69900045
   0.68625300  0.95699460  0.69906078
   0.81167592  0.86816064  0.78783890
   0.43744333  0.95715635  0.56498035
   0.81309600  0.36905193  0.78804632
   0.68412414  0.29126245  0.25628731
   0.18751272  0.45654951  0.56534799
   0.06144529  0.86798889  0.16729433
   0.18640413  0.28720583  0.61064087
   0.18769496  0.79043938  0.38985180
   0.31266465  0.20743752  0.69893459
   0.56442633  0.53718276  0.87532726
   0.06228679  0.70653921  0.56521579
   0.68821838  0.61865966  0.78784332
   0.31343379  0.54015783  0.38962151
   0.18739162  0.62123312  0.52112659
   0.56251634  0.87361067  0.43475297
   0.43724555  0.45642348  0.56533003
   0.43857176  0.28922666  0.74330202
   0.81366155  0.87526820  0.30030996
   0.81034102  0.70435876  0.34539261
   0.43854481  0.45936703  0.83301373
   0.68762006  0.95590870  0.47858464
   0.68659109  0.45707454  0.69897811
   0.56271445  0.87195264  0.52113818
   0.56425861  0.37288337  0.65463815
   0.81364279  0.87308187  0.65460191
   0.81306971  0.37272503  0.43463337
   0.80946645  0.54155533  0.25629799
   0.68999114  0.45878552  0.83302640
   0.18921775  0.78818540  0.12419507
   0.68782168  0.28930907  0.38962578
   0.31452425  0.37312067  0.65476749
   0.31149374  0.20478857  0.34546091
   0.81253955  0.53810584  0.74324724
   0.68846958  0.95945589  0.83270895
   0.56326499  0.87316463  0.65464211
   0.31265530  0.70703715  0.56541200
   0.31365117  0.53577100  0.12413245
   0.68737258  0.95730330  0.21284896
   0.31272126  0.20684559  0.56550267
   0.18728914  0.95570311  0.47853002
   0.68842229  0.95715522  0.56537244
   0.43636631  0.78730843  0.61071731
   0.68615716  0.61531491  0.16734954
   0.31426123  0.87489072  0.30027885
   0.31296447  0.70608560  0.47858838
   0.93577917  0.28774060  0.61080182
   0.43992716  0.62532873  0.30069119
   0.81079541  0.86687923  0.16757725
   0.56404450  0.20688245  0.21283948
   0.93523372  0.61524640  0.16733659
   0.94058109  0.78905470  0.87500497
   0.56287020  0.36800150  0.78779980
   0.06186579  0.37122755  0.52125429
   0.31127766  0.36531201  0.16770048
   0.68932151  0.12462692  0.30027630
   0.43919436  0.95932353  0.83287108
   0.18749210  0.28907289  0.12457994
   0.18529664  0.29156823  0.25642596
   0.31229680  0.37082663  0.43465567
   0.56254300  0.03353161  0.12442611
   0.43612031  0.28687307  0.61064131
   0.18609708  0.45419258  0.34559367
   0.43778894  0.28959886  0.12461777
   0.68472138  0.79126137  0.25620214
   0.43724871  0.12118739  0.52117463
   0.18783755  0.29252489  0.87513079
   0.18926755  0.12365939  0.65463314
   0.93941148  0.12366408  0.65473099
   0.81316955  0.53964617  0.38987482
   0.06349483  0.04015902  0.38970171
   0.18623660  0.11525997  0.16695782
   0.06123661  0.53642764  0.61079592
   0.93528401  0.29160331  0.25633730
   0.56108899  0.53680256  0.61068271
   0.93725839  0.95785294  0.56526756
   0.68862068  0.62477663  0.30034260
   0.93735482  0.62279233  0.43471148
   0.93679486  0.61924887  0.78782531
   0.56136029  0.70659851  0.69902785
   0.06323296  0.71154112  0.83307748
   0.93883787  0.12445750  0.30021881
   0.93625028  0.78704944  0.61079432
   0.43499437  0.79049399  0.25649799
   0.31297814  0.36805083  0.78798161
   0.43905393  0.45796905  0.21305993
   0.18815423  0.12051725  0.52119413
   0.81158003  0.70652789  0.69896354
   0.06105387  0.03717163  0.61056300
   0.56300980  0.20958961  0.83269652
   0.31176146  0.87182686  0.52104938
   0.68765903  0.29068992  0.12452899
   0.18757926  0.95816132  0.21298829
   0.68510286  0.28763844  0.61079128
   0.31060197  0.03789291  0.61088452
   0.93756173  0.11794427  0.78813619
   0.43755215  0.79136206  0.87508880
   0.81262903  0.03848959  0.74329109
   0.93705952  0.45709597  0.69886795
   0.18903741  0.62259083  0.65470699
   0.31271458  0.70659020  0.69890801
   0.93655164  0.29011017  0.12454464
   0.43752310  0.45557360  0.47868232
   0.06228428  0.70620104  0.47855059
   0.93652696  0.12329533  0.43510994
   0.43859308  0.12465437  0.30027808
   0.18804067  0.12146664  0.43460493
   0.56359401  0.03470737  0.87511960
   0.18741480  0.95774752  0.56544120
   0.68732841  0.78944387  0.12463876
   0.56331984  0.53304862  0.12446471
   0.31381502  0.03991841  0.38984089
   0.68652065  0.11750031  0.16758926
   0.81310760  0.20784227  0.21266380
   0.05991509  0.54131513  0.25639733
   0.56250580  0.70632524  0.47860534
   0.43546526  0.78768848  0.12419107
   0.56465463  0.37544913  0.30046922
   0.43634746  0.95469036  0.34540277
   0.18799510  0.95714656  0.69894987
   0.43458244  0.61780149  0.16717549
   0.93771741  0.45779973  0.21299358
   0.06224515  0.53321851  0.12450760
   0.81316283  0.37111294  0.52126520
   0.93881287  0.62452900  0.30025505
   0.31046839  0.04054779  0.25626008
   0.68545868  0.78725945  0.61076817
   0.18809767  0.45962936  0.83316911
   0.43615576  0.11579772  0.16708305
   0.31157969  0.37064534  0.52126320
   0.43767712  0.61834766  0.78791205
   0.05995584  0.04126951  0.25658067
   0.56263049  0.70702135  0.56556373
   0.93732161  0.28755324  0.74315537
   0.68630619  0.11763747  0.78777928
   0.18771451  0.45773723  0.21308764
   0.93816390  0.79034457  0.38973206
   0.68770798  0.29276987  0.87508721
   0.56058205  0.86710541  0.16732512
   0.43702913  0.45731598  0.69894143
   0.93630559  0.95450480  0.34540218
   0.68688168  0.62210194  0.52118065
   0.06388439  0.87216840  0.65470034
   0.06237379  0.86850450  0.78803645
   0.06371829  0.37280106  0.65459913
   0.68805663  0.45564070  0.47872230
   0.18531323  0.79108014  0.25642276
   0.43750761  0.12074570  0.43462317
   0.81248637  0.03393906  0.12451237
   0.93693665  0.62149745  0.52121328
   0.06271207  0.87210014  0.43461877
   0.81215774  0.53303766  0.12433780
   0.43632217  0.45501460  0.34567825
   0.81150242  0.20558320  0.34533388
   0.31166605  0.70473850  0.34527667
   0.68828789  0.12292510  0.65466289
   0.56452584  0.87460350  0.30040860
   0.06320985  0.53820538  0.74326353
   0.93833801  0.95735487  0.21285368
   0.81301924  0.70731486  0.21274492
   0.06366852  0.87504380  0.30039945
   0.18940983  0.12475034  0.30045254
   0.06062880  0.70496043  0.34530595
   0.81119291  0.03726630  0.61056732
   0.06251729  0.37189566  0.43441831
   0.56101847  0.20664906  0.34573162
   0.81371486  0.37509673  0.30025803
   0.56012687  0.04105822  0.25620816
   0.56404589  0.54035603  0.38959762
   0.06278110  0.20528019  0.47860380
   0.31280990  0.86797380  0.78770229
   0.93704644  0.95724552  0.69901314
   0.06365425  0.37472747  0.30047916
   0.68822391  0.62269156  0.65470067
   0.68783922  0.45647550  0.56547803
   0.43864894  0.95815462  0.21303073
   0.31278190  0.20500393  0.47853148
   0.43902926  0.12322204  0.65460967
   0.68818008  0.62231218  0.43450319
   0.81187421  0.20743073  0.69899161
   0.81234225  0.70612787  0.47862084
   0.81224567  0.87314666  0.43467899
   0.93739872  0.95534223  0.47861946
   0.56281120  0.20477500  0.47854704
   0.18720942  0.62287625  0.43470092
   0.31350030  0.03825174  0.74310739
   0.93891188  0.62289424  0.65461921
   0.56385646  0.71007830  0.83298723
   0.31410396  0.37407367  0.30046824
   0.56332660  0.70682627  0.21278839
   0.18726275  0.45551095  0.47853644
   0.31471436  0.03743915  0.87483149
   0.18750349  0.45732459  0.69879802
   0.81351417  0.53609170  0.87537897
   0.18823526  0.28998800  0.38997399
   0.43739394  0.62235879  0.43448187
   0.06313081  0.70746868  0.21291024
   0.56328824  0.37287030  0.43504678
   0.43782663  0.62239631  0.52125227
   0.81404998  0.71052154  0.83279069
   0.06287639  0.36929313  0.78813257
   0.43722431  0.29229108  0.87537547
   0.31259601  0.03344974  0.12438012
   0.68751810  0.12111127  0.43453243
   0.18556972  0.95570743  0.34536654
   0.06392837  0.21035918  0.83334926
   0.56053725  0.03755815  0.61086531
   0.68752246  0.45788675  0.21309859
   0.18855695  0.78804485  0.74316960
   0.18903941  0.62535392  0.30077016
   0.43856280  0.79034119  0.38982723
   0.43449622  0.29123194  0.25630502
   0.06550365  0.53808997  0.87508613
   0.56338772  0.03782075  0.74335435
   0.18728581  0.79144207  0.87501000
   0.93735493  0.45565498  0.47855530
   0.56336849  0.53885208  0.74305306
   0.81173202  0.20649149  0.56519734
   0.18746448  0.61825589  0.78795696
   0.06346590  0.54011651  0.38963354
   0.06264143  0.70651101  0.69886287
   0.31078767  0.54049757  0.25589646
   0.31405287  0.70649522  0.21341525
   0.31112407  0.86739923  0.16634608
   0.31387461  0.20766036  0.21338620
   0.68547179  0.45441489  0.34544703
   0.93608113  0.29340207  0.87462024
   0.43767238  0.95593711  0.47857737
   0.06369126  0.03369917  0.87457823
   0.56074333  0.70602558  0.34527370
   0.81054711  0.36717023  0.16695412
   0.56257005  0.37047393  0.52129557
   0.93697784  0.12074420  0.52117145
   0.06362517  0.20569522  0.56559584
   0.31445720  0.53759152  0.74308201
Direct configuration=     3
   0.06256507  0.03364047  0.12451470
   0.31418311  0.87321366  0.65466211
   0.18751995  0.11752197  0.78792862
   0.43868811  0.28972707  0.38955688
   0.31410471  0.70990823  0.83238824
   0.81563633  0.21149570  0.83312461
   0.18803852  0.96073027  0.83291937
   0.56355588  0.20705652  0.56551600
   0.06260269  0.03744978  0.74331438
   0.81228173  0.87118073  0.52120501
   0.19025931  0.28851030  0.74339328
   0.93581980  0.45431880  0.34544694
   0.93799528  0.29024593  0.38978394
   0.81413644  0.03671126  0.87473590
   0.18521616  0.78765036  0.61086244
   0.56340603  0.03993772  0.38987787
   0.94031823  0.96130403  0.83310616
   0.31483650  0.53713698  0.87534433
   0.68809810  0.28820691  0.74331677
   0.18748598  0.61731996  0.16709651
   0.81176296  0.20562363  0.47864437
   0.81049184  0.53687102  0.61079655
   0.31230554  0.87248054  0.43460562
   0.80969303  0.04113105  0.25656506
   0.68549315  0.95437650  0.34536188
   0.93497120  0.11744281  0.16778928
   0.06242460  0.87173421  0.52123523
   0.55973551  0.54109048  0.25632677
   0.68770796  0.79152908  0.87510084
   0.56225953  0.36714220  0.16717279
   0.43830241  0.78802879  0.74319555
   0.81211951  0.70670451  0.56524527
   0.56261408  0.86846015  0.78777532
   0.68689799  0.12090228  0.52123610
   0.81426915  0.37280827  0.65477400
   0.93897700  0.45971259  0.83311012
   0.06243043  0.20734688  0.69888911
   0.43698594  0.95679658  0.69899273
   0.31291527  0.20858064  0.83302203
   0.43892156  0.62263986  0.65464740
   0.31044577  0.53728378  0.61087401
   0.93749736  0.45634116  0.56547348
   0.68818647  0.78943954  0.74356795
   0.93632759  0.78961113  0.12476807
   0.68838818  0.78977084  0.38960861
   0.93869215  0.78854008  0.74370811
   0.06090813  0.20430460  0.34523924
   0.81296083  0.04027290  0.38987407
   0.43730796  0.11804127  0.78784521
   0.06269129  0.20704881  0.21280211
   0.05984249  0.36704265  0.16717814
   0.93446797  0.79145541  0.25631595
   0.56175537  0.20687484  0.69903551
   0.68638042  0.95704744  0.69908269
   0.81164215  0.86806764  0.78780757
   0.43741128  0.95706208  0.56496169
   0.81313806  0.36902694  0.78800375
   0.68413791  0.29124245  0.25632816
   0.18750804  0.45672774  0.56532186
   0.06139097  0.86792906  0.16730212
   0.18635316  0.28717504  0.61059475
   0.18765570  0.79047545  0.38979717
   0.31255656  0.20742726  0.69899057
   0.56442639  0.53702707  0.87532858
   0.06233492  0.70648693  0.56520710
   0.68820387  0.61854784  0.78782788
   0.31345041  0.54018174  0.38956592
   0.18742253  0.62112325  0.52114727
   0.56254095  0.87349152  0.43472675
   0.43719902  0.45659013  0.56529067
   0.43844484  0.28931242  0.74337461
   0.81370807  0.87529551  0.30041374
   0.81034306  0.70439762  0.34541146
   0.43860406  0.45940986  0.83295013
   0.68764120  0.95589439  0.47859473
   0.68670976  0.45712779  0.69902076
   0.56272692  0.87181650  0.52116433
   0.56435362  0.37289693  0.65460523
   0.81371292  0.87310459  0.65457508
   0.81309496  0.37282704  0.43462229
   0.80950880  0.54156606  0.25634698
   0.68987253  0.45880050  0.83297325
   0.18920086  0.78822695  0.12427573
   0.68781126  0.28936987  0.38955861
   0.31453936  0.37312779  0.65472612
   0.31146026  0.20476809  0.34548163
   0.81267173  0.53804183  0.74329289
   0.68833369  0.95946661  0.83266785
   0.56332343  0.87319170  0.65460691
   0.31262016  0.70703724  0.56538922
   0.31359934  0.53565538  0.12421419
   0.68739588  0.95735201  0.21273125
   0.31266195  0.20692262  0.56548183
   0.18728283  0.95572023  0.47854631
   0.68842971  0.95707510  0.56536876
   0.43633401  0.78725646  0.61066666
   0.68618321  0.61529111  0.16734176
   0.31426542  0.87487606  0.30039107
   0.31297643  0.70593849  0.47859915
   0.93573427  0.28770951  0.61076730
   0.43985394  0.62534712  0.30080977
   0.81084713  0.86685151  0.16756979
   0.56398145  0.20686605  0.21272479
   0.93531779  0.61519565  0.16733032
   0.94059623  0.78908808  0.87501428
   0.56282434  0.36792339  0.78778761
   0.06185866  0.37123068  0.52125939
   0.31120527  0.36523154  0.16772402
   0.68942384  0.12462709  0.30037751
   0.43926728  0.95933193  0.83283310
   0.18750158  0.28921357  0.12466450
   0.18521579  0.29162711  0.25644914
   0.31232029  0.37090271  0.43464648
   0.56255248  0.03348055  0.12450798
   0.43610296  0.28682962  0.61059754
   0.18609010  0.45419116  0.34560702
   0.43772775  0.28969959  0.12470422
   0.68475270  0.79136037  0.25624375
   0.43722699  0.12121850  0.52118565
   0.18785428  0.29254438  0.87514343
   0.18924077  0.12360257  0.65460740
   0.93945543  0.12362686  0.65471667
   0.81319726  0.53971518  0.38982454
   0.06351936  0.04012928  0.38962854
   0.18623214  0.11524005  0.16696721
   0.06119395  0.53646088  0.61074728
   0.93526420  0.29163496  0.25637044
   0.56110377  0.53680181  0.61063442
   0.93729070  0.95784715  0.56526383
   0.68875768  0.62476943  0.30044165
   0.93738112  0.62279070  0.43469496
   0.93681467  0.61906775  0.78776698
   0.56146948  0.70668048  0.69905345
   0.06327210  0.71164547  0.83303280
   0.93884959  0.12445800  0.30031434
   0.93623878  0.78701451  0.61075489
   0.43488176  0.79055731  0.25652370
   0.31295039  0.36802957  0.78793722
   0.43889539  0.45801913  0.21293088
   0.18815341  0.12053341  0.52119338
   0.81162667  0.70660734  0.69899074
   0.06099979  0.03703917  0.61052776
   0.56294856  0.20971921  0.83265767
   0.31171212  0.87166764  0.52107422
   0.68764594  0.29078228  0.12460321
   0.18758020  0.95821561  0.21287872
   0.68508713  0.28758453  0.61075946
   0.31049648  0.03782457  0.61085400
   0.93759343  0.11795412  0.78807207
   0.43757157  0.79151300  0.87508321
   0.81277515  0.03857384  0.74332018
   0.93701543  0.45712572  0.69892773
   0.18901200  0.62266906  0.65465907
   0.31262050  0.70669461  0.69895644
   0.93665661  0.29023482  0.12462588
   0.43747362  0.45561695  0.47869583
   0.06233084  0.70613456  0.47855313
   0.93655656  0.12337217  0.43508824
   0.43861371  0.12468902  0.30037989
   0.18799367  0.12149577  0.43458390
   0.56353327  0.03462615  0.87513248
   0.18744612  0.95767542  0.56542917
   0.68742680  0.78968132  0.12472088
   0.56328333  0.53294349  0.12454794
   0.31373174  0.03988648  0.38976864
   0.68650978  0.11733538  0.16758370
   0.81320968  0.20784683  0.21255540
   0.05989062  0.54136963  0.25642234
   0.56244490  0.70620288  0.47861426
   0.43539774  0.78778116  0.12426921
   0.56473630  0.37541775  0.30056760
   0.43631064  0.95459460  0.34541097
   0.18786212  0.95720240  0.69899624
   0.43439495  0.61768748  0.16719160
   0.93787174  0.45786594  0.21288428
   0.06230998  0.53315222  0.12460321
   0.81320379  0.37112091  0.52126184
   0.93887357  0.62451610  0.30034903
   0.31037132  0.04054132  0.25626430
   0.68549839  0.78722635  0.61072654
   0.18820500  0.45967882  0.83310816
   0.43608844  0.11577995  0.16708603
   0.31158809  0.37071582  0.52125444
   0.43761614  0.61823700  0.78790470
   0.05991188  0.04129773  0.25661316
   0.56259554  0.70705074  0.56554603
   0.93741737  0.28754612  0.74319840
   0.68625454  0.11760213  0.78776383
   0.18778940  0.45782743  0.21295210
   0.93820484  0.79041121  0.38966799
   0.68760150  0.29282666  0.87509283
   0.56060713  0.86708827  0.16732862
   0.43703035  0.45732466  0.69899156
   0.93629229  0.95447747  0.34543311
   0.68682123  0.62201824  0.52119368
   0.06387172  0.87218548  0.65466818
   0.06241513  0.86842000  0.78797508
   0.06368855  0.37279200  0.65456920
   0.68801218  0.45564281  0.47874055
   0.18521787  0.79107355  0.25644471
   0.43746536  0.12080235  0.43460898
   0.81254457  0.03375023  0.12458218
   0.93696326  0.62139162  0.52123626
   0.06273129  0.87201599  0.43458343
   0.81225674  0.53302657  0.12442136
   0.43622336  0.45495246  0.34570822