 288 288   0   0
  0.1280206E+02  0.9726678E-09  0.8423550E-09  0.4500000E-08  0.2500000E-15
  1.000000000000000E-004
  CAR 
 unknown system                          
      6.81093536     -6.05082852  301      4.29888114      1.00000000
     -6.051  0.0000E+00  0.0000E+00
     -6.008  0.0000E+00  0.0000E+00
     -5.965  0.0000E+00  0.0000E+00
     -5.922  0.0000E+00  0.0000E+00
     -5.879  0.0000E+00  0.0000E+00
     -5.836  0.0000E+00  0.0000E+00
     -5.794  0.0000E+00  0.0000E+00
     -5.751  0.0000E+00  0.0000E+00
     -5.708  0.0000E+00  0.0000E+00
     -5.665  0.0000E+00  0.0000E+00
     -5.622  0.0000E+00  0.0000E+00
     -5.579  0.0000E+00  0.0000E+00
     -5.536  0.0000E+00  0.0000E+00
     -5.493  0.0000E+00  0.0000E+00
     -5.451  0.0000E+00  0.0000E+00
     -5.408  0.1942E-15  0.8327E-17
     -5.365  0.4629E-14  0.2068E-15
     -5.322  0.9960E-13  0.4477E-14
     -5.279  0.1817E-11  0.8238E-13
     -5.236  0.2821E-10  0.1292E-11
     -5.193  0.3727E-09  0.1727E-10
     -5.151  0.4191E-08  0.1969E-09
     -5.108  0.4012E-07  0.1917E-08
     -5.065  0.3271E-06  0.1594E-07
     -5.022  0.2273E-05  0.1134E-06
     -4.979  0.1348E-04  0.6913E-06
     -4.936  0.6831E-04  0.3620E-05
     -4.893  0.2965E-03  0.1633E-04
     -4.850  0.1106E-02  0.6375E-04
     -4.808  0.3564E-02  0.2165E-03
     -4.765  0.9989E-02  0.6448E-03
     -4.722  0.2458E-01  0.1699E-02
     -4.679  0.5372E-01  0.4002E-02
     -4.636  0.1056E+00  0.8529E-02
     -4.593  0.1891E+00  0.1664E-01
     -4.550  0.3118E+00  0.3000E-01
     -4.507  0.4767E+00  0.5044E-01
     -4.465  0.6801E+00  0.7960E-01
     -4.422  0.9094E+00  0.1186E+00
     -4.379  0.1145E+01  0.1677E+00
     -4.336  0.1364E+01  0.2261E+00
     -4.293  0.1544E+01  0.2923E+00
     -4.250  0.1676E+01  0.3642E+00
     -4.207  0.1764E+01  0.4398E+00
     -4.164  0.1828E+01  0.5182E+00
     -4.122  0.1899E+01  0.5996E+00
     -4.079  0.2008E+01  0.6857E+00
     -4.036  0.2174E+01  0.7789E+00
     -3.993  0.2395E+01  0.8816E+00
     -3.950  0.2646E+01  0.9951E+00
     -3.907  0.2885E+01  0.1119E+01
     -3.864  0.3068E+01  0.1250E+01
     -3.821  0.3166E+01  0.1386E+01
     -3.779  0.3175E+01  0.1522E+01
     -3.736  0.3126E+01  0.1656E+01
     -3.693  0.3067E+01  0.1788E+01
     -3.650  0.3053E+01  0.1919E+01
     -3.607  0.3121E+01  0.2052E+01
     -3.564  0.3276E+01  0.2193E+01
     -3.521  0.3494E+01  0.2343E+01
     -3.478  0.3731E+01  0.2503E+01
     -3.436  0.3940E+01  0.2671E+01
     -3.393  0.4089E+01  0.2847E+01
     -3.350  0.4166E+01  0.3025E+01
     -3.307  0.4184E+01  0.3205E+01
     -3.264  0.4172E+01  0.3384E+01
     -3.221  0.4172E+01  0.3562E+01
     -3.178  0.4219E+01  0.3743E+01
     -3.135  0.4334E+01  0.3929E+01
     -3.093  0.4515E+01  0.4123E+01
     -3.050  0.4740E+01  0.4326E+01
     -3.007  0.4970E+01  0.4539E+01
     -2.964  0.5164E+01  0.4760E+01
     -2.921  0.5293E+01  0.4987E+01
     -2.878  0.5352E+01  0.5217E+01
     -2.835  0.5368E+01  0.5447E+01
     -2.793  0.5388E+01  0.5678E+01
     -2.750  0.5452E+01  0.5912E+01
     -2.707  0.5562E+01  0.6150E+01
     -2.664  0.5669E+01  0.6393E+01
     -2.621  0.5705E+01  0.6638E+01
     -2.578  0.5637E+01  0.6879E+01
     -2.535  0.5509E+01  0.7116E+01
     -2.492  0.5436E+01  0.7349E+01
     -2.450  0.5546E+01  0.7586E+01
     -2.407  0.5905E+01  0.7840E+01
     -2.364  0.6468E+01  0.8117E+01
     -2.321  0.7076E+01  0.8420E+01
     -2.278  0.7520E+01  0.8743E+01
     -2.235  0.7645E+01  0.9070E+01
     -2.192  0.7447E+01  0.9390E+01
     -2.149  0.7084E+01  0.9693E+01
     -2.107  0.6796E+01  0.9985E+01
     -2.064  0.6778E+01  0.1028E+02
     -2.021  0.7091E+01  0.1058E+02
     -1.978  0.7643E+01  0.1091E+02
     -1.935  0.8244E+01  0.1126E+02
     -1.892  0.8697E+01  0.1163E+02
     -1.849  0.8894E+01  0.1201E+02
     -1.806  0.8862E+01  0.1239E+02
     -1.764  0.8735E+01  0.1277E+02
     -1.721  0.8663E+01  0.1314E+02
     -1.678  0.8725E+01  0.1351E+02
     -1.635  0.8913E+01  0.1390E+02
     -1.592  0.9168E+01  0.1429E+02
     -1.549  0.9444E+01  0.1469E+02
     -1.506  0.9723E+01  0.1511E+02
     -1.463  0.9999E+01  0.1554E+02
     -1.421  0.1025E+02  0.1598E+02
     -1.378  0.1044E+02  0.1643E+02
     -1.335  0.1056E+02  0.1688E+02
     -1.292  0.1071E+02  0.1734E+02
     -1.249  0.1108E+02  0.1781E+02
     -1.206  0.1181E+02  0.1832E+02
     -1.163  0.1290E+02  0.1887E+02
     -1.120  0.1410E+02  0.1948E+02
     -1.078  0.1505E+02  0.2012E+02
     -1.035  0.1551E+02  0.2079E+02
     -0.992  0.1554E+02  0.2145E+02
     -0.949  0.1548E+02  0.2212E+02
     -0.906  0.1577E+02  0.2279E+02
     -0.863  0.1670E+02  0.2351E+02
     -0.820  0.1828E+02  0.2429E+02
     -0.778  0.2037E+02  0.2517E+02
     -0.735  0.2287E+02  0.2615E+02
     -0.692  0.2588E+02  0.2726E+02
     -0.649  0.2959E+02  0.2853E+02
     -0.606  0.3398E+02  0.2998E+02
     -0.563  0.3870E+02  0.3164E+02
     -0.520  0.4314E+02  0.3349E+02
     -0.477  0.4682E+02  0.3550E+02
     -0.435  0.4961E+02  0.3762E+02
     -0.392  0.5173E+02  0.3984E+02
     -0.349  0.5348E+02  0.4214E+02
     -0.306  0.5501E+02  0.4449E+02
     -0.263  0.5626E+02  0.4691E+02
     -0.220  0.5710E+02  0.4935E+02
     -0.177  0.5748E+02  0.5182E+02
     -0.134  0.5753E+02  0.5428E+02
     -0.092  0.5752E+02  0.5675E+02
     -0.049  0.5771E+02  0.5922E+02
     -0.006  0.5826E+02  0.6172E+02
      0.037  0.5929E+02  0.6426E+02
      0.080  0.6097E+02  0.6688E+02
      0.123  0.6342E+02  0.6960E+02
      0.166  0.6660E+02  0.7245E+02
      0.209  0.7024E+02  0.7546E+02
      0.251  0.7393E+02  0.7863E+02
      0.294  0.7729E+02  0.8195E+02
      0.337  0.8016E+02  0.8538E+02
      0.380  0.8249E+02  0.8892E+02
      0.423  0.8433E+02  0.9254E+02
      0.466  0.8568E+02  0.9621E+02
      0.509  0.8650E+02  0.9992E+02
      0.552  0.8676E+02  0.1036E+03
      0.594  0.8653E+02  0.1073E+03
      0.637  0.8594E+02  0.1110E+03
      0.680  0.8508E+02  0.1147E+03
      0.723  0.8390E+02  0.1183E+03
      0.766  0.8231E+02  0.1218E+03
      0.809  0.8044E+02  0.1253E+03
      0.852  0.7864E+02  0.1286E+03
      0.895  0.7733E+02  0.1319E+03
      0.937  0.7668E+02  0.1352E+03
      0.980  0.7649E+02  0.1385E+03
      1.023  0.7638E+02  0.1418E+03
      1.066  0.7596E+02  0.1450E+03
      1.109  0.7511E+02  0.1483E+03
      1.152  0.7406E+02  0.1514E+03
      1.195  0.7326E+02  0.1546E+03
      1.238  0.7307E+02  0.1577E+03
      1.280  0.7343E+02  0.1609E+03
      1.323  0.7382E+02  0.1640E+03
      1.366  0.7358E+02  0.1672E+03
      1.409  0.7241E+02  0.1703E+03
      1.452  0.7059E+02  0.1733E+03
      1.495  0.6880E+02  0.1763E+03
      1.538  0.6771E+02  0.1792E+03
      1.580  0.6770E+02  0.1821E+03
      1.623  0.6874E+02  0.1850E+03
      1.666  0.7059E+02  0.1880E+03
      1.709  0.7292E+02  0.1912E+03
      1.752  0.7545E+02  0.1944E+03
      1.795  0.7794E+02  0.1977E+03
      1.838  0.8025E+02  0.2012E+03
      1.881  0.8231E+02  0.2047E+03
      1.923  0.8412E+02  0.2083E+03
      1.966  0.8576E+02  0.2120E+03
      2.009  0.8732E+02  0.2157E+03
      2.052  0.8888E+02  0.2195E+03
      2.095  0.9045E+02  0.2234E+03
      2.138  0.9204E+02  0.2274E+03
      2.181  0.9365E+02  0.2314E+03
      2.224  0.9534E+02  0.2355E+03
      2.266  0.9734E+02  0.2396E+03
      2.309  0.9992E+02  0.2439E+03
      2.352  0.1033E+03  0.2484E+03
      2.395  0.1073E+03  0.2530E+03
      2.438  0.1118E+03  0.2577E+03
      2.481  0.1162E+03  0.2627E+03
      2.524  0.1203E+03  0.2679E+03
      2.567  0.1238E+03  0.2732E+03
      2.609  0.1265E+03  0.2786E+03
      2.652  0.1283E+03  0.2841E+03
      2.695  0.1294E+03  0.2897E+03
      2.738  0.1302E+03  0.2952E+03
      2.781  0.1313E+03  0.3009E+03
      2.824  0.1333E+03  0.3066E+03
      2.867  0.1362E+03  0.3124E+03
      2.910  0.1396E+03  0.3184E+03
      2.952  0.1421E+03  0.3245E+03
      2.995  0.1422E+03  0.3306E+03
      3.038  0.1387E+03  0.3365E+03
      3.081  0.1317E+03  0.3422E+03
      3.124  0.1225E+03  0.3474E+03
      3.167  0.1127E+03  0.3523E+03
      3.210  0.1041E+03  0.3567E+03
      3.253  0.9764E+02  0.3609E+03
      3.295  0.9346E+02  0.3649E+03
      3.338  0.9126E+02  0.3689E+03
      3.381  0.9043E+02  0.3727E+03
      3.424  0.9016E+02  0.3766E+03
      3.467  0.8966E+02  0.3804E+03
      3.510  0.8839E+02  0.3842E+03
      3.553  0.8639E+02  0.3879E+03
      3.595  0.8431E+02  0.3915E+03
      3.638  0.8308E+02  0.3951E+03
      3.681  0.8343E+02  0.3987E+03
      3.724  0.8543E+02  0.4023E+03
      3.767  0.8855E+02  0.4061E+03
      3.810  0.9198E+02  0.4101E+03
      3.853  0.9511E+02  0.4142E+03
      3.896  0.9769E+02  0.4184E+03
      3.938  0.9976E+02  0.4226E+03
      3.981  0.1014E+03  0.4270E+03
      4.024  0.1027E+03  0.4314E+03
      4.067  0.1035E+03  0.4358E+03
      4.110  0.1037E+03  0.4403E+03
      4.153  0.1032E+03  0.4447E+03
      4.196  0.1021E+03  0.4491E+03
      4.239  0.1009E+03  0.4534E+03
      4.281  0.9980E+02  0.4577E+03
      4.324  0.9920E+02  0.4619E+03
      4.367  0.9921E+02  0.4662E+03
      4.410  0.9968E+02  0.4704E+03
      4.453  0.1003E+03  0.4747E+03
      4.496  0.1005E+03  0.4791E+03
      4.539  0.1002E+03  0.4834E+03
      4.582  0.9942E+02  0.4876E+03
      4.624  0.9852E+02  0.4918E+03
      4.667  0.9808E+02  0.4960E+03
      4.710  0.9858E+02  0.5003E+03
      4.753  0.1002E+03  0.5046E+03
      4.796  0.1028E+03  0.5090E+03
      4.839  0.1059E+03  0.5135E+03
      4.882  0.1089E+03  0.5182E+03
      4.925  0.1114E+03  0.5230E+03
      4.967  0.1127E+03  0.5278E+03
      5.010  0.1119E+03  0.5326E+03
      5.053  0.1081E+03  0.5372E+03
      5.096  0.1002E+03  0.5415E+03
      5.139  0.8801E+02  0.5453E+03
      5.182  0.7221E+02  0.5484E+03
      5.225  0.5466E+02  0.5507E+03
      5.268  0.3774E+02  0.5523E+03
      5.310  0.2355E+02  0.5534E+03
      5.353  0.1318E+02  0.5539E+03
      5.396  0.6574E+01  0.5542E+03
      5.439  0.2911E+01  0.5543E+03
      5.482  0.1141E+01  0.5544E+03
      5.525  0.3949E+00  0.5544E+03
      5.568  0.1206E+00  0.5544E+03
      5.611  0.3244E-01  0.5544E+03
      5.653  0.7691E-02  0.5544E+03
      5.696  0.1605E-02  0.5544E+03
      5.739  0.2946E-03  0.5544E+03
      5.782  0.4748E-04  0.5544E+03
      5.825  0.6706E-05  0.5544E+03
      5.868  0.8280E-06  0.5544E+03
      5.911  0.8911E-07  0.5544E+03
      5.953  0.8334E-08  0.5544E+03
      5.996  0.6751E-09  0.5544E+03
      6.039  0.4725E-10  0.5544E+03
      6.082  0.2848E-11  0.5544E+03
      6.125  0.1470E-12  0.5544E+03
      6.168  0.6150E-14  0.5544E+03
      6.211  0.1942E-15  0.5544E+03
      6.254  0.0000E+00  0.5544E+03
      6.296  0.0000E+00  0.5544E+03
      6.339  0.0000E+00  0.5544E+03
      6.382  0.0000E+00  0.5544E+03
      6.425  0.0000E+00  0.5544E+03
      6.468  0.0000E+00  0.5544E+03
      6.511  0.0000E+00  0.5544E+03
      6.554  0.0000E+00  0.5544E+03
      6.597  0.0000E+00  0.5544E+03
      6.639  0.0000E+00  0.5544E+03
      6.682  0.0000E+00  0.5544E+03
      6.725  0.0000E+00  0.5544E+03
      6.768  0.0000E+00  0.5544E+03
      6.811  0.0000E+00  0.5544E+03
