       N       E                     dE             d eps       ncg     rms          rms(c)
DAV:   1     0.292368433636E+05    0.29237E+05   -0.86593E+05 27944   0.197E+03
DAV:   2     0.119861550204E+04   -0.28038E+05   -0.27425E+05 27720   0.604E+02
DAV:   3    -0.194021960817E+04   -0.31388E+04   -0.27269E+04 39116   0.280E+02
DAV:   4    -0.261048608535E+04   -0.67027E+03   -0.61041E+03 50904   0.977E+01
DAV:   5    -0.273077725453E+04   -0.12029E+03   -0.11266E+03 48328   0.398E+01    0.203E+02
RMM:   6    -0.601158508147E+04   -0.32808E+04   -0.12415E+04 48463   0.248E+02    0.670E+02
RMM:   7    -0.379841204293E+04    0.22132E+04   -0.33632E+03 47597   0.989E+01    0.378E+02
RMM:   8    -0.737025764267E+04   -0.35718E+04   -0.15052E+04 48340   0.285E+02    0.908E+02
RMM:   9    -0.766316547972E+04   -0.29291E+03   -0.10649E+04 48881   0.153E+02    0.756E+02
RMM:  10    -0.149324180944E+05   -0.72693E+04   -0.15992E+04 49693   0.221E+02    0.895E+02
RMM:  11    -0.137703060927E+05    0.11621E+04   -0.11173E+04 45169   0.172E+02    0.828E+02
RMM:  12    -0.119534576111E+05    0.18168E+04   -0.65773E+03 48189   0.114E+02    0.717E+02
RMM:  13    -0.679609505286E+04    0.51574E+04   -0.40452E+03 29613   0.125E+02    0.562E+02
RMM:  14    -0.541532813219E+04    0.13808E+04   -0.36479E+03 39165   0.901E+01    0.515E+02
RMM:  15    -0.467406185046E+04    0.74127E+03   -0.30961E+03 38949   0.101E+02    0.436E+02
RMM:  16    -0.345346500763E+04    0.12206E+04   -0.21444E+03 46046   0.653E+01    0.366E+02
RMM:  17    -0.437274758229E+04   -0.91928E+03   -0.14631E+03 36356   0.579E+01    0.411E+02
RMM:  18    -0.392668057582E+04    0.44607E+03   -0.21404E+03 38612   0.915E+01    0.359E+02
RMM:  19    -0.336046028873E+04    0.56622E+03   -0.16940E+03 40421   0.582E+01    0.297E+02
RMM:  20    -0.297448385217E+04    0.38598E+03   -0.14544E+03 41844   0.483E+01    0.283E+02
RMM:  21    -0.266569208455E+04    0.30879E+03   -0.15977E+03 47866   0.319E+01    0.231E+02
RMM:  22    -0.272156072734E+04   -0.55869E+02   -0.12737E+03 47797   0.283E+01    0.225E+02
RMM:  23    -0.273704079821E+04   -0.15480E+02   -0.10491E+03 43198   0.250E+01    0.212E+02
RMM:  24    -0.273646882498E+04    0.57197E+00   -0.81277E+02 47545   0.217E+01    0.189E+02
RMM:  25    -0.280596202963E+04   -0.69493E+02   -0.70000E+02 47744   0.164E+01    0.192E+02
RMM:  26    -0.283449833461E+04   -0.28536E+02   -0.60539E+02 45725   0.136E+01    0.195E+02
RMM:  27    -0.289765613917E+04   -0.63158E+02   -0.61294E+02 49528   0.111E+01    0.207E+02
RMM:  28    -0.283067411231E+04    0.66982E+02   -0.56983E+02 41629   0.225E+01    0.225E+02
RMM:  29    -0.271136323434E+04    0.11931E+03   -0.49205E+02 45959   0.139E+01    0.198E+02
RMM:  30    -0.272444828484E+04   -0.13085E+02   -0.35348E+02 43084   0.904E+00    0.208E+02
RMM:  31    -0.266549710632E+04    0.58951E+02   -0.15010E+02 35263   0.890E+00    0.210E+02
RMM:  32    -0.260387772196E+04    0.61619E+02   -0.10474E+02 39488   0.857E+00    0.204E+02
RMM:  33    -0.257125972123E+04    0.32618E+02   -0.80155E+01 43006   0.597E+00    0.197E+02
RMM:  34    -0.253617871142E+04    0.35081E+02   -0.43323E+01 36166   0.490E+00    0.189E+02
RMM:  35    -0.247222353230E+04    0.63955E+02   -0.21575E+01 32470   0.621E+00    0.167E+02
RMM:  36    -0.242472904730E+04    0.47494E+02   -0.25024E+01 36513   0.573E+00    0.137E+02
RMM:  37    -0.238163101685E+04    0.43098E+02   -0.27419E+01 40530   0.462E+00    0.106E+02
RMM:  38    -0.235800737873E+04    0.23624E+02   -0.25097E+01 39713   0.404E+00    0.843E+01
RMM:  39    -0.235077812672E+04    0.72293E+01   -0.18799E+01 34994   0.447E+00    0.772E+01
RMM:  40    -0.235655006042E+04   -0.57719E+01   -0.15887E+01 41968   0.300E+00    0.822E+01
RMM:  41    -0.235623850163E+04    0.31156E+00   -0.77756E+00 45894   0.115E+00    0.800E+01
RMM:  42    -0.235559969515E+04    0.63881E+00   -0.22659E+00 36517   0.963E-01    0.787E+01
RMM:  43    -0.235296566949E+04    0.26340E+01   -0.31207E+00 30993   0.284E+00    0.759E+01
RMM:  44    -0.234552227793E+04    0.74434E+01   -0.56925E+00 30661   0.384E+00    0.699E+01
RMM:  45    -0.233572925617E+04    0.97930E+01   -0.10183E+01 35956   0.341E+00    0.579E+01
RMM:  46    -0.233049956658E+04    0.52297E+01   -0.10340E+01 37996   0.292E+00    0.487E+01
RMM:  47    -0.232684676156E+04    0.36528E+01   -0.86058E+00 38060   0.267E+00    0.410E+01
RMM:  48    -0.232577058363E+04    0.10762E+01   -0.45154E+00 33062   0.264E+00    0.381E+01
RMM:  49    -0.232554285476E+04    0.22773E+00   -0.36721E+00 37096   0.214E+00    0.364E+01
RMM:  50    -0.232466029766E+04    0.88256E+00   -0.15537E+00 35033   0.150E+00    0.336E+01
RMM:  51    -0.233666890612E+04   -0.12009E+02   -0.42563E+01 34900   0.732E+00    0.538E+01
RMM:  52    -0.235039159429E+04   -0.13723E+02   -0.39063E+01 38259   0.628E+00    0.675E+01
RMM:  53    -0.234482319832E+04    0.55684E+01   -0.21813E+01 35696   0.448E+00    0.608E+01
RMM:  54    -0.234661400269E+04   -0.17908E+01   -0.20169E+01 43489   0.244E+00    0.633E+01
RMM:  55    -0.234706289804E+04   -0.44890E+00   -0.10244E+01 45414   0.116E+00    0.659E+01
RMM:  56    -0.234313365592E+04    0.39292E+01   -0.32467E+01 31910   0.815E+00    0.628E+01
RMM:  57    -0.233463538132E+04    0.84983E+01   -0.14570E+01 31706   0.589E+00    0.521E+01
RMM:  58    -0.233054336765E+04    0.40920E+01   -0.97678E+00 35292   0.375E+00    0.470E+01
RMM:  59    -0.233045700476E+04    0.86363E-01   -0.50377E+00 32076   0.331E+00    0.473E+01
RMM:  60    -0.232892026753E+04    0.15367E+01   -0.77087E+00 33779   0.384E+00    0.441E+01
RMM:  61    -0.233363397310E+04   -0.47137E+01   -0.11997E+01 31008   0.548E+00    0.564E+01
RMM:  62    -0.232763187938E+04    0.60021E+01   -0.11706E+01 37834   0.381E+00    0.438E+01
RMM:  63    -0.232419969083E+04    0.34322E+01   -0.63994E+00 31003   0.417E+00    0.351E+01
RMM:  64    -0.232094046503E+04    0.32592E+01   -0.51631E+00 30849   0.378E+00    0.248E+01
RMM:  65    -0.232257944076E+04   -0.16390E+01   -0.62069E+00 28884   0.461E+00    0.303E+01
RMM:  66    -0.232753269657E+04   -0.49533E+01   -0.13066E+01 29072   0.695E+00    0.398E+01
RMM:  67    -0.232231995459E+04    0.52127E+01   -0.63662E+00 28038   0.525E+00    0.295E+01
RMM:  68    -0.232188541402E+04    0.43454E+00   -0.38925E+00 28975   0.376E+00    0.277E+01
RMM:  69    -0.232279354135E+04   -0.90813E+00   -0.51302E+00 31800   0.324E+00    0.295E+01
RMM:  70    -0.232057500616E+04    0.22185E+01   -0.41356E+00 33210   0.257E+00    0.222E+01
RMM:  71    -0.232209790262E+04   -0.15229E+01   -0.45218E+00 30393   0.361E+00    0.274E+01
RMM:  72    -0.232060731320E+04    0.14906E+01   -0.14492E+00 28107   0.296E+00    0.222E+01
RMM:  73    -0.232003810215E+04    0.56921E+00   -0.10581E+00 35625   0.118E+00    0.199E+01
RMM:  74    -0.231974443244E+04    0.29367E+00   -0.56039E-01 29601   0.139E+00    0.186E+01
RMM:  75    -0.231960823754E+04    0.13619E+00   -0.76459E-01 31604   0.134E+00    0.177E+01
RMM:  76    -0.232009658226E+04   -0.48834E+00   -0.17709E+00 30080   0.222E+00    0.197E+01
RMM:  77    -0.231895304656E+04    0.11435E+01   -0.90227E-01 28488   0.192E+00    0.135E+01
RMM:  78    -0.231843998299E+04    0.51306E+00   -0.62745E-01 29061   0.152E+00    0.973E+00
RMM:  79    -0.231819485554E+04    0.24513E+00   -0.42424E-01 29034   0.131E+00    0.712E+00
RMM:  80    -0.231808715337E+04    0.10770E+00   -0.42935E-01 30563   0.109E+00    0.516E+00
RMM:  81    -0.231950099389E+04   -0.14138E+01   -0.27922E+00 30283   0.274E+00    0.161E+01
RMM:  82    -0.231855116449E+04    0.94983E+00   -0.97820E-01 27909   0.236E+00    0.995E+00
RMM:  83    -0.231864987371E+04   -0.98709E-01   -0.80237E-01 33390   0.113E+00    0.109E+01
RMM:  84    -0.231856766206E+04    0.82212E-01   -0.33931E-01 29818   0.106E+00    0.101E+01
RMM:  85    -0.231828863995E+04    0.27902E+00   -0.17690E-01 29088   0.834E-01    0.719E+00
RMM:  86    -0.231852854061E+04   -0.23990E+00   -0.34796E-01 28059   0.123E+00    0.982E+00
RMM:  87    -0.231816053819E+04    0.36800E+00   -0.21600E-01 27823   0.109E+00    0.520E+00
RMM:  88    -0.231809178461E+04    0.68754E-01   -0.16867E-01 29183   0.785E-01    0.411E+00
RMM:  89    -0.231808796484E+04    0.38198E-02   -0.92764E-02 29215   0.586E-01    0.404E+00
RMM:  90    -0.231809500877E+04   -0.70439E-02   -0.78284E-02 29982   0.495E-01    0.413E+00
RMM:  91    -0.231811357976E+04   -0.18571E-01   -0.79794E-02 28781   0.563E-01    0.456E+00
RMM:  92    -0.231809257010E+04    0.21010E-01   -0.41029E-02 28078   0.450E-01    0.410E+00
RMM:  93    -0.231808340007E+04    0.91700E-02   -0.28921E-02 28734   0.356E-01    0.389E+00
RMM:  94    -0.231806581935E+04    0.17581E-01   -0.30279E-02 31625   0.263E-01    0.336E+00
RMM:  95    -0.231803738524E+04    0.28434E-01   -0.22572E-02 32478   0.226E-01    0.234E+00
RMM:  96    -0.231803244466E+04    0.49406E-02   -0.25829E-02 29070   0.304E-01    0.211E+00
RMM:  97    -0.231802032210E+04    0.12123E-01   -0.11378E-02 28278   0.253E-01    0.149E+00
RMM:  98    -0.231801454264E+04    0.57795E-02   -0.13745E-02 33371   0.151E-01    0.104E+00
RMM:  99    -0.231801166646E+04    0.28762E-02   -0.64144E-03 31798   0.116E-01    0.719E-01
RMM: 100    -0.231801193278E+04   -0.26632E-03   -0.67216E-03 36757   0.922E-02
   1 F= -.23180119E+04 E0= -.23152412E+04  d E =-.231801E+04
       N       E                     dE             d eps       ncg     rms          rms(c)
DAV:   1    -0.231818049051E+04   -0.16882E+00   -0.34910E+01 29526   0.628E+00    0.251E+00
RMM:   2    -0.248281815733E+04   -0.16464E+03   -0.12252E+01 34615   0.444E+00    0.164E+02
RMM:   3    -0.234137109460E+04    0.14145E+03   -0.47900E+00 30397   0.360E+00    0.628E+01
RMM:   4    -0.232619154964E+04    0.15180E+02   -0.23314E+00 27853   0.319E+00    0.369E+01
RMM:   5    -0.232887560432E+04   -0.26841E+01   -0.20467E+00 30669   0.215E+00    0.426E+01
RMM:   6    -0.232104999852E+04    0.78256E+01   -0.38000E+00 27773   0.389E+00    0.225E+01
RMM:   7    -0.232739620262E+04   -0.63462E+01   -0.52740E+00 30943   0.360E+00    0.387E+01
RMM:   8    -0.231917078485E+04    0.82254E+01   -0.15075E+00 27720   0.292E+00    0.123E+01
RMM:   9    -0.231876628868E+04    0.40450E+00   -0.48185E-01 28006   0.154E+00    0.103E+01
RMM:  10    -0.231861991328E+04    0.14638E+00   -0.49418E-01 33121   0.987E-01    0.884E+00
RMM:  11    -0.231835182450E+04    0.26809E+00   -0.17571E-01 29933   0.698E-01    0.530E+00
RMM:  12    -0.231825750386E+04    0.94321E-01   -0.14594E-01 28867   0.757E-01    0.381E+00
RMM:  13    -0.231830587586E+04   -0.48372E-01   -0.21120E-01 33498   0.608E-01    0.494E+00
RMM:  14    -0.231831330313E+04   -0.74273E-02   -0.10126E-01 33167   0.423E-01    0.510E+00
RMM:  15    -0.231830984735E+04    0.34558E-02   -0.82865E-02 42262   0.215E-01    0.490E+00
RMM:  16    -0.231825635242E+04    0.53495E-01   -0.17151E-02 31969   0.195E-01    0.366E+00
RMM:  17    -0.231823557370E+04    0.20779E-01   -0.77536E-03 29718   0.163E-01    0.301E+00
RMM:  18    -0.231822286078E+04    0.12713E-01   -0.96521E-03 29136   0.180E-01    0.253E+00
RMM:  19    -0.231820134241E+04    0.21518E-01   -0.13288E-02 28285   0.217E-01    0.129E+00
RMM:  20    -0.231819665910E+04    0.46833E-02   -0.91923E-03 29931   0.160E-01    0.938E-01
RMM:  21    -0.231819596250E+04    0.69660E-03   -0.89693E-03 36625   0.113E-01    0.852E-01
RMM:  22    -0.231819723502E+04   -0.12725E-02   -0.36960E-03 30740   0.987E-02    0.105E+00
RMM:  23    -0.231819720932E+04    0.25696E-04   -0.26824E-03 31777   0.790E-02    0.102E+00
RMM:  24    -0.231819491599E+04    0.22933E-02   -0.29044E-03 31770   0.837E-02    0.774E-01
RMM:  25    -0.231819319465E+04    0.17213E-02   -0.15183E-03 28157   0.800E-02    0.544E-01
RMM:  26    -0.231819290022E+04    0.29443E-03   -0.17809E-03 38201   0.484E-02    0.447E-01
RMM:  27    -0.231819243063E+04    0.46959E-03   -0.90530E-04 29898   0.530E-02    0.256E-01
RMM:  28    -0.231819222966E+04    0.20096E-03   -0.43708E-04 29973   0.380E-02    0.139E-01
RMM:  29    -0.231819229414E+04   -0.64481E-04   -0.58825E-04 40052   0.239E-02    0.145E-01
RMM:  30    -0.231819237322E+04   -0.79071E-04   -0.27996E-04 32605   0.237E-02    0.163E-01
RMM:  31    -0.231819237658E+04   -0.33665E-05   -0.15549E-04 31958   0.187E-02    0.154E-01
RMM:  32    -0.231819237407E+04    0.25145E-05   -0.16989E-04 33804   0.177E-02    0.149E-01
RMM:  33    -0.231819228343E+04    0.90635E-04   -0.88180E-05 28742   0.191E-02    0.834E-02
RMM:  34    -0.231819225900E+04    0.24428E-04   -0.61934E-05 30323   0.135E-02    0.580E-02
RMM:  35    -0.231819226130E+04   -0.23002E-05   -0.73338E-05 39456   0.887E-03    0.532E-02
RMM:  36    -0.231819226044E+04    0.86383E-06   -0.33849E-05 31287   0.919E-03    0.410E-02
RMM:  37    -0.231819225949E+04    0.94934E-06   -0.22752E-05 32543   0.523E-03    0.329E-02
RMM:  38    -0.231819226135E+04   -0.18601E-05   -0.11096E-05 26297   0.463E-03    0.349E-02
RMM:  39    -0.231819226031E+04    0.10435E-05   -0.75882E-06 25687   0.553E-03    0.274E-02
RMM:  40    -0.231819225938E+04    0.92617E-06   -0.35313E-06 18789   0.325E-03
   2 F= -.23181923E+04 E0= -.23154175E+04  d E =-.180327E+00
       N       E                     dE             d eps       ncg     rms          rms(c)
DAV:   1    -0.231812002080E+04    0.72240E-01   -0.31410E+02 27720   0.186E+01    0.353E+00
RMM:   2    -0.233241069663E+04   -0.14291E+02   -0.86037E+00 27901   0.620E+00    0.508E+01
RMM:   3    -0.233079794244E+04    0.16128E+01   -0.41318E+00 38743   0.241E+00    0.450E+01
RMM:   4    -0.234013198173E+04   -0.93340E+01   -0.18682E+00 28855   0.264E+00    0.618E+01
RMM:   5    -0.232005223260E+04    0.20080E+02   -0.12091E+00 31287   0.183E+00    0.142E+01
RMM:   6    -0.232340669735E+04   -0.33545E+01   -0.25265E+00 30717   0.246E+00    0.292E+01
RMM:   7    -0.232206770138E+04    0.13390E+01   -0.18041E+00 29441   0.236E+00    0.256E+01
RMM:   8    -0.231970328334E+04    0.23644E+01   -0.84430E-01 28018   0.181E+00    0.143E+01
RMM:   9    -0.231886385504E+04    0.83943E+00   -0.49419E-01 27764   0.163E+00    0.738E+00
RMM:  10    -0.231892108459E+04   -0.57230E-01   -0.57075E-01 29107   0.140E+00    0.830E+00
RMM:  11    -0.231878217750E+04    0.13891E+00   -0.35507E-01 28956   0.111E+00    0.670E+00
RMM:  12    -0.231858554303E+04    0.19663E+00   -0.13434E-01 27741   0.825E-01    0.287E+00
RMM:  13    -0.231855725974E+04    0.28283E-01   -0.92894E-02 31003   0.463E-01    0.204E+00
RMM:  14    -0.231856158204E+04   -0.43223E-02   -0.91647E-02 36382   0.336E-01    0.198E+00
RMM:  15    -0.231855670225E+04    0.48798E-02   -0.47734E-02 33174   0.304E-01    0.163E+00
RMM:  16    -0.231854652812E+04    0.10174E-01   -0.18679E-02 29929   0.248E-01    0.903E-01
RMM:  17    -0.231854730166E+04   -0.77354E-03   -0.23074E-02 36655   0.182E-01    0.888E-01
RMM:  18    -0.231854439660E+04    0.29051E-02   -0.10097E-02 30227   0.179E-01    0.516E-01
RMM:  19    -0.231854425657E+04    0.14003E-03   -0.79066E-03 36099   0.104E-01    0.431E-01
RMM:  20    -0.231854455616E+04   -0.29959E-03   -0.39345E-03 33768   0.838E-02    0.453E-01
RMM:  21    -0.231854409322E+04    0.46294E-03   -0.14853E-03 29851   0.733E-02    0.333E-01
RMM:  22    -0.231854407406E+04    0.19163E-04   -0.15924E-03 37005   0.447E-02    0.299E-01
RMM:  23    -0.231854396621E+04    0.10785E-03   -0.92072E-04 31334   0.473E-02    0.249E-01
RMM:  24    -0.231854380263E+04    0.16358E-03   -0.41388E-04 29626   0.396E-02    0.180E-01
RMM:  25    -0.231854377286E+04    0.29771E-04   -0.39603E-04 34655   0.229E-02    0.151E-01
RMM:  26    -0.231854374344E+04    0.29429E-04   -0.28374E-04 38145   0.177E-02    0.118E-01
RMM:  27    -0.231854368382E+04    0.59614E-04   -0.85515E-05 31278   0.146E-02    0.500E-02
RMM:  28    -0.231854368356E+04    0.25934E-06   -0.86604E-05 39643   0.821E-03    0.378E-02
RMM:  29    -0.231854368642E+04   -0.28569E-05   -0.43947E-05 34074   0.784E-03    0.397E-02
RMM:  30    -0.231854368131E+04    0.51113E-05   -0.18379E-05 29253   0.649E-03    0.230E-02
RMM:  31    -0.231854368178E+04   -0.47107E-06   -0.14421E-05 26651   0.372E-03    0.207E-02
RMM:  32    -0.231854368117E+04    0.60472E-06   -0.56610E-06 21686   0.403E-03
   3 F= -.23185437E+04 E0= -.23157591E+04  d E =-.531748E+00
       N       E                     dE             d eps       ncg     rms          rms(c)
DAV:   1    -0.231612300149E+04    0.24207E+01   -0.12553E+03 27720   0.378E+01    0.777E+00
RMM:   2    -0.237769844594E+04   -0.61575E+02   -0.47000E+01 27993   0.137E+01    0.102E+02
RMM:   3    -0.239619670701E+04   -0.18498E+02   -0.22205E+01 38497   0.559E+00    0.111E+02
RMM:   4    -0.242193108603E+04   -0.25734E+02   -0.11710E+01 29513   0.613E+00    0.128E+02
RMM:   5    -0.232315598593E+04    0.98775E+02   -0.59211E+00 31297   0.410E+00    0.264E+01
RMM:   6    -0.233670370939E+04   -0.13548E+02   -0.10114E+01 30422   0.508E+00    0.543E+01
RMM:   7    -0.233078896944E+04    0.59147E+01   -0.66198E+00 29017   0.474E+00    0.469E+01
RMM:   8    -0.232746385635E+04    0.33251E+01   -0.43945E+00 27892   0.420E+00    0.406E+01
RMM:   9    -0.232037876288E+04    0.70851E+01   -0.22861E+00 27771   0.348E+00    0.183E+01
RMM:  10    -0.232035461749E+04    0.24145E-01   -0.22280E+00 27981   0.314E+00    0.191E+01
RMM:  11    -0.231919946531E+04    0.11552E+01   -0.11216E+00 28027   0.217E+00    0.125E+01
RMM:  12    -0.231848879316E+04    0.71067E+00   -0.60537E-01 27869   0.170E+00    0.505E+00
RMM:  13    -0.231845529643E+04    0.33497E-01   -0.65870E-01 32912   0.104E+00    0.415E+00
RMM:  14    -0.231848702043E+04   -0.31724E-01   -0.45832E-01 32396   0.970E-01    0.452E+00
RMM:  15    -0.231843449558E+04    0.52525E-01   -0.16970E-01 29271   0.780E-01    0.351E+00
RMM:  16    -0.231842997535E+04    0.45202E-02   -0.16679E-01 37512   0.392E-01    0.314E+00
RMM:  17    -0.231842316807E+04    0.68073E-02   -0.78047E-02 35319   0.349E-01    0.267E+00
RMM:  18    -0.231841290616E+04    0.10262E-01   -0.29503E-02 30112   0.315E-01    0.216E+00
RMM:  19    -0.231840304503E+04    0.98611E-02   -0.36161E-02 32229   0.285E-01    0.164E+00
RMM:  20    -0.231839972079E+04    0.33242E-02   -0.17274E-02 30072   0.235E-01    0.156E+00
RMM:  21    -0.231840074511E+04   -0.10243E-02   -0.13576E-02 33494   0.153E-01    0.159E+00
RMM:  22    -0.231840014885E+04    0.59626E-03   -0.10209E-02 40866   0.918E-02    0.151E+00
RMM:  23    -0.231839722802E+04    0.29208E-02   -0.29436E-03 32647   0.756E-02    0.128E+00
RMM:  24    -0.231839361659E+04    0.36114E-02   -0.31369E-03 30476   0.941E-02    0.938E-01
RMM:  25    -0.231838996417E+04    0.36524E-02   -0.25619E-03 29207   0.977E-02    0.396E-01
RMM:  26    -0.231838984934E+04    0.11484E-03   -0.22177E-03 31027   0.765E-02    0.367E-01
RMM:  27    -0.231839008044E+04   -0.23110E-03   -0.21421E-03 32685   0.663E-02    0.403E-01
RMM:  28    -0.231838959273E+04    0.48771E-03   -0.82947E-04 30034   0.523E-02    0.258E-01
RMM:  29    -0.231838953656E+04    0.56172E-04   -0.84189E-04 36999   0.295E-02    0.217E-01
RMM:  30    -0.231838951705E+04    0.19511E-04   -0.44733E-04 36565   0.240E-02    0.194E-01
RMM:  31    -0.231838940525E+04    0.11180E-03   -0.17625E-04 30786   0.226E-02    0.117E-01
RMM:  32    -0.231838938916E+04    0.16084E-04   -0.16436E-04 37085   0.140E-02    0.917E-02
RMM:  33    -0.231838937634E+04    0.12826E-04   -0.94478E-05 32602   0.142E-02    0.732E-02
RMM:  34    -0.231838935536E+04    0.20980E-04   -0.37212E-05 29794   0.112E-02    0.390E-02
RMM:  35    -0.231838935790E+04   -0.25445E-05   -0.46251E-05 37717   0.579E-03    0.374E-02
RMM:  36    -0.231838935806E+04   -0.15716E-06   -0.17016E-05 30229   0.584E-03    0.350E-02
RMM:  37    -0.231838935728E+04    0.77763E-06   -0.86614E-06 23943   0.466E-03
   4 F= -.23183894E+04 E0= -.23155931E+04  d E =-.377425E+00
       N       E                     dE             d eps       ncg     rms          rms(c)
DAV:   1    -0.231784897974E+04    0.54038E+00   -0.50801E+02 27720   0.238E+01    0.438E+00
RMM:   2    -0.232982914872E+04   -0.11980E+02   -0.13712E+01 27855   0.754E+00    0.453E+01
RMM:   3    -0.233910855682E+04   -0.92794E+01   -0.53296E+00 39781   0.253E+00    0.617E+01
RMM:   4    -0.234137934370E+04   -0.22708E+01   -0.22891E+00 28772   0.289E+00    0.636E+01
RMM:   5    -0.232196546814E+04    0.19414E+02   -0.16956E+00 29525   0.236E+00    0.232E+01
RMM:   6    -0.232365255504E+04   -0.16871E+01   -0.32562E+00 30326   0.289E+00    0.301E+01
RMM:   7    -0.232424170659E+04   -0.58915E+00   -0.27282E+00 29571   0.285E+00    0.326E+01
RMM:   8    -0.232055487598E+04    0.36868E+01   -0.11588E+00 28320   0.207E+00    0.178E+01
RMM:   9    -0.231921645898E+04    0.13384E+01   -0.71104E-01 27763   0.191E+00    0.103E+01
RMM:  10    -0.231916906217E+04    0.47397E-01   -0.74660E-01 28066   0.172E+00    0.104E+01
RMM:  11    -0.231896791477E+04    0.20115E+00   -0.68843E-01 30375   0.137E+00    0.769E+00
RMM:  12    -0.231872827443E+04    0.23964E+00   -0.26035E-01 27964   0.114E+00    0.473E+00
RMM:  13    -0.231868870435E+04    0.39570E-01   -0.21324E-01 32622   0.626E-01    0.382E+00
RMM:  14    -0.231866333605E+04    0.25368E-01   -0.15260E-01 33215   0.552E-01    0.296E+00
RMM:  15    -0.231863036859E+04    0.32967E-01   -0.45552E-02 27838   0.459E-01    0.171E+00
RMM:  16    -0.231862911967E+04    0.12489E-02   -0.49641E-02 36935   0.253E-01    0.152E+00
RMM:  17    -0.231862379337E+04    0.53263E-02   -0.23006E-02 33566   0.202E-01    0.108E+00
RMM:  18    -0.231862017852E+04    0.36148E-02   -0.91984E-03 31053   0.156E-01    0.663E-01
RMM:  19    -0.231862131818E+04   -0.11397E-02   -0.10848E-02 36392   0.122E-01    0.751E-01
RMM:  20    -0.231862080426E+04    0.51391E-03   -0.51367E-03 31587   0.112E-01    0.645E-01
RMM:  21    -0.231862006755E+04    0.73671E-03   -0.26605E-03 30759   0.883E-02    0.508E-01
RMM:  22    -0.231861979882E+04    0.26874E-03   -0.32127E-03 37742   0.615E-02    0.423E-01
RMM:  23    -0.231861927619E+04    0.52262E-03   -0.12188E-03 31455   0.548E-02    0.283E-01
RMM:  24    -0.231861908779E+04    0.18840E-03   -0.67238E-04 31922   0.393E-02    0.206E-01
RMM:  25    -0.231861902305E+04    0.64743E-04   -0.69222E-04 38522   0.269E-02    0.149E-01
RMM:  26    -0.231861897664E+04    0.46406E-04   -0.26791E-04 32371   0.232E-02    0.116E-01
RMM:  27    -0.231861897660E+04    0.42637E-07   -0.19184E-04 33898   0.179E-02    0.109E-01
RMM:  28    -0.231861896282E+04    0.13777E-04   -0.17607E-04 36801   0.156E-02    0.844E-02
RMM:  29    -0.231861893565E+04    0.27170E-04   -0.54578E-05 30389   0.130E-02    0.447E-02
RMM:  30    -0.231861893730E+04   -0.16491E-05   -0.59287E-05 38872   0.659E-03    0.399E-02
RMM:  31    -0.231861893479E+04    0.25130E-05   -0.21455E-05 31586   0.589E-03    0.304E-02
RMM:  32    -0.231861893313E+04    0.16571E-05   -0.92094E-06 24014   0.427E-03    0.241E-02
RMM:  33    -0.231861893284E+04    0.28775E-06   -0.57658E-06 21580   0.358E-03
   5 F= -.23186189E+04 E0= -.23158288E+04  d E =-.607000E+00
