unknown system                          
           1
     9.726678    0.000000    0.000000
     0.000000    8.423550    0.000000
     0.000000    0.000000   45.000000
   Fe   Mn
 281   7
Direct configuration=     1
   0.06102695  0.03156577  0.12452196
   0.06321598  0.87182295  0.52123650
   0.19395293  0.12360221  0.78845004
   0.43341258  0.28768161  0.38908582
   0.30843400  0.71273239  0.83315031
   0.80847353  0.21277182  0.83316274
   0.18341682  0.78757064  0.38906486
   0.56325263  0.20735023  0.56541399
   0.06009183  0.04112672  0.74406481
   0.81329037  0.87207671  0.52131052
   0.18512643  0.29105690  0.74408079
   0.94122493  0.45184494  0.34492145
   0.93368904  0.28757205  0.38907544
   0.81383437  0.04202537  0.87559637
   0.18813086  0.79128330  0.61077540
   0.55863230  0.03744578  0.38907232
   0.93341376  0.96266255  0.83315800
   0.31359591  0.54195791  0.87558721
   0.68520940  0.29122274  0.74409014
   0.19286364  0.61321768  0.16667229
   0.81280360  0.20590857  0.47861678
   0.81270238  0.54178572  0.61084040
   0.31309158  0.87086260  0.43430497
   0.81532724  0.03561463  0.25597796
   0.69126086  0.95197440  0.34494304
   0.94180837  0.11247360  0.16683776
   0.93853844  0.12200868  0.52124822
   0.56612205  0.53657604  0.25601927
   0.68901502  0.79396133  0.87564725
   0.56778413  0.36341216  0.16678336
   0.43510257  0.79104744  0.74407652
   0.81340504  0.70747603  0.56539747
   0.56900617  0.87331858  0.78841152
   0.68854311  0.12200380  0.52129319
   0.19108996  0.28724713  0.25593710
   0.93339635  0.46265325  0.83314834
   0.06464414  0.20784222  0.69962615
   0.43985739  0.95796334  0.69968293
   0.30850122  0.21275624  0.83317155
   0.43367610  0.62539245  0.65490967
   0.31329360  0.54113518  0.61072980
   0.93870382  0.45764495  0.56541564
   0.68523090  0.79106336  0.74408582
   0.30865753  0.87515602  0.65489634
   0.68367725  0.78758120  0.38904020
   0.93514331  0.79108574  0.74409763
   0.06601614  0.20164479  0.34491598
   0.80870367  0.03735502  0.38898572
   0.44407572  0.12325650  0.78844110
   0.05852321  0.20501635  0.21191097
   0.06803233  0.36348603  0.16693036
   0.94075012  0.78671206  0.25612383
   0.56465854  0.20785174  0.69962618
   0.68974996  0.95805690  0.69963194
   0.68365475  0.28781525  0.38906913
   0.43859601  0.95748606  0.56547638
   0.81901458  0.37328829  0.78841718
   0.69061271  0.28676997  0.25600982
   0.18886129  0.45767560  0.56542188
   0.06666354  0.86259526  0.16686416
   0.18839605  0.29102840  0.61071807
   0.56627424  0.70263790  0.34495176
   0.31474867  0.20794010  0.69962028
   0.56357022  0.54194706  0.87558363
   0.06367418  0.70683193  0.56553327
   0.69425220  0.62342302  0.78845183
   0.30881888  0.53748390  0.38899499
   0.18815696  0.62191570  0.52135270
   0.56299535  0.87102442  0.43432621
   0.43816031  0.45794572  0.56535227
   0.43520265  0.29106402  0.74408654
   0.80441283  0.87288160  0.30031423
   0.81653815  0.70214984  0.34500580
   0.43344042  0.46273678  0.83314995
   0.68777359  0.95588530  0.47862436
   0.68990195  0.45791170  0.69960817
   0.56303212  0.87241904  0.52134509
   0.55870707  0.37506348  0.65490964
   0.80846981  0.87514226  0.65485360
   0.81252658  0.37055112  0.43447610
   0.81490430  0.53680013  0.25613639
   0.68346884  0.46274840  0.83315168
   0.18893064  0.78465245  0.12481304
   0.06372638  0.04188612  0.87560727
   0.30864380  0.37507717  0.65490739
   0.31630218  0.20187876  0.34487746
   0.81014409  0.54112699  0.74408977
   0.68343753  0.96268361  0.83314566
   0.55862463  0.87523438  0.65490324
   0.31307212  0.70715500  0.56546824
   0.31210041  0.53076582  0.12434747
   0.68298937  0.95468943  0.21210891
   0.31390345  0.20704696  0.56547705
   0.31011997  0.54112008  0.74407645
   0.68880637  0.95780123  0.56544731
   0.43823351  0.79093055  0.61067521
   0.69310293  0.61421028  0.16683783
   0.30443971  0.87288126  0.30028054
   0.31228814  0.70560798  0.47865840
   0.93833400  0.29109820  0.61068735
   0.42945530  0.62312090  0.30035468
   0.81845776  0.86256455  0.16680606
   0.55845902  0.20476604  0.21188497
   0.94292748  0.61363610  0.16682491
   0.93908992  0.79398256  0.87562534
   0.56907563  0.37313832  0.78840060
   0.06336525  0.37223707  0.52132240
   0.56344138  0.37199128  0.52128064
   0.67947421  0.12317249  0.30027649
   0.43343391  0.96272539  0.83314432
   0.18993264  0.28685961  0.12449379
   0.81902856  0.87342050  0.78840753
   0.31192774  0.37086906  0.43428769
   0.93786563  0.79162390  0.61080455
   0.43838601  0.29048345  0.61069369
   0.19143451  0.45176966  0.34497218
   0.43966414  0.28687524  0.12454405
   0.80864875  0.37503064  0.65491252
   0.18973280  0.95797191  0.69963242
   0.18899804  0.29389591  0.87564791
   0.18355577  0.12532358  0.65489442
   0.93361999  0.12511730  0.65492201
   0.30685825  0.20489666  0.21194374
   0.05862787  0.03740572  0.38904799
   0.19297747  0.11329848  0.16743879
   0.06278039  0.54175588  0.61085749
   0.94110399  0.28677502  0.25595990
   0.56309276  0.54117182  0.61071701
   0.93839002  0.95768450  0.56543847
   0.67936023  0.62300222  0.30013710
   0.93759733  0.62048279  0.43442301
   0.94423399  0.62353196  0.78844529
   0.56463778  0.70787470  0.69967909
   0.05843616  0.71269074  0.83315238
   0.92933076  0.12308146  0.30040328
   0.93975906  0.45793848  0.69962306
   0.44091377  0.78679198  0.25613326
   0.31902553  0.37325838  0.78841695
   0.43320133  0.45406883  0.21201934
   0.18828520  0.12211625  0.52121144
   0.81454228  0.70775040  0.69965583
   0.06330863  0.04111110  0.61076514
   0.55846588  0.21265102  0.83315909
   0.31363546  0.87228472  0.52132303
   0.69042266  0.28686534  0.12457832
   0.18244237  0.95471020  0.21203884
   0.68814923  0.29119976  0.61070416
   0.31319783  0.04124907  0.61080460
   0.94398807  0.12361146  0.78842365
   0.43908378  0.79391923  0.87565157
   0.81016280  0.04118560  0.74405707
   0.43819052  0.12192472  0.52133689
   0.18372172  0.62517293  0.65494137
   0.31466488  0.70788738  0.69964670
   0.93916200  0.28571788  0.12465963
   0.43781462  0.45563448  0.47866897
   0.06319724  0.70515220  0.47851313
   0.93803093  0.12050599  0.43437773
   0.42943273  0.12276541  0.30043901
   0.18813058  0.12027670  0.43449885
   0.56372186  0.04217914  0.87562216
   0.18861785  0.95720873  0.56528125
   0.69062908  0.78468107  0.12473857
   0.56334881  0.53091766  0.12435311
   0.30867748  0.03747501  0.38902844
   0.69266914  0.11335725  0.16719978
   0.80710760  0.20506496  0.21186108
   0.06579541  0.53622732  0.25615181
   0.56284969  0.70587374  0.47863189
   0.06335995  0.20739696  0.56550471
   0.55426162  0.37248533  0.30032877
   0.44130654  0.95205941  0.34494945
   0.18342488  0.96268187  0.83313265
   0.44225714  0.61200779  0.16672429
   0.93355749  0.45419607  0.21182877
   0.06285148  0.53136913  0.12444340
   0.81327846  0.37198361  0.52131929
   0.92931190  0.62289948  0.30036349
   0.31566614  0.03650147  0.25602746
   0.68816306  0.79134063  0.61084061
   0.18345795  0.46271229  0.83314011
   0.44224244  0.11199809  0.16676764
   0.31322084  0.37192544  0.52134172
   0.44417290  0.62344928  0.78843648
   0.06581548  0.03622922  0.25591393
   0.56359230  0.70753875  0.56534293
   0.93522315  0.29126926  0.74409516
   0.69383688  0.12349975  0.78846129
   0.18231826  0.45374528  0.21195682
   0.93358060  0.78752782  0.38904424
   0.68902415  0.29393097  0.87564759
   0.31874513  0.86270219  0.16677145
   0.43988571  0.45789536  0.69964286
   0.94166960  0.95226632  0.34507219
   0.68848606  0.62216284  0.52135659
   0.05862300  0.87498722  0.65488581
   0.06903207  0.87336212  0.78841546
   0.05854362  0.37519684  0.65489110
   0.68779215  0.45584136  0.47864685
   0.19103262  0.78651854  0.25618737
   0.43790355  0.12055007  0.43439880
   0.81441755  0.03282827  0.12454222
   0.93824445  0.62190380  0.52132761
   0.06279102  0.87043000  0.43445853
   0.81157080  0.53150827  0.12428291
   0.44138367  0.45191281  0.34497103
   0.81653206  0.20161223  0.34494033
   0.31647501  0.70187532  0.34495834
   0.68369714  0.12527252  0.65492464
   0.55398589  0.87224345  0.30044477
   0.06005825  0.54111615  0.74407454
   0.93331024  0.95418039  0.21194961
   0.80869902  0.70466866  0.21174693
   0.05442584  0.87287496  0.30027472
   0.17947970  0.12340061  0.30029569
   0.06637419  0.70193742  0.34498531
   0.81322836  0.04122170  0.61071146
   0.06313991  0.37051207  0.43441964
   0.56629083  0.20188118  0.34495817
   0.80421793  0.37272928  0.30036906
   0.43791774  0.95596303  0.47862003
   0.55855825  0.53750380  0.38907386
   0.06274729  0.20578261  0.47858672
   0.31895351  0.87326683  0.78842199
   0.93977678  0.95812608  0.69968447
   0.05422171  0.37231744  0.30041979
   0.68362334  0.62529034  0.65494824
   0.68836414  0.45796938  0.56542096
   0.43336306  0.95360650  0.21182149
   0.31280194  0.20589857  0.47861616
   0.43355496  0.12531146  0.65487970
   0.68824388  0.62046020  0.43439115
   0.81470286  0.20772988  0.69960258
   0.81273621  0.70583891  0.47865281
   0.81296039  0.87037871  0.43447078
   0.93772325  0.95589465  0.47855637
   0.56273217  0.20564642  0.47846280
   0.18810543  0.62079017  0.43430908
   0.31017042  0.04120556  0.74408764
   0.93361294  0.62525881  0.65492349
   0.55849733  0.71275681  0.83316450
   0.30423299  0.37245812  0.30036000
   0.55683288  0.70437067  0.21179133
   0.18797439  0.45596887  0.47860419
   0.31380550  0.04205024  0.87562284
   0.18984590  0.45799229  0.69961828
   0.81355484  0.54190763  0.87558284
   0.18365771  0.28785848  0.38907581
   0.43780713  0.62052107  0.43451695
   0.05733603  0.70478208  0.21184505
   0.56173218  0.03205312  0.12456324
   0.81848619  0.36253117  0.16716744
   0.80841958  0.71268610  0.83315204
   0.06897122  0.37334901  0.78841271
   0.43899372  0.29391324  0.87563758
   0.31309250  0.03266352  0.12469675
   0.68751615  0.12033738  0.43447837
   0.19136669  0.95191966  0.34497810
   0.05842407  0.21271354  0.83315892
   0.56322606  0.04104830  0.61071585
   0.68344853  0.45406818  0.21179784
   0.18515743  0.79092645  0.74406507
   0.17938651  0.62317026  0.30027227
   0.43393607  0.78746599  0.38903074
   0.44091842  0.28722994  0.25593614
   0.06358769  0.54190215  0.87557306
   0.56014008  0.04114523  0.74407416
   0.18906616  0.79389386  0.87565129
   0.93766503  0.45586247  0.47862431
   0.80850088  0.53760190  0.38907017
   0.81366837  0.20750609  0.56538038
   0.19422345  0.62337098  0.78843507
   0.05860499  0.53756775  0.38907213
   0.06473911  0.70789864  0.69962224
   0.31518685  0.53642113  0.25601151
   0.30843302  0.70415308  0.21185196
   0.56725668  0.86273841  0.16672322
   0.56009015  0.54112546  0.74405034
   0.69140644  0.45155131  0.34501946
   0.93903905  0.29396030  0.87563644
   0.56605985  0.03608088  0.25587104
   0.43938986  0.78837616  0.12473949
   0.31939021  0.36303553  0.16638391
   0.43823405  0.62196583  0.52133921
   0.56360293  0.37045819  0.43417503
   0.93809097  0.78734787  0.12458490
   0.69138602  0.78646760  0.25612625
   0.18783391  0.95585919  0.47857263
Direct configuration=     2
   0.06147072  0.03188563  0.12458286
   0.06319829  0.87197134  0.52129446
   0.19347639  0.12374338  0.78842254
   0.43370212  0.28763751  0.38913832
   0.30879934  0.71251088  0.83319898
   0.80884202  0.21253464  0.83320818
   0.18375328  0.78758931  0.38913191
   0.56324187  0.20727204  0.56544587
   0.06039927  0.04115283  0.74402932
   0.81327087  0.87225653  0.52137013
   0.18544466  0.29109502  0.74404601
   0.94069277  0.45207871  0.34495425
   0.93395266  0.28751581  0.38913647
   0.81369556  0.04227950  0.87553988
   0.18800812  0.79128824  0.61073963
   0.55893879  0.03743909  0.38913992
   0.93378328  0.96246689  0.83320514
   0.31346948  0.54218861  0.87553171
   0.68551153  0.29122305  0.74405238
   0.19248595  0.61345584  0.16664770
   0.81283648  0.20578706  0.47852041
   0.81267431  0.54164701  0.61077753
   0.31297840  0.87088548  0.43426299
   0.81495445  0.03582577  0.25599410
   0.69072745  0.95218480  0.34497507
   0.94169031  0.11272017  0.16680511
   0.93853152  0.12215984  0.52131001
   0.56552579  0.53655157  0.25602440
   0.68888027  0.79388265  0.87558973
   0.56760225  0.36374881  0.16676192
   0.43542131  0.79112339  0.74404499
   0.81335398  0.70741935  0.56544149
   0.56852026  0.87349536  0.78838069
   0.68854380  0.12219776  0.52135646
   0.19058830  0.28718099  0.25596954
   0.93376729  0.46242577  0.83319859
   0.06444158  0.20782533  0.69963519
   0.43962266  0.95795311  0.69968370
   0.30884718  0.21251892  0.83321845
   0.43398139  0.62530092  0.65489631
   0.31320018  0.54112090  0.61067990
   0.93859354  0.45753176  0.56546490
   0.68553017  0.79113007  0.74405264
   0.30899746  0.87513951  0.65489477
   0.68395763  0.78757044  0.38910373
   0.93545436  0.79114581  0.74406116
   0.06552425  0.20190229  0.34494693
   0.80901512  0.03734706  0.38906158
   0.44356539  0.12345855  0.78841362
   0.05883252  0.20471429  0.21190369
   0.06776896  0.36373263  0.16688529
   0.94039022  0.78666784  0.25612451
   0.56445991  0.20783337  0.69963197
   0.68952465  0.95803455  0.69963730
   0.68395566  0.28773327  0.38912810
   0.43854982  0.95735126  0.56553496
   0.81853164  0.37345138  0.78838499
   0.69017951  0.28678024  0.25601960
   0.18877639  0.45754149  0.56547420
   0.06638415  0.86302092  0.16683010
   0.18826046  0.29103682  0.61067619
   0.56573509  0.70279144  0.34497093
   0.31453111  0.20790975  0.69962813
   0.56344998  0.54217913  0.87552851
   0.06356807  0.70683786  0.56556861
   0.69372933  0.62359203  0.78841837
   0.30912327  0.53754153  0.38905475
   0.18804749  0.62208845  0.52140196
   0.56292398  0.87102557  0.43429351
   0.43816186  0.45769694  0.56541546
   0.43549962  0.29108190  0.74405272
   0.80506154  0.87266309  0.30034064
   0.81596334  0.70233313  0.34504530
   0.43377735  0.46249719  0.83320078
   0.68780658  0.95565607  0.47853580
   0.68966883  0.45788632  0.69962002
   0.56307033  0.87260090  0.52140069
   0.55900458  0.37502682  0.65490219
   0.80878554  0.87511008  0.65485356
   0.81260055  0.37063324  0.43443493
   0.81458452  0.53669615  0.25613752
   0.68380889  0.46250210  0.83320222
   0.18899225  0.78408647  0.12482279
   0.06361601  0.04215748  0.87554678
   0.30897854  0.37503453  0.65490190
   0.31572012  0.20206330  0.34489366
   0.81045541  0.54113843  0.74405445
   0.68379441  0.96247709  0.83319960
   0.55892769  0.87520386  0.65490157
   0.31303647  0.70713446  0.56553064
   0.31218566  0.53115151  0.12436652
   0.68334169  0.95460050  0.21210803
   0.31378751  0.20705932  0.56552135
   0.31043328  0.54111952  0.74404504
   0.68868472  0.95764818  0.56548719
   0.43809511  0.79093512  0.61063818
   0.69273638  0.61444226  0.16677661
   0.30505558  0.87271456  0.30029876
   0.31235706  0.70545972  0.47856152
   0.93823728  0.29112301  0.61064628
   0.43010793  0.62286372  0.30035978
   0.81828052  0.86299012  0.16678583
   0.55872774  0.20451677  0.21188698
   0.94259014  0.61401982  0.16679414
   0.93897062  0.79389230  0.87557136
   0.56857011  0.37333465  0.78837122
   0.06337829  0.37229859  0.52138099
   0.56350598  0.37212441  0.52133267
   0.68006557  0.12287548  0.30029140
   0.43376718  0.96250848  0.83319935
   0.18990075  0.28620774  0.12453212
   0.81853836  0.87359444  0.78837872
   0.31197442  0.37087294  0.43426610
   0.93784404  0.79154919  0.61074508
   0.43823898  0.29054986  0.61066799
   0.19086233  0.45200000  0.34500022
   0.43957541  0.28617030  0.12455055
   0.80895750  0.37498382  0.65490507
   0.18953784  0.95797699  0.69964050
   0.18886046  0.29380985  0.87558975
   0.18390561  0.12526079  0.65488895
   0.93394157  0.12507013  0.65491284
   0.30737767  0.20452310  0.21193808
   0.05893293  0.03735949  0.38911420
   0.19262387  0.11362250  0.16736701
   0.06274723  0.54164763  0.61078804
   0.94064702  0.28674154  0.25599750
   0.56294602  0.54116361  0.61067227
   0.93833383  0.95756562  0.56549318
   0.67996741  0.62274389  0.30018654
   0.93756649  0.62063580  0.43439115
   0.94372420  0.62368138  0.78841702
   0.56443388  0.70789477  0.69967827
   0.05882183  0.71247631  0.83319927
   0.92999125  0.12285608  0.30042111
   0.93955143  0.45789772  0.69963281
   0.44036690  0.78675029  0.25612673
   0.31853090  0.37342185  0.78838549
   0.43357028  0.45393620  0.21201138
   0.18816772  0.12232046  0.52127834
   0.81436285  0.70780098  0.69966202
   0.06320249  0.04112606  0.61072028
   0.55881616  0.21243841  0.83320553
   0.31357522  0.87245146  0.52138036
   0.69045684  0.28624611  0.12462597
   0.18290624  0.95456967  0.21205312
   0.68804634  0.29119282  0.61066467
   0.31306759  0.04117512  0.61075984
   0.94351735  0.12375431  0.78840093
   0.43892913  0.79385120  0.87559294
   0.81047183  0.04119655  0.74402433
   0.43813659  0.12209506  0.52138483
   0.18403603  0.62512207  0.65493310
   0.31447539  0.70790229  0.69965122
   0.93918056  0.28526916  0.12470681
   0.43787529  0.45550085  0.47857791
   0.06308603  0.70506055  0.47844838
   0.93798650  0.12049688  0.43433811
   0.43004458  0.12255308  0.30044101
   0.18806035  0.12041192  0.43444323
   0.56358511  0.04240148  0.87556031
   0.18852022  0.95715159  0.56530544
   0.69053225  0.78406412  0.12474270
   0.56353869  0.53134323  0.12441317
   0.30889351  0.03741571  0.38909865
   0.69233049  0.11361417  0.16715449
   0.80752750  0.20478479  0.21186256
   0.06533569  0.53624766  0.25614822
   0.56282396  0.70571175  0.47853961
   0.06330440  0.20736282  0.56554678
   0.55490327  0.37232964  0.30033998
   0.44074837  0.95229431  0.34498037
   0.18378260  0.96247314  0.83318908
   0.44206606  0.61253476  0.16671719
   0.93383343  0.45404410  0.21185454
   0.06317503  0.53168562  0.12449799
   0.81325161  0.37209200  0.52138337
   0.92996171  0.62270781  0.30038630
   0.31524611  0.03652682  0.25604369
   0.68806590  0.79132336  0.61079115
   0.18380503  0.46246507  0.83319276
   0.44195186  0.11234319  0.16675668
   0.31305133  0.37202630  0.52141006
   0.44366571  0.62360955  0.78840992
   0.06534706  0.03634489  0.25594509
   0.56355016  0.70746546  0.56539107
   0.93552609  0.29125853  0.74405817
   0.69339344  0.12366101  0.78842722
   0.18277566  0.45380477  0.21198182
   0.93385307  0.78747305  0.38910450
   0.68888493  0.29384327  0.87559071
   0.31851915  0.86300231  0.16674858
   0.43965754  0.45787731  0.69964607
   0.94108858  0.95239130  0.34508781
   0.68849707  0.62229315  0.52142049
   0.05896215  0.87497122  0.65487904
   0.06855659  0.87354299  0.78838640
   0.05888928  0.37512499  0.65488878
   0.68774845  0.45575387  0.47856329
   0.19057725  0.78646141  0.25618320
   0.43778228  0.12064168  0.43435923
   0.81426802  0.03322621  0.12459249
   0.93825035  0.62217767  0.52138290
   0.06272101  0.87051682  0.43440974
   0.81175763  0.53177748  0.12435914
   0.44085040  0.45215597  0.34499013
   0.81598317  0.20180774  0.34495950
   0.31590640  0.70208448  0.34498147
   0.68399218  0.12521982  0.65491448
   0.55465656  0.87218128  0.30045266
   0.06038069  0.54112430  0.74404218
   0.93358121  0.95408019  0.21195204
   0.80892744  0.70440179  0.21176338
   0.05506978  0.87270695  0.30030530
   0.18013825  0.12307716  0.30031671
   0.06581396  0.70215348  0.34500331
   0.81312268  0.04122437  0.61067171
   0.06304675  0.37059867  0.43439131
   0.56573674  0.20208162  0.34497318
   0.80487629  0.37252039  0.30037005
   0.43795874  0.95576225  0.47853471
   0.55884677  0.53755934  0.38913034
   0.06263831  0.20569139  0.47849520
   0.31846755  0.87345982  0.78839162
   0.93956183  0.95809619  0.69969457
   0.05486493  0.37226317  0.30041719
   0.68392053  0.62521723  0.65493860
   0.68828352  0.45783777  0.56547096
   0.43370722  0.95358730  0.21184266
   0.31296075  0.20578642  0.47851231
   0.43388254  0.12525889  0.65487054
   0.68819204  0.62057558  0.43434298
   0.81450759  0.20774188  0.69961538
   0.81279912  0.70568016  0.47856046
   0.81301512  0.87049019  0.43442951
   0.93764400  0.95576155  0.47847038
   0.56268414  0.20556983  0.47841312
   0.18801586  0.62095032  0.43427713
   0.31047661  0.04121559  0.74405240
   0.93392194  0.62518525  0.65491584
   0.55884151  0.71252466  0.83320948
   0.30492137  0.37234518  0.30036245
   0.55736807  0.70416779  0.21179536
   0.18797758  0.45584997  0.47853403
   0.31365593  0.04228611  0.87556090
   0.18962485  0.45794165  0.69962688
   0.81345399  0.54214602  0.87552909
   0.18393034  0.28778291  0.38912391
   0.43777201  0.62064533  0.43450884
   0.05783659  0.70445829  0.21184971
   0.56202731  0.03231250  0.12459402
   0.81820422  0.36292435  0.16709179
   0.80879593  0.71247663  0.83319841
   0.06849934  0.37350490  0.78838288
   0.43884909  0.29382927  0.87558282
   0.31314475  0.03309798  0.12473430
   0.68760416  0.12041218  0.43443101
   0.19080963  0.95212380  0.34500156
   0.05880386  0.21248135  0.83320371
   0.56310448  0.04103023  0.61067951
   0.68370721  0.45401173  0.21183781
   0.18546648  0.79101593  0.74403561
   0.18000236  0.62296044  0.30029913
   0.43420466  0.78741722  0.38908163
   0.44034722  0.28712437  0.25597930
   0.06348748  0.54214926  0.87551925
   0.56044075  0.04115727  0.74403984
   0.18892410  0.79382536  0.87559198
   0.93761969  0.45569181  0.47854295
   0.80878977  0.53759865  0.38913429
   0.81359081  0.20742640  0.56542111
   0.19370665  0.62354383  0.78840814
   0.05886020  0.53760574  0.38913108
   0.06451222  0.70790421  0.69963184
   0.31479956  0.53638752  0.25603589
   0.30866325  0.70390861  0.21185874
   0.56699482  0.86310551  0.16671446
   0.56041237  0.54113192  0.74402352
   0.69082401  0.45183090  0.34504143
   0.93891551  0.29386577  0.87558174
   0.56545251  0.03616217  0.25591180
   0.43940430  0.78772238  0.12477832
   0.31892944  0.36322509  0.16635829
   0.43825983  0.62222742  0.52137558
   0.56349268  0.37051296  0.43415407
   0.93829058  0.78680321  0.12463955
   0.69088835  0.78643219  0.25611978
   0.18780049  0.95565084  0.47851362
Direct configuration=     3
   0.06280203  0.03284522  0.12476556
   0.06314524  0.87241652  0.52146834
   0.19204677  0.12416692  0.78834004
   0.43457073  0.28750521  0.38929581
   0.30989535  0.71184635  0.83334500
   0.80994749  0.21182309  0.83334450
   0.18476263  0.78764535  0.38933306
   0.56320960  0.20703747  0.56554154
   0.06132160  0.04123115  0.74392285
   0.81321237  0.87279598  0.52154895
   0.18639935  0.29120939  0.74394167
   0.93909629  0.45278001  0.34505264
   0.93474354  0.28734707  0.38931954
   0.81327914  0.04304189  0.87537042
   0.18763989  0.79130305  0.61063231
   0.55985825  0.03741902  0.38934269
   0.93489187  0.96187989  0.83334655
   0.31309020  0.54288070  0.87536521
   0.68641792  0.29122398  0.74393910
   0.19135288  0.61417034  0.16657392
   0.81293510  0.20542253  0.47823132
   0.81259010  0.54123087  0.61058891
   0.31263886  0.87095412  0.43413707
   0.81383608  0.03645918  0.25604255
   0.68912722  0.95281601  0.34507116
   0.94133612  0.11345989  0.16670717
   0.93851075  0.12261333  0.52149537
   0.56373703  0.53647815  0.25603978
   0.68847604  0.79364659  0.87541716
   0.56705660  0.36475876  0.16669760
   0.43637753  0.79135124  0.74395038
   0.81320081  0.70724933  0.56557356
   0.56706252  0.87402568  0.78828818
   0.68854589  0.12277964  0.52154627
   0.18908331  0.28698256  0.25606685
   0.93488011  0.46174330  0.83334933
   0.06383390  0.20777466  0.69966231
   0.43891848  0.95792241  0.69968600
   0.30988506  0.21180696  0.83335917
   0.43489724  0.62502632  0.65485624
   0.31291991  0.54107806  0.61053018
   0.93826269  0.45719218  0.56561270
   0.68642797  0.79133019  0.74395310
   0.31001722  0.87508998  0.65489006
   0.68479878  0.78753816  0.38929432
   0.93638750  0.79132603  0.74395176
   0.06404860  0.20267478  0.34503978
   0.80994949  0.03732316  0.38928918
   0.44203440  0.12406471  0.78833118
   0.05976045  0.20380812  0.21188184
   0.06697886  0.36447242  0.16675009
   0.93931051  0.78653519  0.25612654
   0.56386399  0.20777828  0.69964932
   0.68884871  0.95796749  0.69965338
   0.68485840  0.28748733  0.38930498
   0.43841125  0.95694685  0.56571071
   0.81708283  0.37394065  0.78828843
   0.68887992  0.28681106  0.25604895
   0.18852171  0.45713916  0.56563115
   0.06554599  0.86429789  0.16672793
   0.18785369  0.29106210  0.61055053
   0.56411765  0.70325208  0.34502845
   0.31387845  0.20781867  0.69965168
   0.56308929  0.54287533  0.87536315
   0.06324974  0.70685566  0.56567461
   0.69216072  0.62409905  0.78831798
   0.31003643  0.53771440  0.38923403
   0.18771907  0.62260669  0.52154974
   0.56270987  0.87102900  0.43419540
   0.43816654  0.45695060  0.56560502
   0.43639055  0.29113556  0.74395127
   0.80700768  0.87200755  0.30041989
   0.81423890  0.70288300  0.34516378
   0.43478811  0.46177839  0.83335327
   0.68790555  0.95496840  0.47827011
   0.68896948  0.45781019  0.69965556
   0.56318498  0.87314646  0.52156749
   0.55989710  0.37491681  0.65487986
   0.80973273  0.87501352  0.65485346
   0.81282246  0.37087960  0.43431144
   0.81362518  0.53638421  0.25614090
   0.68482906  0.46176323  0.83335381
   0.18917709  0.78238851  0.12485204
   0.06328493  0.04297155  0.87536532
   0.30998276  0.37490662  0.65488543
   0.31397393  0.20261692  0.34494226
   0.81138937  0.54117274  0.74394848
   0.68486503  0.96185750  0.83336140
   0.55983688  0.87511230  0.65489655
   0.31292955  0.70707281  0.56571784
   0.31244140  0.53230856  0.12442368
   0.68439864  0.95433371  0.21210538
   0.31343969  0.20709643  0.56565426
   0.31137321  0.54111784  0.74395081
   0.68831979  0.95718904  0.56560686
   0.43767992  0.79094883  0.61052706
   0.69163673  0.61513820  0.16659298
   0.30690318  0.87221447  0.30035344
   0.31256381  0.70501493  0.47827086
   0.93794710  0.29119743  0.61052305
   0.43206583  0.62209215  0.30037508
   0.81774879  0.86426685  0.16672512
   0.55953390  0.20376894  0.21189303
   0.94157812  0.61517097  0.16670186
   0.93861272  0.79362154  0.87540940
   0.56705353  0.37392366  0.78828308
   0.06341742  0.37248316  0.52155679
   0.56369978  0.37252380  0.52148877
   0.68183965  0.12198446  0.30033613
   0.43476698  0.96185773  0.83336443
   0.18980508  0.28425214  0.12464712
   0.81706777  0.87411628  0.78829229
   0.31211445  0.37088459  0.43420132
   0.93777926  0.79132505  0.61056666
   0.43779791  0.29074910  0.61059091
   0.18914579  0.45269104  0.34508434
   0.43930924  0.28405547  0.12457005
   0.80988374  0.37484337  0.65488271
   0.18895294  0.95799224  0.69966476
   0.18844770  0.29355166  0.87541528
   0.18495510  0.12507241  0.65487255
   0.93490630  0.12492864  0.65488531
   0.30893592  0.20340242  0.21192110
   0.05984811  0.03722078  0.38931281
   0.19156310  0.11459454  0.16715167
   0.06264775  0.54132288  0.61057970
   0.93927609  0.28664108  0.25611027
   0.56250580  0.54113895  0.61053805
   0.93816523  0.95720895  0.56565730
   0.68178895  0.62196891  0.30033486
   0.93747398  0.62109484  0.43429557
   0.94219482  0.62412966  0.78833220
   0.56382219  0.70795497  0.69967579
   0.05997881  0.71183302  0.83333995
   0.93197271  0.12217992  0.30047459
   0.93892856  0.45777542  0.69966206
   0.43872629  0.78662524  0.25610713
   0.31704702  0.37391224  0.78829110
   0.43467714  0.45353830  0.21198748
   0.18781530  0.12293308  0.52147903
   0.81382454  0.70795271  0.69968058
   0.06288406  0.04117092  0.61058571
   0.55986701  0.21180056  0.83334484
   0.31339449  0.87295167  0.52155234
   0.69055936  0.28438842  0.12476894
   0.18429783  0.95414807  0.21209593
   0.68773765  0.29117200  0.61054619
   0.31267686  0.04095325  0.61062556
   0.94210517  0.12418284  0.78833275
   0.43846518  0.79364713  0.87541705
   0.81139894  0.04122939  0.74392612
   0.43797479  0.12260607  0.52152867
   0.18497895  0.62496948  0.65490827
   0.31390692  0.70794702  0.69966478
   0.93923623  0.28392299  0.12484837
   0.43805731  0.45509998  0.47830473
   0.06275238  0.70478560  0.47825413
   0.93785322  0.12046955  0.43421927
   0.43188014  0.12191609  0.30044704
   0.18784968  0.12081759  0.43427638
   0.56317485  0.04306851  0.87537477
   0.18822732  0.95698020  0.56537803
   0.69024177  0.78221330  0.12475508
   0.56410832  0.53261993  0.12459337
   0.30954161  0.03723781  0.38930928
   0.69131456  0.11438492  0.16701862
   0.80878720  0.20394425  0.21186698
   0.06395654  0.53630870  0.25613747
   0.56274678  0.70522577  0.47826275
   0.06313774  0.20726039  0.56567300
   0.55682823  0.37186258  0.30037362
   0.43907383  0.95299899  0.34507314
   0.18485576  0.96184697  0.83335838
   0.44149280  0.61411570  0.16669589
   0.93466125  0.45358818  0.21193185
   0.06414569  0.53263507  0.12466176
   0.81317109  0.37241716  0.52157562
   0.93191113  0.62213280  0.30045473
   0.31398603  0.03660287  0.25609240
   0.68777445  0.79127154  0.61064277
   0.18484626  0.46172344  0.83335070
   0.44108009  0.11337851  0.16672381
   0.31254280  0.37232889  0.52161508
   0.44214415  0.62409035  0.78833025
   0.06394178  0.03669188  0.25603857
   0.56342376  0.70724559  0.56553550
   0.93643489  0.29122634  0.74394719
   0.69206313  0.12414480  0.78832500
   0.18414785  0.45398323  0.21205680
   0.93467049  0.78730875  0.38928529
   0.68846726  0.29358014  0.87542010
   0.31784123  0.86390265  0.16667997
   0.43897304  0.45782318  0.69965569
   0.93934549  0.95276624  0.34513468
   0.68853008  0.62268408  0.52161219
   0.05997960  0.87492320  0.65485874
   0.06713016  0.87408558  0.78829922
   0.05992627  0.37490943  0.65488182
   0.68761733  0.45549140  0.47831258
   0.18921115  0.78629002  0.25617068
   0.43741847  0.12091654  0.43424051
   0.81381944  0.03442002  0.12474330
   0.93826805  0.62299926  0.52154876
   0.06251096  0.87077729  0.43426336
   0.81231812  0.53258511  0.12458783
   0.43925060  0.45288545  0.34504746