 288 288   0   0
  0.1280206E+02  0.9726678E-09  0.8423550E-09  0.4500000E-08  0.2500000E-15
  1.000000000000000E-004
  CAR 
 unknown system                          
      6.76649700     -6.05051177  301      4.29857367      1.00000000
     -6.051  0.0000E+00  0.0000E+00
     -6.008  0.0000E+00  0.0000E+00
     -5.965  0.0000E+00  0.0000E+00
     -5.922  0.0000E+00  0.0000E+00
     -5.880  0.0000E+00  0.0000E+00
     -5.837  0.0000E+00  0.0000E+00
     -5.794  0.0000E+00  0.0000E+00
     -5.751  0.0000E+00  0.0000E+00
     -5.709  0.0000E+00  0.0000E+00
     -5.666  0.0000E+00  0.0000E+00
     -5.623  0.0000E+00  0.0000E+00
     -5.581  0.0000E+00  0.0000E+00
     -5.538  0.0000E+00  0.0000E+00
     -5.495  0.0000E+00  0.0000E+00
     -5.452  0.0000E+00  0.0000E+00
     -5.410  0.1624E-15  0.6939E-17
     -5.367  0.3898E-14  0.1735E-15
     -5.324  0.8371E-13  0.3750E-14
     -5.281  0.1526E-11  0.6897E-13
     -5.239  0.2372E-10  0.1082E-11
     -5.196  0.3139E-09  0.1449E-10
     -5.153  0.3540E-08  0.1657E-09
     -5.111  0.3402E-07  0.1619E-08
     -5.068  0.2788E-06  0.1353E-07
     -5.025  0.1950E-05  0.9682E-07
     -4.982  0.1164E-04  0.5942E-06
     -4.940  0.5947E-04  0.3135E-05
     -4.897  0.2604E-03  0.1426E-04
     -4.854  0.9806E-03  0.5615E-04
     -4.812  0.3191E-02  0.1925E-03
     -4.769  0.9033E-02  0.5784E-03
     -4.726  0.2245E-01  0.1538E-02
     -4.683  0.4953E-01  0.3654E-02
     -4.641  0.9827E-01  0.7852E-02
     -4.598  0.1775E+00  0.1544E-01
     -4.555  0.2952E+00  0.2805E-01
     -4.512  0.4552E+00  0.4750E-01
     -4.470  0.6550E+00  0.7548E-01
     -4.427  0.8834E+00  0.1132E+00
     -4.384  0.1122E+01  0.1611E+00
     -4.342  0.1346E+01  0.2187E+00
     -4.299  0.1535E+01  0.2842E+00
     -4.256  0.1674E+01  0.3558E+00
     -4.213  0.1765E+01  0.4312E+00
     -4.171  0.1826E+01  0.5092E+00
     -4.128  0.1886E+01  0.5898E+00
     -4.085  0.1980E+01  0.6744E+00
     -4.043  0.2130E+01  0.7654E+00
     -4.000  0.2341E+01  0.8654E+00
     -3.957  0.2593E+01  0.9762E+00
     -3.914  0.2844E+01  0.1098E+01
     -3.872  0.3048E+01  0.1228E+01
     -3.829  0.3168E+01  0.1363E+01
     -3.786  0.3194E+01  0.1500E+01
     -3.743  0.3147E+01  0.1634E+01
     -3.701  0.3076E+01  0.1766E+01
     -3.658  0.3038E+01  0.1895E+01
     -3.615  0.3080E+01  0.2027E+01
     -3.573  0.3219E+01  0.2165E+01
     -3.530  0.3436E+01  0.2311E+01
     -3.487  0.3686E+01  0.2469E+01
     -3.444  0.3919E+01  0.2636E+01
     -3.402  0.4089E+01  0.2811E+01
     -3.359  0.4178E+01  0.2989E+01
     -3.316  0.4195E+01  0.3169E+01
     -3.273  0.4172E+01  0.3347E+01
     -3.231  0.4154E+01  0.3524E+01
     -3.188  0.4184E+01  0.3703E+01
     -3.145  0.4288E+01  0.3886E+01
     -3.103  0.4466E+01  0.4077E+01
     -3.060  0.4692E+01  0.4278E+01
     -3.017  0.4927E+01  0.4488E+01
     -2.974  0.5130E+01  0.4707E+01
     -2.932  0.5270E+01  0.4932E+01
     -2.889  0.5340E+01  0.5161E+01
     -2.846  0.5363E+01  0.5390E+01
     -2.804  0.5383E+01  0.5620E+01
     -2.761  0.5443E+01  0.5852E+01
     -2.718  0.5549E+01  0.6089E+01
     -2.675  0.5662E+01  0.6331E+01
     -2.633  0.5712E+01  0.6575E+01
     -2.590  0.5655E+01  0.6817E+01
     -2.547  0.5521E+01  0.7053E+01
     -2.504  0.5414E+01  0.7284E+01
     -2.462  0.5467E+01  0.7518E+01
     -2.419  0.5771E+01  0.7764E+01
     -2.376  0.6309E+01  0.8034E+01
     -2.334  0.6943E+01  0.8330E+01
     -2.291  0.7461E+01  0.8649E+01
     -2.248  0.7680E+01  0.8977E+01
     -2.205  0.7547E+01  0.9300E+01
     -2.163  0.7185E+01  0.9607E+01
     -2.120  0.6832E+01  0.9898E+01
     -2.077  0.6714E+01  0.1019E+02
     -2.035  0.6938E+01  0.1048E+02
     -1.992  0.7447E+01  0.1080E+02
     -1.949  0.8066E+01  0.1114E+02
     -1.906  0.8587E+01  0.1151E+02
     -1.864  0.8867E+01  0.1189E+02
     -1.821  0.8894E+01  0.1227E+02
     -1.778  0.8778E+01  0.1265E+02
     -1.735  0.8676E+01  0.1302E+02
     -1.693  0.8693E+01  0.1339E+02
     -1.650  0.8843E+01  0.1377E+02
     -1.607  0.9079E+01  0.1415E+02
     -1.565  0.9346E+01  0.1455E+02
     -1.522  0.9620E+01  0.1496E+02
     -1.479  0.9899E+01  0.1539E+02
     -1.436  0.1017E+02  0.1582E+02
     -1.394  0.1038E+02  0.1626E+02
     -1.351  0.1053E+02  0.1671E+02
     -1.308  0.1065E+02  0.1717E+02
     -1.265  0.1092E+02  0.1764E+02
     -1.223  0.1151E+02  0.1813E+02
     -1.180  0.1248E+02  0.1866E+02
     -1.137  0.1367E+02  0.1924E+02
     -1.095  0.1474E+02  0.1987E+02
     -1.052  0.1539E+02  0.2053E+02
     -1.009  0.1554E+02  0.2120E+02
     -0.966  0.1545E+02  0.2186E+02
     -0.924  0.1557E+02  0.2252E+02
     -0.881  0.1624E+02  0.2321E+02
     -0.838  0.1761E+02  0.2397E+02
     -0.796  0.1953E+02  0.2480E+02
     -0.753  0.2188E+02  0.2574E+02
     -0.710  0.2465E+02  0.2679E+02
     -0.667  0.2802E+02  0.2799E+02
     -0.625  0.3210E+02  0.2936E+02
     -0.582  0.3670E+02  0.3093E+02
     -0.539  0.4131E+02  0.3269E+02
     -0.496  0.4533E+02  0.3463E+02
     -0.454  0.4849E+02  0.3670E+02
     -0.411  0.5085E+02  0.3887E+02
     -0.368  0.5270E+02  0.4112E+02
     -0.326  0.5428E+02  0.4344E+02
     -0.283  0.5564E+02  0.4582E+02
     -0.240  0.5668E+02  0.4824E+02
     -0.197  0.5730E+02  0.5069E+02
     -0.155  0.5753E+02  0.5315E+02
     -0.112  0.5755E+02  0.5560E+02
     -0.069  0.5762E+02  0.5807E+02
     -0.027  0.5797E+02  0.6054E+02
      0.016  0.5873E+02  0.6305E+02
      0.059  0.6006E+02  0.6562E+02
      0.102  0.6214E+02  0.6827E+02
      0.144  0.6500E+02  0.7105E+02
      0.187  0.6847E+02  0.7398E+02
      0.230  0.7216E+02  0.7706E+02
      0.273  0.7567E+02  0.8029E+02
      0.315  0.7874E+02  0.8366E+02
      0.358  0.8129E+02  0.8713E+02
      0.401  0.8336E+02  0.9069E+02
      0.443  0.8498E+02  0.9432E+02
      0.486  0.8609E+02  0.9800E+02
      0.529  0.8665E+02  0.1017E+03
      0.572  0.8667E+02  0.1054E+03
      0.614  0.8627E+02  0.1091E+03
      0.657  0.8556E+02  0.1127E+03
      0.700  0.8457E+02  0.1164E+03
      0.743  0.8319E+02  0.1199E+03
      0.785  0.8143E+02  0.1234E+03
      0.828  0.7953E+02  0.1268E+03
      0.871  0.7791E+02  0.1301E+03
      0.913  0.7690E+02  0.1334E+03
      0.956  0.7651E+02  0.1367E+03
      0.999  0.7643E+02  0.1399E+03
      1.042  0.7623E+02  0.1432E+03
      1.084  0.7562E+02  0.1464E+03
      1.127  0.7466E+02  0.1496E+03
      1.170  0.7369E+02  0.1528E+03
      1.212  0.7316E+02  0.1559E+03
      1.255  0.7326E+02  0.1590E+03
      1.298  0.7370E+02  0.1622E+03
      1.341  0.7388E+02  0.1653E+03
      1.383  0.7324E+02  0.1685E+03
      1.426  0.7172E+02  0.1715E+03
      1.469  0.6982E+02  0.1745E+03
      1.512  0.6824E+02  0.1774E+03
      1.554  0.6756E+02  0.1803E+03
      1.597  0.6797E+02  0.1832E+03
      1.640  0.6935E+02  0.1862E+03
      1.682  0.7142E+02  0.1892E+03
      1.725  0.7386E+02  0.1924E+03
      1.768  0.7638E+02  0.1956E+03
      1.811  0.7879E+02  0.1990E+03
      1.853  0.8099E+02  0.2025E+03
      1.896  0.8293E+02  0.2060E+03
      1.939  0.8467E+02  0.2096E+03
      1.981  0.8629E+02  0.2133E+03
      2.024  0.8786E+02  0.2171E+03
      2.067  0.8944E+02  0.2209E+03
      2.110  0.9104E+02  0.2248E+03
      2.152  0.9264E+02  0.2287E+03
      2.195  0.9426E+02  0.2328E+03
      2.238  0.9601E+02  0.2369E+03
      2.281  0.9814E+02  0.2411E+03
      2.323  0.1009E+03  0.2454E+03
      2.366  0.1045E+03  0.2498E+03
      2.409  0.1087E+03  0.2545E+03
      2.451  0.1132E+03  0.2593E+03
      2.494  0.1176E+03  0.2643E+03
      2.537  0.1216E+03  0.2695E+03
      2.580  0.1250E+03  0.2749E+03
      2.622  0.1275E+03  0.2803E+03
      2.665  0.1291E+03  0.2858E+03
      2.708  0.1300E+03  0.2914E+03
      2.751  0.1307E+03  0.2970E+03
      2.793  0.1318E+03  0.3026E+03
      2.836  0.1339E+03  0.3083E+03
      2.879  0.1370E+03  0.3142E+03
      2.921  0.1404E+03  0.3202E+03
      2.964  0.1425E+03  0.3263E+03
      3.007  0.1417E+03  0.3323E+03
      3.050  0.1372E+03  0.3382E+03
      3.092  0.1293E+03  0.3437E+03
      3.135  0.1197E+03  0.3488E+03
      3.178  0.1100E+03  0.3535E+03
      3.220  0.1020E+03  0.3579E+03
      3.263  0.9614E+02  0.3620E+03
      3.306  0.9260E+02  0.3659E+03
      3.349  0.9092E+02  0.3698E+03
      3.391  0.9040E+02  0.3737E+03
      3.434  0.9021E+02  0.3775E+03
      3.477  0.8956E+02  0.3814E+03
      3.520  0.8804E+02  0.3851E+03
      3.562  0.8587E+02  0.3888E+03
      3.605  0.8384E+02  0.3924E+03
      3.648  0.8291E+02  0.3959E+03
      3.690  0.8364E+02  0.3995E+03
      3.733  0.8595E+02  0.4032E+03
      3.776  0.8918E+02  0.4070E+03
      3.819  0.9253E+02  0.4109E+03
      3.861  0.9549E+02  0.4150E+03
      3.904  0.9790E+02  0.4192E+03
      3.947  0.9986E+02  0.4234E+03
      3.989  0.1015E+03  0.4278E+03
      4.032  0.1027E+03  0.4322E+03
      4.075  0.1035E+03  0.4366E+03
      4.118  0.1037E+03  0.4410E+03
      4.160  0.1033E+03  0.4454E+03
      4.203  0.1023E+03  0.4498E+03
      4.246  0.1011E+03  0.4541E+03
      4.289  0.1000E+03  0.4584E+03
      4.331  0.9939E+02  0.4626E+03
      4.374  0.9933E+02  0.4669E+03
      4.417  0.9975E+02  0.4712E+03
      4.459  0.1003E+03  0.4754E+03
      4.502  0.1006E+03  0.4797E+03
      4.545  0.1003E+03  0.4840E+03
      4.588  0.9952E+02  0.4883E+03
      4.630  0.9865E+02  0.4925E+03
      4.673  0.9828E+02  0.4967E+03
      4.716  0.9890E+02  0.5009E+03
      4.758  0.1007E+03  0.5052E+03
      4.801  0.1033E+03  0.5096E+03
      4.844  0.1064E+03  0.5142E+03
      4.887  0.1094E+03  0.5188E+03
      4.929  0.1118E+03  0.5236E+03
      4.972  0.1130E+03  0.5285E+03
      5.015  0.1121E+03  0.5332E+03
      5.058  0.1079E+03  0.5378E+03
      5.100  0.9948E+02  0.5421E+03
      5.143  0.8667E+02  0.5458E+03
      5.186  0.7034E+02  0.5488E+03
      5.228  0.5248E+02  0.5510E+03
      5.271  0.3558E+02  0.5526E+03
      5.314  0.2169E+02  0.5535E+03
      5.357  0.1180E+02  0.5540E+03
      5.399  0.5684E+01  0.5542E+03
      5.442  0.2413E+01  0.5543E+03
      5.485  0.8988E+00  0.5544E+03
      5.528  0.2927E+00  0.5544E+03
      5.570  0.8309E-01  0.5544E+03
      5.613  0.2052E-01  0.5544E+03
      5.656  0.4399E-02  0.5544E+03
      5.698  0.8174E-03  0.5544E+03
      5.741  0.1315E-03  0.5544E+03
      5.784  0.1829E-04  0.5544E+03
      5.827  0.2198E-05  0.5544E+03
      5.869  0.2279E-06  0.5544E+03
      5.912  0.2037E-07  0.5544E+03
      5.955  0.1569E-08  0.5544E+03
      5.997  0.1040E-09  0.5544E+03
      6.040  0.5932E-11  0.5544E+03
      6.083  0.2905E-12  0.5544E+03
      6.126  0.1124E-13  0.5544E+03
      6.168  0.1949E-15  0.5544E+03
      6.211  0.0000E+00  0.5544E+03
      6.254  0.0000E+00  0.5544E+03
      6.297  0.0000E+00  0.5544E+03
      6.339  0.0000E+00  0.5544E+03
      6.382  0.0000E+00  0.5544E+03
      6.425  0.0000E+00  0.5544E+03
      6.467  0.0000E+00  0.5544E+03
      6.510  0.0000E+00  0.5544E+03
      6.553  0.0000E+00  0.5544E+03
      6.596  0.0000E+00  0.5544E+03
      6.638  0.0000E+00  0.5544E+03
      6.681  0.0000E+00  0.5544E+03
      6.724  0.0000E+00  0.5544E+03
      6.766  0.0000E+00  0.5544E+03
