       N       E                     dE             d eps       ncg     rms          rms(c)
DAV:   1     0.292376256961E+05    0.29238E+05   -0.86596E+05 27944   0.197E+03
DAV:   2     0.119803757271E+04   -0.28040E+05   -0.27426E+05 27720   0.605E+02
DAV:   3    -0.194093479020E+04   -0.31390E+04   -0.27272E+04 39102   0.280E+02
DAV:   4    -0.261102201181E+04   -0.67009E+03   -0.61028E+03 50946   0.976E+01
DAV:   5    -0.273118042705E+04   -0.12016E+03   -0.11253E+03 48370   0.397E+01    0.203E+02
RMM:   6    -0.625698807190E+04   -0.35258E+04   -0.13340E+04 48562   0.258E+02    0.693E+02
RMM:   7    -0.438502320638E+04    0.18720E+04   -0.39973E+03 49442   0.104E+02    0.424E+02
RMM:   8    -0.773586156216E+04   -0.33508E+04   -0.14961E+04 45305   0.298E+02    0.855E+02
RMM:   9    -0.830579097240E+04   -0.56993E+03   -0.12315E+04 49386   0.147E+02    0.776E+02
RMM:  10    -0.141908714927E+05   -0.58851E+04   -0.16630E+04 46424   0.281E+02    0.922E+02
RMM:  11    -0.123411190219E+05    0.18498E+04   -0.11222E+04 46365   0.157E+02    0.854E+02
RMM:  12    -0.117210338346E+05    0.62009E+03   -0.45913E+03 41808   0.119E+02    0.671E+02
RMM:  13    -0.547409280511E+04    0.62469E+04   -0.96569E+03 36877   0.273E+02    0.554E+02
RMM:  14    -0.486568610916E+04    0.60841E+03   -0.34437E+03 48206   0.109E+02    0.488E+02
RMM:  15    -0.606358975349E+04   -0.11979E+04   -0.38670E+03 39745   0.132E+02    0.457E+02
RMM:  16    -0.463941664201E+04    0.14242E+04   -0.31907E+03 44447   0.706E+01    0.424E+02
RMM:  17    -0.326512726728E+04    0.13743E+04   -0.15426E+03 32788   0.649E+01    0.339E+02
RMM:  18    -0.333030672205E+04   -0.65179E+02   -0.16491E+03 38828   0.451E+01    0.313E+02
RMM:  19    -0.325019775506E+04    0.80109E+02   -0.19526E+03 42118   0.583E+01    0.298E+02
RMM:  20    -0.296263143024E+04    0.28757E+03   -0.15729E+03 46812   0.439E+01    0.288E+02
RMM:  21    -0.279935721124E+04    0.16327E+03   -0.10703E+03 41468   0.315E+01    0.235E+02
RMM:  22    -0.260796890229E+04    0.19139E+03   -0.68864E+02 42374   0.223E+01    0.188E+02
RMM:  23    -0.254748048371E+04    0.60488E+02   -0.45656E+02 39058   0.183E+01    0.173E+02
RMM:  24    -0.247599505487E+04    0.71485E+02   -0.24084E+02 39666   0.124E+01    0.155E+02
RMM:  25    -0.240988310393E+04    0.66112E+02   -0.67783E+01 28054   0.161E+01    0.135E+02
RMM:  26    -0.242514706675E+04   -0.15264E+02   -0.41371E+02 36438   0.234E+01    0.108E+02
RMM:  27    -0.238931968251E+04    0.35827E+02   -0.14064E+02 31337   0.172E+01    0.105E+02
RMM:  28    -0.236844466748E+04    0.20875E+02   -0.12020E+02 42228   0.764E+00    0.894E+01
RMM:  29    -0.236295810546E+04    0.54866E+01   -0.44680E+01 37686   0.560E+00    0.851E+01
RMM:  30    -0.234678658057E+04    0.16172E+02   -0.22980E+01 40050   0.416E+00    0.698E+01
RMM:  31    -0.233793451979E+04    0.88521E+01   -0.13332E+01 30877   0.570E+00    0.584E+01
RMM:  32    -0.233512432886E+04    0.28102E+01   -0.19931E+01 38928   0.430E+00    0.525E+01
RMM:  33    -0.233459503229E+04    0.52930E+00   -0.64297E+00 30662   0.399E+00    0.509E+01
RMM:  34    -0.233331698511E+04    0.12780E+01   -0.63663E+00 38845   0.237E+00    0.500E+01
RMM:  35    -0.233315293990E+04    0.16405E+00   -0.51840E+00 32560   0.318E+00    0.489E+01
RMM:  36    -0.233326790311E+04   -0.11496E+00   -0.51214E+00 45169   0.835E-01    0.492E+01
RMM:  37    -0.233346766691E+04   -0.19976E+00   -0.11497E+00 41837   0.433E-01    0.497E+01
RMM:  38    -0.233525865479E+04   -0.17910E+01   -0.46692E+00 31951   0.294E+00    0.514E+01
RMM:  39    -0.233491856053E+04    0.34009E+00   -0.29631E+00 40273   0.155E+00    0.516E+01
RMM:  40    -0.233410811671E+04    0.81044E+00   -0.16310E+00 29110   0.249E+00    0.501E+01
RMM:  41    -0.233520418317E+04   -0.10961E+01   -0.48360E+00 31006   0.356E+00    0.526E+01
RMM:  42    -0.233145469675E+04    0.37495E+01   -0.52082E+00 32059   0.350E+00    0.464E+01
RMM:  43    -0.233013376913E+04    0.13209E+01   -0.31096E+00 30112   0.314E+00    0.455E+01
RMM:  44    -0.232833150579E+04    0.18023E+01   -0.26033E+00 31131   0.264E+00    0.421E+01
RMM:  45    -0.232722515413E+04    0.11064E+01   -0.20952E+00 39521   0.150E+00    0.396E+01
RMM:  46    -0.232614360999E+04    0.10815E+01   -0.76578E-01 30787   0.146E+00    0.375E+01
RMM:  47    -0.232530009576E+04    0.84351E+00   -0.10079E+00 30029   0.173E+00    0.359E+01
RMM:  48    -0.232484312975E+04    0.45697E+00   -0.12317E+00 36921   0.127E+00    0.345E+01
RMM:  49    -0.232343175472E+04    0.14114E+01   -0.92681E-01 32467   0.137E+00    0.303E+01
RMM:  50    -0.232265773734E+04    0.77402E+00   -0.11022E+00 34698   0.136E+00    0.276E+01
RMM:  51    -0.232990644865E+04   -0.72487E+01   -0.35269E+01 35353   0.713E+00    0.424E+01
RMM:  52    -0.232769632263E+04    0.22101E+01   -0.23745E+01 42597   0.341E+00    0.379E+01
RMM:  53    -0.232825342152E+04   -0.55710E+00   -0.95855E+00 41204   0.218E+00    0.404E+01
RMM:  54    -0.232754186484E+04    0.71156E+00   -0.39710E+00 37888   0.188E+00    0.399E+01
RMM:  55    -0.232626721701E+04    0.12746E+01   -0.16560E+00 34132   0.155E+00    0.380E+01
RMM:  56    -0.232644446444E+04   -0.17725E+00   -0.52764E+00 30363   0.387E+00    0.397E+01
RMM:  57    -0.232410210550E+04    0.23424E+01   -0.35543E+00 30612   0.314E+00    0.343E+01
RMM:  58    -0.232248401677E+04    0.16181E+01   -0.39855E+00 31570   0.303E+00    0.299E+01
RMM:  59    -0.232129906689E+04    0.11849E+01   -0.28017E+00 32508   0.244E+00    0.253E+01
RMM:  60    -0.232000283005E+04    0.12962E+01   -0.12518E+00 29824   0.200E+00    0.202E+01
RMM:  61    -0.232432550760E+04   -0.43227E+01   -0.10885E+01 33188   0.448E+00    0.332E+01
RMM:  62    -0.232007277662E+04    0.42527E+01   -0.32355E+00 32532   0.268E+00    0.196E+01
RMM:  63    -0.231946539631E+04    0.60738E+00   -0.12976E+00 30114   0.202E+00    0.169E+01
RMM:  64    -0.231907773205E+04    0.38766E+00   -0.18691E+00 31870   0.204E+00    0.142E+01
RMM:  65    -0.231896016953E+04    0.11756E+00   -0.18416E+00 31429   0.208E+00    0.129E+01
RMM:  66    -0.232259191826E+04   -0.36317E+01   -0.40790E+00 30456   0.342E+00    0.292E+01
RMM:  67    -0.231932604600E+04    0.32659E+01   -0.16077E+00 28504   0.263E+00    0.151E+01
RMM:  68    -0.231885975968E+04    0.46629E+00   -0.97168E-01 30741   0.165E+00    0.123E+01
RMM:  69    -0.231880315877E+04    0.56601E-01   -0.39319E-01 28850   0.125E+00    0.115E+01
RMM:  70    -0.231877858428E+04    0.24574E-01   -0.34511E-01 29112   0.114E+00    0.111E+01
RMM:  71    -0.231845664903E+04    0.32194E+00   -0.53249E-01 27896   0.160E+00    0.906E+00
RMM:  72    -0.231821509030E+04    0.24156E+00   -0.31702E-01 28063   0.127E+00    0.592E+00
RMM:  73    -0.231824438758E+04   -0.29297E-01   -0.35475E-01 30590   0.992E-01    0.625E+00
RMM:  74    -0.231819051912E+04    0.53868E-01   -0.15760E-01 28574   0.805E-01    0.540E+00
RMM:  75    -0.231816982792E+04    0.20691E-01   -0.22501E-01 32458   0.702E-01    0.494E+00
RMM:  76    -0.231814329344E+04    0.26534E-01   -0.15978E-01 30186   0.693E-01    0.437E+00
RMM:  77    -0.231809131385E+04    0.51980E-01   -0.10620E-01 29127   0.650E-01    0.305E+00
RMM:  78    -0.231807858894E+04    0.12725E-01   -0.96981E-02 31539   0.477E-01    0.239E+00
RMM:  79    -0.231807283968E+04    0.57493E-02   -0.55679E-02 29732   0.433E-01    0.214E+00
RMM:  80    -0.231807723071E+04   -0.43910E-02   -0.23152E-02 28650   0.299E-01    0.229E+00
RMM:  81    -0.231807606599E+04    0.11647E-02   -0.24377E-02 29532   0.292E-01    0.218E+00
RMM:  82    -0.231805971367E+04    0.16352E-01   -0.18459E-02 30322   0.237E-01    0.128E+00
RMM:  83    -0.231805686804E+04    0.28456E-02   -0.19293E-02 33896   0.177E-01    0.994E-01
RMM:  84    -0.231805431837E+04    0.25497E-02   -0.11225E-02 35256   0.124E-01    0.617E-01
RMM:  85    -0.231805340167E+04    0.91670E-03   -0.57244E-03 36551   0.821E-02    0.387E-01
RMM:  86    -0.231805458157E+04   -0.11799E-02   -0.43216E-03 31498   0.103E-01    0.575E-01
RMM:  87    -0.231805344282E+04    0.11387E-02   -0.18031E-03 29447   0.900E-02    0.340E-01
RMM:  88    -0.231805350626E+04   -0.63437E-04   -0.19150E-03 32747   0.612E-02    0.324E-01
RMM:  89    -0.231805354356E+04   -0.37297E-04   -0.13201E-03 31749   0.550E-02    0.290E-01
RMM:  90    -0.231805357933E+04   -0.35769E-04   -0.79490E-04 32754   0.401E-02    0.276E-01
RMM:  91    -0.231805350570E+04    0.73623E-04   -0.70616E-04 29440   0.511E-02    0.228E-01
RMM:  92    -0.231805342638E+04    0.79328E-04   -0.32621E-04 28999   0.393E-02    0.179E-01
RMM:  93    -0.231805348549E+04   -0.59110E-04   -0.31633E-04 31752   0.262E-02    0.176E-01
RMM:  94    -0.231805344213E+04    0.43360E-04   -0.14725E-04 30514   0.202E-02    0.113E-01
RMM:  95    -0.231805345089E+04   -0.87600E-05   -0.16663E-04 34985   0.147E-02    0.780E-02
RMM:  96    -0.231805361961E+04   -0.16872E-03   -0.25595E-04 30406   0.269E-02    0.170E-01
RMM:  97    -0.231805351260E+04    0.10701E-03   -0.91004E-05 28294   0.225E-02    0.413E-02
RMM:  98    -0.231805354592E+04   -0.33318E-04   -0.85120E-05 36450   0.892E-03    0.422E-02
RMM:  99    -0.231805362448E+04   -0.78564E-04   -0.45275E-05 34940   0.706E-03    0.517E-02
RMM: 100    -0.231805367748E+04   -0.53004E-04   -0.29382E-05 31169   0.649E-03
   1 F= -.23180537E+04 E0= -.23152804E+04  d E =-.231805E+04
       N       E                     dE             d eps       ncg     rms          rms(c)
DAV:   1    -0.231819696720E+04   -0.14334E+00   -0.34139E+01 29428   0.611E+00    0.993E-01
RMM:   2    -0.231946544177E+04   -0.12685E+01   -0.68861E-01 27946   0.170E+00    0.153E+01
RMM:   3    -0.231906331628E+04    0.40213E+00   -0.35723E-01 39050   0.677E-01    0.119E+01
RMM:   4    -0.231986389254E+04   -0.80058E+00   -0.12259E-01 28434   0.715E-01    0.173E+01
RMM:   5    -0.231832234357E+04    0.15415E+01   -0.84300E-02 30406   0.507E-01    0.308E+00
RMM:   6    -0.231860765427E+04   -0.28531E+00   -0.24612E-01 30891   0.736E-01    0.807E+00
RMM:   7    -0.231834560602E+04    0.26205E+00   -0.12257E-01 28078   0.693E-01    0.445E+00
RMM:   8    -0.231826053304E+04    0.85073E-01   -0.46931E-02 27790   0.463E-01    0.220E+00
RMM:   9    -0.231825587803E+04    0.46550E-02   -0.32213E-02 29182   0.320E-01    0.208E+00
RMM:  10    -0.231828289581E+04   -0.27018E-01   -0.42369E-02 38027   0.216E-01    0.313E+00
RMM:  11    -0.231824348479E+04    0.39411E-01   -0.20147E-02 29019   0.248E-01    0.135E+00
RMM:  12    -0.231823719025E+04    0.62945E-02   -0.11022E-02 27866   0.227E-01    0.934E-01
RMM:  13    -0.231823411657E+04    0.30737E-02   -0.46605E-03 28285   0.148E-01    0.641E-01
RMM:  14    -0.231823389942E+04    0.21715E-03   -0.55023E-03 32641   0.102E-01    0.576E-01
RMM:  15    -0.231823340424E+04    0.49518E-03   -0.39797E-03 32585   0.920E-02    0.436E-01
RMM:  16    -0.231823258472E+04    0.81951E-03   -0.13789E-03 29081   0.741E-02    0.222E-01
RMM:  17    -0.231823262573E+04   -0.41008E-04   -0.16510E-03 38297   0.413E-02    0.204E-01
RMM:  18    -0.231823258345E+04    0.42282E-04   -0.61744E-04 31120   0.403E-02    0.159E-01
RMM:  19    -0.231823252568E+04    0.57769E-04   -0.37732E-04 33204   0.273E-02    0.105E-01
RMM:  20    -0.231823255033E+04   -0.24653E-04   -0.28974E-04 37925   0.172E-02    0.107E-01
RMM:  21    -0.231823254258E+04    0.77543E-05   -0.11122E-04 31146   0.168E-02    0.775E-02
RMM:  22    -0.231823253214E+04    0.10442E-04   -0.71407E-05 32950   0.118E-02    0.494E-02
RMM:  23    -0.231823253886E+04   -0.67218E-05   -0.62717E-05 36873   0.862E-03    0.446E-02
RMM:  24    -0.231823255180E+04   -0.12945E-04   -0.31656E-05 31799   0.821E-03    0.386E-02
RMM:  25    -0.231823255248E+04   -0.68036E-06   -0.14796E-05 28033   0.602E-03    0.225E-02
RMM:  26    -0.231823255516E+04   -0.26799E-05   -0.12584E-05 25673   0.339E-03    0.186E-02
RMM:  27    -0.231823256236E+04   -0.71932E-05   -0.63364E-06 22333   0.386E-03    0.132E-02
RMM:  28    -0.231823256672E+04   -0.43640E-05   -0.34641E-06 18821   0.312E-03    0.121E-02
RMM:  29    -0.231823256909E+04   -0.23716E-05   -0.24777E-06 17775   0.225E-03    0.119E-02
RMM:  30    -0.231823257454E+04   -0.54419E-05   -0.20052E-06 16521   0.233E-03    0.828E-03
RMM:  31    -0.231823257696E+04   -0.24234E-05   -0.14779E-06 15918   0.194E-03    0.415E-03
RMM:  32    -0.231823257929E+04   -0.23287E-05   -0.12177E-06 15659   0.141E-03    0.456E-03
RMM:  33    -0.231823258439E+04   -0.51002E-05   -0.12265E-06 15731   0.167E-03    0.343E-03
RMM:  34    -0.231823258566E+04   -0.12726E-05   -0.91520E-07 15499   0.115E-03    0.267E-03
RMM:  35    -0.231823258778E+04   -0.21235E-05   -0.81611E-07 15175   0.106E-03    0.250E-03
RMM:  36    -0.231823258997E+04   -0.21817E-05   -0.75452E-07 15283   0.106E-03    0.231E-03
RMM:  37    -0.231823259149E+04   -0.15248E-05   -0.68556E-07 15118   0.935E-04    0.182E-03
RMM:  38    -0.231823259271E+04   -0.12202E-05   -0.60843E-07 15089   0.789E-04    0.167E-03
RMM:  39    -0.231823259437E+04   -0.16555E-05   -0.62952E-07 15044   0.748E-04    0.153E-03
RMM:  40    -0.231823259492E+04   -0.55181E-06   -0.50686E-07 14824   0.719E-04
   2 F= -.23182326E+04 E0= -.23154548E+04  d E =-.178917E+00
       N       E                     dE             d eps       ncg     rms          rms(c)
DAV:   1    -0.231816382348E+04    0.68771E-01   -0.30663E+02 27720   0.184E+01    0.348E+00
RMM:   2    -0.233175195304E+04   -0.13588E+02   -0.84136E+00 27860   0.615E+00    0.496E+01
RMM:   3    -0.232996164976E+04    0.17903E+01   -0.40892E+00 38724   0.239E+00    0.435E+01
RMM:   4    -0.233926088483E+04   -0.92992E+01   -0.16572E+00 28230   0.266E+00    0.606E+01
RMM:   5    -0.232002114101E+04    0.19240E+02   -0.12115E+00 32227   0.176E+00    0.134E+01
RMM:   6    -0.232394379591E+04   -0.39227E+01   -0.26984E+00 30278   0.256E+00    0.306E+01
RMM:   7    -0.232109225945E+04    0.28515E+01   -0.13156E+00 28331   0.222E+00    0.217E+01
RMM:   8    -0.231999210663E+04    0.11002E+01   -0.74455E-01 27821   0.175E+00    0.161E+01
RMM:   9    -0.231883818299E+04    0.11539E+01   -0.39842E-01 27767   0.146E+00    0.644E+00
RMM:  10    -0.231890172158E+04   -0.63539E-01   -0.51967E-01 28583   0.140E+00    0.775E+00
RMM:  11    -0.231876314233E+04    0.13858E+00   -0.27372E-01 28517   0.103E+00    0.604E+00
RMM:  12    -0.231860557629E+04    0.15757E+00   -0.12735E-01 27971   0.753E-01    0.258E+00
RMM:  13    -0.231858119695E+04    0.24379E-01   -0.99668E-02 31654   0.444E-01    0.164E+00
RMM:  14    -0.231859323195E+04   -0.12035E-01   -0.94949E-02 37086   0.337E-01    0.199E+00
RMM:  15    -0.231858676249E+04    0.64695E-02   -0.37071E-02 31803   0.287E-01    0.159E+00
RMM:  16    -0.231857702349E+04    0.97390E-02   -0.16130E-02 29880   0.231E-01    0.922E-01
RMM:  17    -0.231857763146E+04   -0.60796E-03   -0.20687E-02 35213   0.182E-01    0.875E-01
RMM:  18    -0.231857653315E+04    0.10983E-02   -0.11182E-02 30188   0.185E-01    0.739E-01
RMM:  19    -0.231857579694E+04    0.73621E-03   -0.73481E-03 33531   0.119E-01    0.621E-01
RMM:  20    -0.231857557570E+04    0.22124E-03   -0.46118E-03 34499   0.886E-02    0.576E-01
RMM:  21    -0.231857454606E+04    0.10296E-02   -0.18192E-03 29440   0.819E-02    0.375E-01
RMM:  22    -0.231857450303E+04    0.43026E-04   -0.19643E-03 39838   0.422E-02    0.329E-01
RMM:  23    -0.231857429603E+04    0.20700E-03   -0.87176E-04 32663   0.414E-02    0.243E-01
RMM:  24    -0.231857408464E+04    0.21140E-03   -0.44842E-04 30764   0.360E-02    0.135E-01
RMM:  25    -0.231857406603E+04    0.18606E-04   -0.36798E-04 34002   0.236E-02    0.111E-01
RMM:  26    -0.231857410383E+04   -0.37798E-04   -0.29258E-04 37675   0.180E-02    0.128E-01
RMM:  27    -0.231857409501E+04    0.88160E-05   -0.10104E-04 31699   0.151E-02    0.119E-01
RMM:  28    -0.231857408493E+04    0.10086E-04   -0.84923E-05 38400   0.857E-03    0.104E-01
RMM:  29    -0.231857405486E+04    0.30066E-04   -0.44715E-05 35500   0.770E-03    0.664E-02
RMM:  30    -0.231857403556E+04    0.19300E-04   -0.17196E-05 29483   0.697E-03    0.287E-02
RMM:  31    -0.231857403629E+04   -0.73228E-06   -0.16493E-05 29878   0.523E-03    0.299E-02
RMM:  32    -0.231857403569E+04    0.60373E-06   -0.10789E-05 25900   0.481E-03    0.264E-02
RMM:  33    -0.231857403291E+04    0.27745E-05   -0.39630E-06 19800   0.400E-03    0.137E-02
RMM:  34    -0.231857403281E+04    0.10300E-06   -0.29293E-06 19272   0.217E-03
   3 F= -.23185740E+04 E0= -.23157837E+04  d E =-.520355E+00
       N       E                     dE             d eps       ncg     rms          rms(c)
DAV:   1    -0.231620973868E+04    0.23643E+01   -0.12254E+03 27720   0.373E+01    0.766E+00
RMM:   2    -0.237406307358E+04   -0.57853E+02   -0.45214E+01 27834   0.136E+01    0.997E+01
RMM:   3    -0.239229290292E+04   -0.18230E+02   -0.21818E+01 38484   0.555E+00    0.107E+02
RMM:   4    -0.242168604411E+04   -0.29393E+02   -0.10053E+01 29036   0.599E+00    0.127E+02
RMM:   5    -0.232420621101E+04    0.97480E+02   -0.57284E+00 31060   0.408E+00    0.295E+01
RMM:   6    -0.233657275668E+04   -0.12367E+02   -0.91137E+00 33101   0.420E+00    0.557E+01
RMM:   7    -0.232831157928E+04    0.82612E+01   -0.62642E+00 28946   0.463E+00    0.408E+01
RMM:   8    -0.232493671195E+04    0.33749E+01   -0.39496E+00 27742   0.421E+00    0.344E+01
RMM:   9    -0.232053214151E+04    0.44046E+01   -0.22476E+00 27767   0.345E+00    0.190E+01
RMM:  10    -0.231973985771E+04    0.79228E+00   -0.18701E+00 27926   0.296E+00    0.156E+01
RMM:  11    -0.231901789973E+04    0.72196E+00   -0.79212E-01 27758   0.204E+00    0.110E+01
RMM:  12    -0.231852234847E+04    0.49555E+00   -0.44293E-01 28339   0.127E+00    0.511E+00
RMM:  13    -0.231847710654E+04    0.45242E-01   -0.43478E-01 31623   0.959E-01    0.419E+00
RMM:  14    -0.231853519128E+04   -0.58085E-01   -0.42616E-01 33261   0.893E-01    0.511E+00
RMM:  15    -0.231848649780E+04    0.48693E-01   -0.16873E-01 29759   0.712E-01    0.428E+00
RMM:  16    -0.231848565299E+04    0.84481E-03   -0.16205E-01 37799   0.400E-01    0.410E+00
RMM:  17    -0.231846543408E+04    0.20219E-01   -0.77345E-02 35195   0.353E-01    0.333E+00
RMM:  18    -0.231843966991E+04    0.25764E-01   -0.29175E-02 28981   0.345E-01    0.239E+00
RMM:  19    -0.231842500672E+04    0.14663E-01   -0.36803E-02 30580   0.316E-01    0.176E+00
RMM:  20    -0.231842606716E+04   -0.10604E-02   -0.16585E-02 29029   0.250E-01    0.209E+00
RMM:  21    -0.231842650376E+04   -0.43660E-03   -0.13318E-02 33347   0.149E-01    0.205E+00
RMM:  22    -0.231842624720E+04    0.25656E-03   -0.93281E-03 42047   0.746E-02    0.201E+00
RMM:  23    -0.231842275962E+04    0.34876E-02   -0.25176E-03 33732   0.628E-02    0.180E+00
RMM:  24    -0.231841644044E+04    0.63192E-02   -0.31970E-03 29923   0.990E-02    0.133E+00
RMM:  25    -0.231840916855E+04    0.72719E-02   -0.38641E-03 28400   0.124E-01    0.513E-01
RMM:  26    -0.231840877204E+04    0.39651E-03   -0.30215E-03 30387   0.936E-02    0.461E-01
RMM:  27    -0.231840923884E+04   -0.46680E-03   -0.27384E-03 33335   0.725E-02    0.538E-01
RMM:  28    -0.231840885109E+04    0.38775E-03   -0.10726E-03 30515   0.559E-02    0.444E-01
RMM:  29    -0.231840866869E+04    0.18240E-03   -0.86588E-04 34582   0.365E-02    0.392E-01
RMM:  30    -0.231840839774E+04    0.27095E-03   -0.60757E-04 32871   0.348E-02    0.305E-01
RMM:  31    -0.231840806597E+04    0.33177E-03   -0.31900E-04 30256   0.318E-02    0.161E-01
RMM:  32    -0.231840803042E+04    0.35554E-04   -0.30449E-04 36314   0.197E-02    0.124E-01
RMM:  33    -0.231840801738E+04    0.13033E-04   -0.18341E-04 32860   0.192E-02    0.109E-01
RMM:  34    -0.231840797331E+04    0.44077E-04   -0.59523E-05 29061   0.159E-02    0.670E-02
RMM:  35    -0.231840797093E+04    0.23816E-05   -0.61427E-05 36790   0.820E-03    0.591E-02
RMM:  36    -0.231840796792E+04    0.30050E-05   -0.35907E-05 31513   0.920E-03    0.511E-02
RMM:  37    -0.231840795815E+04    0.97667E-05   -0.19234E-05 29392   0.783E-03    0.275E-02
RMM:  38    -0.231840795838E+04   -0.22849E-06   -0.17913E-05 28951   0.417E-03    0.247E-02
RMM:  39    -0.231840795729E+04    0.10898E-05   -0.67056E-06 22431   0.411E-03    0.206E-02
RMM:  40    -0.231840795592E+04    0.13721E-05   -0.29114E-06 18277   0.343E-03    0.130E-02
RMM:  41    -0.231840795583E+04    0.90280E-07   -0.20268E-06 17503   0.220E-03
   4 F= -.23184080E+04 E0= -.23155998E+04  d E =-.354278E+00
       N       E                     dE             d eps       ncg     rms          rms(c)
DAV:   1    -0.231786295714E+04    0.54500E+00   -0.51366E+02 27720   0.239E+01    0.436E+00
RMM:   2    -0.233046372691E+04   -0.12601E+02   -0.13768E+01 27862   0.752E+00    0.461E+01
RMM:   3    -0.233456052167E+04   -0.40968E+01   -0.52225E+00 39566   0.254E+00    0.537E+01
RMM:   4    -0.234620922920E+04   -0.11649E+02   -0.23695E+00 29125   0.282E+00    0.711E+01
RMM:   5    -0.232156964525E+04    0.24640E+02   -0.16742E+00 29066   0.241E+00    0.210E+01
RMM:   6    -0.232399426670E+04   -0.24246E+01   -0.37613E+00 31183   0.298E+00    0.310E+01
RMM:   7    -0.232046857453E+04    0.35257E+01   -0.18410E+00 27821   0.282E+00    0.174E+01
RMM:   8    -0.231977168995E+04    0.69688E+00   -0.86557E-01 27753   0.212E+00    0.144E+01
RMM:   9    -0.232010935194E+04   -0.33766E+00   -0.65123E-01 31307   0.122E+00    0.167E+01
RMM:  10    -0.231926258493E+04    0.84677E+00   -0.62641E-01 27884   0.158E+00    0.109E+01
RMM:  11    -0.231896842903E+04    0.29416E+00   -0.53390E-01 29202   0.133E+00    0.747E+00
RMM:  12    -0.231876999883E+04    0.19843E+00   -0.22107E-01 27802   0.109E+00    0.502E+00
RMM:  13    -0.231872210756E+04    0.47891E-01   -0.13987E-01 29614   0.677E-01    0.409E+00
RMM:  14    -0.231869597530E+04    0.26132E-01   -0.17057E-01 33365   0.554E-01    0.320E+00
RMM:  15    -0.231865682108E+04    0.39154E-01   -0.48101E-02 27862   0.470E-01    0.187E+00
RMM:  16    -0.231865732633E+04   -0.50525E-03   -0.52508E-02 36440   0.256E-01    0.177E+00
RMM:  17    -0.231865131943E+04    0.60069E-02   -0.28141E-02 35134   0.211E-01    0.133E+00
RMM:  18    -0.231864487915E+04    0.64403E-02   -0.10148E-02 30415   0.174E-01    0.718E-01
RMM:  19    -0.231864503472E+04   -0.15557E-03   -0.11392E-02 38977   0.107E-01    0.657E-01
RMM:  20    -0.231864615287E+04   -0.11182E-02   -0.49331E-03 31690   0.105E-01    0.763E-01
RMM:  21    -0.231864540587E+04    0.74700E-03   -0.23039E-03 30274   0.865E-02    0.652E-01
RMM:  22    -0.231864449474E+04    0.91113E-03   -0.27702E-03 33647   0.711E-02    0.469E-01
RMM:  23    -0.231864370241E+04    0.79233E-03   -0.97854E-04 29533   0.591E-02    0.287E-01
RMM:  24    -0.231864364079E+04    0.61628E-04   -0.94206E-04 34159   0.393E-02    0.256E-01
RMM:  25    -0.231864352521E+04    0.11558E-03   -0.68016E-04 35260   0.320E-02    0.185E-01
RMM:  26    -0.231864338322E+04    0.14198E-03   -0.26259E-04 31356   0.253E-02    0.818E-02
RMM:  27    -0.231864337839E+04    0.48392E-05   -0.23878E-04 38575   0.145E-02    0.539E-02
RMM:  28    -0.231864338812E+04   -0.97350E-05   -0.13148E-04 37029   0.123E-02    0.576E-02
RMM:  29    -0.231864338020E+04    0.79154E-05   -0.54530E-05 32172   0.105E-02    0.398E-02
RMM:  30    -0.231864338083E+04   -0.62585E-06   -0.46454E-05 37158   0.644E-03    0.339E-02
RMM:  31    -0.231864338049E+04    0.33897E-06   -0.22856E-05 32496   0.613E-03    0.296E-02
RMM:  32    -0.231864337683E+04    0.36633E-05   -0.78946E-06 23836   0.501E-03    0.154E-02
RMM:  33    -0.231864337675E+04    0.79570E-07   -0.50383E-06 20789   0.275E-03
   5 F= -.23186434E+04 E0= -.23158455E+04  d E =-.589699E+00
