 288 288   0   0
  0.1280206E+02  0.9726678E-09  0.8423550E-09  0.4500000E-08  0.2500000E-15
  1.000000000000000E-004
  CAR 
 unknown system                          
      6.76171342     -6.08427835  301      4.29835098      1.00000000
     -6.084  0.0000E+00  0.0000E+00
     -6.041  0.0000E+00  0.0000E+00
     -5.999  0.0000E+00  0.0000E+00
     -5.956  0.0000E+00  0.0000E+00
     -5.913  0.0000E+00  0.0000E+00
     -5.870  0.0000E+00  0.0000E+00
     -5.827  0.0000E+00  0.0000E+00
     -5.785  0.0000E+00  0.0000E+00
     -5.742  0.0000E+00  0.0000E+00
     -5.699  0.0000E+00  0.0000E+00
     -5.656  0.0000E+00  0.0000E+00
     -5.613  0.0000E+00  0.0000E+00
     -5.570  0.0000E+00  0.0000E+00
     -5.528  0.0000E+00  0.0000E+00
     -5.485  0.0000E+00  0.0000E+00
     -5.442  0.1945E-15  0.8327E-17
     -5.399  0.4343E-14  0.1943E-15
     -5.356  0.9366E-13  0.4205E-14
     -5.314  0.1708E-11  0.7736E-13
     -5.271  0.2653E-10  0.1213E-11
     -5.228  0.3506E-09  0.1623E-10
     -5.185  0.3945E-08  0.1852E-09
     -5.142  0.3780E-07  0.1804E-08
     -5.099  0.3086E-06  0.1502E-07
     -5.057  0.2147E-05  0.1070E-06
     -5.014  0.1275E-04  0.6527E-06
     -4.971  0.6463E-04  0.3420E-05
     -4.928  0.2806E-03  0.1543E-04
     -4.885  0.1046E-02  0.6021E-04
     -4.842  0.3362E-02  0.2042E-03
     -4.800  0.9388E-02  0.6062E-03
     -4.757  0.2297E-01  0.1590E-02
     -4.714  0.4985E-01  0.3725E-02
     -4.671  0.9724E-01  0.7888E-02
     -4.628  0.1728E+00  0.1529E-01
     -4.586  0.2830E+00  0.2740E-01
     -4.543  0.4307E+00  0.4585E-01
     -4.500  0.6129E+00  0.7209E-01
     -4.457  0.8199E+00  0.1072E+00
     -4.414  0.1036E+01  0.1516E+00
     -4.371  0.1244E+01  0.2048E+00
     -4.329  0.1425E+01  0.2658E+00
     -4.286  0.1570E+01  0.3331E+00
     -4.243  0.1681E+01  0.4051E+00
     -4.200  0.1771E+01  0.4809E+00
     -4.157  0.1861E+01  0.5606E+00
     -4.115  0.1973E+01  0.6450E+00
     -4.072  0.2123E+01  0.7360E+00
     -4.029  0.2312E+01  0.8350E+00
     -3.986  0.2527E+01  0.9432E+00
     -3.943  0.2740E+01  0.1060E+01
     -3.900  0.2921E+01  0.1186E+01
     -3.858  0.3046E+01  0.1316E+01
     -3.815  0.3108E+01  0.1449E+01
     -3.772  0.3115E+01  0.1582E+01
     -3.729  0.3097E+01  0.1715E+01
     -3.686  0.3091E+01  0.1847E+01
     -3.644  0.3125E+01  0.1981E+01
     -3.601  0.3218E+01  0.2119E+01
     -3.558  0.3367E+01  0.2263E+01
     -3.515  0.3555E+01  0.2415E+01
     -3.472  0.3756E+01  0.2576E+01
     -3.429  0.3940E+01  0.2745E+01
     -3.387  0.4082E+01  0.2920E+01
     -3.344  0.4167E+01  0.3098E+01
     -3.301  0.4198E+01  0.3278E+01
     -3.258  0.4196E+01  0.3458E+01
     -3.215  0.4196E+01  0.3637E+01
     -3.173  0.4241E+01  0.3819E+01
     -3.130  0.4359E+01  0.4006E+01
     -3.087  0.4554E+01  0.4201E+01
     -3.044  0.4800E+01  0.4406E+01
     -3.001  0.5053E+01  0.4622E+01
     -2.958  0.5257E+01  0.4848E+01
     -2.916  0.5371E+01  0.5078E+01
     -2.873  0.5388E+01  0.5308E+01
     -2.830  0.5349E+01  0.5537E+01
     -2.787  0.5322E+01  0.5765E+01
     -2.744  0.5360E+01  0.5995E+01
     -2.702  0.5469E+01  0.6229E+01
     -2.659  0.5600E+01  0.6469E+01
     -2.616  0.5685E+01  0.6712E+01
     -2.573  0.5688E+01  0.6956E+01
     -2.530  0.5641E+01  0.7197E+01
     -2.487  0.5633E+01  0.7438E+01
     -2.445  0.5765E+01  0.7685E+01
     -2.402  0.6094E+01  0.7946E+01
     -2.359  0.6584E+01  0.8228E+01
     -2.316  0.7096E+01  0.8532E+01
     -2.273  0.7451E+01  0.8851E+01
     -2.230  0.7525E+01  0.9173E+01
     -2.188  0.7334E+01  0.9487E+01
     -2.145  0.7038E+01  0.9789E+01
     -2.102  0.6849E+01  0.1008E+02
     -2.059  0.6923E+01  0.1038E+02
     -2.016  0.7287E+01  0.1069E+02
     -1.974  0.7835E+01  0.1103E+02
     -1.931  0.8382E+01  0.1138E+02
     -1.888  0.8753E+01  0.1176E+02
     -1.845  0.8874E+01  0.1214E+02
     -1.802  0.8805E+01  0.1252E+02
     -1.759  0.8690E+01  0.1289E+02
     -1.717  0.8661E+01  0.1326E+02
     -1.674  0.8768E+01  0.1364E+02
     -1.631  0.8984E+01  0.1402E+02
     -1.588  0.9251E+01  0.1442E+02
     -1.545  0.9529E+01  0.1482E+02
     -1.503  0.9807E+01  0.1524E+02
     -1.460  0.1008E+02  0.1568E+02
     -1.417  0.1033E+02  0.1612E+02
     -1.374  0.1054E+02  0.1657E+02
     -1.331  0.1071E+02  0.1703E+02
     -1.288  0.1095E+02  0.1750E+02
     -1.246  0.1142E+02  0.1799E+02
     -1.203  0.1221E+02  0.1851E+02
     -1.160  0.1326E+02  0.1908E+02
     -1.117  0.1431E+02  0.1969E+02
     -1.074  0.1509E+02  0.2033E+02
     -1.032  0.1544E+02  0.2100E+02
     -0.989  0.1551E+02  0.2166E+02
     -0.946  0.1565E+02  0.2233E+02
     -0.903  0.1624E+02  0.2303E+02
     -0.860  0.1748E+02  0.2377E+02
     -0.817  0.1931E+02  0.2460E+02
     -0.775  0.2159E+02  0.2552E+02
     -0.732  0.2429E+02  0.2656E+02
     -0.689  0.2752E+02  0.2774E+02
     -0.646  0.3138E+02  0.2909E+02
     -0.603  0.3577E+02  0.3062E+02
     -0.561  0.4029E+02  0.3234E+02
     -0.518  0.4443E+02  0.3425E+02
     -0.475  0.4780E+02  0.3629E+02
     -0.432  0.5034E+02  0.3845E+02
     -0.389  0.5226E+02  0.4069E+02
     -0.346  0.5382E+02  0.4299E+02
     -0.304  0.5519E+02  0.4535E+02
     -0.261  0.5633E+02  0.4777E+02
     -0.218  0.5713E+02  0.5021E+02
     -0.175  0.5751E+02  0.5267E+02
     -0.132  0.5758E+02  0.5514E+02
     -0.089  0.5759E+02  0.5761E+02
     -0.047  0.5781E+02  0.6008E+02
     -0.004  0.5847E+02  0.6259E+02
      0.039  0.5972E+02  0.6514E+02
      0.082  0.6169E+02  0.6778E+02
      0.125  0.6441E+02  0.7054E+02
      0.167  0.6772E+02  0.7344E+02
      0.210  0.7127E+02  0.7649E+02
      0.253  0.7468E+02  0.7969E+02
      0.296  0.7771E+02  0.8302E+02
      0.339  0.8024E+02  0.8645E+02
      0.382  0.8231E+02  0.8998E+02
      0.424  0.8398E+02  0.9358E+02
      0.467  0.8526E+02  0.9723E+02
      0.510  0.8609E+02  0.1009E+03
      0.553  0.8642E+02  0.1046E+03
      0.596  0.8628E+02  0.1083E+03
      0.638  0.8572E+02  0.1120E+03
      0.681  0.8479E+02  0.1156E+03
      0.724  0.8345E+02  0.1192E+03
      0.767  0.8175E+02  0.1227E+03
      0.810  0.7989E+02  0.1261E+03
      0.853  0.7822E+02  0.1295E+03
      0.895  0.7705E+02  0.1328E+03
      0.938  0.7643E+02  0.1360E+03
      0.981  0.7616E+02  0.1393E+03
      1.024  0.7588E+02  0.1425E+03
      1.067  0.7529E+02  0.1458E+03
      1.109  0.7434E+02  0.1489E+03
      1.152  0.7332E+02  0.1521E+03
      1.195  0.7268E+02  0.1552E+03
      1.238  0.7271E+02  0.1583E+03
      1.281  0.7326E+02  0.1614E+03
      1.324  0.7374E+02  0.1646E+03
      1.366  0.7352E+02  0.1678E+03
      1.409  0.7236E+02  0.1708E+03
      1.452  0.7057E+02  0.1739E+03
      1.495  0.6886E+02  0.1768E+03
      1.538  0.6787E+02  0.1797E+03
      1.580  0.6796E+02  0.1826E+03
      1.623  0.6909E+02  0.1856E+03
      1.666  0.7101E+02  0.1886E+03
      1.709  0.7338E+02  0.1918E+03
      1.752  0.7587E+02  0.1950E+03
      1.795  0.7827E+02  0.1984E+03
      1.837  0.8044E+02  0.2018E+03
      1.880  0.8233E+02  0.2053E+03
      1.923  0.8398E+02  0.2089E+03
      1.966  0.8552E+02  0.2126E+03
      2.009  0.8705E+02  0.2163E+03
      2.052  0.8863E+02  0.2201E+03
      2.094  0.9027E+02  0.2240E+03
      2.137  0.9194E+02  0.2279E+03
      2.180  0.9361E+02  0.2319E+03
      2.223  0.9535E+02  0.2360E+03
      2.266  0.9738E+02  0.2402E+03
      2.308  0.9996E+02  0.2445E+03
      2.351  0.1033E+03  0.2489E+03
      2.394  0.1074E+03  0.2535E+03
      2.437  0.1118E+03  0.2583E+03
      2.480  0.1163E+03  0.2633E+03
      2.523  0.1205E+03  0.2684E+03
      2.565  0.1238E+03  0.2737E+03
      2.608  0.1263E+03  0.2791E+03
      2.651  0.1279E+03  0.2846E+03
      2.694  0.1288E+03  0.2901E+03
      2.737  0.1296E+03  0.2957E+03
      2.779  0.1308E+03  0.3013E+03
      2.822  0.1330E+03  0.3070E+03
      2.865  0.1363E+03  0.3128E+03
      2.908  0.1399E+03  0.3188E+03
      2.951  0.1426E+03  0.3249E+03
      2.994  0.1425E+03  0.3310E+03
      3.036  0.1386E+03  0.3369E+03
      3.079  0.1311E+03  0.3426E+03
      3.122  0.1214E+03  0.3478E+03
      3.165  0.1116E+03  0.3525E+03
      3.208  0.1032E+03  0.3570E+03
      3.250  0.9691E+02  0.3611E+03
      3.293  0.9297E+02  0.3651E+03
      3.336  0.9094E+02  0.3690E+03
      3.379  0.9022E+02  0.3728E+03
      3.422  0.9006E+02  0.3767E+03
      3.465  0.8970E+02  0.3805E+03
      3.507  0.8863E+02  0.3843E+03
      3.550  0.8683E+02  0.3880E+03
      3.593  0.8489E+02  0.3917E+03
      3.636  0.8370E+02  0.3953E+03
      3.679  0.8392E+02  0.3989E+03
      3.721  0.8564E+02  0.4025E+03
      3.764  0.8835E+02  0.4063E+03
      3.807  0.9137E+02  0.4102E+03
      3.850  0.9420E+02  0.4143E+03
      3.893  0.9666E+02  0.4184E+03
      3.936  0.9877E+02  0.4226E+03
      3.978  0.1006E+03  0.4269E+03
      4.021  0.1021E+03  0.4313E+03
      4.064  0.1030E+03  0.4357E+03
      4.107  0.1032E+03  0.4401E+03
      4.150  0.1027E+03  0.4445E+03
      4.193  0.1016E+03  0.4489E+03
      4.235  0.1002E+03  0.4532E+03
      4.278  0.9903E+02  0.4574E+03
      4.321  0.9845E+02  0.4616E+03
      4.364  0.9855E+02  0.4658E+03
      4.407  0.9919E+02  0.4701E+03
      4.449  0.9998E+02  0.4744E+03
      4.492  0.1005E+03  0.4787E+03
      4.535  0.1003E+03  0.4830E+03
      4.578  0.9960E+02  0.4872E+03
      4.621  0.9860E+02  0.4915E+03
      4.664  0.9796E+02  0.4957E+03
      4.706  0.9823E+02  0.4999E+03
      4.749  0.9970E+02  0.5041E+03
      4.792  0.1022E+03  0.5085E+03
      4.835  0.1054E+03  0.5130E+03
      4.878  0.1086E+03  0.5177E+03
      4.920  0.1114E+03  0.5224E+03
      4.963  0.1132E+03  0.5273E+03
      5.006  0.1130E+03  0.5321E+03
      5.049  0.1097E+03  0.5368E+03
      5.092  0.1023E+03  0.5412E+03
      5.135  0.9033E+02  0.5451E+03
      5.177  0.7437E+02  0.5483E+03
      5.220  0.5634E+02  0.5507E+03
      5.263  0.3879E+02  0.5523E+03
      5.306  0.2404E+02  0.5534E+03
      5.349  0.1329E+02  0.5539E+03
      5.391  0.6513E+01  0.5542E+03
      5.434  0.2813E+01  0.5543E+03
      5.477  0.1066E+01  0.5544E+03
      5.520  0.3533E+00  0.5544E+03
      5.563  0.1020E+00  0.5544E+03
      5.606  0.2563E-01  0.5544E+03
      5.648  0.5585E-02  0.5544E+03
      5.691  0.1054E-02  0.5544E+03
      5.734  0.1720E-03  0.5544E+03
      5.777  0.2425E-04  0.5544E+03
      5.820  0.2948E-05  0.5544E+03
      5.862  0.3088E-06  0.5544E+03
      5.905  0.2784E-07  0.5544E+03
      5.948  0.2158E-08  0.5544E+03
      5.991  0.1437E-09  0.5544E+03
      6.034  0.8222E-11  0.5544E+03
      6.077  0.4028E-12  0.5544E+03
      6.119  0.1588E-13  0.5544E+03
      6.162  0.2593E-15  0.5544E+03
      6.205  0.0000E+00  0.5544E+03
      6.248  0.0000E+00  0.5544E+03
      6.291  0.0000E+00  0.5544E+03
      6.334  0.0000E+00  0.5544E+03
      6.376  0.0000E+00  0.5544E+03
      6.419  0.0000E+00  0.5544E+03
      6.462  0.0000E+00  0.5544E+03
      6.505  0.0000E+00  0.5544E+03
      6.548  0.0000E+00  0.5544E+03
      6.590  0.0000E+00  0.5544E+03
      6.633  0.0000E+00  0.5544E+03
      6.676  0.0000E+00  0.5544E+03
      6.719  0.0000E+00  0.5544E+03
      6.762  0.0000E+00  0.5544E+03
