 288 288   0   0
  0.1280206E+02  0.9726678E-09  0.8423550E-09  0.4500000E-08  0.2500000E-15
  1.000000000000000E-004
  CAR 
 unknown system                          
      6.82642723     -6.02437509  301      4.31716173      1.00000000
     -6.024  0.0000E+00  0.0000E+00
     -5.982  0.0000E+00  0.0000E+00
     -5.939  0.0000E+00  0.0000E+00
     -5.896  0.0000E+00  0.0000E+00
     -5.853  0.0000E+00  0.0000E+00
     -5.810  0.0000E+00  0.0000E+00
     -5.767  0.0000E+00  0.0000E+00
     -5.725  0.0000E+00  0.0000E+00
     -5.682  0.0000E+00  0.0000E+00
     -5.639  0.0000E+00  0.0000E+00
     -5.596  0.0000E+00  0.0000E+00
     -5.553  0.0000E+00  0.0000E+00
     -5.510  0.0000E+00  0.0000E+00
     -5.468  0.0000E+00  0.0000E+00
     -5.425  0.0000E+00  0.0000E+00
     -5.382  0.1944E-15  0.8327E-17
     -5.339  0.4438E-14  0.1985E-15
     -5.296  0.9541E-13  0.4285E-14
     -5.253  0.1741E-11  0.7887E-13
     -5.210  0.2704E-10  0.1237E-11
     -5.168  0.3573E-09  0.1654E-10
     -5.125  0.4020E-08  0.1888E-09
     -5.082  0.3852E-07  0.1839E-08
     -5.039  0.3144E-06  0.1531E-07
     -4.996  0.2188E-05  0.1090E-06
     -4.953  0.1299E-04  0.6655E-06
     -4.911  0.6592E-04  0.3489E-05
     -4.868  0.2866E-03  0.1576E-04
     -4.825  0.1070E-02  0.6162E-04
     -4.782  0.3454E-02  0.2096E-03
     -4.739  0.9689E-02  0.6246E-03
     -4.696  0.2386E-01  0.1647E-02
     -4.654  0.5217E-01  0.3881E-02
     -4.611  0.1026E+00  0.8277E-02
     -4.568  0.1839E+00  0.1615E-01
     -4.525  0.3035E+00  0.2915E-01
     -4.482  0.4647E+00  0.4906E-01
     -4.439  0.6643E+00  0.7752E-01
     -4.397  0.8904E+00  0.1157E+00
     -4.354  0.1124E+01  0.1638E+00
     -4.311  0.1343E+01  0.2213E+00
     -4.268  0.1526E+01  0.2867E+00
     -4.225  0.1660E+01  0.3578E+00
     -4.182  0.1749E+01  0.4327E+00
     -4.140  0.1812E+01  0.5104E+00
     -4.097  0.1877E+01  0.5908E+00
     -4.054  0.1978E+01  0.6755E+00
     -4.011  0.2135E+01  0.7669E+00
     -3.968  0.2350E+01  0.8676E+00
     -3.925  0.2601E+01  0.9790E+00
     -3.883  0.2850E+01  0.1101E+01
     -3.840  0.3049E+01  0.1232E+01
     -3.797  0.3166E+01  0.1367E+01
     -3.754  0.3190E+01  0.1504E+01
     -3.711  0.3144E+01  0.1639E+01
     -3.668  0.3073E+01  0.1770E+01
     -3.626  0.3036E+01  0.1900E+01
     -3.583  0.3075E+01  0.2032E+01
     -3.540  0.3209E+01  0.2170E+01
     -3.497  0.3422E+01  0.2316E+01
     -3.454  0.3672E+01  0.2473E+01
     -3.411  0.3910E+01  0.2641E+01
     -3.369  0.4090E+01  0.2816E+01
     -3.326  0.4189E+01  0.2995E+01
     -3.283  0.4212E+01  0.3176E+01
     -3.240  0.4186E+01  0.3355E+01
     -3.197  0.4157E+01  0.3533E+01
     -3.154  0.4173E+01  0.3712E+01
     -3.112  0.4267E+01  0.3895E+01
     -3.069  0.4445E+01  0.4085E+01
     -3.026  0.4684E+01  0.4286E+01
     -2.983  0.4938E+01  0.4497E+01
     -2.940  0.5160E+01  0.4718E+01
     -2.897  0.5311E+01  0.4946E+01
     -2.855  0.5378E+01  0.5176E+01
     -2.812  0.5385E+01  0.5407E+01
     -2.769  0.5382E+01  0.5638E+01
     -2.726  0.5419E+01  0.5870E+01
     -2.683  0.5510E+01  0.6106E+01
     -2.640  0.5617E+01  0.6346E+01
     -2.597  0.5674E+01  0.6589E+01
     -2.555  0.5640E+01  0.6831E+01
     -2.512  0.5539E+01  0.7068E+01
     -2.469  0.5470E+01  0.7303E+01
     -2.426  0.5557E+01  0.7541E+01
     -2.383  0.5878E+01  0.7792E+01
     -2.340  0.6409E+01  0.8067E+01
     -2.298  0.7010E+01  0.8367E+01
     -2.255  0.7477E+01  0.8687E+01
     -2.212  0.7638E+01  0.9015E+01
     -2.169  0.7463E+01  0.9334E+01
     -2.126  0.7094E+01  0.9638E+01
     -2.083  0.6773E+01  0.9928E+01
     -2.041  0.6720E+01  0.1022E+02
     -1.998  0.7020E+01  0.1052E+02
     -1.955  0.7590E+01  0.1084E+02
     -1.912  0.8230E+01  0.1119E+02
     -1.869  0.8721E+01  0.1157E+02
     -1.826  0.8931E+01  0.1195E+02
     -1.784  0.8877E+01  0.1233E+02
     -1.741  0.8707E+01  0.1270E+02
     -1.698  0.8596E+01  0.1307E+02
     -1.655  0.8650E+01  0.1344E+02
     -1.612  0.8863E+01  0.1382E+02
     -1.569  0.9160E+01  0.1421E+02
     -1.527  0.9462E+01  0.1462E+02
     -1.484  0.9737E+01  0.1504E+02
     -1.441  0.9986E+01  0.1546E+02
     -1.398  0.1021E+02  0.1590E+02
     -1.355  0.1040E+02  0.1635E+02
     -1.312  0.1054E+02  0.1680E+02
     -1.270  0.1071E+02  0.1726E+02
     -1.227  0.1107E+02  0.1773E+02
     -1.184  0.1175E+02  0.1824E+02
     -1.141  0.1278E+02  0.1878E+02
     -1.098  0.1394E+02  0.1938E+02
     -1.055  0.1490E+02  0.2002E+02
     -1.013  0.1542E+02  0.2068E+02
     -0.970  0.1551E+02  0.2134E+02
     -0.927  0.1548E+02  0.2201E+02
     -0.884  0.1576E+02  0.2268E+02
     -0.841  0.1665E+02  0.2339E+02
     -0.798  0.1819E+02  0.2417E+02
     -0.756  0.2023E+02  0.2504E+02
     -0.713  0.2269E+02  0.2601E+02
     -0.670  0.2566E+02  0.2711E+02
     -0.627  0.2931E+02  0.2837E+02
     -0.584  0.3366E+02  0.2981E+02
     -0.541  0.3836E+02  0.3145E+02
     -0.499  0.4281E+02  0.3329E+02
     -0.456  0.4651E+02  0.3528E+02
     -0.413  0.4929E+02  0.3739E+02
     -0.370  0.5137E+02  0.3959E+02
     -0.327  0.5308E+02  0.4186E+02
     -0.284  0.5460E+02  0.4420E+02
     -0.242  0.5591E+02  0.4660E+02
     -0.199  0.5688E+02  0.4903E+02
     -0.156  0.5739E+02  0.5149E+02
     -0.113  0.5753E+02  0.5396E+02
     -0.070  0.5754E+02  0.5642E+02
     -0.027  0.5770E+02  0.5889E+02
      0.016  0.5820E+02  0.6139E+02
      0.058  0.5919E+02  0.6392E+02
      0.101  0.6080E+02  0.6653E+02
      0.144  0.6315E+02  0.6923E+02
      0.187  0.6621E+02  0.7207E+02
      0.230  0.6972E+02  0.7505E+02
      0.273  0.7333E+02  0.7819E+02
      0.315  0.7669E+02  0.8148E+02
      0.358  0.7961E+02  0.8489E+02
      0.401  0.8203E+02  0.8840E+02
      0.444  0.8395E+02  0.9200E+02
      0.487  0.8538E+02  0.9566E+02
      0.530  0.8629E+02  0.9935E+02
      0.572  0.8666E+02  0.1031E+03
      0.615  0.8654E+02  0.1068E+03
      0.658  0.8606E+02  0.1105E+03
      0.701  0.8530E+02  0.1141E+03
      0.744  0.8419E+02  0.1177E+03
      0.787  0.8267E+02  0.1213E+03
      0.829  0.8082E+02  0.1247E+03
      0.872  0.7898E+02  0.1281E+03
      0.915  0.7754E+02  0.1314E+03
      0.958  0.7672E+02  0.1347E+03
      1.001  0.7639E+02  0.1380E+03
      1.044  0.7619E+02  0.1412E+03
      1.086  0.7578E+02  0.1445E+03
      1.129  0.7502E+02  0.1477E+03
      1.172  0.7409E+02  0.1509E+03
      1.215  0.7336E+02  0.1540E+03
      1.258  0.7317E+02  0.1572E+03
      1.301  0.7351E+02  0.1603E+03
      1.343  0.7392E+02  0.1635E+03
      1.386  0.7379E+02  0.1666E+03
      1.429  0.7276E+02  0.1698E+03
      1.472  0.7102E+02  0.1728E+03
      1.515  0.6918E+02  0.1758E+03
      1.558  0.6794E+02  0.1787E+03
      1.600  0.6773E+02  0.1816E+03
      1.643  0.6859E+02  0.1845E+03
      1.686  0.7031E+02  0.1875E+03
      1.729  0.7257E+02  0.1906E+03
      1.772  0.7506E+02  0.1938E+03
      1.815  0.7753E+02  0.1972E+03
      1.857  0.7984E+02  0.2006E+03
      1.900  0.8190E+02  0.2041E+03
      1.943  0.8373E+02  0.2077E+03
      1.986  0.8540E+02  0.2113E+03
      2.029  0.8698E+02  0.2151E+03
      2.072  0.8854E+02  0.2189E+03
      2.114  0.9010E+02  0.2227E+03
      2.157  0.9167E+02  0.2266E+03
      2.200  0.9324E+02  0.2306E+03
      2.243  0.9487E+02  0.2347E+03
      2.286  0.9673E+02  0.2388E+03
      2.329  0.9911E+02  0.2431E+03
      2.371  0.1023E+03  0.2475E+03
      2.414  0.1062E+03  0.2520E+03
      2.457  0.1107E+03  0.2568E+03
      2.500  0.1153E+03  0.2617E+03
      2.543  0.1195E+03  0.2668E+03
      2.586  0.1230E+03  0.2721E+03
      2.628  0.1257E+03  0.2775E+03
      2.671  0.1274E+03  0.2829E+03
      2.714  0.1285E+03  0.2884E+03
      2.757  0.1292E+03  0.2940E+03
      2.800  0.1302E+03  0.2995E+03
      2.843  0.1320E+03  0.3052E+03
      2.886  0.1348E+03  0.3110E+03
      2.928  0.1382E+03  0.3169E+03
      2.971  0.1411E+03  0.3229E+03
      3.014  0.1418E+03  0.3290E+03
      3.057  0.1393E+03  0.3350E+03
      3.100  0.1332E+03  0.3407E+03
      3.143  0.1245E+03  0.3460E+03
      3.185  0.1149E+03  0.3509E+03
      3.228  0.1062E+03  0.3555E+03
      3.271  0.9929E+02  0.3597E+03
      3.314  0.9472E+02  0.3638E+03
      3.357  0.9221E+02  0.3678E+03
      3.400  0.9120E+02  0.3717E+03
      3.442  0.9090E+02  0.3756E+03
      3.485  0.9048E+02  0.3794E+03
      3.528  0.8938E+02  0.3833E+03
      3.571  0.8750E+02  0.3870E+03
      3.614  0.8536E+02  0.3907E+03
      3.657  0.8384E+02  0.3943E+03
      3.699  0.8369E+02  0.3978E+03
      3.742  0.8514E+02  0.4015E+03
      3.785  0.8778E+02  0.4052E+03
      3.828  0.9087E+02  0.4091E+03
      3.871  0.9375E+02  0.4132E+03
      3.914  0.9612E+02  0.4173E+03
      3.956  0.9804E+02  0.4215E+03
      3.999  0.9971E+02  0.4257E+03
      4.042  0.1012E+03  0.4301E+03
      4.085  0.1023E+03  0.4345E+03
      4.128  0.1029E+03  0.4389E+03
      4.171  0.1027E+03  0.4433E+03
      4.213  0.1019E+03  0.4476E+03
      4.256  0.1007E+03  0.4519E+03
      4.299  0.9963E+02  0.4562E+03
      4.342  0.9900E+02  0.4605E+03
      4.385  0.9896E+02  0.4647E+03
      4.428  0.9940E+02  0.4689E+03
      4.470  0.1000E+03  0.4732E+03
      4.513  0.1004E+03  0.4775E+03
      4.556  0.1003E+03  0.4818E+03
      4.599  0.9973E+02  0.4861E+03
      4.642  0.9886E+02  0.4903E+03
      4.685  0.9824E+02  0.4945E+03
      4.727  0.9838E+02  0.4988E+03
      4.770  0.9962E+02  0.5030E+03
      4.813  0.1019E+03  0.5074E+03
      4.856  0.1049E+03  0.5119E+03
      4.899  0.1080E+03  0.5165E+03
      4.942  0.1106E+03  0.5213E+03
      4.984  0.1122E+03  0.5261E+03
      5.027  0.1122E+03  0.5309E+03
      5.070  0.1096E+03  0.5356E+03
      5.113  0.1035E+03  0.5400E+03
      5.156  0.9308E+02  0.5440E+03
      5.199  0.7861E+02  0.5473E+03
      5.241  0.6145E+02  0.5500E+03
      5.284  0.4388E+02  0.5519E+03
      5.327  0.2832E+02  0.5531E+03
      5.370  0.1638E+02  0.5538E+03
      5.413  0.8432E+01  0.5541E+03
      5.456  0.3844E+01  0.5543E+03
      5.499  0.1546E+01  0.5544E+03
      5.541  0.5470E+00  0.5544E+03
      5.584  0.1700E+00  0.5544E+03
      5.627  0.4634E-01  0.5544E+03
      5.670  0.1107E-01  0.5544E+03
      5.713  0.2314E-02  0.5544E+03
      5.756  0.4229E-03  0.5544E+03
      5.798  0.6753E-04  0.5544E+03
      5.841  0.9406E-05  0.5544E+03
      5.884  0.1141E-05  0.5544E+03
      5.927  0.1203E-06  0.5544E+03
      5.970  0.1101E-07  0.5544E+03
      6.013  0.8719E-09  0.5544E+03
      6.055  0.5967E-10  0.5544E+03
      6.098  0.3522E-11  0.5544E+03
      6.141  0.1775E-12  0.5544E+03
      6.184  0.7451E-14  0.5544E+03
      6.227  0.2592E-15  0.5544E+03
      6.270  0.0000E+00  0.5544E+03
      6.312  0.0000E+00  0.5544E+03
      6.355  0.0000E+00  0.5544E+03
      6.398  0.0000E+00  0.5544E+03
      6.441  0.0000E+00  0.5544E+03
      6.484  0.0000E+00  0.5544E+03
      6.527  0.0000E+00  0.5544E+03
      6.569  0.0000E+00  0.5544E+03
      6.612  0.0000E+00  0.5544E+03
      6.655  0.0000E+00  0.5544E+03
      6.698  0.0000E+00  0.5544E+03
      6.741  0.0000E+00  0.5544E+03
      6.784  0.0000E+00  0.5544E+03
      6.826  0.0000E+00  0.5544E+03
