unknown system                          
           1
     9.726678    0.000000    0.000000
     0.000000    8.423550    0.000000
     0.000000    0.000000   45.000000
   Fe   Mn
 274  14
Direct configuration=     1
   0.06255986  0.03002532  0.12420290
   0.31635300  0.87459884  0.65507604
   0.18368390  0.12313807  0.78865223
   0.44160375  0.28752660  0.38911860
   0.31818803  0.71388435  0.83316783
   0.81814951  0.21491141  0.83360792
   0.19157301  0.96317083  0.83357749
   0.56212555  0.20691310  0.56554464
   0.06551644  0.04037410  0.74419355
   0.81161435  0.87149062  0.52141056
   0.19061377  0.29096415  0.74435822
   0.93361256  0.45206974  0.34484444
   0.94104853  0.28655329  0.38895134
   0.81283357  0.04077959  0.87577093
   0.18368578  0.78804654  0.61087688
   0.56640983  0.03773291  0.38904862
   0.94263974  0.96481133  0.83389708
   0.31322459  0.54063597  0.87605082
   0.69018185  0.29146972  0.74424356
   0.18222999  0.61354640  0.16674628
   0.81221400  0.20587021  0.47865609
   0.80902525  0.53830389  0.61105967
   0.31208272  0.87043831  0.43448471
   0.81017583  0.03867280  0.25595170
   0.68294131  0.95172937  0.34477936
   0.93130663  0.11457705  0.16692867
   0.06183447  0.87179501  0.52141384
   0.55801384  0.53767620  0.25564449
   0.68463414  0.79761954  0.87590968
   0.55582215  0.36540356  0.16657688
   0.43950457  0.79205745  0.74442164
   0.81131364  0.70663144  0.56547355
   0.55920992  0.87360077  0.78861938
   0.68683201  0.12177615  0.52139674
   0.81639528  0.37496982  0.65496858
   0.94222265  0.46427794  0.83371290
   0.06061436  0.20748363  0.69972473
   0.43556273  0.95749690  0.69973593
   0.31699388  0.21286885  0.83348157
   0.44124858  0.62492798  0.65501229
   0.30903205  0.53829291  0.61098843
   0.93646643  0.45638117  0.56560823
   0.69013213  0.79150883  0.74430555
   0.93464899  0.78804901  0.12445950
   0.69162143  0.78771846  0.38903460
   0.94032996  0.79085163  0.74451570
   0.05899333  0.20289346  0.34499882
   0.68364021  0.45227891  0.34496587
   0.43376815  0.12293369  0.78896657
   0.06492373  0.20405625  0.21114273
   0.05515870  0.36521581  0.16666442
   0.93366290  0.78747768  0.25568712
   0.56062709  0.20722837  0.69979611
   0.68522126  0.95716564  0.69979024
   0.80891519  0.87362252  0.78837385
   0.43673096  0.95725742  0.56542102
   0.80894492  0.37479022  0.78854279
   0.68439331  0.28805018  0.25591680
   0.18735861  0.45709935  0.56550814
   0.05679427  0.86536099  0.16668685
   0.18419167  0.28839682  0.61104821
   0.06234544  0.20709676  0.56539381
   0.31067815  0.20735492  0.69984755
   0.56244602  0.54077972  0.87597583
   0.06212727  0.70653180  0.56553536
   0.68304134  0.62255759  0.78860862
   0.31586920  0.53823471  0.38891067
   0.18692730  0.62140927  0.52141805
   0.56255591  0.87056421  0.43441835
   0.43678503  0.45698506  0.56554913
   0.43992172  0.29154735  0.74428066
   0.82097588  0.87312726  0.30024743
   0.80840223  0.70241322  0.34494643
   0.44241343  0.46271701  0.83336793
   0.68759348  0.95582601  0.47871082
   0.68473342  0.45761644  0.69979562
   0.56194642  0.87226101  0.52145485
   0.56628444  0.37457892  0.65497804
   0.81603754  0.87480867  0.65506542
   0.81179822  0.37146850  0.43419025
   0.80876240  0.53725420  0.25584779
   0.69208451  0.46216784  0.83332977
   0.18601080  0.78768414  0.12407717
   0.69137708  0.28721086  0.38906289
   0.31595202  0.37396122  0.65499684
   0.30888915  0.20210616  0.34473370
   0.81551784  0.54031744  0.74422372
   0.69176706  0.96235374  0.83346960
   0.56606313  0.87445895  0.65498434
   0.31125815  0.70696478  0.56551760
   0.31172403  0.53014973  0.12409384
   0.69022402  0.95440414  0.21174632
   0.31145338  0.20664393  0.56549333
   0.18741794  0.95576261  0.47864857
   0.68730050  0.95683592  0.56554816
   0.43388769  0.78811598  0.61098233
   0.68230809  0.61214147  0.16614857
   0.31956278  0.87296495  0.30005519
   0.31231576  0.70590384  0.47862251
   0.93368296  0.28786438  0.61089851
   0.44616652  0.62337338  0.30010495
   0.80713413  0.86331176  0.16675601
   0.56618920  0.20317400  0.21155739
   0.93250981  0.61309093  0.16657640
   0.43731348  0.95586152  0.47864942
   0.55907053  0.37330019  0.78873328
   0.06159922  0.37229954  0.52141385
   0.30700210  0.36442426  0.16663379
   0.69544713  0.12315783  0.30026090
   0.44287731  0.96322551  0.83338351
   0.18493008  0.28663511  0.12417439
   0.18404493  0.28787311  0.25589115
   0.31259133  0.37053292  0.43445267
   0.56290660  0.03216081  0.12439566
   0.43389854  0.28847960  0.61095985
   0.18385046  0.45263962  0.34496401
   0.43422576  0.28652347  0.12422087
   0.68328871  0.78835516  0.25581603
   0.43697468  0.12167706  0.52145721
   0.18845484  0.29682381  0.87615955
   0.19131276  0.12503410  0.65514441
   0.94120438  0.12485428  0.65497069
   0.81631570  0.53764086  0.38902406
   0.06658259  0.03808163  0.38918513
   0.18320326  0.11225747  0.16646519
   0.05864338  0.53813878  0.61097777
   0.31529157  0.70417475  0.21155416
   0.55883399  0.53824484  0.61098938
   0.93668307  0.95717574  0.56553644
   0.69449586  0.62352986  0.29999196
   0.93746929  0.62037488  0.43446219
   0.93343152  0.62432766  0.78834586
   0.56048432  0.70725561  0.69974013
   0.06609937  0.71668170  0.83394109
   0.94499485  0.12271602  0.30005650
   0.93362781  0.78770472  0.61089485
   0.43371384  0.78729099  0.25556005
   0.30907467  0.37389062  0.78876190
   0.44062232  0.45311915  0.21115262
   0.18704179  0.12201619  0.52140138
   0.81029196  0.70725330  0.69974773
   0.05875697  0.03798287  0.61087742
   0.56603723  0.21348865  0.83324788
   0.31167961  0.87184000  0.52139857
   0.68654377  0.28594283  0.12399065
   0.19016152  0.95497445  0.21168690
   0.68394594  0.28836403  0.61101298
   0.30908240  0.03840632  0.61104446
   0.93401364  0.12468105  0.78862226
   0.43669654  0.79776040  0.87620445
   0.81543208  0.04061595  0.74421387
   0.93516003  0.45790985  0.69964221
   0.19104840  0.62514739  0.65507468
   0.31044881  0.70692881  0.69975640
   0.93426307  0.28669741  0.12403452
   0.43740516  0.45609277  0.47855297
   0.06235423  0.70574812  0.47857329
   0.93695471  0.11964790  0.43460393
   0.44422834  0.12328876  0.30037185
   0.18700567  0.11991711  0.43426740
   0.56275958  0.04064216  0.87602990
   0.18690965  0.95704805  0.56550452
   0.68453806  0.78796049  0.12445611
   0.55912094  0.70240401  0.34496823
   0.31634007  0.03730154  0.38886943
   0.68225415  0.11377675  0.16673314
   0.81537299  0.20328910  0.21123545
   0.05837984  0.53668648  0.25557742
   0.56248217  0.70562712  0.47870181
   0.43512952  0.78711755  0.12422732
   0.56974391  0.37188149  0.30008597
   0.43353822  0.95244536  0.34493950
   0.18514282  0.95729303  0.69980043
   0.43191657  0.61247794  0.16620783
   0.94029079  0.45432035  0.21175238
   0.06178177  0.53011576  0.12410178
   0.81189231  0.37210382  0.52138115
   0.94481385  0.62355096  0.29979156
   0.30976027  0.03721089  0.25569067
   0.68392168  0.78815666  0.61091621
   0.19164390  0.46316866  0.83349223
   0.43289236  0.11214063  0.16658567
   0.31180368  0.37196825  0.52139060
   0.43316987  0.62299450  0.78890691
   0.05914731  0.03720612  0.25557278
   0.56238713  0.70707808  0.56554871
   0.93992756  0.29061671  0.74450334
   0.68225559  0.12294663  0.78858390
   0.18963056  0.45372932  0.21125501
   0.94125399  0.78770303  0.38871581
   0.68545190  0.29912025  0.87601412
   0.55642757  0.86283068  0.16651768
   0.43558234  0.45746605  0.69973890
   0.93404899  0.95136669  0.34489727
   0.68668094  0.62149762  0.52135046
   0.06641094  0.87474737  0.65492960
   0.05905581  0.87402190  0.78846517
   0.06627148  0.37437303  0.65492379
   0.68716320  0.45572874  0.47863306
   0.18465240  0.78792440  0.25550995
   0.43702571  0.12072482  0.43440480
   0.81344375  0.03144602  0.12411299
   0.93681403  0.62209867  0.52142192
   0.44147899  0.12461376  0.65490352
   0.81313285  0.53008823  0.12409594
   0.43362529  0.45249792  0.34495894
   0.80904573  0.20243769  0.34498023
   0.30881200  0.70141221  0.34483136
   0.69116983  0.12475506  0.65500707
   0.57023988  0.87351344  0.30023973
   0.06541211  0.54084773  0.74434693
   0.93976952  0.95444193  0.21128533
   0.81609819  0.70383296  0.21135088
   0.07052035  0.87266185  0.30002783
   0.19433325  0.12384068  0.30005205
   0.05870209  0.70220382  0.34489184
   0.80898842  0.03832632  0.61099749
   0.06272030  0.37183776  0.43432343
   0.55876600  0.20271336  0.34479126
   0.82022521  0.37374521  0.30013537
   0.56018511  0.03704925  0.25546211
   0.56641713  0.53754173  0.38906403
   0.06260843  0.20603768  0.47865813
   0.31028649  0.87313962  0.78843781
   0.93526143  0.95806305  0.69968615
   0.06991365  0.37420702  0.30008510
   0.69112546  0.62501790  0.65521186
   0.68648809  0.45697815  0.56538929
   0.44050844  0.95478745  0.21192797
   0.31252875  0.20581586  0.47871860
   0.81222472  0.54030739  0.87585709
   0.68789523  0.62046444  0.43445116
   0.81087978  0.20727138  0.69983439
   0.81259680  0.70581388  0.47864579
   0.81178891  0.87108317  0.43429954
   0.93729912  0.95537731  0.47871961
   0.56224940  0.20567309  0.47866281
   0.18727329  0.61974820  0.43442981
   0.31507605  0.04176191  0.74411782
   0.94132447  0.62505686  0.65490527
   0.56628006  0.71350645  0.83332418
   0.32014258  0.37232746  0.29991350
   0.31525861  0.54147922  0.74427863
   0.18739380  0.45563122  0.47866624
   0.31438765  0.04127048  0.87589111
   0.18528175  0.45806097  0.69968607
   0.56179583  0.37190500  0.52138762
   0.19100704  0.28752862  0.38892749
   0.31556245  0.20386621  0.21140535
   0.06679301  0.70324488  0.21126397
   0.56189271  0.37085209  0.43437057
   0.43666671  0.62212041  0.52136815
   0.81713620  0.71533542  0.83336948
   0.05883686  0.37495200  0.78843921
   0.43654720  0.29837379  0.87634456
   0.31136229  0.03115123  0.12419090
   0.68772111  0.11967183  0.43439167
   0.18375190  0.95227738  0.34490320
   0.06674181  0.21524104  0.83402890
   0.55925900  0.03860588  0.61111651
   0.68908012  0.45428491  0.21171789
   0.18963608  0.79161993  0.74441435
   0.19572890  0.62296404  0.30020960
   0.44136505  0.78776882  0.38909646
   0.43283385  0.28800753  0.25558913
   0.06335376  0.54071606  0.87588137
   0.56540433  0.04117721  0.74426489
   0.18792708  0.79727307  0.87608248
   0.93738676  0.45580716  0.47863181
   0.56506980  0.54129281  0.74408702
   0.81124157  0.20695401  0.56547479
   0.18438918  0.62268735  0.78849653
   0.06742854  0.53890344  0.38914296
   0.06075498  0.70754870  0.69967137
   0.30851360  0.53744047  0.25588123
   0.93340678  0.28815967  0.25611221
   0.30547279  0.86500455  0.16596824
   0.43688633  0.62086703  0.43446784
   0.81823628  0.03912111  0.38905395
   0.93485021  0.29781365  0.87557327
   0.93715755  0.79540657  0.87555083
   0.06540753  0.03906561  0.87577103
   0.56162086  0.52949372  0.12449317
   0.80553897  0.36562188  0.16583530
   0.06207350  0.87142703  0.43444670
   0.93653459  0.12182065  0.52151625
   0.19343126  0.78794116  0.38870597
   0.56634588  0.70392208  0.21183647
Direct configuration=     2
   0.06246979  0.03055327  0.12421191
   0.31595900  0.87453111  0.65508017
   0.18410247  0.12343165  0.78860071
   0.44138331  0.28763188  0.38916532
   0.31767568  0.71352819  0.83321817
   0.81775722  0.21459205  0.83361408
   0.19124975  0.96306452  0.83362475
   0.56206505  0.20682369  0.56561143
   0.06520656  0.04057516  0.74419426
   0.81153961  0.87170580  0.52150375
   0.19028829  0.29104469  0.74434200
   0.93412400  0.45234243  0.34484160
   0.94082725  0.28677340  0.38899592
   0.81276677  0.04155428  0.87571125
   0.18407809  0.78822824  0.61082647
   0.56613643  0.03778657  0.38910085
   0.94244821  0.96443396  0.83388267
   0.31325842  0.54134380  0.87595606
   0.68994626  0.29141596  0.74425474
   0.18265918  0.61399131  0.16667198
   0.81226136  0.20576981  0.47860694
   0.80924125  0.53840220  0.61098844
   0.31219502  0.87055394  0.43444993
   0.81043109  0.03843259  0.25595819
   0.68363089  0.95204184  0.34478301
   0.93171716  0.11482964  0.16682928
   0.06193782  0.87196302  0.52147912
   0.55854298  0.53758681  0.25566539
   0.68500848  0.79705733  0.87585554
   0.55621359  0.36553644  0.16649524
   0.43941324  0.79201080  0.74440936
   0.81136358  0.70655124  0.56554218
   0.55948720  0.87369791  0.78857131
   0.68682126  0.12184944  0.52147776
   0.81596068  0.37477563  0.65500359
   0.94194828  0.46397273  0.83372364
   0.06076150  0.20749811  0.69976643
   0.43574160  0.95745241  0.69976178
   0.31663588  0.21271327  0.83352919
   0.44085849  0.62479143  0.65502228
   0.30936017  0.53842755  0.61092306
   0.93651150  0.45632289  0.56566537
   0.68987951  0.79148469  0.74430627
   0.93459269  0.78726608  0.12447308
   0.69143187  0.78768586  0.38907843
   0.94001899  0.79090427  0.74446568
   0.05945720  0.20306771  0.34496076
   0.68420157  0.45251668  0.34494306
   0.43409985  0.12322470  0.78888198
   0.06467928  0.20388541  0.21121572
   0.05556634  0.36536660  0.16653252
   0.93410242  0.78754646  0.25569682
   0.56079232  0.20720603  0.69982679
   0.68546262  0.95721910  0.69982646
   0.80912655  0.87382505  0.78835824
   0.43673496  0.95705804  0.56551537
   0.80921019  0.37472764  0.78850121
   0.68472763  0.28784191  0.25592174
   0.18725161  0.45692739  0.56558154
   0.05715793  0.86556017  0.16660731
   0.18452074  0.28851164  0.61098839
   0.06222108  0.20696109  0.56546685
   0.31086950  0.20736257  0.69986842
   0.56267153  0.54154840  0.87588485
   0.06205656  0.70645027  0.56559674
   0.68340552  0.62293021  0.78855138
   0.31567495  0.53806929  0.38899045
   0.18698027  0.62166843  0.52149961
   0.56253426  0.87066895  0.43438757
   0.43680702  0.45687639  0.56562589
   0.43973216  0.29161589  0.74428432
   0.82020210  0.87302747  0.30023393
   0.80891753  0.70252242  0.34492682
   0.44206645  0.46250827  0.83343202
   0.68758648  0.95562872  0.47863679
   0.68507515  0.45754179  0.69982699
   0.56192682  0.87225523  0.52152525
   0.56591030  0.37444862  0.65499536
   0.81569981  0.87469026  0.65508254
   0.81181667  0.37139115  0.43417260
   0.80918593  0.53717643  0.25586068
   0.69180210  0.46213672  0.83338905
   0.18596202  0.78702213  0.12410895
   0.69104930  0.28730653  0.38909764
   0.31560906  0.37398423  0.65500588
   0.30934844  0.20232576  0.34476014
   0.81520471  0.54043263  0.74421137
   0.69156220  0.96227552  0.83350253
   0.56572368  0.87442060  0.65500794
   0.31137923  0.70686859  0.56558498
   0.31130781  0.53062087  0.12410455
   0.68995927  0.95418626  0.21176171
   0.31154717  0.20660731  0.56557178
   0.18741652  0.95567751  0.47858687
   0.68723693  0.95671946  0.56561869
   0.43418205  0.78828233  0.61091372
   0.68238751  0.61260103  0.16618878
   0.31906674  0.87288033  0.30006091
   0.31227442  0.70578761  0.47853640
   0.93401221  0.28804802  0.61084115
   0.44536767  0.62309523  0.30011726
   0.80728891  0.86360736  0.16667289
   0.56587077  0.20307061  0.21161871
   0.93280561  0.61340499  0.16652543
   0.43732622  0.95560685  0.47857511
   0.55934480  0.37342079  0.78866941
   0.06159115  0.37237489  0.52148603
   0.30720645  0.36462493  0.16649119
   0.69480432  0.12290418  0.30024868
   0.44255322  0.96290156  0.83343843
   0.18490903  0.28608615  0.12421893
   0.18450002  0.28760984  0.25590800
   0.31259456  0.37067227  0.43441087
   0.56255281  0.03235835  0.12436389
   0.43420032  0.28859393  0.61089340
   0.18430182  0.45277622  0.34494920
   0.43402703  0.28580230  0.12426542
   0.68377373  0.78825259  0.25582887
   0.43694537  0.12188763  0.52151613
   0.18853732  0.29633085  0.87610383
   0.19092023  0.12484644  0.65515209
   0.94084261  0.12469116  0.65500857
   0.81603645  0.53763436  0.38906947
   0.06631436  0.03807692  0.38921264
   0.18326150  0.11266816  0.16640744
   0.05902128  0.53825781  0.61091203
   0.31500692  0.70391098  0.21154870
   0.55911884  0.53841305  0.61091522
   0.93669726  0.95699140  0.56559255
   0.69397908  0.62329940  0.30004152
   0.93753039  0.62054103  0.43440556
   0.93375117  0.62455667  0.78834240
   0.56065942  0.70723486  0.69977374
   0.06590169  0.71612139  0.83390949
   0.94442264  0.12265870  0.30006744
   0.93395143  0.78790833  0.61085676
   0.43419971  0.78728757  0.25561729
   0.30940960  0.37390107  0.78868635
   0.44028840  0.45337134  0.21123678
   0.18697809  0.12204142  0.52147546
   0.81053235  0.70730517  0.69978497
   0.05910855  0.03821312  0.61082843
   0.56586871  0.21320811  0.83328132
   0.31176070  0.87192313  0.52149448
   0.68643622  0.28527499  0.12401652
   0.18990752  0.95481686  0.21170183
   0.68418506  0.28851618  0.61095365
   0.30936909  0.03851397  0.61097493
   0.93426081  0.12483582  0.78858232
   0.43683776  0.79707662  0.87609831
   0.81513485  0.04080133  0.74420340
   0.93541900  0.45777515  0.69969617
   0.19070796  0.62497584  0.65508118
   0.31067232  0.70697315  0.69979586
   0.93442182  0.28611781  0.12405879
   0.43739643  0.45585604  0.47849775
   0.06241859  0.70554589  0.47850996
   0.93705157  0.11989941  0.43458335
   0.44384145  0.12300181  0.30030192
   0.18710091  0.12011199  0.43423500
   0.56301456  0.04138803  0.87594477
   0.18686606  0.95692101  0.56558238
   0.68465395  0.78746087  0.12445201
   0.55966581  0.70260004  0.34494284
   0.31609472  0.03739950  0.38894277
   0.68258925  0.11402159  0.16666926
   0.81517595  0.20321200  0.21133587
   0.05881842  0.53681863  0.25561455
   0.56249934  0.70560109  0.47861994
   0.43503063  0.78667975  0.12423554
   0.56916421  0.37185284  0.30010472
   0.43411242  0.95264473  0.34490938
   0.18538668  0.95734195  0.69982575
   0.43217878  0.61303376  0.16621287
   0.93997344  0.45421783  0.21177238
   0.06163823  0.53047638  0.12411401
   0.81189835  0.37221248  0.52145915
   0.94423930  0.62336288  0.29982846
   0.31005102  0.03718001  0.25573267
   0.68417679  0.78827482  0.61086347
   0.19143868  0.46311545  0.83355237
   0.43308647  0.11248965  0.16654188
   0.31181043  0.37213347  0.52147572
   0.43362916  0.62322072  0.78884033
   0.05949791  0.03719015  0.25561063
   0.56225194  0.70694001  0.56561424
   0.93970430  0.29070044  0.74445329
   0.68280532  0.12326645  0.78853264
   0.18937632  0.45374194  0.21133494
   0.94093776  0.78760065  0.38880521
   0.68569881  0.29833743  0.87595414
   0.55650025  0.86310248  0.16647710
   0.43573526  0.45737121  0.69978587
   0.93451449  0.95167451  0.34488590
   0.68666335  0.62168757  0.52143141
   0.06595985  0.87463746  0.65496219
   0.05943334  0.87419698  0.78846237
   0.06588104  0.37430259  0.65496634
   0.68716841  0.45558601  0.47854085
   0.18498252  0.78784177  0.25555896
   0.43706069  0.12075433  0.43437488
   0.81310203  0.03182274  0.12413307
   0.93676365  0.62212932  0.52149351
   0.44106062  0.12450859  0.65494275
   0.81316207  0.53069158  0.12404770
   0.43424332  0.45265404  0.34493388
   0.80953373  0.20258379  0.34495055
   0.30936445  0.70178362  0.34481936
   0.69080172  0.12465480  0.65504101
   0.56961752  0.87326888  0.30021672
   0.06510319  0.54081017  0.74430864
   0.93961989  0.95432240  0.21137593
   0.81581150  0.70367385  0.21141471
   0.06977989  0.87254849  0.30002518
   0.19376549  0.12360367  0.30003683
   0.05917832  0.70239061  0.34486988
   0.80928623  0.03844633  0.61093491
   0.06276317  0.37170901  0.43428381
   0.55934416  0.20280829  0.34480252
   0.81954527  0.37351757  0.30013573
   0.56049243  0.03716444  0.25555035
   0.56612950  0.53746117  0.38909792
   0.06252278  0.20580875  0.47859601
   0.31048990  0.87329829  0.78839919
   0.93547189  0.95799083  0.69971421
   0.06931647  0.37386135  0.30011230
   0.69075071  0.62489228  0.65519948
   0.68650981  0.45685201  0.56547668
   0.44024352  0.95454498  0.21191880
   0.31248685  0.20565663  0.47862997
   0.81231770  0.54106015  0.87578596
   0.68795164  0.62055500  0.43440009
   0.81101350  0.20730174  0.69985831
   0.81254360  0.70568207  0.47856877
   0.81177854  0.87103671  0.43428248
   0.93731310  0.95529716  0.47865776
   0.56232872  0.20554864  0.47859462
   0.18725591  0.61999691  0.43439365
   0.31484151  0.04177670  0.74414688
   0.94090970  0.62495083  0.65494149
   0.56606122  0.71318808  0.83334482
   0.31956470  0.37236120  0.29993352
   0.31500363  0.54138743  0.74428757
   0.18747297  0.45556154  0.47857199
   0.31447760  0.04209923  0.87582890
   0.18547018  0.45791009  0.69973940
   0.56182391  0.37206486  0.52147197
   0.19073468  0.28757419  0.38900485
   0.31522374  0.20365385  0.21144678
   0.06631912  0.70331029  0.21131861
   0.56197718  0.37091143  0.43434333
   0.43673503  0.62222704  0.52143271
   0.81683482  0.71494618  0.83337810
   0.05924698  0.37496162  0.78842819
   0.43663553  0.29769431  0.87623536
   0.31126957  0.03153597  0.12414182
   0.68770797  0.11998532  0.43435765
   0.18418427  0.95244840  0.34488370
   0.06639793  0.21474941  0.83397963
   0.55948486  0.03868962  0.61103072
   0.68901724  0.45421072  0.21172538
   0.18948898  0.79156420  0.74438600
   0.19499859  0.62274221  0.30017815
   0.44117574  0.78768813  0.38915050
   0.43345553  0.28785966  0.25563902
   0.06359490  0.54138816  0.87583238
   0.56517629  0.04126899  0.74427112
   0.18794580  0.79668134  0.87602830
   0.93735389  0.45560997  0.47855834
   0.56485689  0.54132769  0.74411233
   0.81130564  0.20688206  0.56554381
   0.18472858  0.62305507  0.78847631
   0.06706892  0.53882489  0.38919950
   0.06086115  0.70753704  0.69970749
   0.30900125  0.53739058  0.25586693
   0.93375726  0.28791562  0.25607550
   0.30588974  0.86504531  0.16592932
   0.43683613  0.62089705  0.43442575
   0.81779902  0.03888559  0.38907839
   0.93505871  0.29735719  0.87559370
   0.93716873  0.79486461  0.87557148
   0.06538951  0.03986947  0.87571673
   0.56149635  0.53007056  0.12450570
   0.80582397  0.36574829  0.16579744
   0.06214934  0.87131939  0.43439576
   0.93662075  0.12199380  0.52154509
   0.19289406  0.78774359  0.38878494
   0.56598895  0.70376325  0.21181747
Direct configuration=     3
   0.06219960  0.03213710  0.12423896
   0.31477698  0.87432794  0.65509255
   0.18535819  0.12431241  0.78844613
   0.44072200  0.28794774  0.38930546
   0.31613864  0.71245970  0.83336920
   0.81658033  0.21363396  0.83363256
   0.19027994  0.96274557  0.83376653
   0.56188353  0.20655546  0.56581179
   0.06427690  0.04117835  0.74419639
   0.81131539  0.87235133  0.52178333
   0.18931186  0.29128632  0.74429333
   0.93565833  0.45316050  0.34483309
   0.94016341  0.28743374  0.38912966
   0.81256638  0.04387836  0.87553222
   0.18525502  0.78877335  0.61067524
   0.56531624  0.03794753  0.38925756
   0.94187363  0.96330186  0.83383945
   0.31335992  0.54346729  0.87567179
   0.68923952  0.29125468  0.74428825
   0.18394673  0.61532602  0.16644910
   0.81240345  0.20546859  0.47845947
   0.80988923  0.53869712  0.61077476
   0.31253192  0.87090085  0.43434557
   0.81119685  0.03771196  0.25597764
   0.68569964  0.95297925  0.34479396
   0.93294875  0.11558741  0.16653110
   0.06224788  0.87246702  0.52167494
   0.56013041  0.53731865  0.25572807
   0.68613150  0.79537071  0.87569313
   0.55738793  0.36593508  0.16625034
   0.43913925  0.79187082  0.74437250
   0.81151341  0.70631063  0.56574807
   0.56031902  0.87398934  0.78842709
   0.68678904  0.12206931  0.52172081
   0.81465690  0.37419305  0.65510862
   0.94112518  0.46305710  0.83375586
   0.06120291  0.20754156  0.69989153
   0.43627820  0.95731893  0.69983934
   0.31556185  0.21224650  0.83367207
   0.43968821  0.62438178  0.65505224
   0.31034451  0.53883145  0.61072695
   0.93664669  0.45614806  0.56583678
   0.68912165  0.79141227  0.74430842
   0.93442379  0.78491732  0.12451382
   0.69086320  0.78758806  0.38920992
   0.93908611  0.79106218  0.74431559
   0.06084881  0.20359047  0.34484660
   0.68588567  0.45323000  0.34487463
   0.43509493  0.12409772  0.78862819
   0.06394592  0.20337287  0.21143469
   0.05678927  0.36581895  0.16613684
   0.93542098  0.78775280  0.25572593
   0.56128801  0.20713901  0.69991883
   0.68618669  0.95737946  0.69993510
   0.80976063  0.87443264  0.78831141
   0.43674698  0.95645989  0.56579841
   0.81000601  0.37453991  0.78837644
   0.68573059  0.28721711  0.25593656
   0.18693062  0.45641150  0.56580172
   0.05824892  0.86615770  0.16636870
   0.18550796  0.28885611  0.61080894
   0.06184800  0.20655409  0.56568597
   0.31144355  0.20738554  0.69993101
   0.56334805  0.54385446  0.87561189
   0.06184442  0.70620570  0.56578089
   0.68449806  0.62404808  0.78837968
   0.31509217  0.53757305  0.38922978
   0.18713919  0.62244591  0.52174429
   0.56246934  0.87098316  0.43429522
   0.43687296  0.45655040  0.56585616
   0.43916347  0.29182150  0.74429528
   0.81788074  0.87272809  0.30019344
   0.81046342  0.70285001  0.34486800
   0.44102554  0.46188206  0.83362427
   0.68756549  0.95503684  0.47841471
   0.68610035  0.45731784  0.69992108
   0.56186800  0.87223788  0.52173644
   0.56478791  0.37405770  0.65504732
   0.81468662  0.87433501  0.65513390
   0.81187203  0.37115911  0.43411963
   0.81045651  0.53694315  0.25589934
   0.69095486  0.46204337  0.83356688
   0.18581568  0.78503610  0.12420431
   0.69006594  0.28759354  0.38920190
   0.31458021  0.37405325  0.65503301
   0.31072632  0.20298455  0.34483946
   0.81426532  0.54077820  0.74417431
   0.69094760  0.96204085  0.83360131
   0.56470535  0.87430556  0.65507874
   0.31174247  0.70658002  0.56578710
   0.31005915  0.53203429  0.12413669
   0.68916501  0.95353261  0.21180787
   0.31182854  0.20649742  0.56580713
   0.18741225  0.95542220  0.47840179
   0.68704625  0.95637007  0.56583030
   0.43506513  0.78878138  0.61070788
   0.68262579  0.61397972  0.16630942
   0.31757862  0.87262647  0.30007809
   0.31215040  0.70543894  0.47827806
   0.93499995  0.28859891  0.61066905
   0.44297111  0.62226078  0.30015419
   0.80775323  0.86449414  0.16642354
   0.56491549  0.20276047  0.21180269
   0.93369300  0.61434718  0.16637250
   0.43736446  0.95484285  0.47835221
   0.56016761  0.37378259  0.78847780
   0.06156692  0.37260095  0.52170258
   0.30781950  0.36522695  0.16606340
   0.69287590  0.12214322  0.30021202
   0.44158098  0.96192970  0.83360319
   0.18484587  0.28443930  0.12435256
   0.18586527  0.28682000  0.25595855
   0.31260425  0.37109031  0.43428545
   0.56149142  0.03295095  0.12426858
   0.43510566  0.28893692  0.61069407
   0.18565589  0.45318601  0.34490476
   0.43343084  0.28363880  0.12439909
   0.68522876  0.78794487  0.25586738
   0.43685744  0.12251935  0.52169291
   0.18878474  0.29485197  0.87593667
   0.18974263  0.12428345  0.65517510
   0.93975732  0.12420180  0.65512219
   0.81519869  0.53761488  0.38920569
   0.06550966  0.03806280  0.38929514
   0.18343620  0.11390025  0.16623419
   0.06015495  0.53861490  0.61071483
   0.31415299  0.70311965  0.21153231
   0.55997339  0.53891767  0.61069275
   0.93673984  0.95643838  0.56576088
   0.69242873  0.62260805  0.30019021
   0.93771370  0.62103951  0.43423567
   0.93471011  0.62524368  0.78833200
   0.56118474  0.70717261  0.69987455
   0.06530864  0.71444045  0.83381468
   0.94270602  0.12248673  0.30010027
   0.93492230  0.78851914  0.61074250
   0.43565733  0.78727733  0.25578899
   0.31041439  0.37393241  0.78845968
   0.43928662  0.45412792  0.21148925
   0.18678697  0.12211712  0.52169769
   0.81125353  0.70746078  0.69989667
   0.06016329  0.03890385  0.61068147
   0.56536316  0.21236652  0.83338163
   0.31200398  0.87217252  0.52178220
   0.68611357  0.28327146  0.12409412
   0.18914552  0.95434409  0.21174665
   0.68490242  0.28897261  0.61077564
   0.31022915  0.03883694  0.61076636
   0.93500231  0.12530012  0.78846251
   0.43726141  0.79502528  0.87577990
   0.81424319  0.04135747  0.74417200
   0.93619592  0.45737106  0.69985805
   0.18968665  0.62446121  0.65510068
   0.31134287  0.70710615  0.69991423
   0.93489807  0.28437902  0.12413158
   0.43737026  0.45514583  0.47833207
   0.06261168  0.70493920  0.47831996
   0.93734214  0.12065391  0.43452162
   0.44268079  0.12214096  0.30009215
   0.18738664  0.12069666  0.43413780
   0.56377951  0.04362565  0.87568939
   0.18673529  0.95653987  0.56581597
   0.68500160  0.78596203  0.12443970
   0.56130045  0.70318815  0.34486669
   0.31535867  0.03769337  0.38916279
   0.68359458  0.11475611  0.16647761
   0.81458482  0.20298071  0.21163711
   0.06013415  0.53721508  0.25572594
   0.56255087  0.70552301  0.47837430
   0.43473394  0.78536635  0.12426021
   0.56742511  0.37176689  0.30016096
   0.43583505  0.95324283  0.34481903
   0.18611823  0.95748872  0.69990170
   0.43296539  0.61470122  0.16622801
   0.93902142  0.45391027  0.21183238
   0.06120759  0.53155822  0.12415068
   0.81191647  0.37253844  0.52169315
   0.94251563  0.62279861  0.29993918
   0.31092328  0.03708737  0.25585866
   0.68494210  0.78862930  0.61070526
   0.19082304  0.46295585  0.83373279
   0.43366877  0.11353670  0.16641051
   0.31183071  0.37262912  0.52173107
   0.43500705  0.62389936  0.78864059
   0.06054970  0.03714224  0.25572418
   0.56184637  0.70652583  0.56581086
   0.93903449  0.29095162  0.74430313
   0.68445453  0.12422592  0.78837888
   0.18861361  0.45377980  0.21157472
   0.93998909  0.78729351  0.38907342
   0.68643956  0.29598896  0.87577417
   0.55671827  0.86391789  0.16635535
   0.43619402  0.45708668  0.69992680
   0.93591100  0.95259799  0.34485178
   0.68661060  0.62225742  0.52167427
   0.06460656  0.87430773  0.65505994
   0.06056591  0.87472223  0.78845396
   0.06470972  0.37409126  0.65509399
   0.68718404  0.45515781  0.47826423
   0.18597288  0.78759388  0.25570598
   0.43716564  0.12084286  0.43428515
   0.81207687  0.03295288  0.12419332
   0.93661249  0.62222126  0.52170828
   0.43980552  0.12419308  0.65506043
   0.81324971  0.53250162  0.12390296
   0.43609740  0.45312239  0.34485871