       N       E                     dE             d eps       ncg     rms          rms(c)
DAV:   1     0.304406485152E+05    0.30441E+05   -0.91750E+05 27770   0.213E+03
DAV:   2     0.153421268796E+04   -0.28906E+05   -0.28307E+05 27600   0.616E+02
DAV:   3    -0.189637532946E+04   -0.34306E+04   -0.29817E+04 38490   0.298E+02
DAV:   4    -0.260984265387E+04   -0.71347E+03   -0.64970E+03 50660   0.104E+02
DAV:   5    -0.273961978022E+04   -0.12978E+03   -0.12143E+03 48210   0.424E+01    0.207E+02
RMM:   6    -0.689811599943E+04   -0.41585E+04   -0.16248E+04 48549   0.282E+02    0.830E+02
RMM:   7    -0.711595962091E+04   -0.21784E+03   -0.10051E+04 49769   0.137E+02    0.664E+02
RMM:   8    -0.730464804261E+04   -0.18869E+03   -0.17109E+04 38258   0.389E+02    0.107E+03
RMM:   9    -0.957104406979E+04   -0.22664E+04   -0.11058E+04 44782   0.252E+02    0.111E+03
RMM:  10    -0.107694700341E+05   -0.11984E+04   -0.10402E+04 46015   0.294E+02    0.143E+03
RMM:  11    -0.161483099790E+05   -0.53788E+04   -0.16589E+04 50402   0.264E+02    0.121E+03
RMM:  12    -0.118948844096E+05    0.42534E+04   -0.88065E+03 39880   0.216E+02    0.937E+02
RMM:  13    -0.716490663496E+04    0.47300E+04   -0.52561E+03 46160   0.168E+02    0.597E+02
RMM:  14    -0.679356976978E+04    0.37134E+03   -0.38407E+03 44490   0.130E+02    0.532E+02
RMM:  15    -0.595128610791E+04    0.84228E+03   -0.52613E+03 38461   0.195E+02    0.461E+02
RMM:  16    -0.452860148544E+04    0.14227E+04   -0.32602E+03 46355   0.774E+01    0.401E+02
RMM:  17    -0.292266924903E+04    0.16059E+04   -0.27192E+03 32546   0.101E+02    0.304E+02
RMM:  18    -0.288593424016E+04    0.36735E+02   -0.32345E+03 47040   0.604E+01    0.240E+02
RMM:  19    -0.274466186549E+04    0.14127E+03   -0.19627E+03 45136   0.554E+01    0.196E+02
RMM:  20    -0.281289496230E+04   -0.68233E+02   -0.19773E+03 48129   0.521E+01    0.199E+02
RMM:  21    -0.282839018706E+04   -0.15495E+02   -0.12949E+03 43243   0.394E+01    0.174E+02
RMM:  22    -0.283595747600E+04   -0.75673E+01   -0.95173E+02 42687   0.303E+01    0.165E+02
RMM:  23    -0.275265260069E+04    0.83305E+02   -0.83741E+02 46044   0.221E+01    0.163E+02
RMM:  24    -0.263209024814E+04    0.12056E+03   -0.39676E+02 36301   0.176E+01    0.146E+02
RMM:  25    -0.257968283923E+04    0.52407E+02   -0.30756E+02 43599   0.107E+01    0.145E+02
RMM:  26    -0.249839031158E+04    0.81293E+02   -0.14869E+02 42997   0.839E+00    0.135E+02
RMM:  27    -0.246815286488E+04    0.30237E+02   -0.69847E+01 45281   0.392E+00    0.134E+02
RMM:  28    -0.240841313196E+04    0.59740E+02   -0.30603E+01 34790   0.604E+00    0.116E+02
RMM:  29    -0.235468111988E+04    0.53732E+02   -0.40811E+01 31792   0.917E+00    0.749E+01
RMM:  30    -0.235331310352E+04    0.13680E+01   -0.58921E+01 40019   0.738E+00    0.808E+01
RMM:  31    -0.236368865749E+04   -0.10376E+02   -0.25235E+01 34451   0.549E+00    0.876E+01
RMM:  32    -0.236008466825E+04    0.36040E+01   -0.15242E+01 39471   0.364E+00    0.849E+01
RMM:  33    -0.235658397869E+04    0.35007E+01   -0.54850E+00 38184   0.212E+00    0.787E+01
RMM:  34    -0.235513201324E+04    0.14520E+01   -0.24267E+00 37420   0.146E+00    0.759E+01
RMM:  35    -0.235307014991E+04    0.20619E+01   -0.14978E+00 33354   0.153E+00    0.720E+01
RMM:  36    -0.234923696020E+04    0.38332E+01   -0.10692E+00 30476   0.171E+00    0.674E+01
RMM:  37    -0.234397431917E+04    0.52626E+01   -0.23424E+00 29532   0.295E+00    0.626E+01
RMM:  38    -0.234044684894E+04    0.35275E+01   -0.38230E+00 29805   0.365E+00    0.596E+01
RMM:  39    -0.234030187418E+04    0.14497E+00   -0.43760E+00 30044   0.369E+00    0.593E+01
RMM:  40    -0.233745124780E+04    0.28506E+01   -0.40359E+00 35618   0.262E+00    0.545E+01
RMM:  41    -0.233401611793E+04    0.34351E+01   -0.29267E+00 34718   0.214E+00    0.485E+01
RMM:  42    -0.233189261469E+04    0.21235E+01   -0.26582E+00 33605   0.220E+00    0.438E+01
RMM:  43    -0.232928349320E+04    0.26091E+01   -0.32773E+00 36592   0.218E+00    0.369E+01
RMM:  44    -0.232871595365E+04    0.56754E+00   -0.28860E+00 37621   0.188E+00    0.351E+01
RMM:  45    -0.232985598960E+04   -0.11400E+01   -0.18668E+00 35669   0.169E+00    0.373E+01
RMM:  46    -0.232944797973E+04    0.40801E+00   -0.13872E+00 36397   0.133E+00    0.364E+01
RMM:  47    -0.232872474152E+04    0.72324E+00   -0.13506E+00 32625   0.164E+00    0.352E+01
RMM:  48    -0.232832112788E+04    0.40361E+00   -0.23640E+00 34617   0.199E+00    0.341E+01
RMM:  49    -0.232919841116E+04   -0.87728E+00   -0.29592E+00 41557   0.148E+00    0.357E+01
RMM:  50    -0.232916345310E+04    0.34958E-01   -0.11778E+00 39630   0.929E-01    0.353E+01
RMM:  51    -0.236689978110E+04   -0.37736E+02   -0.24142E+01 29662   0.955E+00    0.832E+01
RMM:  52    -0.236248722451E+04    0.44126E+01   -0.16167E+01 30821   0.675E+00    0.760E+01
RMM:  53    -0.236353066480E+04   -0.10434E+01   -0.15819E+01 32689   0.533E+00    0.785E+01
RMM:  54    -0.237591741435E+04   -0.12387E+02   -0.11170E+01 32110   0.435E+00    0.895E+01
RMM:  55    -0.237667950056E+04   -0.76209E+00   -0.17195E+01 42591   0.267E+00    0.909E+01
RMM:  56    -0.239721771510E+04   -0.20538E+02   -0.32186E+01 28489   0.111E+01    0.107E+02
RMM:  57    -0.245562915031E+04   -0.58411E+02   -0.74892E+01 37950   0.854E+00    0.144E+02
RMM:  58    -0.250381999208E+04   -0.48191E+02   -0.62743E+01 39095   0.641E+00    0.171E+02
RMM:  59    -0.251375283445E+04   -0.99328E+01   -0.49232E+01 44530   0.299E+00    0.181E+02
RMM:  60    -0.250943524291E+04    0.43176E+01   -0.21541E+01 43504   0.226E+00    0.184E+02
RMM:  61    -0.253963561444E+04   -0.30200E+02   -0.26764E+01 31234   0.784E+00    0.196E+02
RMM:  62    -0.254033133447E+04   -0.69572E+00   -0.33246E+01 44521   0.219E+00    0.198E+02
RMM:  63    -0.249056021792E+04    0.49771E+02   -0.13134E+01 28018   0.745E+00    0.175E+02
RMM:  64    -0.248105770061E+04    0.95025E+01   -0.17722E+01 42086   0.301E+00    0.169E+02
RMM:  65    -0.248113305915E+04   -0.75359E-01   -0.78859E+00 44868   0.112E+00    0.170E+02
RMM:  66    -0.239451681795E+04    0.86616E+02   -0.17316E+01 33002   0.569E+00    0.114E+02
RMM:  67    -0.243011870028E+04   -0.35602E+02   -0.10457E+01 27621   0.720E+00    0.137E+02
RMM:  68    -0.251813719064E+04   -0.88018E+02   -0.16063E+01 28149   0.872E+00    0.188E+02
RMM:  69    -0.251273232598E+04    0.54049E+01   -0.11407E+01 28254   0.731E+00    0.189E+02
RMM:  70    -0.245484602324E+04    0.57886E+02   -0.14996E+01 30315   0.664E+00    0.152E+02
RMM:  71    -0.238039006484E+04    0.74456E+02   -0.47364E+01 29234   0.123E+01    0.990E+01
RMM:  72    -0.235831187137E+04    0.22078E+02   -0.36581E+01 35867   0.727E+00    0.782E+01
RMM:  73    -0.234693068647E+04    0.11381E+02   -0.21446E+01 31142   0.724E+00    0.655E+01
RMM:  74    -0.234599356321E+04    0.93712E+00   -0.17654E+01 29434   0.767E+00    0.625E+01
RMM:  75    -0.234416129123E+04    0.18323E+01   -0.13864E+01 28236   0.762E+00    0.589E+01
RMM:  76    -0.235276339591E+04   -0.86021E+01   -0.14878E+01 27618   0.835E+00    0.711E+01
RMM:  77    -0.234283731231E+04    0.99261E+01   -0.92482E+00 27813   0.673E+00    0.573E+01
RMM:  78    -0.233525608198E+04    0.75812E+01   -0.12208E+01 33696   0.428E+00    0.442E+01
RMM:  79    -0.233123334570E+04    0.40227E+01   -0.80475E+00 33342   0.383E+00    0.356E+01
RMM:  80    -0.233014208792E+04    0.10913E+01   -0.86824E+00 32830   0.411E+00    0.319E+01
RMM:  81    -0.233553267318E+04   -0.53906E+01   -0.11821E+01 28446   0.690E+00    0.441E+01
RMM:  82    -0.232871023812E+04    0.68224E+01   -0.45275E+00 27917   0.519E+00    0.263E+01
RMM:  83    -0.232785582537E+04    0.85441E+00   -0.52910E+00 32442   0.320E+00    0.226E+01
RMM:  84    -0.232772069980E+04    0.13513E+00   -0.36340E+00 33011   0.269E+00    0.211E+01
RMM:  85    -0.232712070763E+04    0.59999E+00   -0.22960E+00 38231   0.179E+00    0.176E+01
RMM:  86    -0.232792497926E+04   -0.80427E+00   -0.57790E+00 30362   0.399E+00    0.201E+01
RMM:  87    -0.232687414711E+04    0.10508E+01   -0.23728E+00 27689   0.356E+00    0.155E+01
RMM:  88    -0.232774799830E+04   -0.87385E+00   -0.21976E+00 32382   0.210E+00    0.194E+01
RMM:  89    -0.232825633727E+04   -0.50834E+00   -0.15717E+00 35205   0.159E+00    0.211E+01
RMM:  90    -0.232805338464E+04    0.20295E+00   -0.70114E-01 30434   0.140E+00    0.200E+01
RMM:  91    -0.232956158268E+04   -0.15082E+01   -0.27069E+00 28553   0.311E+00    0.251E+01
RMM:  92    -0.232784581805E+04    0.17158E+01   -0.97911E-01 27606   0.248E+00    0.185E+01
RMM:  93    -0.232658073926E+04    0.12651E+01   -0.72563E-01 28547   0.175E+00    0.115E+01
RMM:  94    -0.232631780275E+04    0.26294E+00   -0.12565E+00 30575   0.181E+00    0.983E+00
RMM:  95    -0.232621538205E+04    0.10242E+00   -0.86767E-01 30971   0.149E+00    0.875E+00
RMM:  96    -0.232647655654E+04   -0.26117E+00   -0.12742E+00 31243   0.173E+00    0.109E+01
RMM:  97    -0.232609381523E+04    0.38274E+00   -0.34122E-01 28560   0.135E+00    0.729E+00
RMM:  98    -0.232609247744E+04    0.13378E-02   -0.32148E-01 34183   0.681E-01    0.704E+00
RMM:  99    -0.232611707257E+04   -0.24595E-01   -0.10753E-01 30698   0.542E-01    0.722E+00
RMM: 100    -0.232608279458E+04    0.34278E-01   -0.79440E-02 30819   0.474E-01
   1 F= -.23260828E+04 E0= -.23232896E+04  d E =-.232608E+04
       N       E                     dE             d eps       ncg     rms          rms(c)
DAV:   1    -0.232628469304E+04   -0.16762E+00   -0.11439E+01 42880   0.481E+00    0.926E+00
RMM:   2    -0.302820985374E+04   -0.70193E+03   -0.54449E+02 43009   0.308E+01    0.215E+02
RMM:   3    -0.241280278375E+04    0.61541E+03   -0.61144E+01 31994   0.131E+01    0.111E+02
RMM:   4    -0.239329720668E+04    0.19506E+02   -0.26204E+01 27832   0.995E+00    0.104E+02
RMM:   5    -0.240137519561E+04   -0.80780E+01   -0.18809E+01 36126   0.513E+00    0.110E+02
RMM:   6    -0.234271797042E+04    0.58657E+02   -0.73860E+00 27795   0.551E+00    0.554E+01
RMM:   7    -0.233726897241E+04    0.54490E+01   -0.16597E+01 33671   0.579E+00    0.466E+01
RMM:   8    -0.233951544243E+04   -0.22465E+01   -0.19264E+01 36759   0.528E+00    0.491E+01
RMM:   9    -0.232888462034E+04    0.10631E+02   -0.58984E+00 28543   0.463E+00    0.242E+01
RMM:  10    -0.233066415893E+04   -0.17795E+01   -0.77314E+00 33246   0.382E+00    0.294E+01
RMM:  11    -0.232867846029E+04    0.19857E+01   -0.23411E+00 28828   0.281E+00    0.228E+01
RMM:  12    -0.232688996616E+04    0.17885E+01   -0.12765E+00 30166   0.188E+00    0.141E+01
RMM:  13    -0.232633031063E+04    0.55966E+00   -0.94505E-01 32325   0.137E+00    0.995E+00
RMM:  14    -0.232603105209E+04    0.29926E+00   -0.70091E-01 32887   0.118E+00    0.682E+00
RMM:  15    -0.232595422532E+04    0.76827E-01   -0.40629E-01 32734   0.889E-01    0.547E+00
RMM:  16    -0.232595765416E+04   -0.34288E-02   -0.31993E-01 40216   0.548E-01    0.518E+00
RMM:  17    -0.232591255779E+04    0.45096E-01   -0.82738E-02 33420   0.386E-01    0.418E+00
RMM:  18    -0.232588335983E+04    0.29198E-01   -0.38898E-02 33042   0.276E-01    0.338E+00
RMM:  19    -0.232586781541E+04    0.15544E-01   -0.52448E-02 30220   0.383E-01    0.288E+00
RMM:  20    -0.232586281755E+04    0.49979E-02   -0.29268E-02 28446   0.333E-01    0.266E+00
RMM:  21    -0.232586478423E+04   -0.19667E-02   -0.33653E-02 33084   0.262E-01    0.269E+00
RMM:  22    -0.232585524714E+04    0.95371E-02   -0.26176E-02 34823   0.216E-01    0.225E+00
RMM:  23    -0.232584744662E+04    0.78005E-02   -0.12214E-02 28521   0.225E-01    0.187E+00
RMM:  24    -0.232584317275E+04    0.42739E-02   -0.17501E-02 30513   0.215E-01    0.162E+00
RMM:  25    -0.232584128012E+04    0.18926E-02   -0.96700E-03 28294   0.205E-01    0.151E+00
RMM:  26    -0.232584127104E+04    0.90759E-05   -0.75039E-03 30131   0.149E-01    0.148E+00
RMM:  27    -0.232583593203E+04    0.53390E-02   -0.91442E-03 37565   0.107E-01    0.104E+00
RMM:  28    -0.232583308904E+04    0.28430E-02   -0.31800E-03 32028   0.814E-02    0.723E-01
RMM:  29    -0.232583289174E+04    0.19729E-03   -0.27072E-03 41790   0.413E-02    0.675E-01
RMM:  30    -0.232583276284E+04    0.12890E-03   -0.58355E-04 32470   0.326E-02    0.640E-01
RMM:  31    -0.232583274114E+04    0.21703E-04   -0.48257E-04 30053   0.390E-02    0.635E-01
RMM:  32    -0.232583266100E+04    0.80134E-04   -0.81894E-04 29272   0.518E-02    0.630E-01
RMM:  33    -0.232583209515E+04    0.56586E-03   -0.52428E-04 28733   0.449E-02    0.534E-01
RMM:  34    -0.232583188203E+04    0.21311E-03   -0.58647E-04 36477   0.269E-02    0.491E-01
RMM:  35    -0.232583132914E+04    0.55289E-03   -0.29608E-04 34451   0.201E-02    0.350E-01
RMM:  36    -0.232583112389E+04    0.20525E-03   -0.13806E-04 27475   0.161E-02    0.279E-01
RMM:  37    -0.232583114565E+04   -0.21765E-04   -0.12213E-04 28224   0.166E-02    0.278E-01
RMM:  38    -0.232583119853E+04   -0.52880E-04   -0.63428E-05 22776   0.158E-02    0.283E-01
RMM:  39    -0.232583118538E+04    0.13152E-04   -0.38790E-05 19471   0.117E-02    0.272E-01
RMM:  40    -0.232583101542E+04    0.16996E-03   -0.86532E-05 24867   0.129E-02    0.180E-01
RMM:  41    -0.232583093809E+04    0.77336E-04   -0.71130E-05 23983   0.141E-02    0.843E-02
RMM:  42    -0.232583094300E+04   -0.49110E-05   -0.53527E-05 21222   0.916E-03
   2 F= -.23258309E+04 E0= -.23230560E+04  d E =0.251852E+00
       N       E                     dE             d eps       ncg     rms          rms(c)
DAV:   1    -0.232583314913E+04   -0.22110E-02   -0.37771E-01 30120   0.647E-01    0.165E-01
RMM:   2    -0.232635408999E+04   -0.52094E+00   -0.39945E-02 32078   0.304E-01    0.985E+00
RMM:   3    -0.232587561990E+04    0.47847E+00   -0.15492E-02 31806   0.206E-01    0.217E+00
RMM:   4    -0.232591927581E+04   -0.43656E-01   -0.12563E-02 27847   0.237E-01    0.390E+00
RMM:   5    -0.232585477070E+04    0.64505E-01   -0.85640E-03 29157   0.169E-01    0.198E+00
RMM:   6    -0.232584739395E+04    0.73768E-02   -0.13141E-02 30589   0.185E-01    0.164E+00
RMM:   7    -0.232588394899E+04   -0.36555E-01   -0.26172E-02 33320   0.215E-01    0.303E+00
RMM:   8    -0.232583718030E+04    0.46769E-01   -0.83535E-03 27607   0.207E-01    0.679E-01
RMM:   9    -0.232583394518E+04    0.32351E-02   -0.32396E-03 28255   0.121E-01    0.349E-01
RMM:  10    -0.232583389096E+04    0.54217E-04   -0.25677E-03 34384   0.590E-02    0.327E-01
RMM:  11    -0.232583396831E+04   -0.77346E-04   -0.17208E-03 31677   0.602E-02    0.319E-01
RMM:  12    -0.232583361341E+04    0.35490E-03   -0.64090E-04 28680   0.485E-02    0.189E-01
RMM:  13    -0.232583348615E+04    0.12726E-03   -0.50116E-04 32916   0.285E-02    0.107E-01
RMM:  14    -0.232583349537E+04   -0.92204E-05   -0.28301E-04 32394   0.172E-02    0.991E-02
RMM:  15    -0.232583347474E+04    0.20623E-04   -0.93702E-05 25511   0.175E-02    0.761E-02
RMM:  16    -0.232583347138E+04    0.33663E-05   -0.36152E-05 19332   0.135E-02
   3 F= -.23258335E+04 E0= -.23230585E+04  d E =0.249323E+00
       N       E                     dE             d eps       ncg     rms          rms(c)
DAV:   1    -0.232583469235E+04   -0.12176E-02   -0.17437E-01 29180   0.440E-01    0.128E-01
RMM:   2    -0.232607713021E+04   -0.24244E+00   -0.20106E-02 31483   0.226E-01    0.678E+00
RMM:   3    -0.232586113431E+04    0.21600E+00   -0.93655E-03 33148   0.147E-01    0.186E+00
RMM:   4    -0.232586055101E+04    0.58331E-03   -0.65322E-03 27644   0.183E-01    0.221E+00
RMM:   5    -0.232584960211E+04    0.10949E-01   -0.55637E-03 33207   0.106E-01    0.154E+00
RMM:   6    -0.232584005771E+04    0.95444E-02   -0.56284E-03 28476   0.139E-01    0.949E-01
RMM:   7    -0.232586761458E+04   -0.27557E-01   -0.13349E-02 33645   0.151E-01    0.250E+00
RMM:   8    -0.232583787882E+04    0.29736E-01   -0.42820E-03 27700   0.138E-01    0.641E-01
RMM:   9    -0.232583526198E+04    0.26168E-02   -0.19123E-03 27900   0.970E-02    0.305E-01
RMM:  10    -0.232583500159E+04    0.26039E-03   -0.12671E-03 32875   0.490E-02    0.220E-01
RMM:  11    -0.232583507985E+04   -0.78259E-04   -0.10801E-03 32723   0.464E-02    0.235E-01
RMM:  12    -0.232583489748E+04    0.18236E-03   -0.37204E-04 28519   0.372E-02    0.140E-01
RMM:  13    -0.232583483270E+04    0.64783E-04   -0.26052E-04 30447   0.235E-02    0.842E-02
RMM:  14    -0.232583483974E+04   -0.70372E-05   -0.15567E-04 28043   0.135E-02    0.815E-02
RMM:  15    -0.232583481581E+04    0.23930E-04   -0.49122E-05 20853   0.135E-02    0.494E-02
RMM:  16    -0.232583480807E+04    0.77352E-05   -0.22447E-05 16715   0.112E-02
   4 F= -.23258348E+04 E0= -.23230599E+04  d E =0.247987E+00
       N       E                     dE             d eps       ncg     rms          rms(c)
DAV:   1    -0.232583637099E+04   -0.15552E-02   -0.12668E+00 28180   0.118E+00    0.301E-01
RMM:   2    -0.232630453622E+04   -0.46817E+00   -0.96704E-02 31226   0.521E-01    0.935E+00
RMM:   3    -0.232602223108E+04    0.28231E+00   -0.56735E-02 38844   0.252E-01    0.566E+00
RMM:   4    -0.232587910888E+04    0.14312E+00   -0.26681E-02 27609   0.367E-01    0.273E+00
RMM:   5    -0.232592854978E+04   -0.49441E-01   -0.25685E-02 34975   0.210E-01    0.403E+00
RMM:   6    -0.232584629707E+04    0.82253E-01   -0.16412E-02 30875   0.212E-01    0.116E+00
RMM:   7    -0.232592929920E+04   -0.83002E-01   -0.44712E-02 34034   0.276E-01    0.427E+00
RMM:   8    -0.232584825394E+04    0.81045E-01   -0.15245E-02 29596   0.223E-01    0.124E+00
RMM:   9    -0.232583821977E+04    0.10034E-01   -0.69734E-03 27730   0.190E-01    0.489E-01
RMM:  10    -0.232583831047E+04   -0.90695E-04   -0.72084E-03 36260   0.959E-02    0.505E-01
RMM:  11    -0.232583875273E+04   -0.44227E-03   -0.40227E-03 34506   0.843E-02    0.549E-01
RMM:  12    -0.232583766572E+04    0.10870E-02   -0.14644E-03 28472   0.728E-02    0.315E-01
RMM:  13    -0.232583725797E+04    0.40775E-03   -0.90386E-04 30281   0.494E-02    0.174E-01
RMM:  14    -0.232583731815E+04   -0.60181E-04   -0.91817E-04 37860   0.318E-02    0.183E-01
RMM:  15    -0.232583722740E+04    0.90750E-04   -0.34323E-04 29486   0.327E-02    0.135E-01
RMM:  16    -0.232583717529E+04    0.52115E-04   -0.17853E-04 28326   0.254E-02    0.963E-02
RMM:  17    -0.232583716583E+04    0.94547E-05   -0.14444E-04 28414   0.144E-02    0.792E-02
RMM:  18    -0.232583716439E+04    0.14446E-05   -0.75367E-05 24572   0.148E-02
   5 F= -.23258372E+04 E0= -.23230620E+04  d E =0.245630E+00
       N       E                     dE             d eps       ncg     rms          rms(c)
DAV:   1    -0.232583738822E+04   -0.22239E-03   -0.31658E-01 28530   0.593E-01    0.155E-01
RMM:   2    -0.232598048304E+04   -0.14309E+00   -0.24987E-02 30888   0.270E-01    0.514E+00
RMM:   3    -0.232587794889E+04    0.10253E+00   -0.15684E-02 39256   0.132E-01    0.257E+00
RMM:   4    -0.232587536919E+04    0.25797E-02   -0.74955E-03 27663   0.184E-01    0.256E+00
RMM:   5    -0.232585143584E+04    0.23933E-01   -0.56863E-03 31938   0.116E-01    0.163E+00
RMM:   6    -0.232584136418E+04    0.10072E-01   -0.49202E-03 29870   0.120E-01    0.855E-01
RMM:   7    -0.232585199289E+04   -0.10629E-01   -0.11400E-02 36858   0.127E-01    0.162E+00
RMM:   8    -0.232583974297E+04    0.12250E-01   -0.47051E-03 27821   0.135E-01    0.559E-01
RMM:   9    -0.232583794859E+04    0.17944E-02   -0.17256E-03 27650   0.981E-02    0.278E-01
RMM:  10    -0.232583790917E+04    0.39416E-04   -0.14275E-03 34414   0.454E-02    0.259E-01
RMM:  11    -0.232583798754E+04   -0.78370E-04   -0.94731E-04 36979   0.356E-02    0.266E-01
RMM:  12    -0.232583771743E+04    0.27011E-03   -0.31725E-04 28311   0.339E-02    0.155E-01
RMM:  13    -0.232583761637E+04    0.10107E-03   -0.20729E-04 29150   0.236E-02    0.711E-02
RMM:  14    -0.232583764292E+04   -0.26549E-04   -0.18629E-04 30697   0.169E-02    0.960E-02
RMM:  15    -0.232583762065E+04    0.22270E-04   -0.62412E-05 22627   0.161E-02    0.687E-02
RMM:  16    -0.232583760460E+04    0.16043E-04   -0.26114E-05 17096   0.112E-02    0.429E-02
RMM:  17    -0.232583760378E+04    0.82247E-06   -0.18201E-05 16387   0.821E-03
   6 F= -.23258376E+04 E0= -.23230625E+04  d E =0.245191E+00
       N       E                     dE             d eps       ncg     rms          rms(c)
DAV:   1    -0.232583788602E+04   -0.28141E-03   -0.55618E-02 28720   0.249E-01    0.588E-02
RMM:   2    -0.232585459277E+04   -0.16707E-01   -0.36563E-03 30330   0.105E-01    0.178E+00
RMM:   3    -0.232584792152E+04    0.66713E-02   -0.18113E-03 36656   0.528E-02    0.132E+00
RMM:   4    -0.232584061749E+04    0.73040E-02   -0.82035E-04 27457   0.628E-02    0.677E-01
RMM:   5    -0.232583976321E+04    0.85428E-03   -0.70726E-04 31712   0.381E-02    0.552E-01
RMM:   6    -0.232583839382E+04    0.13694E-02   -0.76443E-04 27644   0.562E-02    0.285E-01
RMM:   7    -0.232584086312E+04   -0.24693E-02   -0.17777E-03 36990   0.497E-02    0.760E-01
RMM:   8    -0.232583862880E+04    0.22343E-02   -0.65405E-04 28055   0.486E-02    0.330E-01
RMM:   9    -0.232583811288E+04    0.51593E-03   -0.30188E-04 27435   0.399E-02    0.176E-01
RMM:  10    -0.232583796801E+04    0.14487E-03   -0.15473E-04 27371   0.241E-02    0.859E-02
RMM:  11    -0.232583796338E+04    0.46266E-05   -0.17329E-04 30442   0.163E-02    0.734E-02
RMM:  12    -0.232583795172E+04    0.11661E-04   -0.78554E-05 24518   0.151E-02    0.537E-02
RMM:  13    -0.232583794145E+04    0.10270E-04   -0.27997E-05 16760   0.111E-02    0.338E-02
RMM:  14    -0.232583794148E+04   -0.29337E-07   -0.19282E-05 15923   0.892E-03
   7 F= -.23258379E+04 E0= -.23230629E+04  d E =-.337700E-03
       N       E                     dE             d eps       ncg     rms          rms(c)
DAV:   1    -0.232583812796E+04   -0.18651E-03   -0.50092E-01 27920   0.743E-01    0.147E-01
RMM:   2    -0.232590002246E+04   -0.61895E-01   -0.19487E-02 29683   0.259E-01    0.350E+00
RMM:   3    -0.232588607126E+04    0.13951E-01   -0.79782E-03 32265   0.142E-01    0.285E+00
RMM:   4    -0.232585993695E+04    0.26134E-01   -0.31547E-03 27672   0.120E-01    0.194E+00
RMM:   5    -0.232584419103E+04    0.15746E-01   -0.25333E-03 31658   0.758E-02    0.944E-01
RMM:   6    -0.232584038460E+04    0.38064E-02   -0.29516E-03 27615   0.117E-01    0.559E-01
RMM:   7    -0.232584754889E+04   -0.71643E-02   -0.64216E-03 33293   0.116E-01    0.135E+00
RMM:   8    -0.232584450113E+04    0.30478E-02   -0.28205E-03 29321   0.926E-02    0.102E+00
RMM:   9    -0.232583931441E+04    0.51867E-02   -0.12498E-03 27609   0.807E-02    0.336E-01
RMM:  10    -0.232583868081E+04    0.63360E-03   -0.71629E-04 28780   0.503E-02    0.168E-01
RMM:  11    -0.232583875064E+04   -0.69823E-04   -0.10126E-03 34816   0.404E-02    0.184E-01
RMM:  12    -0.232583868862E+04    0.62013E-04   -0.43510E-04 30031   0.347E-02    0.148E-01
RMM:  13    -0.232583860151E+04    0.87118E-04   -0.20412E-04 29175   0.245E-02    0.835E-02
RMM:  14    -0.232583859530E+04    0.62044E-05   -0.15331E-04 28231   0.138E-02    0.709E-02
RMM:  15    -0.232583859380E+04    0.15065E-05   -0.71330E-05 24075   0.152E-02
   8 F= -.23258386E+04 E0= -.23230638E+04  d E =-.990015E-03
       N       E                     dE             d eps       ncg     rms          rms(c)
DAV:   1    -0.232583873843E+04   -0.14313E-03   -0.72028E-02 28220   0.283E-01    0.655E-02
RMM:   2    -0.232586958809E+04   -0.30850E-01   -0.37668E-03 28652   0.125E-01    0.245E+00
RMM:   3    -0.232584563946E+04    0.23949E-01   -0.18259E-03 33725   0.640E-02    0.104E+00
RMM:   4    -0.232584780530E+04   -0.21658E-02   -0.10826E-03 28144   0.632E-02    0.127E+00
RMM:   5    -0.232584038404E+04    0.74213E-02   -0.83033E-04 28229   0.555E-02    0.484E-01
RMM:   6    -0.232584014876E+04    0.23528E-03   -0.10246E-03 27815   0.627E-02    0.500E-01
RMM:   7    -0.232584133484E+04   -0.11861E-02   -0.19350E-03 35963   0.564E-02    0.679E-01
RMM:   8    -0.232583983880E+04    0.14960E-02   -0.91207E-04 27837   0.604E-02    0.424E-01
RMM:   9    -0.232583900543E+04    0.83337E-03   -0.39022E-04 27503   0.462E-02    0.184E-01
RMM:  10    -0.232583883626E+04    0.16917E-03   -0.16767E-04 27394   0.284E-02    0.866E-02
RMM:  11    -0.232583882843E+04    0.78274E-05   -0.18114E-04 30390   0.183E-02    0.697E-02
RMM:  12    -0.232583882769E+04    0.73726E-06   -0.11030E-04 26962   0.162E-02    0.622E-02
RMM:  13    -0.232583881551E+04    0.12188E-04   -0.39565E-05 19303   0.129E-02    0.449E-02
RMM:  14    -0.232583881380E+04    0.17062E-05   -0.21902E-05 16851   0.812E-03
   9 F= -.23258388E+04 E0= -.23230640E+04  d E =-.220004E-03
       N       E                     dE             d eps       ncg     rms          rms(c)
DAV:   1    -0.232583865955E+04    0.15595E-03   -0.55848E-01 27800   0.785E-01    0.156E-01
RMM:   2    -0.232594201963E+04   -0.10336E+00   -0.22054E-02 29641   0.278E-01    0.451E+00
RMM:   3    -0.232586941949E+04    0.72600E-01   -0.89726E-03 32019   0.156E-01    0.217E+00
RMM:   4    -0.232584323185E+04    0.26188E-01   -0.40272E-03 27624   0.146E-01    0.791E-01
RMM:   5    -0.232587242454E+04   -0.29193E-01   -0.28264E-03 33753   0.727E-02    0.250E+00
RMM:   6    -0.232584237337E+04    0.30051E-01   -0.23844E-03 28969   0.898E-02    0.640E-01
RMM:   7    -0.232585426825E+04   -0.11895E-01   -0.53789E-03 30248   0.122E-01    0.173E+00
RMM:   8    -0.232584533315E+04    0.89351E-02   -0.37940E-03 29152   0.111E-01    0.102E+00
RMM:   9    -0.232583992846E+04    0.54047E-02   -0.15490E-03 27610   0.959E-02    0.352E-01
RMM:  10    -0.232583925398E+04    0.67448E-03   -0.71724E-04 28501   0.533E-02    0.177E-01
RMM:  11    -0.232583941719E+04   -0.16321E-03   -0.10870E-03 31858   0.493E-02    0.235E-01
RMM:  12    -0.232583921698E+04    0.20021E-03   -0.35056E-04 28149   0.385E-02    0.140E-01
RMM:  13    -0.232583915421E+04    0.62764E-04   -0.22837E-04 29973   0.228E-02    0.921E-02
RMM:  14    -0.232583915155E+04    0.26614E-05   -0.15099E-04 27622   0.147E-02    0.836E-02
RMM:  15    -0.232583913656E+04    0.14995E-04   -0.64531E-05 22934   0.151E-02    0.607E-02
RMM:  16    -0.232583912117E+04    0.15383E-04   -0.25965E-05 17077   0.126E-02    0.332E-02
RMM:  17    -0.232583911972E+04    0.14537E-05   -0.14116E-05 15998   0.781E-03
  10 F= -.23258391E+04 E0= -.23230643E+04  d E =-.525923E-03
       N       E                     dE             d eps       ncg     rms          rms(c)
DAV:   1    -0.232583924981E+04   -0.12864E-03   -0.11400E-01 27980   0.353E-01    0.634E-02
RMM:   2    -0.232586620041E+04   -0.26951E-01   -0.34629E-03 28956   0.116E-01    0.227E+00
RMM:   3    -0.232584468348E+04    0.21517E-01   -0.12043E-03 31348   0.594E-02    0.927E-01
RMM:   4    -0.232584501656E+04   -0.33308E-03   -0.77826E-04 28403   0.525E-02    0.100E+00
RMM:   5    -0.232584049929E+04    0.45173E-02   -0.58667E-04 27880   0.473E-02    0.408E-01
RMM:   6    -0.232584021978E+04    0.27951E-03   -0.10399E-03 27738   0.664E-02    0.396E-01
RMM:   7    -0.232584342239E+04   -0.32026E-02   -0.19072E-03 35439   0.568E-02    0.891E-01
RMM:   8    -0.232583985127E+04    0.35711E-02   -0.63926E-04 27556   0.525E-02    0.262E-01
RMM:   9    -0.232583940429E+04    0.44698E-03   -0.30553E-04 27495   0.413E-02    0.115E-01
RMM:  10    -0.232583936442E+04    0.39870E-04   -0.21986E-04 32466   0.206E-02    0.778E-02
RMM:  11    -0.232583941515E+04   -0.50734E-04   -0.17143E-04 29659   0.177E-02    0.119E-01
RMM:  12    -0.232583937320E+04    0.41952E-04   -0.82767E-05 23336   0.157E-02    0.769E-02
RMM:  13    -0.232583934942E+04    0.23776E-04   -0.33443E-05 18333   0.121E-02    0.442E-02
RMM:  14    -0.232583934769E+04    0.17277E-05   -0.21037E-05 16843   0.837E-03
  11 F= -.23258393E+04 E0= -.23230643E+04  d E =-.227976E-03
       N       E                     dE             d eps       ncg     rms          rms(c)
DAV:   1    -0.232583901584E+04    0.33358E-03   -0.10261E+00 27620   0.106E+00    0.191E-01
RMM:   2    -0.232606097432E+04   -0.22196E+00   -0.34260E-02 29184   0.360E-01    0.662E+00
RMM:   3    -0.232588209942E+04    0.17887E+00   -0.11355E-02 29240   0.205E-01    0.249E+00
RMM:   4    -0.232588250230E+04   -0.40288E-03   -0.54351E-03 27698   0.163E-01    0.280E+00
RMM:   5    -0.232584849486E+04    0.34007E-01   -0.38300E-03 32419   0.906E-02    0.114E+00
RMM:   6    -0.232584602058E+04    0.24743E-02   -0.72439E-03 27673   0.178E-01    0.102E+00
RMM:   7    -0.232584575899E+04    0.26159E-03   -0.51406E-03 27844   0.151E-01    0.105E+00
RMM:   8    -0.232584439191E+04    0.13671E-02   -0.18705E-03 27618   0.991E-02    0.925E-01
RMM:   9    -0.232584056420E+04    0.38277E-02   -0.73313E-04 27619   0.616E-02    0.345E-01
RMM:  10    -0.232583994332E+04    0.62088E-03   -0.43827E-04 28207   0.434E-02    0.166E-01
RMM:  11    -0.232584006617E+04   -0.12285E-03   -0.66617E-04 30311   0.424E-02    0.217E-01
RMM:  12    -0.232583992116E+04    0.14501E-03   -0.37668E-04 29103   0.358E-02    0.147E-01
RMM:  13    -0.232583984170E+04    0.79459E-04   -0.18699E-04 28909   0.253E-02    0.962E-02
RMM:  14    -0.232583984254E+04   -0.83377E-06   -0.14670E-04 26837   0.135E-02    0.908E-02
RMM:  15    -0.232583982407E+04    0.18465E-04   -0.63449E-05 23044   0.145E-02    0.657E-02
RMM:  16    -0.232583980482E+04    0.19248E-04   -0.25794E-05 16735   0.127E-02    0.317E-02
RMM:  17    -0.232583980292E+04    0.19008E-05   -0.13863E-05 15785   0.810E-03
  12 F= -.23258398E+04 E0= -.23230645E+04  d E =-.683205E-03
       N       E                     dE             d eps       ncg     rms          rms(c)
DAV:   1    -0.232583992454E+04   -0.11972E-03   -0.91559E-02 27950   0.318E-01    0.709E-02
RMM:   2    -0.232585488133E+04   -0.14957E-01   -0.37605E-03 29330   0.117E-01    0.169E+00
RMM:   3    -0.232584851639E+04    0.63649E-02   -0.30467E-03 40858   0.510E-02    0.122E+00
RMM:   4    -0.232584477695E+04    0.37394E-02   -0.12880E-03 27604   0.796E-02    0.929E-01
RMM:   5    -0.232584100488E+04    0.37721E-02   -0.86252E-04 33846   0.402E-02    0.412E-01
RMM:   6    -0.232584124523E+04   -0.24035E-03   -0.91591E-04 30071   0.492E-02    0.489E-01
RMM:   7    -0.232584200382E+04   -0.75860E-03   -0.18777E-03 36677   0.541E-02    0.609E-01
RMM:   8    -0.232584130181E+04    0.70202E-03   -0.87910E-04 28639   0.531E-02    0.462E-01
RMM:   9    -0.232584027957E+04    0.10222E-02   -0.39388E-04 27430   0.429E-02    0.224E-01
RMM:  10    -0.232584003706E+04    0.24250E-03   -0.19658E-04 27947   0.263E-02    0.990E-02
RMM:  11    -0.232584003295E+04    0.41171E-05   -0.21916E-04 31467   0.184E-02    0.912E-02
RMM:  12    -0.232584002530E+04    0.76493E-05   -0.12315E-04 28128   0.172E-02    0.785E-02
RMM:  13    -0.232583999825E+04    0.27048E-04   -0.39387E-05 19023   0.139E-02    0.414E-02
RMM:  14    -0.232583999682E+04    0.14282E-05   -0.21974E-05 16622   0.831E-03
  13 F= -.23258400E+04 E0= -.23230646E+04  d E =-.193897E-03
       N       E                     dE             d eps       ncg     rms          rms(c)
DAV:   1    -0.232583976100E+04    0.23725E-03   -0.46256E-01 27690   0.714E-01    0.146E-01
RMM:   2    -0.232589613213E+04   -0.56371E-01   -0.16715E-02 29285   0.254E-01    0.329E+00
RMM:   3    -0.232586729549E+04    0.28837E-01   -0.98641E-03 36520   0.128E-01    0.216E+00
RMM:   4    -0.232586266842E+04    0.46271E-02   -0.37420E-03 27609   0.139E-01    0.200E+00
RMM:   5    -0.232584367002E+04    0.18998E-01   -0.20692E-03 34518   0.629E-02    0.757E-01
RMM:   6    -0.232584380952E+04   -0.13951E-03   -0.23037E-03 28339   0.894E-02    0.822E-01
RMM:   7    -0.232584952355E+04   -0.57140E-02   -0.66697E-03 35046   0.106E-01    0.132E+00
RMM:   8    -0.232584505932E+04    0.44642E-02   -0.28064E-03 28371   0.976E-02    0.902E-01
RMM:   9    -0.232584081958E+04    0.42397E-02   -0.12325E-03 27627   0.801E-02    0.352E-01
RMM:  10    -0.232584029234E+04    0.52724E-03   -0.65703E-04 29890   0.421E-02    0.188E-01
RMM:  11    -0.232584033010E+04   -0.37757E-04   -0.81610E-04 33908   0.387E-02    0.198E-01
RMM:  12    -0.232584024158E+04    0.88519E-04   -0.38335E-04 29818   0.331E-02    0.150E-01
RMM:  13    -0.232584015910E+04    0.82475E-04   -0.16463E-04 27739   0.246E-02    0.898E-02
RMM:  14    -0.232584015951E+04   -0.40361E-06   -0.16099E-04 28489   0.136E-02    0.835E-02
RMM:  15    -0.232584013428E+04    0.25232E-04   -0.42109E-05 19972   0.138E-02    0.472E-02
RMM:  16    -0.232584012470E+04    0.95709E-05   -0.21053E-05 15681   0.116E-02
  14 F= -.23258401E+04 E0= -.23230647E+04  d E =-.321781E-03
       N       E                     dE             d eps       ncg     rms          rms(c)
DAV:   1    -0.232584019341E+04   -0.59137E-04   -0.47316E-02 28040   0.227E-01    0.457E-02
RMM:   2    -0.232586216019E+04   -0.21967E-01   -0.20310E-03 29456   0.823E-02    0.203E+00
RMM:   3    -0.232584282359E+04    0.19337E-01   -0.69736E-04 30218   0.470E-02    0.620E-01
RMM:   4    -0.232584450880E+04   -0.16852E-02   -0.58340E-04 28512   0.443E-02    0.881E-01
RMM:   5    -0.232584082429E+04    0.36845E-02   -0.45339E-04 27563   0.455E-02    0.289E-01
RMM:   6    -0.232584156058E+04   -0.73629E-03   -0.76595E-04 29548   0.472E-02    0.494E-01
RMM:   7    -0.232584238477E+04   -0.82419E-03   -0.10156E-03 31703   0.489E-02    0.637E-01
RMM:   8    -0.232584063484E+04    0.17499E-02   -0.38249E-04 27410   0.410E-02    0.242E-01
RMM:   9    -0.232584026138E+04    0.37347E-03   -0.18353E-04 27386   0.336E-02    0.774E-02
RMM:  10    -0.232584024556E+04    0.15818E-04   -0.10709E-04 26305   0.168E-02    0.660E-02
RMM:  11    -0.232584027344E+04   -0.27879E-04   -0.10308E-04 25448   0.147E-02    0.932E-02
RMM:  12    -0.232584024316E+04    0.30284E-04   -0.35246E-05 18052   0.129E-02    0.546E-02
RMM:  13    -0.232584023187E+04    0.11286E-04   -0.18638E-05 16292   0.945E-03    0.315E-02
RMM:  14    -0.232584023092E+04    0.94774E-06   -0.12074E-05 15621   0.650E-03
  15 F= -.23258402E+04 E0= -.23230647E+04  d E =-.106217E-03
       N       E                     dE             d eps       ncg     rms          rms(c)
DAV:   1    -0.232584017524E+04    0.56631E-04   -0.42585E-01 27640   0.680E-01    0.122E-01
RMM:   2    -0.232593126669E+04   -0.91091E-01   -0.13084E-02 28825   0.231E-01    0.418E+00
RMM:   3    -0.232585088505E+04    0.80382E-01   -0.44956E-03 29769   0.126E-01    0.122E+00
RMM:   4    -0.232584201295E+04    0.88721E-02   -0.23928E-03 27611   0.117E-01    0.467E-01
RMM:   5    -0.232585797871E+04   -0.15966E-01   -0.22178E-03 31159   0.755E-02    0.179E+00
RMM:   6    -0.232584755408E+04    0.10425E-01   -0.25082E-03 38373   0.556E-02    0.110E+00
RMM:   7    -0.232584588552E+04    0.16686E-02   -0.25496E-03 28004   0.997E-02    0.102E+00
RMM:   8    -0.232584353367E+04    0.23518E-02   -0.14274E-03 28673   0.706E-02    0.726E-01
RMM:   9    -0.232584094877E+04    0.25849E-02   -0.78541E-04 27610   0.667E-02    0.275E-01
RMM:  10    -0.232584069565E+04    0.25313E-03   -0.49884E-04 28249   0.433E-02    0.201E-01
RMM:  11    -0.232584077310E+04   -0.77458E-04   -0.73069E-04 31569   0.424E-02    0.225E-01
RMM:  12    -0.232584055833E+04    0.21477E-03   -0.24861E-04 27715   0.344E-02    0.123E-01
RMM:  13    -0.232584051774E+04    0.40596E-04   -0.16975E-04 27732   0.171E-02    0.838E-02
RMM:  14    -0.232584050686E+04    0.10878E-04   -0.58250E-05 21729   0.103E-02    0.701E-02
RMM:  15    -0.232584048929E+04    0.17568E-04   -0.27268E-05 17053   0.116E-02    0.358E-02
RMM:  16    -0.232584048368E+04    0.56105E-05   -0.16196E-05 15395   0.911E-03
  16 F= -.23258405E+04 E0= -.23230648E+04  d E =-.358975E-03
       N       E                     dE             d eps       ncg     rms          rms(c)
DAV:   1    -0.232583947095E+04    0.10183E-02   -0.17034E+00 27600   0.136E+00    0.238E-01
RMM:   2    -0.232614678589E+04   -0.30731E+00   -0.47458E-02 28821   0.442E-01    0.766E+00
RMM:   3    -0.232587900838E+04    0.26778E+00   -0.16973E-02 30813   0.233E-01    0.239E+00
RMM:   4    -0.232591029737E+04   -0.31289E-01   -0.83106E-03 27644   0.209E-01    0.359E+00
RMM:   5    -0.232585243958E+04    0.57858E-01   -0.54933E-03 33548   0.106E-01    0.130E+00
RMM:   6    -0.232585570633E+04   -0.32667E-02   -0.91621E-03 28027   0.184E-01    0.158E+00
RMM:   7    -0.232585042807E+04    0.52783E-02   -0.94179E-03 28145   0.193E-01    0.125E+00
RMM:   8    -0.232585014509E+04    0.28298E-03   -0.38728E-03 27605   0.145E-01    0.132E+00
RMM:   9    -0.232584235068E+04    0.77944E-02   -0.13196E-03 27700   0.817E-02    0.515E-01
RMM:  10    -0.232584103934E+04    0.13113E-02   -0.76360E-04 27898   0.602E-02    0.241E-01
RMM:  11    -0.232584108090E+04   -0.41561E-04   -0.95410E-04 29381   0.541E-02    0.255E-01
RMM:  12    -0.232584091339E+04    0.16751E-03   -0.51402E-04 28690   0.430E-02    0.186E-01
RMM:  13    -0.232584078672E+04    0.12667E-03   -0.24067E-04 28849   0.293E-02    0.113E-01
RMM:  14    -0.232584077918E+04    0.75428E-05   -0.21993E-04 30811   0.184E-02    0.103E-01
RMM:  15    -0.232584076276E+04    0.16414E-04   -0.10810E-04 27145   0.194E-02    0.793E-02
RMM:  16    -0.232584073348E+04    0.29282E-04   -0.40231E-05 19839   0.151E-02    0.363E-02
RMM:  17    -0.232584073080E+04    0.26836E-05   -0.18268E-05 17016   0.860E-03
  17 F= -.23258407E+04 E0= -.23230647E+04  d E =-.606094E-03
       N       E                     dE             d eps       ncg     rms          rms(c)
DAV:   1    -0.232584090213E+04   -0.16865E-03   -0.17847E-01 27780   0.441E-01    0.781E-02
RMM:   2    -0.232586195369E+04   -0.21052E-01   -0.45241E-03 28214   0.143E-01    0.201E+00
RMM:   3    -0.232584550783E+04    0.16446E-01   -0.20027E-03 34772   0.670E-02    0.843E-01
RMM:   4    -0.232585136548E+04   -0.58577E-02   -0.81219E-04 27773   0.606E-02    0.139E+00
RMM:   5    -0.232584280453E+04    0.85609E-02   -0.67074E-04 30492   0.434E-02    0.500E-01
RMM:   6    -0.232584204591E+04    0.75862E-03   -0.77569E-04 27852   0.562E-02    0.423E-01
RMM:   7    -0.232584563843E+04   -0.35925E-02   -0.23508E-03 35277   0.620E-02    0.930E-01
RMM:   8    -0.232584178477E+04    0.38537E-02   -0.83533E-04 27763   0.592E-02    0.329E-01
RMM:   9    -0.232584121651E+04    0.56827E-03   -0.35560E-04 27465   0.429E-02    0.186E-01
RMM:  10    -0.232584109601E+04    0.12050E-03   -0.17174E-04 27611   0.256E-02    0.113E-01
RMM:  11    -0.232584108733E+04    0.86760E-05   -0.20907E-04 30582   0.194E-02    0.103E-01
RMM:  12    -0.232584107505E+04    0.12276E-04   -0.15439E-04 28891   0.191E-02    0.811E-02
RMM:  13    -0.232584104879E+04    0.26266E-04   -0.58016E-05 21763   0.158E-02    0.531E-02
RMM:  14    -0.232584104606E+04    0.27296E-05   -0.28831E-05 18566   0.840E-03
  18 F= -.23258410E+04 E0= -.23230648E+04  d E =-.315260E-03
       N       E                     dE             d eps       ncg     rms          rms(c)
DAV:   1    -0.232584057629E+04    0.47250E-03   -0.16059E+00 27600   0.132E+00    0.241E-01
RMM:   2    -0.232633594317E+04   -0.49537E+00   -0.59788E-02 29517   0.462E-01    0.972E+00
RMM:   3    -0.232588655958E+04    0.44938E+00   -0.19011E-02 29015   0.275E-01    0.241E+00
RMM:   4    -0.232597403455E+04   -0.87475E-01   -0.10491E-02 28177   0.211E-01    0.495E+00
RMM:   5    -0.232585886807E+04    0.11517E+00   -0.79053E-03 29850   0.151E-01    0.151E+00
RMM:   6    -0.232585423896E+04    0.46291E-02   -0.12523E-02 27752   0.230E-01    0.145E+00
RMM:   7    -0.232585169586E+04    0.25431E-02   -0.10066E-02 27729   0.208E-01    0.129E+00
RMM:   8    -0.232584729230E+04    0.44036E-02   -0.35459E-03 27610   0.146E-01    0.995E-01
RMM:   9    -0.232584318798E+04    0.41043E-02   -0.10189E-03 27738   0.678E-02    0.525E-01
RMM:  10    -0.232584209404E+04    0.10939E-02   -0.82799E-04 28275   0.594E-02    0.265E-01
RMM:  11    -0.232584218105E+04   -0.87010E-04   -0.11012E-03 29886   0.559E-02    0.295E-01
RMM:  12    -0.232584193956E+04    0.24148E-03   -0.62288E-04 28837   0.471E-02    0.198E-01
RMM:  13    -0.232584175606E+04    0.18350E-03   -0.27580E-04 28688   0.335E-02    0.981E-02
RMM:  14    -0.232584177075E+04   -0.14686E-04   -0.29672E-04 31779   0.173E-02    0.999E-02
RMM:  15    -0.232584175627E+04    0.14472E-04   -0.12006E-04 28340   0.194E-02    0.800E-02
RMM:  16    -0.232584172974E+04    0.26536E-04   -0.47963E-05 20967   0.151E-02    0.420E-02
RMM:  17    -0.232584172784E+04    0.18961E-05   -0.23393E-05 17882   0.919E-03
  19 F= -.23258417E+04 E0= -.23230652E+04  d E =-.997044E-03
       N       E                     dE             d eps       ncg     rms          rms(c)
DAV:   1    -0.232583722261E+04    0.45071E-02   -0.64226E+00 27600   0.264E+00    0.455E-01
RMM:   2    -0.232699175490E+04   -0.11545E+01   -0.17294E-01 28779   0.849E-01    0.148E+01
RMM:   3    -0.232596818942E+04    0.10236E+01   -0.63840E-02 31563   0.442E-01    0.419E+00
RMM:   4    -0.232617843402E+04   -0.