<?xml version="1.0" encoding="ISO-8859-1"?>
<modeling>
 <generator>
  <i name="program" type="string">vasp </i>
  <i name="version" type="string">5.4.4.18Apr17-6-g9f103f2a35  </i>
  <i name="subversion" type="string">(build May 29 2019 08:40:53) complex            parallel </i>
  <i name="platform" type="string">LinuxPGI </i>
  <i name="date" type="string">2021 11 22 </i>
  <i name="time" type="string">02:55:17 </i>
 </generator>
 <incar>
  <i type="int" name="ISTART">     2</i>
  <i type="string" name="PREC">accurate</i>
  <i type="string" name="ALGO"> Fast</i>
  <i type="int" name="ICHARG">     2</i>
  <i type="int" name="INIWAV">     1</i>
  <i type="int" name="NELM">   100</i>
  <i type="int" name="NELMIN">     4</i>
  <i type="int" name="IBRION">     2</i>
  <i name="EDIFF">      0.00001000</i>
  <i type="int" name="NSW">   500</i>
  <i type="int" name="ISIF">     2</i>
  <i type="int" name="ISYM">     2</i>
  <i name="ENCUT">    500.00000000</i>
  <i name="POTIM">      0.25000000</i>
  <i type="string" name="LREAL"> Auto</i>
  <i type="int" name="ISMEAR">     0</i>
  <i name="SIGMA">      0.15000000</i>
  <i type="logical" name="LWAVE"> F  </i>
  <i type="logical" name="LCHARG"> F  </i>
  <v type="int" name="KPOINT_BSE">    -1     0     0     0</v>
  <i type="int" name="NELM">   100</i>
 </incar>
 <structure name="primitive_cell" >
  <crystal>
   <varray name="basis" >
    <v>       9.72667800       0.00000000       0.00000000 </v>
    <v>       0.00000000       8.42355000       0.00000000 </v>
    <v>       0.00000000       0.00000000      45.00000000 </v>
   </varray>
   <i name="volume">   3686.99213101 </i>
   <varray name="rec_basis" >
    <v>       0.10281002       0.00000000       0.00000000 </v>
    <v>       0.00000000       0.11871479       0.00000000 </v>
    <v>       0.00000000       0.00000000       0.02222222 </v>
   </varray>
  </crystal>
  <varray name="positions" >
   <v>      -0.31230171      -0.38149609       0.16904058 </v>
   <v>      -0.18773677      -0.46432754       0.12684029 </v>
   <v>      -0.43758382      -0.46367311       0.12677248 </v>
   <v>      -0.31244897      -0.21434879       0.12671900 </v>
   <v>      -0.18732273       0.36876652       0.16905015 </v>
   <v>      -0.06243775      -0.38141007       0.16893106 </v>
   <v>      -0.43739909      -0.13174239       0.16893171 </v>
   <v>      -0.18778911      -0.13127738       0.16895807 </v>
   <v>       0.43743676      -0.38193628       0.16879641 </v>
   <v>      -0.43802909       0.36809080       0.16889341 </v>
   <v>      -0.18747384      -0.29782452       0.21376833 </v>
   <v>      -0.43755795      -0.29815360       0.21374593 </v>
   <v>      -0.31214842       0.45230458       0.21392823 </v>
   <v>      -0.31187815       0.28545415       0.12676877 </v>
   <v>      -0.06210801      -0.21517424       0.12678796 </v>
   <v>       0.43707351      -0.21478803       0.12673057 </v>
   <v>      -0.06231966       0.45194869       0.21375062 </v>
   <v>       0.43721381       0.45201106       0.21378347 </v>
   <v>      -0.31253743      -0.04802763       0.21395628 </v>
   <v>       0.43740564       0.28552654       0.12700444 </v>
   <v>      -0.06252271       0.28531900       0.12681923 </v>
   <v>       0.06258388      -0.46462880       0.12684175 </v>
   <v>      -0.18779391       0.03509385       0.12671411 </v>
   <v>       0.31260846      -0.46403026       0.12677382 </v>
   <v>      -0.43649535       0.03543471       0.12672462 </v>
   <v>       0.06230730       0.36862678       0.16909139 </v>
   <v>       0.06256571      -0.13162647       0.16902265 </v>
   <v>       0.31252350      -0.13205546       0.16902723 </v>
   <v>       0.31303469       0.36794441       0.16892929 </v>
   <v>      -0.31302370       0.11850521       0.16877677 </v>
   <v>      -0.18757630       0.20212290       0.21379222 </v>
   <v>      -0.43747899       0.20204129       0.21372321 </v>
   <v>       0.06243219      -0.29805057       0.21379142 </v>
   <v>      -0.06222538      -0.04785687       0.21373362 </v>
   <v>       0.31245685      -0.29837121       0.21376295 </v>
   <v>       0.43715600      -0.04878509       0.21387680 </v>
   <v>      -0.31246429      -0.21399642       0.25774614 </v>
   <v>      -0.18759189      -0.46428336       0.25784543 </v>
   <v>      -0.43756752      -0.46397996       0.25792040 </v>
   <v>       0.43754298       0.11920645       0.16881153 </v>
   <v>       0.18729386      -0.38154620       0.16898985 </v>
   <v>      -0.06247188       0.11857108       0.16899953 </v>
   <v>      -0.31259453       0.28589684       0.25780810 </v>
   <v>      -0.06248796      -0.21439354       0.25779068 </v>
   <v>       0.43749929      -0.21371834       0.25772179 </v>
   <v>       0.18733367      -0.21491739       0.12672210 </v>
   <v>       0.06275524       0.03504150       0.12680561 </v>
   <v>       0.31138554       0.03533968       0.12681835 </v>
   <v>       0.18709659       0.45226487       0.21388771 </v>
   <v>       0.06236619       0.20223681       0.21382899 </v>
   <v>       0.31253552       0.20217985       0.21376866 </v>
   <v>       0.43748683       0.28623307       0.25781070 </v>
   <v>      -0.06250076       0.28558337       0.25789457 </v>
   <v>       0.06262165      -0.46441475       0.25784904 </v>
   <v>       0.31258852      -0.46393264       0.25792751 </v>
   <v>      -0.18752795       0.03563806       0.25785964 </v>
   <v>      -0.43743766       0.03588627       0.25784179 </v>
   <v>       0.18677860       0.28452089       0.12685595 </v>
   <v>       0.18752490      -0.04791637       0.21378222 </v>
   <v>      -0.31246866      -0.38046107       0.30204091 </v>
   <v>       0.18799203       0.11849067       0.16894658 </v>
   <v>       0.18735735      -0.21419218       0.25776875 </v>
   <v>      -0.18738379       0.36968506       0.30196409 </v>
   <v>       0.06253050       0.03581186       0.25794614 </v>
   <v>      -0.43755433       0.36962042       0.30197784 </v>
   <v>       0.31245506       0.03602567       0.25787802 </v>
   <v>      -0.06246977      -0.38034912       0.30197940 </v>
   <v>      -0.18751053      -0.13049342       0.30194634 </v>
   <v>      -0.43756475      -0.13023722       0.30194610 </v>
   <v>       0.43751273      -0.38025547       0.30203797 </v>
   <v>       0.18759531       0.28576137       0.25794137 </v>
   <v>      -0.31271020       0.11962806       0.30197217 </v>
   <v>       0.06242552       0.36968793       0.30195315 </v>
   <v>       0.31242258       0.36985896       0.30193254 </v>
   <v>       0.31243487      -0.13050764       0.30189399 </v>
   <v>       0.06251694      -0.13036113       0.30197536 </v>
   <v>       0.18739556      -0.38035450       0.30190631 </v>
   <v>      -0.06239113       0.11972672       0.30205958 </v>
   <v>       0.43751087       0.11972754       0.30204122 </v>
   <v>      -0.31226014       0.45380653       0.34629464 </v>
   <v>      -0.18732485      -0.29677137       0.34631660 </v>
   <v>      -0.43747275      -0.29581663       0.34635856 </v>
   <v>       0.43724838       0.45412176       0.34627608 </v>
   <v>      -0.06218136       0.45357233       0.34634103 </v>
   <v>      -0.31125605      -0.04647994       0.34634288 </v>
   <v>       0.18757134       0.11967883       0.30198410 </v>
   <v>      -0.18753908       0.20408313       0.34637619 </v>
   <v>      -0.43755061       0.20368536       0.34634174 </v>
   <v>       0.06246503      -0.29674996       0.34629731 </v>
   <v>       0.31239583      -0.29655401       0.34629804 </v>
   <v>      -0.06280654      -0.04647379       0.34633586 </v>
   <v>       0.43637738      -0.04633428       0.34639616 </v>
   <v>       0.06241641       0.20402216       0.34633381 </v>
   <v>       0.31264809       0.20409336       0.34631348 </v>
   <v>       0.18719807       0.45367958       0.34633143 </v>
   <v>       0.18766383      -0.04660785       0.34625302 </v>
   <v>      -0.43761890      -0.46269298       0.39017044 </v>
   <v>      -0.18746051      -0.46273865       0.39022142 </v>
   <v>      -0.31257759      -0.21226623       0.39018894 </v>
   <v>      -0.31257388       0.28723876       0.39024217 </v>
   <v>      -0.06269900      -0.21228742       0.39018277 </v>
   <v>       0.43779624      -0.21213789       0.39025090 </v>
   <v>       0.43726548       0.28752617       0.39017666 </v>
   <v>      -0.06238398       0.28777275       0.39027053 </v>
   <v>       0.06254583      -0.46236026       0.39023004 </v>
   <v>       0.31257491      -0.46271265       0.39021502 </v>
   <v>      -0.43727755       0.03737263       0.39026439 </v>
   <v>      -0.18744470       0.03760243       0.39028515 </v>
   <v>       0.18750993      -0.21217753       0.39016355 </v>
   <v>       0.06259443       0.03770063       0.39020390 </v>
   <v>       0.31210579       0.03789302       0.39023725 </v>
   <v>       0.18770110       0.28774724       0.39026768 </v>
   <v>      -0.31221704      -0.37915735       0.43487218 </v>
   <v>      -0.43721892       0.37094659       0.43473188 </v>
   <v>      -0.18754443       0.37152067       0.43484723 </v>
   <v>      -0.06256789      -0.37862542       0.43479480 </v>
   <v>       0.43753830      -0.37889047       0.43480244 </v>
   <v>      -0.43748056      -0.12872245       0.43480025 </v>
   <v>      -0.18759624      -0.12884648       0.43484546 </v>
   <v>       0.06251678       0.37161848       0.43477263 </v>
   <v>      -0.31207341       0.12143965       0.43493924 </v>
   <v>       0.06267638      -0.12869082       0.43474777 </v>
   <v>       0.31244179      -0.12862400       0.43484118 </v>
   <v>       0.31234054       0.37132044       0.43504629 </v>
   <v>       0.43763995       0.12101932       0.43478458 </v>
   <v>       0.18734534      -0.37848190       0.43470581 </v>
   <v>      -0.06220747       0.12148912       0.43493178 </v>
   <v>      -0.43714842      -0.45720774      -0.12671397 </v>
   <v>      -0.18750844      -0.45724125      -0.12672714 </v>
   <v>      -0.31235672      -0.20726991      -0.12666598 </v>
   <v>       0.18682570       0.12156077       0.43479014 </v>
   <v>      -0.31305855       0.29212171      -0.12680770 </v>
   <v>      -0.06311172      -0.20766038      -0.12670361 </v>
   <v>       0.43736949      -0.20754883      -0.12671136 </v>
   <v>      -0.06217888       0.29203439      -0.12662157 </v>
   <v>       0.43800335       0.29269664      -0.12672220 </v>
   <v>       0.06214362      -0.45770902      -0.12671758 </v>
   <v>       0.31260493      -0.45677023      -0.12684023 </v>
   <v>      -0.18745684       0.04251677      -0.12671225 </v>
   <v>      -0.43783687       0.04289348      -0.12672387 </v>
   <v>      -0.31267367       0.45525542       0.47855863 </v>
   <v>      -0.43743776      -0.29483787       0.47852733 </v>
   <v>      -0.18743791      -0.29489157       0.47855735 </v>
   <v>      -0.06226227       0.45527833       0.47853957 </v>
   <v>       0.43777274       0.45545451       0.47859502 </v>
   <v>      -0.31254432      -0.04466386       0.47860079 </v>
   <v>       0.18820012      -0.20782349      -0.12683236 </v>
   <v>       0.06280234       0.04325794      -0.12657526 </v>
   <v>       0.31242336       0.04220730      -0.12665342 </v>
   <v>      -0.43761606       0.20559647       0.47857046 </v>
   <v>      -0.18740019       0.20537525       0.47865782 </v>
   <v>       0.06252276      -0.29468566       0.47853241 </v>
   <v>      -0.06251422      -0.04471907       0.47850567 </v>
   <v>       0.43756621      -0.04484238       0.47851506 </v>
   <v>       0.31249293      -0.29487342       0.47860398 </v>
   <v>       0.18725508       0.29240550      -0.12649448 </v>
   <v>       0.06276605       0.20552407       0.47856447 </v>
   <v>       0.31241410       0.20508071       0.47866956 </v>
   <v>       0.18720507       0.45547001       0.47869391 </v>
   <v>       0.18755184      -0.04467555       0.47853836 </v>
   <v>      -0.31256426       0.46003629      -0.16892036 </v>
   <v>      -0.18783858      -0.29022990      -0.16878477 </v>
   <v>      -0.43737702      -0.29079853      -0.16897696 </v>
   <v>       0.43745338       0.45956634      -0.16891599 </v>
   <v>      -0.06193475       0.45961927      -0.16892511 </v>
   <v>      -0.31241776      -0.04080262      -0.16890804 </v>
   <v>      -0.43725067       0.20989590      -0.16879503 </v>
   <v>      -0.18744835       0.20931747      -0.16894667 </v>
   <v>       0.06254483      -0.29031626      -0.16888596 </v>
   <v>       0.31286825      -0.29053335      -0.16896957 </v>
   <v>      -0.06280709      -0.03997405      -0.16888004 </v>
   <v>       0.43751033      -0.04078529      -0.16891503 </v>
   <v>      -0.31253000      -0.37732527      -0.47873678 </v>
   <v>       0.06247529       0.20985533      -0.16823640 </v>
   <v>       0.31274914       0.20922644      -0.16881852 </v>
   <v>       0.18705718       0.45898037      -0.16883591 </v>
   <v>      -0.18750601       0.37277119      -0.47871977 </v>
   <v>      -0.06231431      -0.37748758      -0.47877302 </v>
   <v>       0.43755276      -0.37720101      -0.47871789 </v>
   <v>      -0.43715828       0.37236755      -0.47860061 </v>
   <v>      -0.43728850      -0.12745898      -0.47874480 </v>
   <v>      -0.18724921      -0.12731695      -0.47868014 </v>
   <v>       0.18769969      -0.03974739      -0.16889570 </v>
   <v>      -0.31257498       0.12236244      -0.47865181 </v>
   <v>       0.31251035       0.37263721      -0.47871256 </v>
   <v>       0.06214975       0.37210608      -0.47863754 </v>
   <v>       0.06212842      -0.12754919      -0.47875860 </v>
   <v>       0.31229597      -0.12739760      -0.47872963 </v>
   <v>       0.43800686       0.12241138      -0.47876008 </v>
   <v>      -0.06236999       0.12226767      -0.47865947 </v>
   <v>       0.18748571      -0.37716286      -0.47875859 </v>
   <v>       0.18721857       0.12222114      -0.47860289 </v>
   <v>      -0.31264951      -0.37394155      -0.21355707 </v>
   <v>      -0.18736699       0.37572803      -0.21368490 </v>
   <v>      -0.43736174       0.37607648      -0.21369309 </v>
   <v>      -0.06256586      -0.37393864      -0.21363782 </v>
   <v>       0.43783053      -0.37435319      -0.21374260 </v>
   <v>      -0.43776488      -0.12378079      -0.21365678 </v>
   <v>      -0.18745249      -0.12368169      -0.21389931 </v>
   <v>      -0.31252063       0.12580051      -0.21370285 </v>
   <v>       0.06231255       0.37668459      -0.21374999 </v>
   <v>       0.31223791       0.37564362      -0.21394096 </v>
   <v>       0.06259602      -0.12378086      -0.21365778 </v>
   <v>       0.31248842      -0.12376036      -0.21372225 </v>
   <v>      -0.31257806       0.45657758      -0.43492754 </v>
   <v>      -0.18726465      -0.29394801      -0.43498718 </v>
   <v>       0.43743076       0.12628506      -0.21360968 </v>
   <v>      -0.43759112      -0.29346119      -0.43493839 </v>
   <v>      -0.06242289       0.12571681      -0.21362447 </v>
   <v>       0.18746514      -0.37415144      -0.21363419 </v>
   <v>      -0.06236289       0.45597280      -0.43491571 </v>
   <v>       0.43722284       0.45660810      -0.43487452 </v>
   <v>      -0.31332904      -0.04438502      -0.43483218 </v>
   <v>      -0.18705363       0.20703672      -0.43490232 </v>
   <v>      -0.43788502       0.20658344      -0.43485567 </v>
   <v>       0.31266331      -0.29415641      -0.43498040 </v>
   <v>       0.06263993      -0.29386274      -0.43493939 </v>
   <v>       0.43722288      -0.04395163      -0.43502998 </v>
   <v>      -0.06200998      -0.04382278      -0.43486460 </v>
   <v>       0.18769945       0.12598661      -0.21376006 </v>
   <v>       0.06307668       0.20643540      -0.43487736 </v>
   <v>       0.18712326       0.45660442      -0.43490246 </v>
   <v>       0.31255008       0.20633087      -0.43484594 </v>
   <v>       0.18723826      -0.04412615      -0.43495914 </v>
   <v>      -0.18759405      -0.45803552      -0.25775839 </v>
   <v>      -0.43733423      -0.45788057      -0.25786469 </v>
   <v>      -0.31264743      -0.20839344      -0.25783337 </v>
   <v>      -0.31241524       0.29207363      -0.25784978 </v>
   <v>       0.43762041      -0.20766460      -0.25788726 </v>
   <v>      -0.06265852      -0.20830066      -0.25790941 </v>
   <v>      -0.06225973       0.29227060      -0.25783191 </v>
   <v>       0.43743900       0.29223564      -0.25787523 </v>
   <v>       0.31251755      -0.45782860      -0.25776747 </v>
   <v>       0.06231821      -0.45764528      -0.25785201 </v>
   <v>      -0.43703739       0.04213058      -0.25781101 </v>
   <v>      -0.18746338       0.04195148      -0.25783973 </v>
   <v>       0.18758829      -0.20780633      -0.25783550 </v>
   <v>       0.31236091       0.04299758      -0.25766892 </v>
   <v>      -0.18757179      -0.46000985      -0.39033150 </v>
   <v>       0.06234842       0.04218005      -0.25790117 </v>
   <v>      -0.31199705      -0.20982930      -0.39027688 </v>
   <v>      -0.43731733      -0.45957273      -0.39015266 </v>
   <v>       0.18721537       0.29235503      -0.25784241 </v>
   <v>      -0.31229179       0.29033832      -0.39039304 </v>
   <v>      -0.06251711      -0.20938663      -0.39038756 </v>
   <v>       0.43760094      -0.20977757      -0.39021976 </v>
   <v>       0.43751598       0.29032783      -0.39030254 </v>
   <v>      -0.06230507       0.29021695      -0.39022520 </v>
   <v>       0.31240182      -0.45981426      -0.39030655 </v>
   <v>       0.06244596      -0.46011344      -0.39024231 </v>
   <v>      -0.43739169       0.04018113      -0.39032923 </v>
   <v>      -0.18754524       0.04053481      -0.39030728 </v>
   <v>       0.18734321      -0.21002547      -0.39030536 </v>
   <v>       0.31252771       0.03984852      -0.39026397 </v>
   <v>       0.06246417       0.04066709      -0.39023632 </v>
   <v>       0.18741407       0.29041795      -0.39032528 </v>
   <v>      -0.31292417       0.45818188      -0.30199836 </v>
   <v>      -0.18741079      -0.29186079      -0.30192017 </v>
   <v>      -0.43773737      -0.29166926      -0.30200772 </v>
   <v>       0.43721118       0.45768509      -0.30192588 </v>
   <v>      -0.06232342       0.45832953      -0.30196322 </v>
   <v>      -0.31250224      -0.04206473      -0.30187089 </v>
   <v>      -0.18758802       0.20851632      -0.30203255 </v>
   <v>      -0.43736336       0.20739947      -0.30199909 </v>
   <v>       0.31244256      -0.29149161      -0.30195177 </v>
   <v>       0.06267173      -0.29227759      -0.30206659 </v>
   <v>      -0.06240302      -0.04218518      -0.30195652 </v>
   <v>       0.43732197      -0.04207951      -0.30200825 </v>
   <v>       0.06230903       0.20802534      -0.30201872 </v>
   <v>       0.31264689       0.20788397      -0.30201315 </v>
   <v>       0.18770550       0.45795908      -0.30199514 </v>
   <v>      -0.31269890      -0.37646667      -0.34632127 </v>
   <v>       0.18755305      -0.04196662      -0.30195939 </v>
   <v>      -0.06239912      -0.37607582      -0.34645374 </v>
   <v>      -0.18748743       0.37396911      -0.34631427 </v>
   <v>      -0.43776435       0.37385941      -0.34628342 </v>
   <v>      -0.43736918      -0.12610836      -0.34645485 </v>
   <v>       0.43750847      -0.37585880      -0.34630426 </v>
   <v>      -0.18734750      -0.12604004      -0.34630275 </v>
   <v>      -0.31264143       0.12406596      -0.34632857 </v>
   <v>       0.31250560       0.37422443      -0.34643188 </v>
   <v>       0.06226595      -0.12576725      -0.34648468 </v>
   <v>       0.06270798       0.37434744      -0.34628496 </v>
   <v>       0.31234718      -0.12596502      -0.34635882 </v>
   <v>       0.43735674       0.12382384      -0.34634233 </v>
   <v>      -0.06232113       0.12440322      -0.34620882 </v>
   <v>       0.18726591      -0.37562005      -0.34634114 </v>
   <v>       0.18749517       0.12414042      -0.34637106 </v>
  </varray>
 </structure>
 <varray name="primitive_index" >
  <v type="int" >        1 </v>
  <v type="int" >      103 </v>
  <v type="int" >       28 </v>
  <v type="int" >      124 </v>
  <v type="int" >        5 </v>
  <v type="int" >       27 </v>
  <v type="int" >      226 </v>
  <v type="int" >      250 </v>
  <v type="int" >      237 </v>
  <v type="int" >      261 </v>
  <v type="int" >      183 </v>
  <v type="int" >      105 </v>
  <v type="int" >       96 </v>
  <v type="int" >      234 </v>
  <v type="int" >      136 </v>
  <v type="int" >      134 </v>
  <v type="int" >       77 </v>
  <v type="int" >      197 </v>
  <v type="int" >      279 </v>
  <v type="int" >      275 </v>
  <v type="int" >      174 </v>
  <v type="int" >      176 </v>
  <v type="int" >      122 </v>
  <v type="int" >      173 </v>
  <v type="int" >      233 </v>
  <v type="int" >      260 </v>
  <v type="int" >      209 </v>
  <v type="int" >       35 </v>
  <v type="int" >      135 </v>
  <v type="int" >       15 </v>
  <v type="int" >       49 </v>
  <v type="int" >      111 </v>
  <v type="int" >       12 </v>
  <v type="int" >      239 </v>
  <v type="int" >       65 </v>
  <v type="int" >      223 </v>
  <v type="int" >        2 </v>
  <v type="int" >       21 </v>
  <v type="int" >      269 </v>
  <v type="int" >      266 </v>
  <v type="int" >       44 </v>
  <v type="int" >       85 </v>
  <v type="int" >      216 </v>
  <v type="int" >      151 </v>
  <v type="int" >      137 </v>
  <v type="int" >      206 </v>
  <v type="int" >      218 </v>
  <v type="int" >      262 </v>
  <v type="int" >      211 </v>
  <v type="int" >      140 </v>
  <v type="int" >      245 </v>
  <v type="int" >      177 </v>
  <v type="int" >      109 </v>
  <v type="int" >       14 </v>
  <v type="int" >       41 </v>
  <v type="int" >       97 </v>
  <v type="int" >      270 </v>
  <v type="int" >       18 </v>
  <v type="int" >      224 </v>
  <v type="int" >       67 </v>
  <v type="int" >       31 </v>
  <v type="int" >      113 </v>
  <v type="int" >      128 </v>
  <v type="int" >      168 </v>
  <v type="int" >       13 </v>
  <v type="int" >      222 </v>
  <v type="int" >       60 </v>
  <v type="int" >       89 </v>
  <v type="int" >       47 </v>
  <v type="int" >      194 </v>
  <v type="int" >      165 </v>
  <v type="int" >       88 </v>
  <v type="int" >        9 </v>
  <v type="int" >      212 </v>
  <v type="int" >      272 </v>
  <v type="int" >      214 </v>
  <v type="int" >       55 </v>
  <v type="int" >      247 </v>
  <v type="int" >      149 </v>
  <v type="int" >       99 </v>
  <v type="int" >      259 </v>
  <v type="int" >       73 </v>
  <v type="int" >      192 </v>
  <v type="int" >       48 </v>
  <v type="int" >      274 </v>
  <v type="int" >      255 </v>
  <v type="int" >      188 </v>
  <v type="int" >       84 </v>
  <v type="int" >       33 </v>
  <v type="int" >      241 </v>
  <v type="int" >       32 </v>
  <v type="int" >      287 </v>
  <v type="int" >       43 </v>
  <v type="int" >      126 </v>
  <v type="int" >      182 </v>
  <v type="int" >      246 </v>
  <v type="int" >       24 </v>
  <v type="int" >      146 </v>
  <v type="int" >       38 </v>
  <v type="int" >       59 </v>
  <v type="int" >      175 </v>
  <v type="int" >       63 </v>
  <v type="int" >       92 </v>
  <v type="int" >       22 </v>
  <v type="int" >      138 </v>
  <v type="int" >      147 </v>
  <v type="int" >       87 </v>
  <v type="int" >       26 </v>
  <v type="int" >      152 </v>
  <v type="int" >      154 </v>
  <v type="int" >      142 </v>
  <v type="int" >      119 </v>
  <v type="int" >      207 </v>
  <v type="int" >        6 </v>
  <v type="int" >      219 </v>
  <v type="int" >       57 </v>
  <v type="int" >      129 </v>
  <v type="int" >      106 </v>
  <v type="int" >       37 </v>
  <v type="int" >      163 </v>
  <v type="int" >       74 </v>
  <v type="int" >      256 </v>
  <v type="int" >      263 </v>
  <v type="int" >      112 </v>
  <v type="int" >      276 </v>
  <v type="int" >      193 </v>
  <v type="int" >      190 </v>
  <v type="int" >      254 </v>
  <v type="int" >      253 </v>
  <v type="int" >      161 </v>
  <v type="int" >      200 </v>
  <v type="int" >      102 </v>
  <v type="int" >      150 </v>
  <v type="int" >       11 </v>
  <v type="int" >       72 </v>
  <v type="int" >       81 </v>
  <v type="int" >      120 </v>
  <v type="int" >       61 </v>
  <v type="int" >      187 </v>
  <v type="int" >      220 </v>
  <v type="int" >      191 </v>
  <v type="int" >      225 </v>
  <v type="int" >      131 </v>
  <v type="int" >      153 </v>
  <v type="int" >       64 </v>
  <v type="int" >      171 </v>
  <v type="int" >      252 </v>
  <v type="int" >       53 </v>
  <v type="int" >      160 </v>
  <v type="int" >       66 </v>
  <v type="int" >       34 </v>
  <v type="int" >      244 </v>
  <v type="int" >       79 </v>
  <v type="int" >      189 </v>
  <v type="int" >       56 </v>
  <v type="int" >      242 </v>
  <v type="int" >      265 </v>
  <v type="int" >      117 </v>
  <v type="int" >      196 </v>
  <v type="int" >      217 </v>
  <v type="int" >      145 </v>
  <v type="int" >      169 </v>
  <v type="int" >       93 </v>
  <v type="int" >      123 </v>
  <v type="int" >       82 </v>
  <v type="int" >      229 </v>
  <v type="int" >       95 </v>
  <v type="int" >      240 </v>
  <v type="int" >      107 </v>
  <v type="int" >      127 </v>
  <v type="int" >       42 </v>
  <v type="int" >       69 </v>
  <v type="int" >      144 </v>
  <v type="int" >      284 </v>
  <v type="int" >      208 </v>
  <v type="int" >      185 </v>
  <v type="int" >        3 </v>
  <v type="int" >       91 </v>
  <v type="int" >      258 </v>
  <v type="int" >      268 </v>
  <v type="int" >      158 </v>
  <v type="int" >      156 </v>
  <v type="int" >      116 </v>
  <v type="int" >      180 </v>
  <v type="int" >      278 </v>
  <v type="int" >       45 </v>
  <v type="int" >      164 </v>
  <v type="int" >      125 </v>
  <v type="int" >      167 </v>
  <v type="int" >      199 </v>
  <v type="int" >      118 </v>
  <v type="int" >      157 </v>
  <v type="int" >      172 </v>
  <v type="int" >       19 </v>
  <v type="int" >      132 </v>
  <v type="int" >      232 </v>
  <v type="int" >      179 </v>
  <v type="int" >      204 </v>
  <v type="int" >      288 </v>
  <v type="int" >      198 </v>
  <v type="int" >       46 </v>
  <v type="int" >      285 </v>
  <v type="int" >        4 </v>
  <v type="int" >      108 </v>
  <v type="int" >      115 </v>
  <v type="int" >      215 </v>
  <v type="int" >       83 </v>
  <v type="int" >       17 </v>
  <v type="int" >      235 </v>
  <v type="int" >      257 </v>
  <v type="int" >      100 </v>
  <v type="int" >      162 </v>
  <v type="int" >      280 </v>
  <v type="int" >      281 </v>
  <v type="int" >      186 </v>
  <v type="int" >       86 </v>
  <v type="int" >        8 </v>
  <v type="int" >       58 </v>
  <v type="int" >      249 </v>
  <v type="int" >       23 </v>
  <v type="int" >      228 </v>
  <v type="int" >       51 </v>
  <v type="int" >      130 </v>
  <v type="int" >      170 </v>
  <v type="int" >       20 </v>
  <v type="int" >       16 </v>
  <v type="int" >      139 </v>
  <v type="int" >       78 </v>
  <v type="int" >      230 </v>
  <v type="int" >       98 </v>
  <v type="int" >      155 </v>
  <v type="int" >       10 </v>
  <v type="int" >       39 </v>
  <v type="int" >       54 </v>
  <v type="int" >       62 </v>
  <v type="int" >      231 </v>
  <v type="int" >      273 </v>
  <v type="int" >      282 </v>
  <v type="int" >      221 </v>
  <v type="int" >      101 </v>
  <v type="int" >       80 </v>
  <v type="int" >       25 </v>
  <v type="int" >      195 </v>
  <v type="int" >      243 </v>
  <v type="int" >      148 </v>
  <v type="int" >      286 </v>
  <v type="int" >       68 </v>
  <v type="int" >      271 </v>
  <v type="int" >      178 </v>
  <v type="int" >      104 </v>
  <v type="int" >      264 </v>
  <v type="int" >      227 </v>
  <v type="int" >      210 </v>
  <v type="int" >      236 </v>
  <v type="int" >       50 </v>
  <v type="int" >      267 </v>
  <v type="int" >      202 </v>
  <v type="int" >       70 </v>
  <v type="int" >      184 </v>
  <v type="int" >      141 </v>
  <v type="int" >      277 </v>
  <v type="int" >      283 </v>
  <v type="int" >      114 </v>
  <v type="int" >      159 </v>
  <v type="int" >      181 </v>
  <v type="int" >       40 </v>
  <v type="int" >      110 </v>
  <v type="int" >      143 </v>
  <v type="int" >      205 </v>
  <v type="int" >        7 </v>
  <v type="int" >       90 </v>
  <v type="int" >      248 </v>
  <v type="int" >       36 </v>
  <v type="int" >       75 </v>
  <v type="int" >       71 </v>
  <v type="int" >       76 </v>
  <v type="int" >       29 </v>
  <v type="int" >      251 </v>
  <v type="int" >       30 </v>
  <v type="int" >      121 </v>
  <v type="int" >      213 </v>
  <v type="int" >      133 </v>
  <v type="int" >       94 </v>
  <v type="int" >      203 </v>
  <v type="int" >      166 </v>
  <v type="int" >       52 </v>
  <v type="int" >      201 </v>
  <v type="int" >      238 </v>
 </varray>
 <kpoints>
  <generation param="Gamma">
   <v type="int" name="divisions">       4        4        1 </v>
   <v name="usershift">      0.00000000       0.00000000       0.00000000 </v>
   <v name="genvec1">      0.25000000       0.00000000       0.00000000 </v>
   <v name="genvec2">      0.00000000       0.25000000       0.00000000 </v>
   <v name="genvec3">      0.00000000       0.00000000       1.00000000 </v>
   <v name="shift">      0.00000000       0.00000000       0.00000000 </v>
  </generation>
  <varray name="kpointlist" >
   <v>       0.00000000       0.00000000       0.00000000 </v>
   <v>       0.25000000       0.00000000       0.00000000 </v>
   <v>       0.50000000       0.00000000       0.00000000 </v>
   <v>       0.00000000       0.25000000       0.00000000 </v>
   <v>       0.25000000       0.25000000       0.00000000 </v>
   <v>       0.50000000       0.25000000       0.00000000 </v>
   <v>      -0.25000000       0.25000000       0.00000000 </v>
   <v>       0.00000000       0.50000000       0.00000000 </v>
   <v>       0.25000000       0.50000000       0.00000000 </v>
   <v>       0.50000000       0.50000000       0.00000000 </v>
  </varray>
  <varray name="weights" >
   <v>       0.06250000 </v>
   <v>       0.12500000 </v>
   <v>       0.06250000 </v>
   <v>       0.12500000 </v>
   <v>       0.12500000 </v>
   <v>       0.12500000 </v>
   <v>       0.12500000 </v>
   <v>       0.06250000 </v>
   <v>       0.12500000 </v>
   <v>       0.06250000 </v>
  </varray>
 </kpoints>
 <parameters>
  <separator name="general" >
   <i type="string" name="SYSTEM">unknown system</i>
   <i type="logical" name="LCOMPAT"> F  </i>
  </separator>
  <separator name="electronic" >
   <i type="string" name="PREC">accura</i>
   <i name="ENMAX">    500.00000000</i>
   <i name="ENAUG">    838.43500000</i>
   <i name="EDIFF">      0.00001000</i>
   <i type="int" name="IALGO">    68</i>
   <i type="int" name="IWAVPR">    11</i>
   <i type="int" name="NBANDS">  1380</i>
   <i name="NELECT">   2289.00000000</i>
   <i type="int" name="TURBO">     0</i>
   <i type="int" name="IRESTART">     0</i>
   <i type="int" name="NREBOOT">     0</i>
   <i type="int" name="NMIN">     0</i>
   <i name="EREF">      0.00000000</i>
   <separator name="electronic smearing" >
    <i type="int" name="ISMEAR">     0</i>
    <i name="SIGMA">      0.15000000</i>
    <i name="KSPACING">      0.50000000</i>
    <i type="logical" name="KGAMMA"> T  </i>
   </separator>
   <separator name="electronic projectors" >
    <i type="logical" name="LREAL"> T  </i>
    <v name="ROPT">     -0.00025000     -0.00025000</v>
    <i type="int" name="LMAXPAW">  -100</i>
    <i type="int" name="LMAXMIX">     2</i>
    <i type="logical" name="NLSPLINE"> F  </i>
   </separator>
   <separator name="electronic startup" >
    <i type="int" name="ISTART">     0</i>
    <i type="int" name="ICHARG">     2</i>
    <i type="int" name="INIWAV">     1</i>
   </separator>
   <separator name="electronic spin" >
    <i type="int" name="ISPIN">     1</i>
    <i type="logical" name="LNONCOLLINEAR"> F  </i>
    <v name="MAGMOM">      1.00000000      1.00000000      1.00000000      1.00000000      1.00000000      1.00000000      1.00000000      1.00000000      1.00000000      1.00000000      1.00000000      1.00000000      1.00000000      1.00000000      1.00000000      1.00000000      1.00000000      1.00000000      1.00000000      1.00000000
      1.00000000      1.00000000      1.00000000      1.00000000      1.00000000      1.00000000      1.00000000      1.00000000      1.00000000      1.00000000      1.00000000      1.00000000      1.00000000      1.00000000      1.00000000      1.00000000      1.00000000      1.00000000      1.00000000      1.00000000
      1.00000000      1.00000000      1.00000000      1.00000000      1.00000000      1.00000000      1.00000000      1.00000000      1.00000000      1.00000000      1.00000000      1.00000000      1.00000000      1.00000000      1.00000000      1.00000000      1.00000000      1.00000000      1.00000000      1.00000000
      1.00000000      1.00000000      1.00000000      1.00000000      1.00000000      1.00000000      1.00000000      1.00000000      1.00000000      1.00000000      1.00000000      1.00000000      1.00000000      1.00000000      1.00000000      1.00000000      1.00000000      1.00000000      1.00000000      1.00000000
      1.00000000      1.00000000      1.00000000      1.00000000      1.00000000      1.00000000      1.00000000      1.00000000      1.00000000      1.00000000      1.00000000      1.00000000      1.00000000      1.00000000      1.00000000      1.00000000      1.00000000      1.00000000      1.00000000      1.00000000
      1.00000000      1.00000000      1.00000000      1.00000000      1.00000000      1.00000000      1.00000000      1.00000000      1.00000000      1.00000000      1.00000000      1.00000000      1.00000000      1.00000000      1.00000000      1.00000000      1.00000000      1.00000000      1.00000000      1.00000000
      1.00000000      1.00000000      1.00000000      1.00000000      1.00000000      1.00000000      1.00000000      1.00000000      1.00000000      1.00000000      1.00000000      1.00000000      1.00000000      1.00000000      1.00000000      1.00000000      1.00000000      1.00000000      1.00000000      1.00000000
      1.00000000      1.00000000      1.00000000      1.00000000      1.00000000      1.00000000      1.00000000      1.00000000      1.00000000      1.00000000      1.00000000      1.00000000      1.00000000      1.00000000      1.00000000      1.00000000      1.00000000      1.00000000      1.00000000      1.00000000
      1.00000000      1.00000000      1.00000000      1.00000000      1.00000000      1.00000000      1.00000000      1.00000000      1.00000000      1.00000000      1.00000000      1.00000000      1.00000000      1.00000000      1.00000000      1.00000000      1.00000000      1.00000000      1.00000000      1.00000000
      1.00000000      1.00000000      1.00000000      1.00000000      1.00000000      1.00000000      1.00000000      1.00000000      1.00000000      1.00000000      1.00000000      1.00000000      1.00000000      1.00000000      1.00000000      1.00000000      1.00000000      1.00000000      1.00000000      1.00000000
      1.00000000      1.00000000      1.00000000      1.00000000      1.00000000      1.00000000      1.00000000      1.00000000      1.00000000      1.00000000      1.00000000      1.00000000      1.00000000      1.00000000      1.00000000      1.00000000      1.00000000      1.00000000      1.00000000      1.00000000
      1.00000000      1.00000000      1.00000000      1.00000000      1.00000000      1.00000000      1.00000000      1.00000000      1.00000000      1.00000000      1.00000000      1.00000000      1.00000000      1.00000000      1.00000000      1.00000000      1.00000000      1.00000000      1.00000000      1.00000000
      1.00000000      1.00000000      1.00000000      1.00000000      1.00000000      1.00000000      1.00000000      1.00000000      1.00000000      1.00000000      1.00000000      1.00000000      1.00000000      1.00000000      1.00000000      1.00000000      1.00000000      1.00000000      1.00000000      1.00000000
      1.00000000      1.00000000      1.00000000      1.00000000      1.00000000      1.00000000      1.00000000      1.00000000      1.00000000      1.00000000      1.00000000      1.00000000      1.00000000      1.00000000      1.00000000      1.00000000      1.00000000      1.00000000      1.00000000      1.00000000
      1.00000000      1.00000000      1.00000000      1.00000000      1.00000000      1.00000000      1.00000000      1.00000000</v>
    <i name="NUPDOWN">     -1.00000000</i>
    <i type="logical" name="LSORBIT"> F  </i>
    <v name="SAXIS">      0.00000000      0.00000000      1.00000000</v>
    <i type="logical" name="LSPIRAL"> F  </i>
    <v name="QSPIRAL">      0.00000000      0.00000000      0.00000000</v>
    <i type="logical" name="LZEROZ"> F  </i>
   </separator>
   <separator name="electronic exchange-correlation" >
    <i type="logical" name="LASPH"> F  </i>
    <i type="logical" name="LMETAGGA"> F  </i>
   </separator>
   <separator name="electronic convergence" >
    <i type="int" name="NELM">   100</i>
    <i type="int" name="NELMDL">     0</i>
    <i type="int" name="NELMIN">     4</i>
    <i name="ENINI">    500.00000000</i>
    <separator name="electronic convergence detail" >
     <i type="logical" name="LDIAG"> T  </i>
     <i type="logical" name="LSUBROT"> F  </i>
     <i name="WEIMIN">      0.00100000</i>
     <i name="EBREAK">      0.00000000</i>
     <i name="DEPER">      0.30000000</i>
     <i type="int" name="NRMM">     4</i>
     <i name="TIME">      0.40000000</i>
    </separator>
   </separator>
   <separator name="electronic mixer" >
    <i name="AMIX">      0.40000000</i>
    <i name="BMIX">      1.00000000</i>
    <i name="AMIN">      0.10000000</i>
    <i name="AMIX_MAG">      1.60000000</i>
    <i name="BMIX_MAG">      1.00000000</i>
    <separator name="electronic mixer details" >
     <i type="int" name="IMIX">     4</i>
     <i type="logical" name="MIXFIRST"> F  </i>
     <i type="int" name="MAXMIX">   -45</i>
     <i name="WC">    100.00000000</i>
     <i type="int" name="INIMIX">     1</i>
     <i type="int" name="MIXPRE">     1</i>
     <i type="int" name="MREMOVE">     5</i>
    </separator>
   </separator>
   <separator name="electronic dipolcorrection" >
    <i type="logical" name="LDIPOL"> F  </i>
    <i type="logical" name="LMONO"> F  </i>
    <i type="int" name="IDIPOL">     0</i>
    <i name="EPSILON">      1.00000000</i>
    <v name="DIPOL">   -100.00000000   -100.00000000   -100.00000000</v>
    <i name="EFIELD">      0.00000000</i>
   </separator>
  </separator>
  <separator name="grids" >
   <i type="int" name="NGX">    72</i>
   <i type="int" name="NGY">    64</i>
   <i type="int" name="NGZ">   336</i>
   <i type="int" name="NGXF">   144</i>
   <i type="int" name="NGYF">   128</i>
   <i type="int" name="NGZF">   672</i>
   <i type="logical" name="ADDGRID"> F  </i>
  </separator>
  <separator name="ionic" >
   <i type="int" name="NSW">   500</i>
   <i type="int" name="IBRION">     2</i>
   <i type="int" name="MDALGO">     0</i>
   <i type="int" name="ISIF">     2</i>
   <i name="PSTRESS">      0.00000000</i>
   <i name="EDIFFG">      0.00010000</i>
   <i type="int" name="NFREE">     1</i>
   <i name="POTIM">      0.25000000</i>
   <i name="SMASS">     -3.00000000</i>
   <i name="SCALEE">      1.00000000</i>
  </separator>
  <separator name="ionic md" >
   <i name="TEBEG">      0.00010000</i>
   <i name="TEEND">      0.00010000</i>
   <i type="int" name="NBLOCK">     1</i>
   <i type="int" name="KBLOCK">   500</i>
   <i type="int" name="NPACO">   256</i>
   <i name="APACO">     16.00000000</i>
  </separator>
  <separator name="symmetry" >
   <i type="int" name="ISYM">     2</i>
   <i name="SYMPREC">      0.00001000</i>
  </separator>
  <separator name="dos" >
   <i type="int" name="LORBIT">     0</i>
   <v name="RWIGS">     -1.00000000     -1.00000000</v>
   <i type="int" name="NEDOS">   301</i>
   <i name="EMIN">     10.00000000</i>
   <i name="EMAX">    -10.00000000</i>
   <i name="EFERMI">      0.00000000</i>
  </separator>
  <separator name="writing" >
   <i type="int" name="NWRITE">     2</i>
   <i type="logical" name="LWAVE"> F  </i>
   <i type="logical" name="LDOWNSAMPLE"> F  </i>
   <i type="logical" name="LCHARG"> F  </i>
   <i type="logical" name="LPARD"> F  </i>
   <i type="logical" name="LVTOT"> F  </i>
   <i type="logical" name="LVHAR"> F  </i>
   <i type="logical" name="LELF"> F  </i>
   <i type="logical" name="LOPTICS"> F  </i>
   <v name="STM">      0.00000000      0.00000000      0.00000000      0.00000000      0.00000000      0.00000000      0.00000000</v>
  </separator>
  <separator name="performance" >
   <i type="int" name="NPAR">    10</i>
   <i type="int" name="NSIM">     4</i>
   <i type="int" name="NBLK">    -1</i>
   <i type="logical" name="LPLANE"> T  </i>
   <i type="logical" name="LSCALAPACK"> F  </i>
   <i type="logical" name="LSCAAWARE"> F  </i>
   <i type="logical" name="LSCALU"> F  </i>
   <i type="logical" name="LASYNC"> F  </i>
   <i type="logical" name="LORBITALREAL"> F  </i>
  </separator>
  <separator name="miscellaneous" >
   <i type="int" name="IDIOT">     3</i>
   <i type="int" name="ISPECIAL">     0</i>
   <i type="logical" name="LMUSIC"> F  </i>
   <v name="POMASS">     55.84700000     54.93800000</v>
   <v name="DARWINR">      0.00000000      0.00000000</v>
   <v name="DARWINV">      1.00000000      1.00000000</v>
   <i type="logical" name="LCORR"> T  </i>
  </separator>
  <i type="logical" name="GGA_COMPAT"> T  </i>
  <i type="logical" name="LBERRY"> F  </i>
  <i type="int" name="ICORELEVEL">     0</i>
  <i type="logical" name="LDAU"> F  </i>
  <i type="int" name="I_CONSTRAINED_M">     0</i>
  <separator name="electronic exchange-correlation" >
   <i type="string" name="GGA">--</i>
   <i type="int" name="VOSKOWN">     0</i>
   <i type="logical" name="LHFCALC"> F  </i>
   <i type="string" name="PRECFOCK"></i>
   <i type="logical" name="LSYMGRAD"> F  </i>
   <i type="logical" name="LHFONE"> F  </i>
   <i type="logical" name="LRHFCALC"> F  </i>
   <i type="logical" name="LTHOMAS"> F  </i>
   <i type="logical" name="LMODELHF"> F  </i>
   <i name="ENCUT4O">     -1.00000000</i>
   <i type="int" name="EXXOEP">     0</i>
   <i type="int" name="FOURORBIT">     0</i>
   <i name="AEXX">      0.00000000</i>
   <i name="HFALPHA">      0.00000000</i>
   <i name="MCALPHA">      0.00000000</i>
   <i name="ALDAX">      1.00000000</i>
   <i name="AGGAX">      1.00000000</i>
   <i name="ALDAC">      1.00000000</i>
   <i name="AGGAC">      1.00000000</i>
   <i type="int" name="NKREDX">     1</i>
   <i type="int" name="NKREDY">     1</i>
   <i type="int" name="NKREDZ">     1</i>
   <i type="logical" name="SHIFTRED"> F  </i>
   <i type="logical" name="ODDONLY"> F  </i>
   <i type="logical" name="EVENONLY"> F  </i>
   <i type="int" name="LMAXFOCK">     0</i>
   <i type="int" name="NMAXFOCKAE">     0</i>
   <i type="logical" name="LFOCKAEDFT"> F  </i>
   <i name="HFSCREEN">      0.00000000</i>
   <i name="HFSCREENC">      0.00000000</i>
   <i type="int" name="NBANDSGWLOW">     0</i>
  </separator>
  <separator name="vdW DFT" >
   <i type="logical" name="LUSE_VDW"> F  </i>
   <i name="Zab_VDW">     -0.84910000</i>
   <i name="PARAM1">      0.12340000</i>
   <i name="PARAM2">      1.00000000</i>
   <i name="PARAM3">      0.00000000</i>
  </separator>
  <separator name="model GW" >
   <i type="int" name="MODEL_GW">     0</i>
   <i name="MODEL_EPS0">      7.68123361</i>
   <i name="MODEL_ALPHA">      1.00000000</i>
  </separator>
  <separator name="linear response parameters" >
   <i type="logical" name="LEPSILON"> F  </i>
   <i type="logical" name="LRPA"> F  </i>
   <i type="logical" name="LNABLA"> F  </i>
   <i type="logical" name="LVEL"> F  </i>
   <i type="int" name="KINTER">     0</i>
   <i name="CSHIFT">      0.10000000</i>
   <i name="OMEGAMAX">     -1.00000000</i>
   <i name="DEG_THRESHOLD">      0.00200000</i>
   <i name="RTIME">     -0.10000000</i>
   <i name="WPLASMAI">      0.00000000</i>
   <v name="DFIELD">      0.00000000      0.00000000      0.00000000</v>
   <v name="WPLASMA">      0.00000000      0.00000000      0.00000000      0.00000000      0.00000000      0.00000000      0.00000000      0.00000000      0.00000000</v>
  </separator>
  <separator name="orbital magnetization" >
   <i type="logical" name="NUCIND"> F  </i>
   <v name="MAGPOS">      0.00000000      0.00000000      0.00000000</v>
   <i type="logical" name="LNICSALL"> T  </i>
   <i type="logical" name="ORBITALMAG"> F  </i>
   <i type="logical" name="LMAGBLOCH"> F  </i>
   <i type="logical" name="LCHIMAG"> F  </i>
   <i type="logical" name="LGAUGE"> T  </i>
   <i type="int" name="MAGATOM">     0</i>
   <v name="MAGDIPOL">      0.00000000      0.00000000      0.00000000</v>
   <v name="AVECCONST">      0.00000000      0.00000000      0.00000000</v>
  </separator>
  <separator name="response functions" >
   <i type="logical" name="LADDER"> F  </i>
   <i type="logical" name="LRPAFORCE"> F  </i>
   <i type="logical" name="LFXC"> F  </i>
   <i type="logical" name="LHARTREE"> T  </i>
   <i type="int" name="IBSE">     0</i>
   <v type="int" name="KPOINT">    -1     0     0     0</v>
   <i type="logical" name="LTCTE"> F  </i>
   <i type="logical" name="LTETE"> F  </i>
   <i type="logical" name="LTRIPLET"> F  </i>
   <i type="logical" name="LFXCEPS"> F  </i>
   <i type="logical" name="LFXHEG"> F  </i>
   <i type="int" name="NATURALO">     2</i>
   <i type="logical" name="L2ORDER"> F  </i>
   <i type="logical" name="LMP2LT"> F  </i>
   <i type="logical" name="LUSEW"> F  </i>
   <i name="ENCUTGW">     -2.00000000</i>
   <i name="ENCUTGWSOFT">     -2.00000000</i>
   <i name="ENCUTLF">     -1.00000000</i>
   <i type="int" name="LMAXMP2">    -1</i>
   <i name="SCISSOR">      0.00000000</i>
   <i type="int" name="NOMEGA">     0</i>
   <i type="int" name="NOMEGAR">     0</i>
   <i type="int" name="NBANDSGW">    -1</i>
   <i type="int" name="NBANDSO">    -1</i>
   <i type="int" name="NBANDSV">    -1</i>
   <i type="int" name="NELM">   100</i>
   <i type="int" name="NELMHF">     1</i>
   <i type="int" name="DIM">     3</i>
   <i type="int" name="ANTIRES">     0</i>
   <i name="OMEGAMAX">    -30.00000000</i>
   <i name="OMEGAMIN">    -30.00000000</i>
   <i name="OMEGATL">   -200.00000000</i>
   <i type="int" name="OMEGAGRID">   140</i>
   <i name="CSHIFT">     -0.10000000</i>
   <i type="logical" name="SELFENERGY"> F  </i>
   <i type="logical" name="LSPECTRAL"> F  </i>
   <i type="logical" name="LSPECTRALGW"> F  </i>
   <i type="logical" name="LSINGLES"> F  </i>
   <i type="logical" name="LFERMIGW"> F  </i>
   <i type="logical" name="ODDONLYGW"> F  </i>
   <i type="logical" name="EVENONLYGW"> F  </i>
   <i type="int" name="NKREDLFX">     1</i>
   <i type="int" name="NKREDLFY">     1</i>
   <i type="int" name="NKREDLFZ">     1</i>
   <i type="int" name="MAXMEM">  2800</i>
   <i type="int" name="TELESCOPE">     0</i>
   <i type="int" name="TAUPAR">     1</i>
   <i type="int" name="OMEGAPAR">    -1</i>
   <i name="LAMBDA">      1.00000000</i>
  </separator>
  <separator name="External order field" >
   <i name="OFIELD_KAPPA">      0.00000000</i>
   <v name="OFIELD_K">      0.00000000      0.00000000      0.00000000</v>
   <i name="OFIELD_Q6_NEAR">      0.00000000</i>
   <i name="OFIELD_Q6_FAR">      0.00000000</i>
   <i name="OFIELD_A">      0.00000000</i>
  </separator>
 </parameters>
 <atominfo>
  <atoms>     288 </atoms>
  <types>       2 </types>
  <array name="atoms" >
   <dimension dim="1">ion</dimension>
   <field type="string">element</field>
   <field type="int">atomtype</field>
   <set>
    <rc><c>Fe</c><c>   1</c></rc>
    <rc><c>Fe</c><c>   1</c></rc>
    <rc><c>Fe</c><c>   1</c></rc>
    <rc><c>Fe</c><c>   1</c></rc>
    <rc><c>Fe</c><c>   1</c></rc>
    <rc><c>Fe</c><c>   1</c></rc>
    <rc><c>Fe</c><c>   1</c></rc>
    <rc><c>Fe</c><c>   1</c></rc>
    <rc><c>Fe</c><c>   1</c></rc>
    <rc><c>Fe</c><c>   1</c></rc>
    <rc><c>Fe</c><c>   1</c></rc>
    <rc><c>Fe</c><c>   1</c></rc>
    <rc><c>Fe</c><c>   1</c></rc>
    <rc><c>Fe</c><c>   1</c></rc>
    <rc><c>Fe</c><c>   1</c></rc>
    <rc><c>Fe</c><c>   1</c></rc>
    <rc><c>Fe</c><c>   1</c></rc>
    <rc><c>Fe</c><c>   1</c></rc>
    <rc><c>Fe</c><c>   1</c></rc>
    <rc><c>Fe</c><c>   1</c></rc>
    <rc><c>Fe</c><c>   1</c></rc>
    <rc><c>Fe</c><c>   1</c></rc>
    <rc><c>Fe</c><c>   1</c></rc>
    <rc><c>Fe</c><c>   1</c></rc>
    <rc><c>Fe</c><c>   1</c></rc>
    <rc><c>Fe</c><c>   1</c></rc>
    <rc><c>Fe</c><c>   1</c></rc>
    <rc><c>Fe</c><c>   1</c></rc>
    <rc><c>Fe</c><c>   1</c></rc>
    <rc><c>Fe</c><c>   1</c></rc>
    <rc><c>Fe</c><c>   1</c></rc>
    <rc><c>Fe</c><c>   1</c></rc>
    <rc><c>Fe</c><c>   1</c></rc>
    <rc><c>Fe</c><c>   1</c></rc>
    <rc><c>Fe</c><c>   1</c></rc>
    <rc><c>Fe</c><c>   1</c></rc>
    <rc><c>Fe</c><c>   1</c></rc>
    <rc><c>Fe</c><c>   1</c></rc>
    <rc><c>Fe</c><c>   1</c></rc>
    <rc><c>Fe</c><c>   1</c></rc>
    <rc><c>Fe</c><c>   1</c></rc>
    <rc><c>Fe</c><c>   1</c></rc>
    <rc><c>Fe</c><c>   1</c></rc>
    <rc><c>Fe</c><c>   1</c></rc>
    <rc><c>Fe</c><c>   1</c></rc>
    <rc><c>Fe</c><c>   1</c></rc>
    <rc><c>Fe</c><c>   1</c></rc>
    <rc><c>Fe</c><c>   1</c></rc>
    <rc><c>Fe</c><c>   1</c></rc>
    <rc><c>Fe</c><c>   1</c></rc>
    <rc><c>Fe</c><c>   1</c></rc>
    <rc><c>Fe</c><c>   1</c></rc>
    <rc><c>Fe</c><c>   1</c></rc>
    <rc><c>Fe</c><c>   1</c></rc>
    <rc><c>Fe</c><c>   1</c></rc>
    <rc><c>Fe</c><c>   1</c></rc>
    <rc><c>Fe</c><c>   1</c></rc>
    <rc><c>Fe</c><c>   1</c></rc>
    <rc><c>Fe</c><c>   1</c></rc>
    <rc><c>Fe</c><c>   1</c></rc>
    <rc><c>Fe</c><c>   1</c></rc>
    <rc><c>Fe</c><c>   1</c></rc>
    <rc><c>Fe</c><c>   1</c></rc>
    <rc><c>Fe</c><c>   1</c></rc>
    <rc><c>Fe</c><c>   1</c></rc>
    <rc><c>Fe</c><c>   1</c></rc>
    <rc><c>Fe</c><c>   1</c></rc>
    <rc><c>Fe</c><c>   1</c></rc>
    <rc><c>Fe</c><c>   1</c></rc>
    <rc><c>Fe</c><c>   1</c></rc>
    <rc><c>Fe</c><c>   1</c></rc>
    <rc><c>Fe</c><c>   1</c></rc>
    <rc><c>Fe</c><c>   1</c></rc>
    <rc><c>Fe</c><c>   1</c></rc>
    <rc><c>Fe</c><c>   1</c></rc>
    <rc><c>Fe</c><c>   1</c></rc>
    <rc><c>Fe</c><c>   1</c></rc>
    <rc><c>Fe</c><c>   1</c></rc>
    <rc><c>Fe</c><c>   1</c></rc>
    <rc><c>Fe</c><c>   1</c></rc>
    <rc><c>Fe</c><c>   1</c></rc>
    <rc><c>Fe</c><c>   1</c></rc>
    <rc><c>Fe</c><c>   1</c></rc>
    <rc><c>Fe</c><c>   1</c></rc>
    <rc><c>Fe</c><c>   1</c></rc>
    <rc><c>Fe</c><c>   1</c></rc>
    <rc><c>Fe</c><c>   1</c></rc>
    <rc><c>Fe</c><c>   1</c></rc>
    <rc><c>Fe</c><c>   1</c></rc>
    <rc><c>Fe</c><c>   1</c></rc>
    <rc><c>Fe</c><c>   1</c></rc>
    <rc><c>Fe</c><c>   1</c></rc>
    <rc><c>Fe</c><c>   1</c></rc>
    <rc><c>Fe</c><c>   1</c></rc>
    <rc><c>Fe</c><c>   1</c></rc>
    <rc><c>Fe</c><c>   1</c></rc>
    <rc><c>Fe</c><c>   1</c></rc>
    <rc><c>Fe</c><c>   1</c></rc>
    <rc><c>Fe</c><c>   1</c></rc>
    <rc><c>Fe</c><c>   1</c></rc>
    <rc><c>Fe</c><c>   1</c></rc>
    <rc><c>Fe</c><c>   1</c></rc>
    <rc><c>Fe</c><c>   1</c></rc>
    <rc><c>Fe</c><c>   1</c></rc>
    <rc><c>Fe</c><c>   1</c></rc>
    <rc><c>Fe</c><c>   1</c></rc>
    <rc><c>Fe</c><c>   1</c></rc>
    <rc><c>Fe</c><c>   1</c></rc>
    <rc><c>Fe</c><c>   1</c></rc>
    <rc><c>Fe</c><c>   1</c></rc>
    <rc><c>Fe</c><c>   1</c></rc>
    <rc><c>Fe</c><c>   1</c></rc>
    <rc><c>Fe</c><c>   1</c></rc>
    <rc><c>Fe</c><c>   1</c></rc>
    <rc><c>Fe</c><c>   1</c></rc>
    <rc><c>Fe</c><c>   1</c></rc>
    <rc><c>Fe</c><c>   1</c></rc>
    <rc><c>Fe</c><c>   1</c></rc>
    <rc><c>Fe</c><c>   1</c></rc>
    <rc><c>Fe</c><c>   1</c></rc>
    <rc><c>Fe</c><c>   1</c></rc>
    <rc><c>Fe</c><c>   1</c></rc>
    <rc><c>Fe</c><c>   1</c></rc>
    <rc><c>Fe</c><c>   1</c></rc>
    <rc><c>Fe</c><c>   1</c></rc>
    <rc><c>Fe</c><c>   1</c></rc>
    <rc><c>Fe</c><c>   1</c></rc>
    <rc><c>Fe</c><c>   1</c></rc>
    <rc><c>Fe</c><c>   1</c></rc>
    <rc><c>Fe</c><c>   1</c></rc>
    <rc><c>Fe</c><c>   1</c></rc>
    <rc><c>Fe</c><c>   1</c></rc>
    <rc><c>Fe</c><c>   1</c></rc>
    <rc><c>Fe</c><c>   1</c></rc>
    <rc><c>Fe</c><c>   1</c></rc>
    <rc><c>Fe</c><c>   1</c></rc>
    <rc><c>Fe</c><c>   1</c></rc>
    <rc><c>Fe</c><c>   1</c></rc>
    <rc><c>Fe</c><c>   1</c></rc>
    <rc><c>Fe</c><c>   1</c></rc>
    <rc><c>Fe</c><c>   1</c></rc>
    <rc><c>Fe</c><c>   1</c></rc>
    <rc><c>Fe</c><c>   1</c></rc>
    <rc><c>Fe</c><c>   1</c></rc>
    <rc><c>Fe</c><c>   1</c></rc>
    <rc><c>Fe</c><c>   1</c></rc>
    <rc><c>Fe</c><c>   1</c></rc>
    <rc><c>Fe</c><c>   1</c></rc>
    <rc><c>Fe</c><c>   1</c></rc>
    <rc><c>Fe</c><c>   1</c></rc>
    <rc><c>Fe</c><c>   1</c></rc>
    <rc><c>Fe</c><c>   1</c></rc>
    <rc><c>Fe</c><c>   1</c></rc>
    <rc><c>Fe</c><c>   1</c></rc>
    <rc><c>Fe</c><c>   1</c></rc>
    <rc><c>Fe</c><c>   1</c></rc>
    <rc><c>Fe</c><c>   1</c></rc>
    <rc><c>Fe</c><c>   1</c></rc>
    <rc><c>Fe</c><c>   1</c></rc>
    <rc><c>Fe</c><c>   1</c></rc>
    <rc><c>Fe</c><c>   1</c></rc>
    <rc><c>Fe</c><c>   1</c></rc>
    <rc><c>Fe</c><c>   1</c></rc>
    <rc><c>Fe</c><c>   1</c></rc>
    <rc><c>Fe</c><c>   1</c></rc>
    <rc><c>Fe</c><c>   1</c></rc>
    <rc><c>Fe</c><c>   1</c></rc>
    <rc><c>Fe</c><c>   1</c></rc>
    <rc><c>Fe</c><c>   1</c></rc>
    <rc><c>Fe</c><c>   1</c></rc>
    <rc><c>Fe</c><c>   1</c></rc>
    <rc><c>Fe</c><c>   1</c></rc>
    <rc><c>Fe</c><c>   1</c></rc>
    <rc><c>Fe</c><c>   1</c></rc>
    <rc><c>Fe</c><c>   1</c></rc>
    <rc><c>Fe</c><c>   1</c></rc>
    <rc><c>Fe</c><c>   1</c></rc>
    <rc><c>Fe</c><c>   1</c></rc>
    <rc><c>Fe</c><c>   1</c></rc>
    <rc><c>Fe</c><c>   1</c></rc>
    <rc><c>Fe</c><c>   1</c></rc>
    <rc><c>Fe</c><c>   1</c></rc>
    <rc><c>Fe</c><c>   1</c></rc>
    <rc><c>Fe</c><c>   1</c></rc>
    <rc><c>Fe</c><c>   1</c></rc>
    <rc><c>Fe</c><c>   1</c></rc>
    <rc><c>Fe</c><c>   1</c></rc>
    <rc><c>Fe</c><c>   1</c></rc>
    <rc><c>Fe</c><c>   1</c></rc>
    <rc><c>Fe</c><c>   1</c></rc>
    <rc><c>Fe</c><c>   1</c></rc>
    <rc><c>Fe</c><c>   1</c></rc>
    <rc><c>Fe</c><c>   1</c></rc>
    <rc><c>Fe</c><c>   1</c></rc>
    <rc><c>Fe</c><c>   1</c></rc>
    <rc><c>Fe</c><c>   1</c></rc>
    <rc><c>Fe</c><c>   1</c></rc>
    <rc><c>Fe</c><c>   1</c></rc>
    <rc><c>Fe</c><c>   1</c></rc>
    <rc><c>Fe</c><c>   1</c></rc>
    <rc><c>Fe</c><c>   1</c></rc>
    <rc><c>Fe</c><c>   1</c></rc>
    <rc><c>Fe</c><c>   1</c></rc>
    <rc><c>Fe</c><c>   1</c></rc>
    <rc><c>Fe</c><c>   1</c></rc>
    <rc><c>Fe</c><c>   1</c></rc>
    <rc><c>Fe</c><c>   1</c></rc>
    <rc><c>Fe</c><c>   1</c></rc>
    <rc><c>Fe</c><c>   1</c></rc>
    <rc><c>Fe</c><c>   1</c></rc>
    <rc><c>Fe</c><c>   1</c></rc>
    <rc><c>Fe</c><c>   1</c></rc>
    <rc><c>Fe</c><c>   1</c></rc>
    <rc><c>Fe</c><c>   1</c></rc>
    <rc><c>Fe</c><c>   1</c></rc>
    <rc><c>Fe</c><c>   1</c></rc>
    <rc><c>Fe</c><c>   1</c></rc>
    <rc><c>Fe</c><c>   1</c></rc>
    <rc><c>Fe</c><c>   1</c></rc>
    <rc><c>Fe</c><c>   1</c></rc>
    <rc><c>Fe</c><c>   1</c></rc>
    <rc><c>Fe</c><c>   1</c></rc>
    <rc><c>Fe</c><c>   1</c></rc>
    <rc><c>Fe</c><c>   1</c></rc>
    <rc><c>Fe</c><c>   1</c></rc>
    <rc><c>Fe</c><c>   1</c></rc>
    <rc><c>Fe</c><c>   1</c></rc>
    <rc><c>Fe</c><c>   1</c></rc>
    <rc><c>Fe</c><c>   1</c></rc>
    <rc><c>Fe</c><c>   1</c></rc>
    <rc><c>Fe</c><c>   1</c></rc>
    <rc><c>Fe</c><c>   1</c></rc>
    <rc><c>Fe</c><c>   1</c></rc>
    <rc><c>Fe</c><c>   1</c></rc>
    <rc><c>Fe</c><c>   1</c></rc>
    <rc><c>Fe</c><c>   1</c></rc>
    <rc><c>Fe</c><c>   1</c></rc>
    <rc><c>Fe</c><c>   1</c></rc>
    <rc><c>Fe</c><c>   1</c></rc>
    <rc><c>Fe</c><c>   1</c></rc>
    <rc><c>Fe</c><c>   1</c></rc>
    <rc><c>Fe</c><c>   1</c></rc>
    <rc><c>Fe</c><c>   1</c></rc>
    <rc><c>Fe</c><c>   1</c></rc>
    <rc><c>Fe</c><c>   1</c></rc>
    <rc><c>Fe</c><c>   1</c></rc>
    <rc><c>Fe</c><c>   1</c></rc>
    <rc><c>Fe</c><c>   1</c></rc>
    <rc><c>Fe</c><c>   1</c></rc>
    <rc><c>Fe</c><c>   1</c></rc>
    <rc><c>Fe</c><c>   1</c></rc>
    <rc><c>Fe</c><c>   1</c></rc>
    <rc><c>Fe</c><c>   1</c></rc>
    <rc><c>Fe</c><c>   1</c></rc>
    <rc><c>Fe</c><c>   1</c></rc>
    <rc><c>Fe</c><c>   1</c></rc>
    <rc><c>Fe</c><c>   1</c></rc>
    <rc><c>Fe</c><c>   1</c></rc>
    <rc><c>Fe</c><c>   1</c></rc>
    <rc><c>Fe</c><c>   1</c></rc>
    <rc><c>Fe</c><c>   1</c></rc>
    <rc><c>Fe</c><c>   1</c></rc>
    <rc><c>Fe</c><c>   1</c></rc>
    <rc><c>Fe</c><c>   1</c></rc>
    <rc><c>Fe</c><c>   1</c></rc>
    <rc><c>Fe</c><c>   1</c></rc>
    <rc><c>Fe</c><c>   1</c></rc>
    <rc><c>Fe</c><c>   1</c></rc>
    <rc><c>Fe</c><c>   1</c></rc>
    <rc><c>Fe</c><c>   1</c></rc>
    <rc><c>Fe</c><c>   1</c></rc>
    <rc><c>Fe</c><c>   1</c></rc>
    <rc><c>Fe</c><c>   1</c></rc>
    <rc><c>Mn</c><c>   2</c></rc>
    <rc><c>Mn</c><c>   2</c></rc>
    <rc><c>Mn</c><c>   2</c></rc>
    <rc><c>Mn</c><c>   2</c></rc>
    <rc><c>Mn</c><c>   2</c></rc>
    <rc><c>Mn</c><c>   2</c></rc>
    <rc><c>Mn</c><c>   2</c></rc>
    <rc><c>Mn</c><c>   2</c></rc>
    <rc><c>Mn</c><c>   2</c></rc>
    <rc><c>Mn</c><c>   2</c></rc>
    <rc><c>Mn</c><c>   2</c></rc>
    <rc><c>Mn</c><c>   2</c></rc>
    <rc><c>Mn</c><c>   2</c></rc>
    <rc><c>Mn</c><c>   2</c></rc>
    <rc><c>Mn</c><c>   2</c></rc>
   </set>
  </array>
  <array name="atomtypes" >
   <dimension dim="1">type</dimension>
   <field type="int">atomspertype</field>
   <field type="string">element</field>
   <field>mass</field>
   <field>valence</field>
   <field type="string">pseudopotential</field>
   <set>
    <rc><c> 273</c><c>Fe</c><c>     55.84700000</c><c>      8.00000000</c><c>  PAW_PBE Fe_GW 31Mar2010               </c></rc>
    <rc><c>  15</c><c>Mn</c><c>     54.93800000</c><c>      7.00000000</c><c>  PAW_PBE Mn_GW 31Mar2010               </c></rc>
   </set>
  </array>
 </atominfo>
 <structure name="initialpos" >
  <crystal>
   <varray name="basis" >
    <v>       9.72667800       0.00000000       0.00000000 </v>
    <v>       0.00000000       8.42355000       0.00000000 </v>
    <v>       0.00000000       0.00000000      45.00000000 </v>
   </varray>
   <i name="volume">   3686.99213101 </i>
   <varray name="rec_basis" >
    <v>       0.10281002       0.00000000       0.00000000 </v>
    <v>       0.00000000       0.11871479       0.00000000 </v>
    <v>       0.00000000       0.00000000       0.02222222 </v>
   </varray>
  </crystal>
  <varray name="positions" >
   <v>       0.68769829       0.61850391       0.16904058 </v>
   <v>       0.68753571       0.78600358       0.25774614 </v>
   <v>       0.81249399       0.37277119       0.52128023 </v>
   <v>       0.06259602       0.87621914       0.78634222 </v>
   <v>       0.81267727       0.36876652       0.16905015 </v>
   <v>       0.56278108       0.37094659       0.43473188 </v>
   <v>       0.31264689       0.20788397       0.69798685 </v>
   <v>       0.06263993       0.70613726       0.56506061 </v>
   <v>       0.06242552       0.36968793       0.30195315 </v>
   <v>       0.43743900       0.29223564       0.74212477 </v>
   <v>       0.43736949       0.79245117       0.87328864 </v>
   <v>       0.06243219       0.70194943       0.21379142 </v>
   <v>       0.56244567       0.36962042       0.30197784 </v>
   <v>       0.06262165       0.53558525       0.25784904 </v>
   <v>       0.68697630       0.11850521       0.16877677 </v>
   <v>       0.56266577       0.54211943       0.74213531 </v>
   <v>       0.56240888       0.70653881       0.56506161 </v>
   <v>       0.18677860       0.28452089       0.12685595 </v>
   <v>       0.81263301       0.37572803       0.78631510 </v>
   <v>       0.81240595       0.54196448       0.74224161 </v>
   <v>       0.81240811       0.53571664       0.25784543 </v>
   <v>       0.93761602       0.28777275       0.39027053 </v>
   <v>       0.18769945       0.12598661       0.78623994 </v>
   <v>       0.56238110       0.53730702       0.39017044 </v>
   <v>       0.56268267       0.54042727       0.60984734 </v>
   <v>       0.81255530       0.03760243       0.39028515 </v>
   <v>       0.93756225       0.61858993       0.16893106 </v>
   <v>       0.56241618       0.53632689       0.12677248 </v>
   <v>       0.56263082       0.87389164       0.65354515 </v>
   <v>       0.81265250       0.87395996       0.65369725 </v>
   <v>       0.18799203       0.11849067       0.16894658 </v>
   <v>       0.93719346       0.95352621       0.34633586 </v>
   <v>       0.06246503       0.70325004       0.34629731 </v>
   <v>       0.81259981       0.20537525       0.47865782 </v>
   <v>       0.31252350       0.86794454       0.16902723 </v>
   <v>       0.18755305       0.95803338       0.69804061 </v>
   <v>       0.81240376       0.87115352       0.43484546 </v>
   <v>       0.68742241       0.78773377       0.39018894 </v>
   <v>       0.31251755       0.54217140       0.74223253 </v>
   <v>       0.06267173       0.70772241       0.69793341 </v>
   <v>       0.31258852       0.53606736       0.25792751 </v>
   <v>       0.93719291       0.96002595       0.83111996 </v>
   <v>       0.06241641       0.20402216       0.34633381 </v>
   <v>       0.18729386       0.61845380       0.16898985 </v>
   <v>       0.06214975       0.37210608       0.52136246 </v>
   <v>       0.06231255       0.37668459       0.78625001 </v>
   <v>       0.56243525       0.86976278       0.30194610 </v>
   <v>       0.93781864       0.45357233       0.34634103 </v>
   <v>       0.81242370       0.20212290       0.21379222 </v>
   <v>       0.06246417       0.04066709       0.60976368 </v>
   <v>       0.18712326       0.45660442       0.56509754 </v>
   <v>       0.93767887       0.12440322       0.65379118 </v>
   <v>       0.06280234       0.04325794       0.87342474 </v>
   <v>       0.06231821       0.54235472       0.74214799 </v>
   <v>       0.18739556       0.61964550       0.30190631 </v>
   <v>       0.31249293       0.70512658       0.47860398 </v>
   <v>       0.93743211       0.62137458       0.43479480 </v>
   <v>       0.43722288       0.95604837       0.56497002 </v>
   <v>       0.68742612       0.28723876       0.39024217 </v>
   <v>       0.93753023       0.61965088       0.30197940 </v>
   <v>       0.31260493       0.54322977       0.87315977 </v>
   <v>       0.56296261       0.04213058       0.74218899 </v>
   <v>       0.43779624       0.78786211       0.39025090 </v>
   <v>       0.43777274       0.45545451       0.47859502 </v>
   <v>       0.31245685       0.70162879       0.21376295 </v>
   <v>       0.56238394       0.20559647       0.47857046 </v>
   <v>       0.68753134       0.61953893       0.30204091 </v>
   <v>       0.43751598       0.29032783       0.60969746 </v>
   <v>       0.43751033       0.95921471       0.83108497 </v>
   <v>       0.81258921       0.70813921       0.69807983 </v>
   <v>       0.81251257       0.37396911       0.65368573 </v>
   <v>       0.93782112       0.29203439       0.87337843 </v>
   <v>       0.56252725       0.70418337       0.34635856 </v>
   <v>       0.68792659       0.12143965       0.43493924 </v>
   <v>       0.93760088       0.62392418       0.65354626 </v>
   <v>       0.56223565       0.37385941       0.65371658 </v>
   <v>       0.93768034       0.45194869       0.21375062 </v>
   <v>       0.68758476       0.29207363       0.74215022 </v>
   <v>       0.93748578       0.95528093       0.47850567 </v>
   <v>       0.68800295       0.79017070       0.60972312 </v>
   <v>       0.43800335       0.29269664       0.87327780 </v>
   <v>       0.93806525       0.45961927       0.83107489 </v>
   <v>       0.43743076       0.12628506       0.78639032 </v>
   <v>       0.56244939       0.20368536       0.34634174 </v>
   <v>       0.93752812       0.11857108       0.16899953 </v>
   <v>       0.31266331       0.70584359       0.56501960 </v>
   <v>       0.56272245       0.03737263       0.39026439 </v>
   <v>       0.68728980       0.11962806       0.30197217 </v>
   <v>       0.81248947       0.86950658       0.30194634 </v>
   <v>       0.18770550       0.45795908       0.69800486 </v>
   <v>       0.93768569       0.62251242       0.52122698 </v>
   <v>       0.43726548       0.28752617       0.39017666 </v>
   <v>       0.56262298       0.70920147       0.83102304 </v>
   <v>       0.06270798       0.37434744       0.65371504 </v>
   <v>       0.56274933       0.20989590       0.83120497 </v>
   <v>       0.68785158       0.45230458       0.21392823 </v>
   <v>       0.81247205       0.03563806       0.25785964 </v>
   <v>       0.93734148       0.79169934       0.74209059 </v>
   <v>       0.68773986       0.45380653       0.34629464 </v>
   <v>       0.93763711       0.45597280       0.56508429 </v>
   <v>       0.06234842       0.04218005       0.74209883 </v>
   <v>       0.68694145       0.29212171       0.87319230 </v>
   <v>       0.81226323       0.53567246       0.12684029 </v>
   <v>       0.06244596       0.53988656       0.60975769 </v>
   <v>       0.56244205       0.70184640       0.21374593 </v>
   <v>       0.56251944       0.87127755       0.43480025 </v>
   <v>       0.06254483       0.70968374       0.83111404 </v>
   <v>       0.31248842       0.87623964       0.78627775 </v>
   <v>       0.93749924       0.28558337       0.25789457 </v>
   <v>       0.93759698       0.95781482       0.69804348 </v>
   <v>       0.56252101       0.20204129       0.21372321 </v>
   <v>       0.31234054       0.37132044       0.43504629 </v>
   <v>       0.18735735       0.78580782       0.25776875 </v>
   <v>       0.81241198       0.20851632       0.69796745 </v>
   <v>       0.68742194       0.45657758       0.56507246 </v>
   <v>       0.18769969       0.96025261       0.83110430 </v>
   <v>       0.31241410       0.20508071       0.47866956 </v>
   <v>       0.18748571       0.62283714       0.52124141 </v>
   <v>       0.18770110       0.28774724       0.39026768 </v>
   <v>       0.06214362       0.54229098       0.87328242 </v>
   <v>       0.68735857       0.12406596       0.65367143 </v>
   <v>       0.81220609       0.03509385       0.12671411 </v>
   <v>       0.43745338       0.45956634       0.83108401 </v>
   <v>       0.68755103       0.78565121       0.12671900 </v>
   <v>       0.31229597       0.87260240       0.52127037 </v>
   <v>       0.31264809       0.20409336       0.34631348 </v>
   <v>       0.31286825       0.70946665       0.83103043 </v>
   <v>       0.81261621       0.36968506       0.30196409 </v>
   <v>       0.43753830       0.62110953       0.43480244 </v>
   <v>       0.31255008       0.20633087       0.56515406 </v>
   <v>       0.81256209       0.70510843       0.47855735 </v>
   <v>       0.56263826       0.37607648       0.78630691 </v>
   <v>       0.06226595       0.87423275       0.65351532 </v>
   <v>       0.43707351       0.78521197       0.12673057 </v>
   <v>       0.31303469       0.36794441       0.16892929 </v>
   <v>       0.93789199       0.78482576       0.12678796 </v>
   <v>       0.43749929       0.78628166       0.25772179 </v>
   <v>       0.06254583       0.53763974       0.39023004 </v>
   <v>       0.68735257       0.79160656       0.74216663 </v>
   <v>       0.06236619       0.20223681       0.21382899 </v>
   <v>       0.43721118       0.45768509       0.69807412 </v>
   <v>       0.31210579       0.03789302       0.39023725 </v>
   <v>       0.43732197       0.95792049       0.69799175 </v>
   <v>       0.68747000       0.62267473       0.52126322 </v>
   <v>       0.68743574       0.46003629       0.83107964 </v>
   <v>       0.81253949       0.53726135       0.39022142 </v>
   <v>       0.31257491       0.53728735       0.39021502 </v>
   <v>       0.93748289       0.79061337       0.60961244 </v>
   <v>       0.43751087       0.11972754       0.30204122 </v>
   <v>       0.93688828       0.79233962       0.87329639 </v>
   <v>       0.93751204       0.78560646       0.25779068 </v>
   <v>       0.18750993       0.78782247       0.39016355 </v>
   <v>       0.93773773       0.45527833       0.47853957 </v>
   <v>       0.06259443       0.03770063       0.39020390 </v>
   <v>       0.93774027       0.29227060       0.74216809 </v>
   <v>       0.81275079       0.87268305       0.52131986 </v>
   <v>       0.18721857       0.12222114       0.52139711 </v>
   <v>       0.56271150       0.87254102       0.52125520 </v>
   <v>       0.56263664       0.20739947       0.69800091 </v>
   <v>       0.31242336       0.04220730       0.87334658 </v>
   <v>       0.68764328       0.79273009       0.87333402 </v>
   <v>       0.43722284       0.45660810       0.56512548 </v>
   <v>       0.06251678       0.37161848       0.43477263 </v>
   <v>       0.06212842       0.87245081       0.52124140 </v>
   <v>       0.18759531       0.28576137       0.25794137 </v>
   <v>       0.43735674       0.12382384       0.65365767 </v>
   <v>       0.43800686       0.12241138       0.52123992 </v>
   <v>       0.06253050       0.03581186       0.25794614 </v>
   <v>       0.81216142       0.70977010       0.83121523 </v>
   <v>       0.18723826       0.95587385       0.56504086 </v>
   <v>       0.68745568       0.95533614       0.47860079 </v>
   <v>       0.68735049       0.62605845       0.78644293 </v>
   <v>       0.31260846       0.53596974       0.12677382 </v>
   <v>       0.93747729       0.28531900       0.12681923 </v>
   <v>       0.93730100       0.78771258       0.39018277 </v>
   <v>       0.06258388       0.53537120       0.12684175 </v>
   <v>       0.43748683       0.28623307       0.25781070 </v>
   <v>       0.31240182       0.54018574       0.60969345 </v>
   <v>       0.43783053       0.62564681       0.78625740 </v>
   <v>       0.68742502       0.12236244       0.52134819 </v>
   <v>       0.31244256       0.70850839       0.69804823 </v>
   <v>       0.18719807       0.45367958       0.34633143 </v>
   <v>       0.81252616       0.70217548       0.21376833 </v>
   <v>       0.56226263       0.70833074       0.69799228 </v>
   <v>       0.18705718       0.45898037       0.83116409 </v>
   <v>       0.56211498       0.20658344       0.56514433 </v>
   <v>       0.81254316       0.04251677       0.87328775 </v>
   <v>       0.81246092       0.20408313       0.34637619 </v>
   <v>       0.43756621       0.95515762       0.47851506 </v>
   <v>       0.93779253       0.12148912       0.43493178 </v>
   <v>       0.68732633       0.45525542       0.47855863 </v>
   <v>       0.43724838       0.45412176       0.34627608 </v>
   <v>       0.18734534       0.62151810       0.43470581 </v>
   <v>       0.43751273       0.61974453       0.30203797 </v>
   <v>       0.18721537       0.29235503       0.74215759 </v>
   <v>       0.18720507       0.45547001       0.47869391 </v>
   <v>       0.43721381       0.45201106       0.21378347 </v>
   <v>       0.68747937       0.12580051       0.78629715 </v>
   <v>       0.93763001       0.12226767       0.52134053 </v>
   <v>       0.18682570       0.12156077       0.43479014 </v>
   <v>       0.18726591       0.62437995       0.65365886 </v>
   <v>       0.68707583       0.45818188       0.69800164 </v>
   <v>       0.31234718       0.87403498       0.65364118 </v>
   <v>       0.56223512       0.87621921       0.78634322 </v>
   <v>       0.06230903       0.20802534       0.69798128 </v>
   <v>       0.18733367       0.78508261       0.12672210 </v>
   <v>       0.68778296       0.62084265       0.43487218 </v>
   <v>       0.31274914       0.20922644       0.83118148 </v>
   <v>       0.06256571       0.86837353       0.16902265 </v>
   <v>       0.18734321       0.78997453       0.60969464 </v>
   <v>       0.18709659       0.45226487       0.21388771 </v>
   <v>       0.31242258       0.36985896       0.30193254 </v>
   <v>       0.31250560       0.37422443       0.65356812 </v>
   <v>       0.06251694       0.86963887       0.30197536 </v>
   <v>       0.81273535       0.70605199       0.56501282 </v>
   <v>       0.68740547       0.28589684       0.25780810 </v>
   <v>       0.18755184       0.95532445       0.47853836 </v>
   <v>       0.06275524       0.03504150       0.12680561 </v>
   <v>       0.81245557       0.37152067       0.43484723 </v>
   <v>       0.56216313       0.04289348       0.87327613 </v>
   <v>       0.81242821       0.53999015       0.60966850 </v>
   <v>       0.31245506       0.03602567       0.25787802 </v>
   <v>       0.43715600       0.95121491       0.21387680 </v>
   <v>       0.18752490       0.95208363       0.21378222 </v>
   <v>       0.56256224       0.70516213       0.47852733 </v>
   <v>       0.56260091       0.86825761       0.16893171 </v>
   <v>       0.81245476       0.04053481       0.60969272 </v>
   <v>       0.06307668       0.20643540       0.56512264 </v>
   <v>       0.68758224       0.95919738       0.83109196 </v>
   <v>       0.43762041       0.79233540       0.74211274 </v>
   <v>       0.81253662       0.04195148       0.74216027 </v>
   <v>       0.93743414       0.62606136       0.78636218 </v>
   <v>       0.56350465       0.03543471       0.12672462 </v>
   <v>       0.68812185       0.28545415       0.12676877 </v>
   <v>       0.93757711       0.12571681       0.78637553 </v>
   <v>       0.31252771       0.03984852       0.60973603 </v>
   <v>       0.43743676       0.61806372       0.16879641 </v>
   <v>       0.18749517       0.12414042       0.65362894 </v>
   <v>       0.93777462       0.95214313       0.21373362 </v>
   <v>       0.81255165       0.20931747       0.83105333 </v>
   <v>       0.31239583       0.70344599       0.34629804 </v>
   <v>       0.18725508       0.29240550       0.87350552 </v>
   <v>       0.68770821       0.29033832       0.60960696 </v>
   <v>       0.06252276       0.70531434       0.47853241 </v>
   <v>       0.31253552       0.20217985       0.21376866 </v>
   <v>       0.18766383       0.95339215       0.34625302 </v>
   <v>       0.93760887       0.11972672       0.30205958 </v>
   <v>       0.68730110       0.62353333       0.65367873 </v>
   <v>       0.93799002       0.95617722       0.56513540 </v>
   <v>       0.81221089       0.86872262       0.16895807 </v>
   <v>       0.43750847       0.62414120       0.65369574 </v>
   <v>       0.18820012       0.79217651       0.87316764 </v>
   <v>       0.81249156       0.54275875       0.87327286 </v>
   <v>       0.56285158       0.54279226       0.87328603 </v>
   <v>       0.18757134       0.11967883       0.30198410 </v>
   <v>       0.06267638       0.87130918       0.43474777 </v>
   <v>       0.18746514       0.62584856       0.78636581 </v>
   <v>       0.43755276       0.62279899       0.52128211 </v>
   <v>       0.81267515       0.70322863       0.34631660 </v>
   <v>       0.06230730       0.36862678       0.16909139 </v>
   <v>       0.56197091       0.36809080       0.16889341 </v>
   <v>       0.31138554       0.03533968       0.12681835 </v>
   <v>       0.31244179       0.87137600       0.43484118 </v>
   <v>       0.56260831       0.04018113       0.60967077 </v>
   <v>       0.06276605       0.20552407       0.47856447 </v>
   <v>       0.43754298       0.11920645       0.16881153 </v>
   <v>       0.18741407       0.29041795       0.60967472 </v>
   <v>       0.56284172       0.37236755       0.52139939 </v>
   <v>       0.56243248       0.53602004       0.25792040 </v>
   <v>       0.56256234       0.03588627       0.25784179 </v>
   <v>       0.93769493       0.29021695       0.60977480 </v>
   <v>       0.31243487       0.86949236       0.30189399 </v>
   <v>       0.18758829       0.79219367       0.74216450 </v>
   <v>       0.68874395       0.95352006       0.34634288 </v>
   <v>       0.43740564       0.28552654       0.12700444 </v>
   <v>       0.43763995       0.12101932       0.43478458 </v>
   <v>       0.93767658       0.45832953       0.69803678 </v>
   <v>       0.31251035       0.37263721       0.52128744 </v>
   <v>       0.68746257       0.95197237       0.21395628 </v>
   <v>       0.68667096       0.95561498       0.56516782 </v>
   <v>       0.81294637       0.20703672       0.56509768 </v>
   <v>       0.31236091       0.04299758       0.74233108 </v>
   <v>       0.68749776       0.95793527       0.69812911 </v>
   <v>       0.06247529       0.20985533       0.83176360 </v>
   <v>       0.31223791       0.37564362       0.78605904 </v>
   <v>       0.43760094       0.79022243       0.60978024 </v>
   <v>       0.43637738       0.95366572       0.34639616 </v>
   <v>       0.81254751       0.87631831       0.78610069 </v>
  </varray>
 </structure>
 <calculation>
  <scstep>
   <time name="dav">  146.52  146.52</time>
   <time name="total">  146.96  146.96</time>
   <energy>
    <i name="alphaZ">  16277.55763135 </i>
    <i name="ewald"> 772088.91446041 </i>
    <i name="hartreedc">-962326.21596488 </i>
    <i name="XCdc">  -6524.48837911 </i>
    <i name="pawpsdc"> 162148.49262465 </i>
    <i name="pawaedc">-159453.03229289 </i>
    <i name="eentropy">     -0.96368476 </i>
    <i name="bandstr">  39733.20285738 </i>
    <i name="atom"> 168497.18126305 </i>
    <i name="e_fr_energy">  30440.64851521 </i>
    <i name="e_wo_entrp">  30441.61219997 </i>
    <i name="e_0_energy">  30441.13035759 </i>
   </energy>
  </scstep>
  <scstep>
   <time name="dav">  139.57  139.57</time>
   <time name="total">  139.57  139.57</time>
   <energy>
    <i name="e_fr_energy">   1534.21268796 </i>
    <i name="e_wo_entrp">   1535.58772714 </i>
    <i name="e_0_energy">   1534.90020755 </i>
   </energy>
  </scstep>
  <scstep>
   <time name="dav">  174.14  174.14</time>
   <time name="total">  174.15  174.15</time>
   <energy>
    <i name="e_fr_energy">  -1896.37532946 </i>
    <i name="e_wo_entrp">  -1892.84488324 </i>
    <i name="e_0_energy">  -1894.61010635 </i>
   </energy>
  </scstep>
  <scstep>
   <time name="dav">  215.23  215.23</time>
   <time name="total">  215.24  215.23</time>
   <energy>
    <i name="e_fr_energy">  -2609.84265387 </i>
    <i name="e_wo_entrp">  -2606.38120998 </i>
    <i name="e_0_energy">  -2608.11193193 </i>
   </energy>
  </scstep>
  <scstep>
   <time name="dav">  208.69  208.68</time>
   <time name="total">  214.36  214.36</time>
   <energy>
    <i name="e_fr_energy">  -2739.61978022 </i>
    <i name="e_wo_entrp">  -2736.08032104 </i>
    <i name="e_0_energy">  -2737.85005063 </i>
   </energy>
  </scstep>
  <scstep>
   <time name="diag">   30.76   30.76</time>
   <time name="diis">   75.47   75.47</time>
   <time name="orth">    9.32    9.32</time>
   <time name="total">  120.63  120.63</time>
   <energy>
    <i name="e_fr_energy">  -6898.11599943 </i>
    <i name="e_wo_entrp">  -6894.54222230 </i>
    <i name="e_0_energy">  -6896.32911087 </i>
   </energy>
  </scstep>
  <scstep>
   <time name="diag">   30.27   30.27</time>
   <time name="diis">   77.46   77.45</time>
   <time name="orth">    9.29    9.29</time>
   <time name="total">  121.92  121.92</time>
   <energy>
    <i name="e_fr_energy">  -7115.95962091 </i>
    <i name="e_wo_entrp">  -7111.99420365 </i>
    <i name="e_0_energy">  -7113.97691228 </i>
   </energy>
  </scstep>
  <scstep>
[...]
    <v>       0.68746423       0.95254980       0.21385344 </v>
    <v>       0.68666094       0.95552900       0.56517458 </v>
    <v>       0.81291644       0.20702814       0.56511165 </v>
    <v>       0.31237778       0.04241162       0.74241697 </v>
    <v>       0.68746396       0.95773509       0.69818004 </v>
    <v>       0.06245804       0.20924940       0.83189117 </v>
    <v>       0.31225924       0.37495273       0.78613724 </v>
    <v>       0.43759526       0.79017073       0.60980504 </v>
    <v>       0.43643753       0.95377583       0.34635225 </v>
    <v>       0.81255279       0.87550700       0.78618278 </v>
   </varray>
  </structure>
  <varray name="forces" >
   <v>      -0.00097178       0.00295486      -0.00025660 </v>
   <v>       0.00114566      -0.00268595      -0.00219323 </v>
   <v>      -0.00257212      -0.00106284      -0.00167365 </v>
   <v>      -0.00054169      -0.00487359       0.00118547 </v>
   <v>       0.00109723       0.00307705      -0.00116371 </v>
   <v>       0.00052173       0.00378815       0.00457913 </v>
   <v>      -0.00069548      -0.00335537       0.00370204 </v>
   <v>       0.00012387       0.00134475      -0.00212755 </v>
   <v>       0.00081202       0.00212112      -0.00398911 </v>
   <v>      -0.00096454       0.00148416       0.00084755 </v>
   <v>      -0.00267079       0.00059323       0.00149683 </v>
   <v>       0.00021952       0.00035007      -0.00165467 </v>
   <v>       0.00166490       0.00058007      -0.00375853 </v>
   <v>      -0.00055795       0.00026314      -0.00245452 </v>
   <v>       0.00107013       0.00369697      -0.00185328 </v>
   <v>       0.00021291      -0.00099843       0.00161286 </v>
   <v>      -0.00001763      -0.00108590      -0.00160629 </v>
   <v>      -0.00323073       0.00514063      -0.00225585 </v>
   <v>       0.00174494      -0.00589667       0.00587790 </v>
   <v>      -0.00044159      -0.00292476       0.00635698 </v>
   <v>       0.00021623       0.00038202      -0.00264399 </v>
   <v>       0.00012974      -0.00017243       0.00087082 </v>
   <v>      -0.00038139      -0.00148304       0.00315108 </v>
   <v>       0.00118216       0.00071983       0.00081204 </v>
   <v>      -0.00121192      -0.00104512      -0.00143895 </v>
   <v>       0.00126109       0.00162439       0.00027364 </v>
   <v>      -0.00033269       0.00158500      -0.00034809 </v>
   <v>       0.00514189       0.00129775       0.00256476 </v>
   <v>       0.00038854      -0.00025571       0.00104104 </v>
   <v>       0.00146482      -0.00205690       0.00150742 </v>
   <v>      -0.00192955       0.00269666      -0.00138093 </v>
   <v>       0.00054061       0.00099562      -0.00122171 </v>
   <v>      -0.00159040       0.00138307      -0.00211354 </v>
   <v>      -0.00178231       0.00078752       0.00117986 </v>
   <v>       0.00053027       0.00532148      -0.00251248 </v>
   <v>      -0.00049530       0.00042484       0.00362803 </v>
   <v>      -0.00006061       0.00260061      -0.00105757 </v>
   <v>       0.00067689      -0.00116006      -0.00169771 </v>
   <v>      -0.00026068       0.00114247       0.00415129 </v>
   <v>       0.00198510       0.00087967       0.00103140 </v>
   <v>      -0.00051428      -0.00215350      -0.00383228 </v>
   <v>       0.00068724      -0.00179888       0.00424610 </v>
   <v>      -0.00031738       0.00084770      -0.00237676 </v>
   <v>      -0.00085869       0.00161607       0.00107299 </v>
   <v>      -0.00099358       0.00063380      -0.00031178 </v>
   <v>       0.00189483      -0.00171807       0.00415478 </v>
   <v>       0.00090013       0.00017636      -0.00623600 </v>
   <v>       0.00078806       0.00165481      -0.00108214 </v>
   <v>       0.00173417       0.00563924      -0.00361052 </v>
   <v>       0.00079039      -0.00190611      -0.00069822 </v>
   <v>       0.00003683       0.00217876       0.00114795 </v>
   <v>       0.00011557      -0.00416823      -0.00011634 </v>
   <v>       0.00606603      -0.00077259       0.00123251 </v>
   <v>       0.00134990      -0.00306652       0.00172290 </v>
   <v>       0.00070379       0.00260927      -0.00224562 </v>
   <v>      -0.00062493       0.00135751       0.00069087 </v>
   <v>       0.00006075      -0.00050326       0.00040632 </v>
   <v>      -0.00080359       0.00007872      -0.00138643 </v>
   <v>       0.00021279       0.00121043      -0.00015587 </v>
   <v>      -0.00022562       0.00388721      -0.00317775 </v>
   <v>       0.00001545      -0.00117836       0.00351384 </v>
   <v>      -0.00368236      -0.00209632       0.00334955 </v>
   <v>       0.00033334      -0.00049443      -0.00342368 </v>
   <v>      -0.00095309       0.00362506      -0.00034026 </v>
   <v>      -0.00039820      -0.00018870      -0.00226504 </v>
   <v>       0.00200861       0.00034546       0.00136231 </v>
   <v>       0.00006455       0.00162426      -0.00174741 </v>
   <v>      -0.00087509      -0.00023725      -0.00078565 </v>
   <v>       0.00055437      -0.00325740      -0.00057120 </v>
   <v>      -0.00003932       0.00068225       0.00198743 </v>
   <v>      -0.00215381      -0.00354612      -0.00132709 </v>
   <v>       0.00413726      -0.00161384      -0.00064041 </v>
   <v>       0.00010507      -0.00092556      -0.00172978 </v>
   <v>      -0.00047653       0.00188625       0.00535721 </v>
   <v>      -0.00033921      -0.00229204       0.00153170 </v>
   <v>      -0.00137238      -0.00164367       0.00064954 </v>
   <v>       0.00136974       0.00102557      -0.00176481 </v>
   <v>      -0.00057403       0.00066417       0.00445183 </v>
   <v>      -0.00173684      -0.00141396       0.00218985 </v>
   <v>      -0.00024197      -0.00115356      -0.00345225 </v>
   <v>      -0.00363163      -0.00137356      -0.00031578 </v>
   <v>       0.00025179      -0.00303415       0.00386024 </v>
   <v>       0.00037014      -0.00146084       0.00449680 </v>
   <v>       0.00018874       0.00149319      -0.00017121 </v>
   <v>       0.00001179       0.00360643      -0.00296230 </v>
   <v>      -0.00039037       0.00175165       0.00159885 </v>
   <v>      -0.00021486       0.00246302       0.00223613 </v>
   <v>       0.00242442       0.00286716      -0.00366489 </v>
   <v>       0.00191805       0.00117759      -0.00440967 </v>
   <v>       0.00185032      -0.00022898       0.00244978 </v>
   <v>       0.00008249       0.00060687       0.00176553 </v>
   <v>      -0.00057057      -0.00015931      -0.00058973 </v>
   <v>      -0.00196454      -0.00218195       0.00454446 </v>
   <v>       0.00133022      -0.00321356      -0.00145527 </v>
   <v>      -0.00114030      -0.00355432       0.00188091 </v>
   <v>       0.00235072       0.00376893      -0.00458570 </v>
   <v>       0.00054010       0.00291457       0.00089937 </v>
   <v>      -0.00087044       0.00000384       0.00179543 </v>
   <v>       0.00087857       0.00113257      -0.00271903 </v>
   <v>       0.00063915       0.00097641      -0.00198129 </v>
   <v>       0.00078687      -0.00087348       0.00189757 </v>
   <v>      -0.00102759      -0.00410703      -0.00227581 </v>
   <v>       0.00180665      -0.00127498       0.00080321 </v>
   <v>      -0.00003812       0.00034296      -0.00019520 </v>
   <v>      -0.00105936       0.00371484      -0.00371399 </v>
   <v>       0.00007555       0.00062594       0.00387110 </v>
   <v>       0.00044649      -0.00372532       0.00347991 </v>
   <v>      -0.00069013      -0.00603762       0.00507778 </v>
   <v>      -0.00051993       0.00145277      -0.00185051 </v>
   <v>      -0.00038656       0.00066015       0.00357230 </v>
   <v>      -0.00115408       0.00687333      -0.00269116 </v>
   <v>      -0.00221705       0.00185912       0.00083616 </v>
   <v>      -0.00015992      -0.00171847      -0.00237884 </v>
   <v>      -0.00052234      -0.00285802       0.00278134 </v>
   <v>      -0.00064441      -0.00033551      -0.00191372 </v>
   <v>      -0.00114666      -0.00398493      -0.00103950 </v>
   <v>      -0.00028906      -0.00026254      -0.00018433 </v>
   <v>      -0.00273053       0.00295047      -0.00186650 </v>
   <v>      -0.00092257       0.00011234      -0.00090773 </v>
   <v>       0.00255413      -0.00269945      -0.00282091 </v>
   <v>       0.00070563      -0.00144567       0.00107452 </v>
   <v>       0.00232596       0.00147226      -0.00188034 </v>
   <v>      -0.00336779      -0.00323719       0.00487783 </v>
   <v>       0.00301849       0.00211709       0.00043965 </v>
   <v>      -0.00059559       0.00093186       0.00149659 </v>
   <v>       0.00004184       0.00083972      -0.00223540 </v>
   <v>       0.00034887      -0.00774404       0.00331980 </v>
   <v>      -0.00226126       0.00220461      -0.00214388 </v>
   <v>      -0.00063395       0.00103593       0.00213985 </v>
   <v>      -0.00123998       0.00153260      -0.00226890 </v>
   <v>       0.00198023      -0.00320604      -0.00002208 </v>
   <v>      -0.00231125      -0.00175243       0.00365106 </v>
   <v>      -0.00070274      -0.00071440       0.00185457 </v>
   <v>      -0.00205123      -0.00102663      -0.00040445 </v>
   <v>      -0.00380101       0.00473155      -0.00283991 </v>
   <v>       0.00227445       0.00107875      -0.00147666 </v>
   <v>      -0.00071542      -0.00152058      -0.00242790 </v>
   <v>       0.00000899      -0.00070782      -0.00085370 </v>
   <v>      -0.00023149       0.00103624       0.00076440 </v>
   <v>      -0.00287816       0.00374459      -0.00119917 </v>
   <v>      -0.00099207      -0.00003764       0.00260704 </v>
   <v>       0.00032538       0.00008525      -0.00095685 </v>
   <v>      -0.00020781       0.00055542       0.00228521 </v>
   <v>       0.00071794      -0.00273991       0.00243254 </v>
   <v>       0.00054919      -0.00283766       0.00067890 </v>
   <v>       0.00102478      -0.00010291      -0.00104299 </v>
   <v>      -0.00173339      -0.00016265      -0.00219878 </v>
   <v>       0.00009579      -0.00199104      -0.00057565 </v>
   <v>      -0.00199557       0.00410221      -0.00195159 </v>
   <v>       0.00328170      -0.00179257      -0.00140853 </v>
   <v>       0.00102830       0.00071232      -0.00376862 </v>
   <v>      -0.00039244      -0.00212666      -0.00151271 </v>
   <v>      -0.00080593       0.00017713      -0.00071571 </v>
   <v>      -0.00179738       0.00084511      -0.00020507 </v>
   <v>       0.00092312      -0.00045499       0.00592818 </v>
   <v>       0.00101385      -0.00099174       0.00229470 </v>
   <v>       0.00024163      -0.00215162       0.00257373 </v>
   <v>      -0.00051075       0.00025282       0.00131514 </v>
   <v>       0.00105185      -0.00197149       0.00215871 </v>
   <v>      -0.00307488       0.00071771      -0.00114931 </v>
   <v>      -0.00464031       0.00006055      -0.00307847 </v>
   <v>       0.00174177       0.00013754      -0.00102093 </v>
   <v>       0.00087889       0.00036380       0.00386121 </v>
   <v>      -0.00059823      -0.00291481       0.00104937 </v>
   <v>      -0.00068761      -0.00074930      -0.00502895 </v>
   <v>      -0.00204675       0.00075822       0.00250328 </v>
   <v>       0.00178413      -0.00101818       0.00388522 </v>
   <v>      -0.00002589      -0.00004158      -0.00461321 </v>
   <v>       0.00067197      -0.00332297       0.00016006 </v>
   <v>       0.00075159      -0.00040812      -0.00244972 </v>
   <v>      -0.00192556       0.00016076       0.00028077 </v>
   <v>      -0.00124289      -0.00094317       0.00484230 </v>
   <v>      -0.00632600       0.00153333       0.00114833 </v>
   <v>       0.00107411       0.00121361      -0.00119845 </v>
   <v>       0.00036620      -0.00024004      -0.00289107 </v>
   <v>      -0.00037296       0.00128349      -0.00188312 </v>
   <v>      -0.00102483       0.00120733      -0.00268527 </v>
   <v>       0.00174926      -0.00453032      -0.00117880 </v>
   <v>      -0.00007314      -0.00231684       0.00365095 </v>
   <v>       0.00033918      -0.00129950      -0.00067620 </v>
   <v>       0.00089376       0.00001895       0.00153142 </v>
   <v>      -0.00079147       0.00194096      -0.00236200 </v>
   <v>       0.00280570       0.00349052      -0.00510933 </v>
   <v>      -0.00071614      -0.00139407       0.00057501 </v>
   <v>       0.00366635      -0.00238981       0.00093880 </v>
   <v>      -0.00004222       0.00175040      -0.00329449 </v>
   <v>       0.00201502      -0.00266469       0.00133778 </v>
   <v>      -0.00050093      -0.00011345      -0.00187632 </v>
   <v>       0.00003794      -0.00373498       0.00023122 </v>
   <v>       0.00156413       0.00193865       0.00387013 </v>
   <v>       0.00233552      -0.00008942       0.00039849 </v>
   <v>      -0.00048531       0.00191983      -0.00257719 </v>
   <v>       0.00044143       0.00066650       0.00273194 </v>
   <v>      -0.00136701       0.00158176      -0.00221625 </v>
   <v>       0.00033463       0.00015398       0.00407471 </v>
   <v>      -0.00023785       0.00275057       0.00010422 </v>
   <v>      -0.00016024       0.00143456      -0.00421921 </v>
   <v>      -0.00000630      -0.00179972       0.00204041 </v>
   <v>      -0.00198556      -0.00263810      -0.00138044 </v>
   <v>      -0.00104629       0.00104858       0.00208328 </v>
   <v>       0.00084593      -0.00153305      -0.00109482 </v>
   <v>       0.00102816       0.00095306       0.00129005 </v>
   <v>      -0.00078544       0.00037960       0.00040956 </v>
   <v>       0.00120258      -0.00679154       0.00441839 </v>
   <v>      -0.00030306      -0.00243400       0.00144372 </v>
   <v>      -0.00298876       0.00260638       0.00110060 </v>
   <v>       0.00222959       0.00118589       0.00176726 </v>
   <v>      -0.00317373      -0.00075007       0.00243105 </v>
   <v>      -0.00162918       0.00466095       0.00179358 </v>
   <v>       0.00084714      -0.00085400      -0.00010675 </v>
   <v>      -0.00067448       0.00062436      -0.00343954 </v>
   <v>      -0.00069376       0.00046736      -0.00141850 </v>
   <v>       0.00074007      -0.00433254      -0.00027733 </v>
   <v>      -0.00119432       0.00469737      -0.00205564 </v>
   <v>      -0.00007592      -0.00157749      -0.00024491 </v>
   <v>       0.00076298       0.00086149      -0.00420105 </v>
   <v>       0.00268585      -0.00460497       0.00128058 </v>
   <v>      -0.00037620       0.00436039      -0.00401327 </v>
   <v>       0.00103845       0.00081195       0.00399555 </v>
   <v>      -0.00421834      -0.00483427       0.00012146 </v>
   <v>       0.00012585      -0.00061405      -0.00093425 </v>
   <v>      -0.00112861       0.00137804      -0.00308907 </v>
   <v>      -0.00109769       0.00184350      -0.00142272 </v>
   <v>      -0.00032035      -0.00080138      -0.00351204 </v>
   <v>      -0.00380254      -0.00040365       0.00070276 </v>
   <v>      -0.00098661       0.00270256      -0.00473616 </v>
   <v>      -0.00057739      -0.00033958      -0.00387230 </v>
   <v>      -0.00039796       0.00190913      -0.00177041 </v>
   <v>       0.00097251      -0.00345901       0.00314403 </v>
   <v>      -0.00106121       0.00009981       0.00281734 </v>
   <v>       0.00020050      -0.00013916       0.00294298 </v>
   <v>       0.00229380      -0.00156100       0.00627110 </v>
   <v>       0.00149952       0.00061189       0.00017504 </v>
   <v>       0.00387401       0.00003837       0.00217475 </v>
   <v>       0.00150452      -0.00147524       0.00207787 </v>
   <v>       0.00010365       0.00010551      -0.00255264 </v>
   <v>      -0.00020145       0.00427871      -0.00012852 </v>
   <v>      -0.00057940      -0.00313002       0.00054681 </v>
   <v>       0.00044784       0.00168526      -0.00298188 </v>
   <v>       0.00200385      -0.00332826       0.00297012 </v>
   <v>       0.00121332       0.00166980      -0.00065956 </v>
   <v>       0.00179611       0.00137758       0.00242354 </v>
   <v>      -0.00110679      -0.00123501       0.00058524 </v>
   <v>       0.00231304      -0.00236115       0.00386272 </v>
   <v>      -0.00020960       0.00364980      -0.00524469 </v>
   <v>      -0.00160103       0.00068909      -0.00180970 </v>
   <v>       0.00056707       0.00409868      -0.00052067 </v>
   <v>      -0.00024188      -0.00220791      -0.00187686 </v>
   <v>       0.00009480      -0.00094925      -0.00262534 </v>
   <v>       0.00261689       0.00321311      -0.00402005 </v>
   <v>       0.00044743      -0.00187900      -0.00121906 </v>
   <v>       0.00305567      -0.00110627       0.00056308 </v>
   <v>      -0.00002056      -0.00018947      -0.00417165 </v>
   <v>      -0.00421342       0.00012996      -0.00372732 </v>
   <v>      -0.00123874       0.00418410      -0.00364709 </v>
   <v>       0.00071777       0.00195806       0.00103911 </v>
   <v>      -0.00046859      -0.00263366       0.00723737 </v>
   <v>       0.00160390      -0.00044460       0.00045753 </v>
   <v>      -0.00053969       0.00232607      -0.00283722 </v>
   <v>       0.00011599       0.00524965      -0.00122784 </v>
   <v>       0.00123211       0.00210663      -0.00369594 </v>
   <v>      -0.00273206       0.00313597       0.00143764 </v>
   <v>      -0.00125972       0.00243014       0.00198862 </v>
   <v>       0.00026442       0.00059188      -0.00073732 </v>
   <v>      -0.00152914       0.00152989       0.00061218 </v>
   <v>       0.00148303       0.00277890      -0.00269084 </v>
   <v>       0.00130485      -0.00267684      -0.00354428 </v>
   <v>       0.00175039      -0.00137409       0.00265366 </v>
   <v>      -0.00023016      -0.00143199      -0.00290142 </v>
   <v>       0.00020278       0.00048848      -0.00088497 </v>
   <v>      -0.00013169       0.00011278      -0.00174710 </v>
   <v>      -0.00019508       0.00370164      -0.00289115 </v>
   <v>       0.00020539       0.00063998       0.00397117 </v>
   <v>       0.00037524       0.00031730      -0.00260599 </v>
   <v>      -0.00186495       0.00034908       0.00247354 </v>
   <v>      -0.00031751       0.00232753       0.00013690 </v>
   <v>       0.00034214       0.00052652       0.00045446 </v>
   <v>       0.00154566      -0.00038019       0.00297466 </v>
   <v>       0.00022349       0.00259173       0.00355871 </v>
   <v>       0.00124737      -0.00002815      -0.00143259 </v>
   <v>       0.00024153       0.00198108      -0.00120464 </v>
   <v>       0.00097482      -0.00325870       0.00541353 </v>
   <v>       0.00028491      -0.00130888       0.00419798 </v>
   <v>       0.00133777      -0.00540666       0.00359549 </v>
   <v>      -0.00066520      -0.00647031       0.00151790 </v>
   <v>       0.00071235      -0.00338971       0.00011324 </v>
   <v>       0.00200515       0.00050265      -0.00282110 </v>
   <v>      -0.00004010      -0.00354986       0.00182734 </v>
  </varray>
  <varray name="stress" >
   <v>      -1.45624295       0.00233103      -0.02132980 </v>
   <v>       0.00233101      -0.34835315      -1.80173613 </v>
   <v>      -0.02133070      -1.80173536      -4.41268386 </v>
  </varray>
  <energy>
   <i name="e_fr_energy">  -2325.84172784 </i>
   <i name="e_wo_entrp">  -2323.06523258 </i>
   <i name="e_0_energy">     -5.55299052 </i>
  </energy>
  <time name="totalsc"> 1696.32 1696.32</time>
 </calculation>
 <calculation>
  <scstep>
   <time name="dav">  134.99  134.99</time>
   <time name="total">  140.42  140.42</time>
   <energy>
    <i name="alphaZ">  16277.55763135 </i>
    <i name="ewald"> 768939.83490565 </i>
    <i name="hartreedc">-956055.03260234 </i>
    <i name="XCdc">  -6672.17373105 </i>
    <i name="pawpsdc"> 201492.17117952 </i>
    <i name="pawaedc">-199051.96679001 </i>
    <i name="eentropy">     -5.55452431 </i>
    <i name="bandstr">   4252.14544553 </i>
    <i name="atom"> 168497.18126305 </i>
    <i name="e_fr_energy">  -2325.83722261 </i>
    <i name="e_wo_entrp">  -2320.28269830 </i>
    <i name="e_0_energy">  -2323.05996045 </i>
   </ener