unknown system                          
            1
     9.726678    0.000000    0.000000
     0.000000    8.423550    0.000000
     0.000000    0.000000   45.000000
   Fe   Mn
 273  15
Direct configuration=     1
   0.68769829  0.61850391  0.16904058
   0.68753571  0.78600358  0.25774614
   0.81249399  0.37277119  0.52128023
   0.06259602  0.87621914  0.78634222
   0.81267727  0.36876652  0.16905015
   0.56278108  0.37094659  0.43473188
   0.31264689  0.20788397  0.69798685
   0.06263993  0.70613726  0.56506061
   0.06242552  0.36968793  0.30195315
   0.43743900  0.29223564  0.74212477
   0.43736949  0.79245117  0.87328864
   0.06243219  0.70194943  0.21379142
   0.56244567  0.36962042  0.30197784
   0.06262165  0.53558525  0.25784904
   0.68697630  0.11850521  0.16877677
   0.56266577  0.54211943  0.74213531
   0.56240888  0.70653881  0.56506161
   0.18677860  0.28452089  0.12685595
   0.81263301  0.37572803  0.78631510
   0.81240595  0.54196448  0.74224161
   0.81240811  0.53571664  0.25784543
   0.93761602  0.28777275  0.39027053
   0.18769945  0.12598661  0.78623994
   0.56238110  0.53730702  0.39017044
   0.56268267  0.54042727  0.60984734
   0.81255530  0.03760243  0.39028515
   0.93756225  0.61858993  0.16893106
   0.56241618  0.53632689  0.12677248
   0.56263082  0.87389164  0.65354515
   0.81265250  0.87395996  0.65369725
   0.18799203  0.11849067  0.16894658
   0.93719346  0.95352621  0.34633586
   0.06246503  0.70325004  0.34629731
   0.81259981  0.20537525  0.47865782
   0.31252350  0.86794454  0.16902723
   0.18755305  0.95803338  0.69804061
   0.81240376  0.87115352  0.43484546
   0.68742241  0.78773377  0.39018894
   0.31251755  0.54217140  0.74223253
   0.06267173  0.70772241  0.69793341
   0.31258852  0.53606736  0.25792751
   0.93719291  0.96002595  0.83111996
   0.06241641  0.20402216  0.34633381
   0.18729386  0.61845380  0.16898985
   0.06214975  0.37210608  0.52136246
   0.06231255  0.37668459  0.78625001
   0.56243525  0.86976278  0.30194610
   0.93781864  0.45357233  0.34634103
   0.81242370  0.20212290  0.21379222
   0.06246417  0.04066709  0.60976368
   0.18712326  0.45660442  0.56509754
   0.93767887  0.12440322  0.65379118
   0.06280234  0.04325794  0.87342474
   0.06231821  0.54235472  0.74214799
   0.18739556  0.61964550  0.30190631
   0.31249293  0.70512658  0.47860398
   0.93743211  0.62137458  0.43479480
   0.43722288  0.95604837  0.56497002
   0.68742612  0.28723876  0.39024217
   0.93753023  0.61965088  0.30197940
   0.31260493  0.54322977  0.87315977
   0.56296261  0.04213058  0.74218899
   0.43779624  0.78786211  0.39025090
   0.43777274  0.45545451  0.47859502
   0.31245685  0.70162879  0.21376295
   0.56238394  0.20559647  0.47857046
   0.68753134  0.61953893  0.30204091
   0.43751598  0.29032783  0.60969746
   0.43751033  0.95921471  0.83108497
   0.81258921  0.70813921  0.69807983
   0.81251257  0.37396911  0.65368573
   0.93782112  0.29203439  0.87337843
   0.56252725  0.70418337  0.34635856
   0.68792659  0.12143965  0.43493924
   0.93760088  0.62392418  0.65354626
   0.56223565  0.37385941  0.65371658
   0.93768034  0.45194869  0.21375062
   0.68758476  0.29207363  0.74215022
   0.93748578  0.95528093  0.47850567
   0.68800295  0.79017070  0.60972312
   0.43800335  0.29269664  0.87327780
   0.93806525  0.45961927  0.83107489
   0.43743076  0.12628506  0.78639032
   0.56244939  0.20368536  0.34634174
   0.93752812  0.11857108  0.16899953
   0.31266331  0.70584359  0.56501960
   0.56272245  0.03737263  0.39026439
   0.68728980  0.11962806  0.30197217
   0.81248947  0.86950658  0.30194634
   0.18770550  0.45795908  0.69800486
   0.93768569  0.62251242  0.52122698
   0.43726548  0.28752617  0.39017666
   0.56262298  0.70920147  0.83102304
   0.06270798  0.37434744  0.65371504
   0.56274933  0.20989590  0.83120497
   0.68785158  0.45230458  0.21392823
   0.81247205  0.03563806  0.25785964
   0.93734148  0.79169934  0.74209059
   0.68773986  0.45380653  0.34629464
   0.93763711  0.45597280  0.56508429
   0.06234842  0.04218005  0.74209883
   0.68694145  0.29212171  0.87319230
   0.81226323  0.53567246  0.12684029
   0.06244596  0.53988656  0.60975769
   0.56244205  0.70184640  0.21374593
   0.56251944  0.87127755  0.43480025
   0.06254483  0.70968374  0.83111404
   0.31248842  0.87623964  0.78627775
   0.93749924  0.28558337  0.25789457
   0.93759698  0.95781482  0.69804348
   0.56252101  0.20204129  0.21372321
   0.31234054  0.37132044  0.43504629
   0.18735735  0.78580782  0.25776875
   0.81241198  0.20851632  0.69796745
   0.68742194  0.45657758  0.56507246
   0.18769969  0.96025261  0.83110430
   0.31241410  0.20508071  0.47866956
   0.18748571  0.62283714  0.52124141
   0.18770110  0.28774724  0.39026768
   0.06214362  0.54229098  0.87328242
   0.68735857  0.12406596  0.65367143
   0.81220609  0.03509385  0.12671411
   0.43745338  0.45956634  0.83108401
   0.68755103  0.78565121  0.12671900
   0.31229597  0.87260240  0.52127037
   0.31264809  0.20409336  0.34631348
   0.31286825  0.70946665  0.83103043
   0.81261621  0.36968506  0.30196409
   0.43753830  0.62110953  0.43480244
   0.31255008  0.20633087  0.56515406
   0.81256209  0.70510843  0.47855735
   0.56263826  0.37607648  0.78630691
   0.06226595  0.87423275  0.65351532
   0.43707351  0.78521197  0.12673057
   0.31303469  0.36794441  0.16892929
   0.93789199  0.78482576  0.12678796
   0.43749929  0.78628166  0.25772179
   0.06254583  0.53763974  0.39023004
   0.68735257  0.79160656  0.74216663
   0.06236619  0.20223681  0.21382899
   0.43721118  0.45768509  0.69807412
   0.31210579  0.03789302  0.39023725
   0.43732197  0.95792049  0.69799175
   0.68747000  0.62267473  0.52126322
   0.68743574  0.46003629  0.83107964
   0.81253949  0.53726135  0.39022142
   0.31257491  0.53728735  0.39021502
   0.93748289  0.79061337  0.60961244
   0.43751087  0.11972754  0.30204122
   0.93688828  0.79233962  0.87329639
   0.93751204  0.78560646  0.25779068
   0.18750993  0.78782247  0.39016355
   0.93773773  0.45527833  0.47853957
   0.06259443  0.03770063  0.39020390
   0.93774027  0.29227060  0.74216809
   0.81275079  0.87268305  0.52131986
   0.18721857  0.12222114  0.52139711
   0.56271150  0.87254102  0.52125520
   0.56263664  0.20739947  0.69800091
   0.31242336  0.04220730  0.87334658
   0.68764328  0.79273009  0.87333402
   0.43722284  0.45660810  0.56512548
   0.06251678  0.37161848  0.43477263
   0.06212842  0.87245081  0.52124140
   0.18759531  0.28576137  0.25794137
   0.43735674  0.12382384  0.65365767
   0.43800686  0.12241138  0.52123992
   0.06253050  0.03581186  0.25794614
   0.81216142  0.70977010  0.83121523
   0.18723826  0.95587385  0.56504086
   0.68745568  0.95533614  0.47860079
   0.68735049  0.62605845  0.78644293
   0.31260846  0.53596974  0.12677382
   0.93747729  0.28531900  0.12681923
   0.93730100  0.78771258  0.39018277
   0.06258388  0.53537120  0.12684175
   0.43748683  0.28623307  0.25781070
   0.31240182  0.54018574  0.60969345
   0.43783053  0.62564681  0.78625740
   0.68742502  0.12236244  0.52134819
   0.31244256  0.70850839  0.69804823
   0.18719807  0.45367958  0.34633143
   0.81252616  0.70217548  0.21376833
   0.56226263  0.70833074  0.69799228
   0.18705718  0.45898037  0.83116409
   0.56211498  0.20658344  0.56514433
   0.81254316  0.04251677  0.87328775
   0.81246092  0.20408313  0.34637619
   0.43756621  0.95515762  0.47851506
   0.93779253  0.12148912  0.43493178
   0.68732633  0.45525542  0.47855863
   0.43724838  0.45412176  0.34627608
   0.18734534  0.62151810  0.43470581
   0.43751273  0.61974453  0.30203797
   0.18721537  0.29235503  0.74215759
   0.18720507  0.45547001  0.47869391
   0.43721381  0.45201106  0.21378347
   0.68747937  0.12580051  0.78629715
   0.93763001  0.12226767  0.52134053
   0.18682570  0.12156077  0.43479014
   0.18726591  0.62437995  0.65365886
   0.68707583  0.45818188  0.69800164
   0.31234718  0.87403498  0.65364118
   0.56223512  0.87621921  0.78634322
   0.06230903  0.20802534  0.69798128
   0.18733367  0.78508261  0.12672210
   0.68778296  0.62084265  0.43487218
   0.31274914  0.20922644  0.83118148
   0.06256571  0.86837353  0.16902265
   0.18734321  0.78997453  0.60969464
   0.18709659  0.45226487  0.21388771
   0.31242258  0.36985896  0.30193254
   0.31250560  0.37422443  0.65356812
   0.06251694  0.86963887  0.30197536
   0.81273535  0.70605199  0.56501282
   0.68740547  0.28589684  0.25780810
   0.18755184  0.95532445  0.47853836
   0.06275524  0.03504150  0.12680561
   0.81245557  0.37152067  0.43484723
   0.56216313  0.04289348  0.87327613
   0.81242821  0.53999015  0.60966850
   0.31245506  0.03602567  0.25787802
   0.43715600  0.95121491  0.21387680
   0.18752490  0.95208363  0.21378222
   0.56256224  0.70516213  0.47852733
   0.56260091  0.86825761  0.16893171
   0.81245476  0.04053481  0.60969272
   0.06307668  0.20643540  0.56512264
   0.68758224  0.95919738  0.83109196
   0.43762041  0.79233540  0.74211274
   0.81253662  0.04195148  0.74216027
   0.93743414  0.62606136  0.78636218
   0.56350465  0.03543471  0.12672462
   0.68812185  0.28545415  0.12676877
   0.93757711  0.12571681  0.78637553
   0.31252771  0.03984852  0.60973603
   0.43743676  0.61806372  0.16879641
   0.18749517  0.12414042  0.65362894
   0.93777462  0.95214313  0.21373362
   0.81255165  0.20931747  0.83105333
   0.31239583  0.70344599  0.34629804
   0.18725508  0.29240550  0.87350552
   0.68770821  0.29033832  0.60960696
   0.06252276  0.70531434  0.47853241
   0.31253552  0.20217985  0.21376866
   0.18766383  0.95339215  0.34625302
   0.93760887  0.11972672  0.30205958
   0.68730110  0.62353333  0.65367873
   0.93799002  0.95617722  0.56513540
   0.81221089  0.86872262  0.16895807
   0.43750847  0.62414120  0.65369574
   0.18820012  0.79217651  0.87316764
   0.81249156  0.54275875  0.87327286
   0.56285158  0.54279226  0.87328603
   0.18757134  0.11967883  0.30198410
   0.06267638  0.87130918  0.43474777
   0.18746514  0.62584856  0.78636581
   0.43755276  0.62279899  0.52128211
   0.81267515  0.70322863  0.34631660
   0.06230730  0.36862678  0.16909139
   0.56197091  0.36809080  0.16889341
   0.31138554  0.03533968  0.12681835
   0.31244179  0.87137600  0.43484118
   0.56260831  0.04018113  0.60967077
   0.06276605  0.20552407  0.47856447
   0.43754298  0.11920645  0.16881153
   0.18741407  0.29041795  0.60967472
   0.56284172  0.37236755  0.52139939
   0.56243248  0.53602004  0.25792040
   0.56256234  0.03588627  0.25784179
   0.93769493  0.29021695  0.60977480
   0.31243487  0.86949236  0.30189399
   0.18758829  0.79219367  0.74216450
   0.68874395  0.95352006  0.34634288
   0.43740564  0.28552654  0.12700444
   0.43763995  0.12101932  0.43478458
   0.93767658  0.45832953  0.69803678
   0.31251035  0.37263721  0.52128744
   0.68746257  0.95197237  0.21395628
   0.68667096  0.95561498  0.56516782
   0.81294637  0.20703672  0.56509768
   0.31236091  0.04299758  0.74233108
   0.68749776  0.95793527  0.69812911
   0.06247529  0.20985533  0.83176360
   0.31223791  0.37564362  0.78605904
   0.43760094  0.79022243  0.60978024
   0.43637738  0.95366572  0.34639616
   0.81254751  0.87631831  0.78610069
Direct configuration=     2
   0.68767925  0.61844762  0.16903810
   0.68755275  0.78592661  0.25773060
   0.81244593  0.37296347  0.52130162
   0.06258514  0.87618127  0.78632647
   0.81267502  0.36878891  0.16905007
   0.56278449  0.37083842  0.43474487
   0.31274551  0.20792335  0.69799188
   0.06261421  0.70601466  0.56502588
   0.06233002  0.36960609  0.30195934
   0.43745807  0.29231974  0.74209513
   0.43731996  0.79227144  0.87332762
   0.06256638  0.70189318  0.21372222
   0.56247714  0.36957279  0.30201420
   0.06263694  0.53547682  0.25778191
   0.68701640  0.11844110  0.16879402
   0.56257132  0.54206146  0.74211264
   0.56238746  0.70627455  0.56497596
   0.18678034  0.28449712  0.12687618
   0.81267751  0.37569882  0.78634525
   0.81230619  0.54200010  0.74225814
   0.81239714  0.53551695  0.25782153
   0.93773569  0.28791087  0.39027896
   0.18765011  0.12607523  0.78624040
   0.56223148  0.53722520  0.39014786
   0.56278924  0.54031478  0.60977302
   0.81248374  0.03759685  0.39026549
   0.93758803  0.61846760  0.16895446
   0.56242354  0.53625439  0.12679643
   0.56273767  0.87385809  0.65356615
   0.81283467  0.87395552  0.65367580
   0.18795955  0.11850266  0.16896716
   0.93707573  0.95350623  0.34633990
   0.06248093  0.70320875  0.34634734
   0.81251321  0.20544306  0.47868326
   0.31251625  0.86792334  0.16904567
   0.18745588  0.95810482  0.69804520
   0.81237690  0.87108588  0.43487187
   0.68733242  0.78773891  0.39016996
   0.31261693  0.54210489  0.74223478
   0.06270262  0.70802284  0.69793906
   0.31258306  0.53600213  0.25787368
   0.93715598  0.95997387  0.83119628
   0.06241080  0.20401010  0.34638705
   0.18730167  0.61845171  0.16901986
   0.06219787  0.37220089  0.52138505
   0.06233217  0.37665450  0.78627337
   0.56247206  0.86992168  0.30204459
   0.93776979  0.45361168  0.34639571
   0.81246781  0.20206756  0.21372374
   0.06243021  0.04053031  0.60973132
   0.18715787  0.45677876  0.56503355
   0.93770528  0.12428550  0.65378511
   0.06272450  0.04309513  0.87344546
   0.06241688  0.54234587  0.74218079
   0.18748828  0.61980361  0.30192538
   0.31268438  0.70522072  0.47863322
   0.93746776  0.62126892  0.43479706
   0.43714235  0.95582624  0.56489362
   0.68736483  0.28734651  0.39024449
   0.93738803  0.61973833  0.30200499
   0.31252449  0.54328068  0.87319884
   0.56297523  0.04216777  0.74219005
   0.43770942  0.78786569  0.39023988
   0.43788331  0.45549250  0.47866635
   0.31234085  0.70158144  0.21369009
   0.56230813  0.20564149  0.47856457
   0.68742460  0.61954825  0.30206953
   0.43749812  0.29061614  0.60964656
   0.43751025  0.95919796  0.83112976
   0.81252111  0.70819743  0.69807650
   0.81237561  0.37398851  0.65364639
   0.93771843  0.29231041  0.87338692
   0.56247904  0.70425072  0.34636371
   0.68771097  0.12148048  0.43494991
   0.93753964  0.62403874  0.65346842
   0.56225270  0.37390108  0.65371978
   0.93776727  0.45195225  0.21370279
   0.68747888  0.29200747  0.74212768
   0.93746528  0.95513953  0.47854751
   0.68820238  0.78976125  0.60966307
   0.43807715  0.29284571  0.87330912
   0.93808609  0.45966323  0.83115661
   0.43748262  0.12637390  0.78638918
   0.56241418  0.20360900  0.34633441
   0.93753454  0.11865466  0.16899083
   0.31263817  0.70567427  0.56495485
   0.56257003  0.03734929  0.39025812
   0.68720147  0.11951652  0.30203788
   0.81228985  0.86966044  0.30201337
   0.18792644  0.45783420  0.69802459
   0.93759019  0.62251740  0.52125316
   0.43719010  0.28761851  0.39017579
   0.56266160  0.70907940  0.83108507
   0.06270891  0.37428196  0.65366040
   0.56278126  0.21001036  0.83126116
   0.68790617  0.45242522  0.21387813
   0.81249319  0.03574982  0.25784473
   0.93734499  0.79183039  0.74208694
   0.68760580  0.45382911  0.34631142
   0.93762914  0.45615705  0.56504216
   0.06226583  0.04215625  0.74208227
   0.68698394  0.29232543  0.87323445
   0.81219053  0.53557044  0.12686820
   0.06240501  0.54002844  0.60966021
   0.56244255  0.70193625  0.21366901
   0.56235508  0.87140628  0.43483300
   0.06249650  0.70952274  0.83120730
   0.31250786  0.87611203  0.78627678
   0.93752653  0.28565610  0.25785779
   0.93772173  0.95789751  0.69804301
   0.56258405  0.20194822  0.21364472
   0.31237855  0.37123800  0.43501507
   0.18735097  0.78576477  0.25772184
   0.81236879  0.20846189  0.69797287
   0.68744525  0.45672686  0.56501337
   0.18766728  0.96020681  0.83116442
   0.31250744  0.20503840  0.47869736
   0.18756057  0.62275247  0.52128841
   0.18771842  0.28784616  0.39027210
   0.06205870  0.54245570  0.87332012
   0.68742764  0.12422980  0.65368332
   0.81216338  0.03520955  0.12672956
   0.43740033  0.45957266  0.83114899
   0.68749039  0.78565437  0.12672808
   0.31228732  0.87242854  0.52126768
   0.31278925  0.20402693  0.34636323
   0.31280640  0.70929868  0.83109879
   0.81243721  0.36960835  0.30198071
   0.43757923  0.62121589  0.43479705
   0.31250498  0.20660849  0.56507834
   0.81245499  0.70503795  0.47860587
   0.56258306  0.37604905  0.78630968
   0.06217181  0.87433805  0.65348619
   0.43709434  0.78520634  0.12675257
   0.31300987  0.36795621  0.16892377
   0.93788602  0.78486429  0.12681075
   0.43740711  0.78608975  0.25771514
   0.06263838  0.53757534  0.39024218
   0.68729412  0.79164375  0.74217916
   0.06242809  0.20230803  0.21377552
   0.43732262  0.45751864  0.69809262
   0.31219042  0.03791007  0.39024671
   0.43731738  0.95802078  0.69801080
   0.68743505  0.62266862  0.52126438
   0.68752278  0.46003668  0.83116458
   0.81258850  0.53721437  0.39022092
   0.31258478  0.53722182  0.39019323
   0.93762408  0.79042235  0.60954297
   0.43765679  0.11958591  0.30209906
   0.93690568  0.79209780  0.87335822
   0.93759522  0.78555221  0.25776715
   0.18756674  0.78772349  0.39017691
   0.93764595  0.45538680  0.47855876
   0.06274204  0.03772803  0.39020720
   0.93778641  0.29209746  0.74218342
   0.81278707  0.87246551  0.52131047
   0.18717801  0.12228591  0.52138366
   0.56273804  0.87221099  0.52122935
   0.56250806  0.20754490  0.69801718
   0.31238539  0.04218356  0.87337712
   0.68782336  0.79253204  0.87337444
   0.43717640  0.45677579  0.56504415
   0.06244765  0.37172137  0.43475175
   0.06207088  0.87240342  0.52125462
   0.18753813  0.28581319  0.25788161
   0.43735047  0.12400181  0.65368873
   0.43794640  0.12251379  0.52121273
   0.06255675  0.03597211  0.25791461
   0.81224255  0.70963442  0.83129565
   0.18718153  0.95566651  0.56498396
   0.68738012  0.95516227  0.47862415
   0.68737800  0.62603870  0.78646173
   0.31263566  0.53592733  0.12680080
   0.93744902  0.28529108  0.12684541
   0.93741894  0.78755885  0.39018740
   0.06262267  0.53528958  0.12686903
   0.43744586  0.28639305  0.25781691
   0.31228518  0.54013934  0.60959649
   0.43779954  0.62560098  0.78625942
   0.68750592  0.12242739  0.52134218
   0.31252817  0.70857322  0.69809179
   0.18730273  0.45373852  0.34642024
   0.81251354  0.70225306  0.21369632
   0.56222643  0.70819167  0.69801727
   0.18700626  0.45902832  0.83122813
   0.56216425  0.20688686  0.56507455
   0.81257880  0.04248249  0.87332901
   0.81236289  0.20404434  0.34637809
   0.43758329  0.95510527  0.47848480
   0.93783260  0.12156810  0.43493495
   0.68726743  0.45540133  0.47859326
   0.43732453  0.45416092  0.34632445
   0.18729377  0.62155952  0.43467057
   0.43766717  0.61974732  0.30207862
   0.18724560  0.29235884  0.74215423
   0.18724329  0.45540915  0.47874350
   0.43711735  0.45217767  0.21373797
   0.68749086  0.12578087  0.78629030
   0.93766146  0.12220454  0.52134804
   0.18695888  0.12151494  0.43477997
   0.18717646  0.62439699  0.65359408
   0.68685326  0.45811497  0.69799253
   0.31214406  0.87415331  0.65364494
   0.56225393  0.87618958  0.78632450
   0.06239119  0.20778190  0.69799883
   0.18738490  0.78511021  0.12674463
   0.68776631  0.62081780  0.43490106
   0.31272660  0.20934770  0.83122563
   0.06264012  0.86840296  0.16904200
   0.18712018  0.78979083  0.60961351
   0.18705812  0.45234786  0.21384060
   0.31266709  0.36981982  0.30195751
   0.31261871  0.37415307  0.65355478
   0.06249961  0.86974827  0.30200610
   0.81280971  0.70586042  0.56495188
   0.68747082  0.28609806  0.25782730
   0.18763060  0.95534550  0.47855982
   0.06276647  0.03513086  0.12682026
   0.81247774  0.37159956  0.43485934
   0.56224825  0.04295052  0.87331655
   0.81247889  0.54003188  0.60958909
   0.31234485  0.03613713  0.25786823
   0.43717606  0.95113624  0.21378153
   0.18753339  0.95206139  0.21371438
   0.56261868  0.70514438  0.47856520
   0.56264321  0.86832588  0.16895573
   0.81270024  0.04052077  0.60966037
   0.06306098  0.20655017  0.56505866
   0.68765253  0.95915912  0.83115193
   0.43766289  0.79229295  0.74210409
   0.81260711  0.04193651  0.74216849
   0.93742234  0.62599543  0.78639396
   0.56353233  0.03551267  0.12674092
   0.68809367  0.28541212  0.12679190
   0.93756353  0.12573510  0.78637604
   0.31234403  0.03991376  0.60968066
   0.43741649  0.61813470  0.16880619
   0.18740450  0.12409780  0.65362894
   0.93773417  0.95217761  0.21366333
   0.81257705  0.20936874  0.83111213
   0.31253576  0.70344147  0.34634256
   0.18723889  0.29266474  0.87351513
   0.68772759  0.29065854  0.60955338
   0.06238599  0.70532614  0.47855817
   0.31236968  0.20219094  0.21370488
   0.18781027  0.95334674  0.34628591
   0.93747832  0.11965922  0.30207593
   0.68733270  0.62340672  0.65364578
   0.93804687  0.95594326  0.56507364
   0.81209917  0.86885122  0.16898700
   0.43762690  0.62384826  0.65368603
   0.18805257  0.79195246  0.87322119
   0.81255292  0.54283803  0.87331614
   0.56295204  0.54272614  0.87331781
   0.18764956  0.11953013  0.30200072
   0.06276593  0.87128128  0.43475096
   0.18748248  0.62575983  0.78638177
   0.43760667  0.62266623  0.52130113
   0.81256137  0.70330047  0.34633126
   0.06228840  0.36863152  0.16911166
   0.56200993  0.36813586  0.16886289
   0.31139338  0.03538221  0.12684252
   0.31253536  0.87155209  0.43484044
   0.56258258  0.04035118  0.60962605
   0.06283548  0.20552573  0.47859926
   0.43752353  0.11920787  0.16879171
   0.18738313  0.29058817  0.60961310
   0.56280361  0.37265284  0.52140101
   0.56242983  0.53585289  0.25791450
   0.56262006  0.03593350  0.25785238
   0.93771903  0.29039494  0.60971505
   0.31262139  0.86963267  0.30195483
   0.18758486  0.79218956  0.74215931
   0.68852527  0.95350604  0.34631118
   0.43746991  0.28549973  0.12703782
   0.43768387  0.12087973  0.43480252
   0.93755036  0.45825266  0.69803750
   0.31255059  0.37285613  0.52129955
   0.68748456  0.95194978  0.21384114
   0.68676336  0.95539029  0.56504829
   0.81294792  0.20731327  0.56500745
   0.31235603  0.04302314  0.74231349
   0.68746653  0.95804535  0.69815101
   0.06243300  0.20996498  0.83180526
   0.31223393  0.37561448  0.78605546
   0.43748798  0.78988366  0.60965488
   0.43655453  0.95365114  0.34639270
   0.81252409  0.87625700  0.78609464
Direct configuration=     3
   0.68768281  0.61845815  0.16903856
   0.68754956  0.78594102  0.25773351
   0.81245492  0.37292748  0.52129762
   0.06258717  0.87618836  0.78632942
   0.81267544  0.36878472  0.16905008
   0.56278385  0.37085867  0.43474244
   0.31272705  0.20791598  0.69799094
   0.06261902  0.70603761  0.56503238
   0.06234790  0.36962141  0.30195818
   0.43745450  0.29230400  0.74210068
   0.43732923  0.79230508  0.87332032
   0.06254127  0.70190371  0.21373517
   0.56247125  0.36958170  0.30200739
   0.06263408  0.53549712  0.25779448
   0.68700889  0.11845310  0.16879079
   0.56258900  0.54207231  0.74211688
   0.56239147  0.70632402  0.56499199
   0.18678001  0.28450157  0.12687240
   0.81266918  0.37570429  0.78633961
   0.81232486  0.54199343  0.74225504
   0.81239919  0.53555433  0.25782600
   0.93771329  0.28788502  0.39027738
   0.18765935  0.12605864  0.78624031
   0.56225949  0.53724051  0.39015208
   0.56276929  0.54033584  0.60978693
   0.81249714  0.03759790  0.39026917
   0.93758321  0.61849050  0.16895008
   0.56242216  0.53626796  0.12679195
   0.56271767  0.87386437  0.65356222
   0.81280057  0.87395635  0.65367982
   0.18796563  0.11850042  0.16896330
   0.93709777  0.95350997  0.34633915
   0.06247796  0.70321648  0.34633798
   0.81252942  0.20543037  0.47867850
   0.31251761  0.86792730  0.16904222
   0.18747407  0.95809145  0.69804434
   0.81238193  0.87109854  0.43486693
   0.68734926  0.78773795  0.39017351
   0.31259833  0.54211734  0.74223435
   0.06269684  0.70796661  0.69793801
   0.31258408  0.53601434  0.25788375
   0.93716289  0.95998362  0.83118199
   0.06241185  0.20401235  0.34637708
   0.18730021  0.61845210  0.16901424
   0.06218886  0.37218315  0.52138082
   0.06232850  0.37666014  0.78626900
   0.56246517  0.86989194  0.30202615
   0.93777894  0.45360431  0.34638547
   0.81245956  0.20207792  0.21373655
   0.06243657  0.04055591  0.60973738
   0.18715139  0.45674613  0.56504553
   0.93770034  0.12430753  0.65378625
   0.06273907  0.04312561  0.87344158
   0.06239841  0.54234753  0.74217465
   0.18747093  0.61977401  0.30192181
   0.31264854  0.70520310  0.47862775
   0.93746109  0.62128870  0.43479664
   0.43715742  0.95586782  0.56490792
   0.68737630  0.28732634  0.39024406
   0.93741465  0.61972196  0.30200020
   0.31253954  0.54327115  0.87319153
   0.56297287  0.04216081  0.74218985
   0.43772567  0.78786502  0.39024194
   0.43786261  0.45548539  0.47865300
   0.31236257  0.70159030  0.21370373
   0.56232232  0.20563307  0.47856567
   0.68744458  0.61954651  0.30206417
   0.43750147  0.29056218  0.60965609
   0.43751026  0.95920109  0.83112138
   0.81253385  0.70818653  0.69807713
   0.81240125  0.37398488  0.65365375
   0.93773765  0.29225875  0.87338533
   0.56248806  0.70423811  0.34636275
   0.68775133  0.12147284  0.43494792
   0.93755111  0.62401729  0.65348299
   0.56224951  0.37389328  0.65371918
   0.93775100  0.45195159  0.21371175
   0.68749870  0.29201985  0.74213189
   0.93746911  0.95516600  0.47853968
   0.68816505  0.78983789  0.60967431
   0.43806334  0.29281781  0.87330326
   0.93808219  0.45965500  0.83114131
   0.43747291  0.12635727  0.78638939
   0.56242077  0.20362329  0.34633578
   0.93753334  0.11863901  0.16899246
   0.31264288  0.70570597  0.56496697
   0.56259856  0.03735366  0.39025930
   0.68721800  0.11953740  0.30202558
   0.81232721  0.86963164  0.30200082
   0.18788509  0.45785758  0.69802090
   0.93760807  0.62251647  0.52124826
   0.43720421  0.28760122  0.39017595
   0.56265437  0.70910225  0.83107346
   0.06270874  0.37429421  0.65367062
   0.56277529  0.20998893  0.83125064
   0.68789595  0.45240264  0.21388751
   0.81248923  0.03572890  0.25784752
   0.93734433  0.79180586  0.74208762
   0.68763089  0.45382488  0.34630828
   0.93763063  0.45612256  0.56505005
   0.06228129  0.04216070  0.74208537
   0.68697599  0.29228730  0.87322656
   0.81220413  0.53558953  0.12686297
   0.06241268  0.54000188  0.60967846
   0.56244245  0.70191943  0.21368341
   0.56238584  0.87138218  0.43482687
   0.06250554  0.70955288  0.83118984
   0.31250422  0.87613592  0.78627697
   0.93752142  0.28564249  0.25786467
   0.93769838  0.95788204  0.69804310
   0.56257225  0.20196564  0.21365941
   0.31237144  0.37125343  0.43502091
   0.18735216  0.78577283  0.25773062
   0.81237688  0.20847208  0.69797185
   0.68744088  0.45669892  0.56502443
   0.18767334  0.96021538  0.83115317
   0.31248997  0.20504632  0.47869216
   0.18754656  0.62276832  0.52127961
   0.18771518  0.28782764  0.39027127
   0.06207459  0.54242487  0.87331307
   0.68741471  0.12419913  0.65368110
   0.81217138  0.03518789  0.12672667
   0.43741026  0.45957148  0.83113682
   0.68750174  0.78565378  0.12672638
   0.31228894  0.87246109  0.52126818
   0.31276282  0.20403937  0.34635391
   0.31281798  0.70933012  0.83108599
   0.81247071  0.36962271  0.30197760
   0.43757157  0.62119598  0.43479806
   0.31251342  0.20655653  0.56509251
   0.81247504  0.70505114  0.47859679
   0.56259340  0.37605418  0.78630916
   0.06218943  0.87431834  0.65349165
   0.43709044  0.78520740  0.12674846
   0.31301452  0.36795400  0.16892481
   0.93788714  0.78485708  0.12680648
   0.43742437  0.78612567  0.25771639
   0.06262105  0.53758740  0.39023991
   0.68730506  0.79163679  0.74217681
   0.06241650  0.20229470  0.21378553
   0.43730176  0.45754980  0.69808916
   0.31217458  0.03790687  0.39024494
   0.43731824  0.95800200  0.69800723
   0.68744159  0.62266976  0.52126417
   0.68750649  0.46003661  0.83114868
   0.81257932  0.53722316  0.39022101
   0.31258293  0.53723409  0.39019731
   0.93759765  0.79045810  0.60955597
   0.43762948  0.11961242  0.30208823
   0.93690242  0.79214307  0.87334664
   0.93757965  0.78556236  0.25777155
   0.18755611  0.78774202  0.39017441
   0.93766313  0.45536650  0.47855517
   0.06271441  0.03772290  0.39020658
   0.93777778  0.29212987  0.74218055
   0.81278028  0.87250623  0.52131223
   0.18718560  0.12227379  0.52138618
   0.56273307  0.87227276  0.52123419
   0.56253212  0.20751768  0.69801413
   0.31239250  0.04218800  0.87337140
   0.68778966  0.79256911  0.87336687
   0.43718510  0.45674440  0.56505937
   0.06246059  0.37170211  0.43475566
   0.06208165  0.87241229  0.52125214
   0.18754884  0.28580349  0.25789279
   0.43735164  0.12396850  0.65368291
   0.43795772  0.12249462  0.52121782
   0.06255184  0.03594211  0.25792051
   0.81222736  0.70965982  0.83128060
   0.18719215  0.95570532  0.56499461
   0.68739426  0.95519482  0.47861978
   0.68737285  0.62604239  0.78645821
   0.31263057  0.53593527  0.12679575
   0.93745432  0.28529631  0.12684051
   0.93739686  0.78758762  0.39018653
   0.06261541  0.53530486  0.12686393
   0.43745352  0.28636311  0.25781575
   0.31230701  0.54014802  0.60961464
   0.43780534  0.62560956  0.78625904
   0.68749078  0.12241523  0.52134330
   0.31251214  0.70856109  0.69808364
   0.18728314  0.45372749  0.34640362
   0.81251590  0.70223854  0.21370980
   0.56223320  0.70821770  0.69801259
   0.18701579  0.45901935  0.83121614
   0.56215503  0.20683006  0.56508761
   0.81257213  0.04248891  0.87332129
   0.81238124  0.20405160  0.34637774
   0.43758009  0.95511507  0.47849047
   0.93782510  0.12155332  0.43493436
   0.68727846  0.45537402  0.47858677
   0.43731028  0.45415359  0.34631539
   0.18730342  0.62155177  0.43467717
   0.43763826  0.61974679  0.30207101
   0.18723994  0.29235813  0.74215486
   0.18723613  0.45542054  0.47873422
   0.43713540  0.45214649  0.21374648
   0.68748871  0.12578454  0.78629159
   0.93765557  0.12221636  0.52134663
   0.18693395  0.12152352  0.43478187
   0.18719320  0.62439380  0.65360620
   0.68689492  0.45812749  0.69799424
   0.31218208  0.87413116  0.65364424
   0.56225041  0.87619512  0.78632800
   0.06237581  0.20782746  0.69799554
   0.18737531  0.78510504  0.12674041