 288 288   0   0
  0.1280206E+02  0.9726678E-09  0.8423550E-09  0.4500000E-08  0.2500000E-15
  1.000000000000000E-004
  CAR 
 unknown system                          
      6.84867847     -6.03784498  301      4.31520811      1.00000000
     -6.038  0.0000E+00  0.0000E+00
     -5.995  0.0000E+00  0.0000E+00
     -5.952  0.0000E+00  0.0000E+00
     -5.909  0.0000E+00  0.0000E+00
     -5.866  0.0000E+00  0.0000E+00
     -5.823  0.0000E+00  0.0000E+00
     -5.780  0.0000E+00  0.0000E+00
     -5.737  0.0000E+00  0.0000E+00
     -5.694  0.0000E+00  0.0000E+00
     -5.651  0.0000E+00  0.0000E+00
     -5.608  0.0000E+00  0.0000E+00
     -5.565  0.0000E+00  0.0000E+00
     -5.522  0.0000E+00  0.0000E+00
     -5.479  0.0000E+00  0.0000E+00
     -5.436  0.0000E+00  0.0000E+00
     -5.394  0.1938E-15  0.8327E-17
     -5.351  0.5105E-14  0.2276E-15
     -5.308  0.1096E-12  0.4935E-14
     -5.265  0.2000E-11  0.9085E-13
     -5.222  0.3104E-10  0.1424E-11
     -5.179  0.4095E-09  0.1901E-10
     -5.136  0.4596E-08  0.2164E-09
     -5.093  0.4388E-07  0.2101E-08
     -5.050  0.3566E-06  0.1742E-07
     -5.007  0.2468E-05  0.1234E-06
     -4.964  0.1456E-04  0.7490E-06
     -4.921  0.7337E-04  0.3901E-05
     -4.878  0.3163E-03  0.1749E-04
     -4.835  0.1171E-02  0.6777E-04
     -4.792  0.3738E-02  0.2283E-03
     -4.749  0.1037E-01  0.6739E-03
     -4.706  0.2525E-01  0.1759E-02
     -4.663  0.5459E-01  0.4104E-02
     -4.620  0.1062E+00  0.8665E-02
     -4.577  0.1883E+00  0.1676E-01
     -4.534  0.3078E+00  0.2998E-01
     -4.491  0.4673E+00  0.5005E-01
     -4.449  0.6628E+00  0.7853E-01
     -4.406  0.8826E+00  0.1164E+00
     -4.363  0.1109E+01  0.1641E+00
     -4.320  0.1320E+01  0.2208E+00
     -4.277  0.1498E+01  0.2851E+00
     -4.234  0.1632E+01  0.3552E+00
     -4.191  0.1727E+01  0.4294E+00
     -4.148  0.1801E+01  0.5067E+00
     -4.105  0.1880E+01  0.5875E+00
     -4.062  0.1992E+01  0.6730E+00
     -4.019  0.2154E+01  0.7656E+00
     -3.976  0.2366E+01  0.8672E+00
     -3.933  0.2606E+01  0.9792E+00
     -3.890  0.2839E+01  0.1101E+01
     -3.847  0.3026E+01  0.1231E+01
     -3.804  0.3139E+01  0.1366E+01
     -3.761  0.3169E+01  0.1502E+01
     -3.718  0.3138E+01  0.1637E+01
     -3.675  0.3084E+01  0.1769E+01
     -3.632  0.3057E+01  0.1901E+01
     -3.589  0.3095E+01  0.2034E+01
     -3.546  0.3213E+01  0.2172E+01
     -3.503  0.3403E+01  0.2318E+01
     -3.461  0.3632E+01  0.2474E+01
     -3.418  0.3859E+01  0.2640E+01
     -3.375  0.4046E+01  0.2813E+01
     -3.332  0.4165E+01  0.2992E+01
     -3.289  0.4210E+01  0.3173E+01
     -3.246  0.4200E+01  0.3354E+01
     -3.203  0.4171E+01  0.3533E+01
     -3.160  0.4173E+01  0.3712E+01
     -3.117  0.4248E+01  0.3894E+01
     -3.074  0.4411E+01  0.4084E+01
     -3.031  0.4648E+01  0.4284E+01
     -2.988  0.4920E+01  0.4495E+01
     -2.945  0.5169E+01  0.4717E+01
     -2.902  0.5343E+01  0.4946E+01
     -2.859  0.5417E+01  0.5179E+01
     -2.816  0.5408E+01  0.5411E+01
     -2.773  0.5372E+01  0.5642E+01
     -2.730  0.5373E+01  0.5873E+01
     -2.687  0.5441E+01  0.6107E+01
     -2.644  0.5551E+01  0.6345E+01
     -2.601  0.5640E+01  0.6587E+01
     -2.558  0.5654E+01  0.6830E+01
     -2.516  0.5601E+01  0.7071E+01
     -2.473  0.5558E+01  0.7310E+01
     -2.430  0.5635E+01  0.7552E+01
     -2.387  0.5913E+01  0.7806E+01
     -2.344  0.6387E+01  0.8080E+01
     -2.301  0.6942E+01  0.8378E+01
     -2.258  0.7388E+01  0.8696E+01
     -2.215  0.7561E+01  0.9020E+01
     -2.172  0.7421E+01  0.9339E+01
     -2.129  0.7095E+01  0.9644E+01
     -2.086  0.6811E+01  0.9936E+01
     -2.043  0.6778E+01  0.1023E+02
     -2.000  0.7079E+01  0.1053E+02
     -1.957  0.7636E+01  0.1086E+02
     -1.914  0.8257E+01  0.1121E+02
     -1.871  0.8727E+01  0.1159E+02
     -1.828  0.8919E+01  0.1197E+02
     -1.785  0.8856E+01  0.1235E+02
     -1.742  0.8686E+01  0.1273E+02
     -1.699  0.8585E+01  0.1309E+02
     -1.656  0.8653E+01  0.1347E+02
     -1.613  0.8879E+01  0.1385E+02
     -1.571  0.9183E+01  0.1424E+02
     -1.528  0.9488E+01  0.1465E+02
     -1.485  0.9760E+01  0.1507E+02
     -1.442  0.1000E+02  0.1550E+02
     -1.399  0.1022E+02  0.1594E+02
     -1.356  0.1041E+02  0.1639E+02
     -1.313  0.1057E+02  0.1684E+02
     -1.270  0.1078E+02  0.1730E+02
     -1.227  0.1118E+02  0.1778E+02
     -1.184  0.1189E+02  0.1829E+02
     -1.141  0.1292E+02  0.1885E+02
     -1.098  0.1403E+02  0.1945E+02
     -1.055  0.1494E+02  0.2009E+02
     -1.012  0.1542E+02  0.2075E+02
     -0.969  0.1551E+02  0.2142E+02
     -0.926  0.1555E+02  0.2209E+02
     -0.883  0.1594E+02  0.2277E+02
     -0.840  0.1693E+02  0.2350E+02
     -0.797  0.1855E+02  0.2430E+02
     -0.754  0.2068E+02  0.2519E+02
     -0.711  0.2324E+02  0.2618E+02
     -0.668  0.2633E+02  0.2732E+02
     -0.626  0.3010E+02  0.2861E+02
     -0.583  0.3448E+02  0.3009E+02
     -0.540  0.3912E+02  0.3177E+02
     -0.497  0.4344E+02  0.3364E+02
     -0.454  0.4701E+02  0.3565E+02
     -0.411  0.4969E+02  0.3779E+02
     -0.368  0.5169E+02  0.4001E+02
     -0.325  0.5330E+02  0.4230E+02
     -0.282  0.5470E+02  0.4465E+02
     -0.239  0.5588E+02  0.4705E+02
     -0.196  0.5673E+02  0.4949E+02
     -0.153  0.5719E+02  0.5194E+02
     -0.110  0.5735E+02  0.5441E+02
     -0.067  0.5743E+02  0.5687E+02
     -0.024  0.5767E+02  0.5935E+02
      0.019  0.5826E+02  0.6185E+02
      0.062  0.5934E+02  0.6440E+02
      0.105  0.6109E+02  0.6703E+02
      0.148  0.6359E+02  0.6976E+02
      0.191  0.6680E+02  0.7263E+02
      0.234  0.7039E+02  0.7565E+02
      0.277  0.7397E+02  0.7883E+02
      0.320  0.7719E+02  0.8214E+02
      0.362  0.7989E+02  0.8558E+02
      0.405  0.8207E+02  0.8910E+02
      0.448  0.8380E+02  0.9270E+02
      0.491  0.8512E+02  0.9636E+02
      0.534  0.8604E+02  0.1001E+03
      0.577  0.8653E+02  0.1038E+03
      0.620  0.8660E+02  0.1075E+03
      0.663  0.8626E+02  0.1112E+03
      0.706  0.8549E+02  0.1149E+03
      0.749  0.8424E+02  0.1185E+03
      0.792  0.8253E+02  0.1220E+03
      0.835  0.8057E+02  0.1255E+03
      0.878  0.7868E+02  0.1289E+03
      0.921  0.7720E+02  0.1322E+03
      0.964  0.7626E+02  0.1355E+03
      1.007  0.7578E+02  0.1387E+03
      1.050  0.7550E+02  0.1420E+03
      1.093  0.7514E+02  0.1452E+03
      1.136  0.7458E+02  0.1484E+03
      1.179  0.7391E+02  0.1516E+03
      1.222  0.7338E+02  0.1547E+03
      1.265  0.7321E+02  0.1579E+03
      1.307  0.7336E+02  0.1610E+03
      1.350  0.7349E+02  0.1642E+03
      1.393  0.7320E+02  0.1673E+03
      1.436  0.7225E+02  0.1704E+03
      1.479  0.7084E+02  0.1735E+03
      1.522  0.6945E+02  0.1764E+03
      1.565  0.6864E+02  0.1794E+03
      1.608  0.6879E+02  0.1823E+03
      1.651  0.6993E+02  0.1854E+03
      1.694  0.7184E+02  0.1884E+03
      1.737  0.7417E+02  0.1916E+03
      1.780  0.7659E+02  0.1949E+03
      1.823  0.7889E+02  0.1983E+03
      1.866  0.8100E+02  0.2018E+03
      1.909  0.8290E+02  0.2053E+03
      1.952  0.8463E+02  0.2090E+03
      1.995  0.8623E+02  0.2127E+03
      2.038  0.8772E+02  0.2165E+03
      2.081  0.8916E+02  0.2203E+03
      2.124  0.9057E+02  0.2242E+03
      2.167  0.9200E+02  0.2281E+03
      2.210  0.9350E+02  0.2321E+03
      2.252  0.9518E+02  0.2362E+03
      2.295  0.9723E+02  0.2404E+03
      2.338  0.9993E+02  0.2447E+03
      2.381  0.1034E+03  0.2491E+03
      2.424  0.1076E+03  0.2538E+03
      2.467  0.1121E+03  0.2586E+03
      2.510  0.1165E+03  0.2636E+03
      2.553  0.1204E+03  0.2687E+03
      2.596  0.1235E+03  0.2741E+03
      2.639  0.1257E+03  0.2795E+03
      2.682  0.1270E+03  0.2849E+03
      2.725  0.1278E+03  0.2904E+03
      2.768  0.1285E+03  0.2959E+03
      2.811  0.1296E+03  0.3015E+03
      2.854  0.1316E+03  0.3071E+03
      2.897  0.1344E+03  0.3129E+03
      2.940  0.1376E+03  0.3188E+03
      2.983  0.1397E+03  0.3248E+03
      3.026  0.1395E+03  0.3308E+03
      3.069  0.1358E+03  0.3366E+03
      3.112  0.1290E+03  0.3422E+03
      3.155  0.1201E+03  0.3473E+03
      3.197  0.1109E+03  0.3521E+03
      3.240  0.1029E+03  0.3565E+03
      3.283  0.9702E+02  0.3607E+03
      3.326  0.9350E+02  0.3647E+03
      3.369  0.9192E+02  0.3687E+03
      3.412  0.9154E+02  0.3726E+03
      3.455  0.9150E+02  0.3765E+03
      3.498  0.9102E+02  0.3804E+03
      3.541  0.8973E+02  0.3843E+03
      3.584  0.8774E+02  0.3881E+03
      3.627  0.8570E+02  0.3917E+03
      3.670  0.8447E+02  0.3954E+03
      3.713  0.8472E+02  0.3990E+03
      3.756  0.8656E+02  0.4027E+03
      3.799  0.8949E+02  0.4066E+03
      3.842  0.9270E+02  0.4106E+03
      3.885  0.9553E+02  0.4147E+03
      3.928  0.9778E+02  0.4189E+03
      3.971  0.9957E+02  0.4231E+03
      4.014  0.1011E+03  0.4275E+03
      4.057  0.1022E+03  0.4319E+03
      4.100  0.1028E+03  0.4363E+03
      4.143  0.1027E+03  0.4407E+03
      4.185  0.1019E+03  0.4451E+03
      4.228  0.1007E+03  0.4494E+03
      4.271  0.9957E+02  0.4537E+03
      4.314  0.9872E+02  0.4579E+03
      4.357  0.9837E+02  0.4621E+03
      4.400  0.9851E+02  0.4664E+03
      4.443  0.9897E+02  0.4706E+03
      4.486  0.9945E+02  0.4749E+03
      4.529  0.9964E+02  0.4792E+03
      4.572  0.9938E+02  0.4834E+03
      4.615  0.9878E+02  0.4877E+03
      4.658  0.9821E+02  0.4919E+03
      4.701  0.9814E+02  0.4961E+03
      4.744  0.9898E+02  0.5004E+03
      4.787  0.1009E+03  0.5047E+03
      4.830  0.1036E+03  0.5092E+03
      4.873  0.1067E+03  0.5137E+03
      4.916  0.1095E+03  0.5184E+03
      4.959  0.1117E+03  0.5232E+03
      5.002  0.1125E+03  0.5281E+03
      5.045  0.1113E+03  0.5329E+03
      5.088  0.1071E+03  0.5374E+03
      5.130  0.9898E+02  0.5417E+03
      5.173  0.8672E+02  0.5454E+03
      5.216  0.7103E+02  0.5485E+03
      5.259  0.5369E+02  0.5508E+03
      5.302  0.3705E+02  0.5524E+03
      5.345  0.2312E+02  0.5534E+03
      5.388  0.1296E+02  0.5539E+03
      5.431  0.6481E+01  0.5542E+03
      5.474  0.2882E+01  0.5543E+03
      5.517  0.1137E+01  0.5544E+03
      5.560  0.3968E+00  0.5544E+03
      5.603  0.1226E+00  0.5544E+03
      5.646  0.3353E-01  0.5544E+03
      5.689  0.8111E-02  0.5544E+03
      5.732  0.1735E-02  0.5544E+03
      5.775  0.3275E-03  0.5544E+03
      5.818  0.5441E-04  0.5544E+03
      5.861  0.7930E-05  0.5544E+03
      5.904  0.1009E-05  0.5544E+03
      5.947  0.1118E-06  0.5544E+03
      5.990  0.1072E-07  0.5544E+03
      6.033  0.8877E-09  0.5544E+03
      6.075  0.6324E-10  0.5544E+03
      6.118  0.3866E-11  0.5544E+03
      6.161  0.2017E-12  0.5544E+03
      6.204  0.8658E-14  0.5544E+03
      6.247  0.3231E-15  0.5544E+03
      6.290  0.0000E+00  0.5544E+03
      6.333  0.0000E+00  0.5544E+03
      6.376  0.0000E+00  0.5544E+03
      6.419  0.0000E+00  0.5544E+03
      6.462  0.0000E+00  0.5544E+03
      6.505  0.0000E+00  0.5544E+03
      6.548  0.0000E+00  0.5544E+03
      6.591  0.0000E+00  0.5544E+03
      6.634  0.0000E+00  0.5544E+03
      6.677  0.0000E+00  0.5544E+03
      6.720  0.0000E+00  0.5544E+03
      6.763  0.0000E+00  0.5544E+03
      6.806  0.0000E+00  0.5544E+03
      6.849  0.0000E+00  0.5544E+03
