       N       E                     dE             d eps       ncg     rms          rms(c)
DAV:   1     0.290862158831E+05    0.29086E+05   -0.86164E+05 27930   0.196E+03
DAV:   2     0.119020805658E+04   -0.27896E+05   -0.27276E+05 27720   0.601E+02
DAV:   3    -0.194873180063E+04   -0.31389E+04   -0.27201E+04 38948   0.279E+02
DAV:   4    -0.261883024177E+04   -0.67010E+03   -0.60982E+03 50946   0.973E+01
DAV:   5    -0.273855132373E+04   -0.11972E+03   -0.11206E+03 48314   0.397E+01    0.204E+02
RMM:   6    -0.545052355034E+04   -0.27120E+04   -0.99710E+03 47975   0.228E+02    0.569E+02
RMM:   7    -0.362231187449E+04    0.18282E+04   -0.38531E+03 28202   0.136E+02    0.359E+02
RMM:   8    -0.107094306701E+05   -0.70871E+04   -0.15982E+04 41814   0.341E+02    0.983E+02
RMM:   9    -0.142052843292E+05   -0.34959E+04   -0.16031E+04 49475   0.166E+02    0.760E+02
RMM:  10    -0.785854266687E+04    0.63467E+04   -0.36842E+03 44967   0.132E+02    0.498E+02
RMM:  11    -0.666113684437E+04    0.11974E+04   -0.16425E+04 46638   0.291E+02    0.945E+02
RMM:  12    -0.820064736401E+04   -0.15395E+04   -0.15485E+04 50431   0.150E+02    0.893E+02
RMM:  13    -0.661589155910E+04    0.15848E+04   -0.40350E+03 34593   0.166E+02    0.478E+02
RMM:  14    -0.675968965138E+04   -0.14380E+03   -0.46913E+03 29184   0.146E+02    0.448E+02
RMM:  15    -0.380814352789E+04    0.29515E+04   -0.24527E+03 28470   0.111E+02    0.360E+02
RMM:  16    -0.289137711640E+04    0.91677E+03   -0.12045E+03 30516   0.609E+01    0.259E+02
RMM:  17    -0.261822277116E+04    0.27315E+03   -0.59238E+02 30398   0.402E+01    0.233E+02
RMM:  18    -0.297335122971E+04   -0.35513E+03   -0.19821E+03 42179   0.631E+01    0.261E+02
RMM:  19    -0.268121485423E+04    0.29214E+03   -0.55349E+02 31277   0.409E+01    0.217E+02
RMM:  20    -0.241068775279E+04    0.27053E+03   -0.39042E+02 30766   0.317E+01    0.131E+02
RMM:  21    -0.249563428233E+04   -0.84947E+02   -0.65952E+02 41045   0.280E+01    0.140E+02
RMM:  22    -0.239751933982E+04    0.98115E+02   -0.20423E+02 34841   0.164E+01    0.107E+02
RMM:  23    -0.238658340924E+04    0.10936E+02   -0.12788E+02 36459   0.123E+01    0.975E+01
RMM:  24    -0.236794943840E+04    0.18634E+02   -0.72509E+01 32788   0.116E+01    0.882E+01
RMM:  25    -0.235217483455E+04    0.15775E+02   -0.37677E+01 31893   0.873E+00    0.709E+01
RMM:  26    -0.234206255766E+04    0.10112E+02   -0.25571E+01 37031   0.517E+00    0.564E+01
RMM:  27    -0.233773016778E+04    0.43324E+01   -0.11221E+01 30953   0.530E+00    0.507E+01
RMM:  28    -0.233495690023E+04    0.27733E+01   -0.11512E+01 33975   0.450E+00    0.483E+01
RMM:  29    -0.233348563396E+04    0.14713E+01   -0.74861E+00 42418   0.224E+00    0.442E+01
RMM:  30    -0.233353629294E+04   -0.50659E-01   -0.31506E+00 32496   0.223E+00    0.450E+01
RMM:  31    -0.233179966261E+04    0.17366E+01   -0.34746E+00 38502   0.191E+00    0.406E+01
RMM:  32    -0.232968597986E+04    0.21137E+01   -0.29964E+00 31438   0.252E+00    0.369E+01
RMM:  33    -0.232860695931E+04    0.10790E+01   -0.30101E+00 36962   0.188E+00    0.345E+01
RMM:  34    -0.232875590907E+04   -0.14895E+00   -0.19961E+00 32132   0.199E+00    0.354E+01
RMM:  35    -0.232860718584E+04    0.14872E+00   -0.18307E+00 29710   0.250E+00    0.350E+01
RMM:  36    -0.232683057335E+04    0.17766E+01   -0.25236E+00 28344   0.317E+00    0.331E+01
RMM:  37    -0.233259746859E+04   -0.57669E+01   -0.58170E+00 33839   0.331E+00    0.502E+01
RMM:  38    -0.233228670653E+04    0.31076E+00   -0.36307E+00 41532   0.177E+00    0.497E+01
RMM:  39    -0.233015548464E+04    0.21312E+01   -0.12539E+00 41170   0.895E-01    0.449E+01
RMM:  40    -0.232866733840E+04    0.14881E+01   -0.52936E-01 30339   0.122E+00    0.413E+01
RMM:  41    -0.232859906316E+04    0.68275E-01   -0.57044E-01 29490   0.143E+00    0.417E+01
RMM:  42    -0.232839119241E+04    0.20787E+00   -0.71649E-01 29838   0.151E+00    0.418E+01
RMM:  43    -0.232745029815E+04    0.94089E+00   -0.80380E-01 33550   0.120E+00    0.395E+01
RMM:  44    -0.232673574916E+04    0.71455E+00   -0.80279E-01 36274   0.995E-01    0.372E+01
RMM:  45    -0.232590341524E+04    0.83233E+00   -0.46815E-01 33211   0.865E-01    0.339E+01
RMM:  46    -0.232546816410E+04    0.43525E+00   -0.35348E-01 31279   0.931E-01    0.319E+01
RMM:  47    -0.232507525074E+04    0.39291E+00   -0.39623E-01 35701   0.812E-01    0.294E+01
RMM:  48    -0.232499895145E+04    0.76299E-01   -0.27228E-01 39519   0.521E-01    0.288E+01
RMM:  49    -0.232502161822E+04   -0.22667E-01   -0.13943E-01 33317   0.484E-01    0.284E+01
RMM:  50    -0.232497486120E+04    0.46757E-01   -0.83285E-02 30416   0.493E-01    0.284E+01
RMM:  51    -0.242015657809E+04   -0.95182E+02   -0.51972E+01 30967   0.121E+01    0.120E+02
RMM:  52    -0.247736116554E+04   -0.57205E+02   -0.48249E+01 32378   0.999E+00    0.150E+02
RMM:  53    -0.245862519260E+04    0.18736E+02   -0.37816E+01 43603   0.357E+00    0.148E+02
RMM:  54    -0.246236440972E+04   -0.37392E+01   -0.10892E+01 33574   0.337E+00    0.153E+02
RMM:  55    -0.246249634371E+04   -0.13193E+00   -0.11280E+01 44500   0.110E+00    0.155E+02
RMM:  56    -0.246675214339E+04   -0.42558E+01   -0.75651E+01 30931   0.133E+01    0.155E+02
RMM:  57    -0.245430925774E+04    0.12443E+02   -0.79791E+01 40329   0.725E+00    0.152E+02
RMM:  58    -0.245803720244E+04   -0.37279E+01   -0.48824E+01 45577   0.241E+00    0.160E+02
RMM:  59    -0.242539668208E+04    0.32641E+02   -0.41412E+01 31883   0.978E+00    0.143E+02
RMM:  60    -0.240487809243E+04    0.20519E+02   -0.24818E+01 30258   0.867E+00    0.133E+02
RMM:  61    -0.246928512136E+04   -0.64407E+02   -0.61967E+01 32380   0.114E+01    0.162E+02
RMM:  62    -0.247665539107E+04   -0.73703E+01   -0.60022E+01 38051   0.833E+00    0.165E+02
RMM:  63    -0.249702439498E+04   -0.20369E+02   -0.44973E+01 43299   0.433E+00    0.174E+02
RMM:  64    -0.249461318940E+04    0.24112E+01   -0.22723E+01 46091   0.177E+00    0.178E+02
RMM:  65    -0.249605034332E+04   -0.14372E+01   -0.65547E+00 43934   0.895E-01    0.180E+02
RMM:  66    -0.244163593528E+04    0.54414E+02   -0.12825E+01 30030   0.602E+00    0.162E+02
RMM:  67    -0.246188094571E+04   -0.20245E+02   -0.73854E+00 28015   0.597E+00    0.171E+02
RMM:  68    -0.249726346657E+04   -0.35383E+02   -0.67866E+00 29300   0.496E+00    0.180E+02
RMM:  69    -0.255062677851E+04   -0.53363E+02   -0.22850E+01 30782   0.750E+00    0.190E+02
RMM:  70    -0.257128944050E+04   -0.20663E+02   -0.29481E+01 39111   0.579E+00    0.193E+02
RMM:  71    -0.266521211605E+04   -0.93923E+02   -0.45905E+01 30420   0.111E+01    0.217E+02
RMM:  72    -0.261973645109E+04    0.45476E+02   -0.16993E+01 30981   0.708E+00    0.204E+02
RMM:  73    -0.262712964465E+04   -0.73932E+01   -0.18794E+01 42034   0.302E+00    0.207E+02
RMM:  74    -0.262695934287E+04    0.17030E+00   -0.10777E+01 40720   0.279E+00    0.208E+02
RMM:  75    -0.262698443347E+04   -0.25091E-01   -0.73371E+00 29276   0.479E+00    0.207E+02
RMM:  76    -0.268912814371E+04   -0.62144E+02   -0.29794E+01 29893   0.900E+00    0.222E+02
RMM:  77    -0.266513997732E+04    0.23988E+02   -0.92722E+00 28297   0.695E+00    0.215E+02
RMM:  78    -0.266972565626E+04   -0.45857E+01   -0.14376E+01 43859   0.181E+00    0.218E+02
RMM:  79    -0.263484084235E+04    0.34885E+02   -0.75513E+00 28558   0.542E+00    0.212E+02
RMM:  80    -0.253552402534E+04    0.99317E+02   -0.22551E+01 28487   0.890E+00    0.192E+02
RMM:  81    -0.246109007360E+04    0.74434E+02   -0.58894E+01 35131   0.964E+00    0.160E+02
RMM:  82    -0.243635507611E+04    0.24735E+02   -0.31707E+01 34797   0.759E+00    0.150E+02
RMM:  83    -0.241013248876E+04    0.26223E+02   -0.33496E+01 37933   0.696E+00    0.132E+02
RMM:  84    -0.239164373939E+04    0.18489E+02   -0.16456E+01 29439   0.741E+00    0.117E+02
RMM:  85    -0.238237662638E+04    0.92671E+01   -0.12045E+01 32062   0.530E+00    0.113E+02
RMM:  86    -0.245629859571E+04   -0.73922E+02   -0.30636E+01 27852   0.115E+01    0.162E+02
RMM:  87    -0.241384466622E+04    0.42454E+02   -0.12840E+01 27720   0.887E+00    0.138E+02
RMM:  88    -0.240492419071E+04    0.89205E+01   -0.48958E+00 29413   0.402E+00    0.131E+02
RMM:  89    -0.239948024267E+04    0.54439E+01   -0.40311E+00 33650   0.258E+00    0.126E+02
RMM:  90    -0.240259981989E+04   -0.31196E+01   -0.25867E+00 32552   0.234E+00    0.128E+02
RMM:  91    -0.240271307706E+04   -0.11326E+00   -0.41089E+00 28845   0.391E+00    0.128E+02
RMM:  92    -0.240264323861E+04    0.69838E-01   -0.20749E+00 27881   0.322E+00    0.127E+02
RMM:  93    -0.240265629406E+04   -0.13055E-01   -0.17407E+00 31794   0.202E+00    0.128E+02
RMM:  94    -0.240041860779E+04    0.22377E+01   -0.12712E+00 34439   0.152E+00    0.127E+02
RMM:  95    -0.238831251932E+04    0.12106E+02   -0.21039E+00 29523   0.256E+00    0.118E+02
RMM:  96    -0.243528537923E+04   -0.46973E+02   -0.16356E+02 30141   0.227E+01    0.141E+02
RMM:  97    -0.239854947007E+04    0.36736E+02   -0.39986E+01 27720   0.163E+01    0.129E+02
RMM:  98    -0.239664238423E+04    0.19071E+01   -0.82437E+00 27736   0.653E+00    0.130E+02
RMM:  99    -0.240183394365E+04   -0.51916E+01   -0.76522E+00 28061   0.533E+00    0.137E+02
RMM: 100    -0.237840286612E+04    0.23431E+02   -0.75804E+00 28657   0.514E+00
   1 F= -.23784029E+04 E0= -.23753911E+04  d E =-.237840E+04
       N       E                     dE             d eps       ncg     rms          rms(c)
DAV:   1    -0.238325905745E+04    0.18575E+02   -0.17400E+03 38136   0.591E+01    0.104E+02
RMM:   2    -0.188697589912E+05   -0.16486E+05   -0.25847E+04 46478   0.290E+02    0.126E+03
RMM:   3    -0.152504833461E+05    0.36193E+04   -0.15338E+04 50033   0.184E+02    0.779E+02
RMM:   4    -0.990366970467E+04    0.53468E+04   -0.63330E+03 49222   0.154E+02    0.624E+02
RMM:   5    -0.442498554273E+04    0.54787E+04   -0.47908E+03 27824   0.151E+02    0.407E+02
RMM:   6    -0.568317418452E+04   -0.12582E+04   -0.30630E+03 28450   0.112E+02    0.399E+02
RMM:   7    -0.324855489452E+04    0.24346E+04   -0.87844E+02 32932   0.493E+01    0.306E+02
RMM:   8    -0.287233928903E+04    0.37622E+03   -0.90816E+02 27993   0.602E+01    0.263E+02
RMM:   9    -0.245666111117E+04    0.41568E+03   -0.90603E+02 37905   0.348E+01    0.166E+02
RMM:  10    -0.278041354511E+04   -0.32375E+03   -0.68577E+02 38235   0.343E+01    0.181E+02
RMM:  11    -0.323054073684E+04   -0.45013E+03   -0.11413E+03 37687   0.501E+01    0.287E+02
RMM:  12    -0.253704652234E+04    0.69349E+03   -0.45914E+02 36771   0.251E+01    0.179E+02
RMM:  13    -0.255339938509E+04   -0.16353E+02   -0.66092E+02 43418   0.196E+01    0.153E+02
RMM:  14    -0.263387073036E+04   -0.80471E+02   -0.48989E+02 45416   0.135E+01    0.173E+02
RMM:  15    -0.269131852937E+04   -0.57448E+02   -0.29719E+02 41102   0.102E+01    0.186E+02
RMM:  16    -0.270986960053E+04   -0.18551E+02   -0.22471E+02 46333   0.555E+00    0.199E+02
RMM:  17    -0.275759544890E+04   -0.47726E+02   -0.19523E+02 38858   0.966E+00    0.209E+02
RMM:  18    -0.272689541998E+04    0.30700E+02   -0.19447E+02 42448   0.123E+01    0.217E+02
RMM:  19    -0.271485958659E+04    0.12036E+02   -0.18512E+02 41261   0.130E+01    0.206E+02
RMM:  20    -0.274733061035E+04   -0.32471E+02   -0.16014E+02 44027   0.964E+00    0.210E+02
RMM:  21    -0.280673281950E+04   -0.59402E+02   -0.13721E+02 44843   0.813E+00    0.214E+02
RMM:  22    -0.281541150539E+04   -0.86787E+01   -0.79420E+01 47248   0.458E+00    0.220E+02
RMM:  23    -0.283362407134E+04   -0.18213E+02   -0.55509E+01 41642   0.457E+00    0.222E+02
RMM:  24    -0.278423215564E+04    0.49392E+02   -0.26503E+01 31106   0.772E+00    0.215E+02
RMM:  25    -0.268823841351E+04    0.95994E+02   -0.20021E+01 29240   0.835E+00    0.204E+02
RMM:  26    -0.256719222246E+04    0.12105E+03   -0.35977E+01 31886   0.840E+00    0.187E+02
RMM:  27    -0.244634218131E+04    0.12085E+03   -0.62318E+01 32751   0.103E+01    0.155E+02
RMM:  28    -0.237999714508E+04    0.66345E+02   -0.70386E+01 33222   0.114E+01    0.104E+02
RMM:  29    -0.234143094701E+04    0.38566E+02   -0.57340E+01 35957   0.892E+00    0.603E+01
RMM:  30    -0.233349393325E+04    0.79370E+01   -0.50326E+01 42712   0.544E+00    0.447E+01
RMM:  31    -0.233353701425E+04   -0.43081E-01   -0.24548E+01 41799   0.352E+00    0.465E+01
RMM:  32    -0.233735693362E+04   -0.38199E+01   -0.13345E+01 40105   0.264E+00    0.532E+01
RMM:  33    -0.234143898836E+04   -0.40821E+01   -0.76464E+00 42926   0.171E+00    0.597E+01
RMM:  34    -0.234091545000E+04    0.52354E+00   -0.39993E+00 46220   0.831E-01    0.596E+01
RMM:  35    -0.233955868403E+04    0.13568E+01   -0.22021E+00 29326   0.287E+00    0.580E+01
RMM:  36    -0.233932647194E+04    0.23221E+00   -0.30667E+00 45105   0.680E-01    0.574E+01
RMM:  37    -0.233845793256E+04    0.86854E+00   -0.14377E+00 29334   0.222E+00    0.546E+01
RMM:  38    -0.233726253490E+04    0.11954E+01   -0.23319E+00 43963   0.908E-01    0.521E+01
RMM:  39    -0.233714222836E+04    0.12031E+00   -0.85637E-01 34157   0.107E+00    0.512E+01
RMM:  40    -0.233599290175E+04    0.11493E+01   -0.10387E+00 35996   0.117E+00    0.484E+01
RMM:  41    -0.233378720043E+04    0.22057E+01   -0.49795E-01 33965   0.907E-01    0.438E+01
RMM:  42    -0.233099181661E+04    0.27954E+01   -0.16762E+00 29671   0.232E+00    0.373E+01
RMM:  43    -0.232802667796E+04    0.29651E+01   -0.10706E+00 28439   0.216E+00    0.296E+01
RMM:  44    -0.232879064041E+04   -0.76396E+00   -0.11431E+00 28251   0.223E+00    0.322E+01
RMM:  45    -0.233126514618E+04   -0.24745E+01   -0.19760E+00 28355   0.278E+00    0.367E+01
RMM:  46    -0.232956448473E+04    0.17007E+01   -0.23121E+00 28266   0.304E+00    0.319E+01
RMM:  47    -0.236982832960E+04   -0.40264E+02   -0.17212E+01 30193   0.692E+00    0.929E+01
RMM:  48    -0.235283116165E+04    0.16997E+02   -0.86636E+00 27855   0.599E+00    0.725E+01
RMM:  49    -0.233965641197E+04    0.13175E+02   -0.72562E+00 28739   0.507E+00    0.546E+01
RMM:  50    -0.233898590965E+04    0.67050E+00   -0.75422E+00 37116   0.308E+00    0.550E+01
RMM:  51    -0.234322874183E+04   -0.42428E+01   -0.44330E+00 36209   0.241E+00    0.637E+01
RMM:  52    -0.234238009696E+04    0.84864E+00   -0.31966E+00 28253   0.380E+00    0.610E+01
RMM:  53    -0.234067890239E+04    0.17012E+01   -0.18554E+00 28202   0.275E+00    0.588E+01
RMM:  54    -0.233970824232E+04    0.97066E+00   -0.20983E+00 31031   0.227E+00    0.576E+01
RMM:  55    -0.234185161854E+04   -0.21434E+01   -0.20973E+00 29091   0.269E+00    0.611E+01
RMM:  56    -0.233343204819E+04    0.84196E+01   -0.20894E+00 27805   0.299E+00    0.445E+01
RMM:  57    -0.232894976861E+04    0.44823E+01   -0.76238E+00 29090   0.494E+00    0.318E+01
RMM:  58    -0.232951109967E+04   -0.56133E+00   -0.65473E+00 41578   0.205E+00    0.327E+01
RMM:  59    -0.233345557304E+04   -0.39445E+01   -0.20175E+00 32252   0.202E+00    0.421E+01
RMM:  60    -0.233375940464E+04   -0.30383E+00   -0.17601E+00 34219   0.173E+00    0.425E+01
RMM:  61    -0.233562209064E+04   -0.18627E+01   -0.10594E+00 30356   0.175E+00    0.461E+01
RMM:  62    -0.232968381427E+04    0.59383E+01   -0.25683E+00 31490   0.252E+00    0.325E+01
RMM:  63    -0.232937969013E+04    0.30412E+00   -0.14302E+00 34765   0.163E+00    0.319E+01
RMM:  64    -0.232893716606E+04    0.44252E+00   -0.94830E-01 40293   0.994E-01    0.307E+01
RMM:  65    -0.232821559772E+04    0.72157E+00   -0.38678E-01 31082   0.100E+00    0.288E+01
RMM:  66    -0.232752471281E+04    0.69088E+00   -0.55758E-01 31837   0.115E+00    0.268E+01
RMM:  67    -0.232912801584E+04   -0.16033E+01   -0.30899E+00 29668   0.293E+00    0.320E+01
RMM:  68    -0.232796065553E+04    0.11674E+01   -0.13412E+00 28513   0.221E+00    0.288E+01
RMM:  69    -0.232646461186E+04    0.14960E+01   -0.71115E-01 31218   0.130E+00    0.239E+01
RMM:  70    -0.232591144382E+04    0.55317E+00   -0.47229E-01 28145   0.138E+00    0.216E+01
RMM:  71    -0.232553046476E+04    0.38098E+00   -0.45182E-01 27734   0.148E+00    0.200E+01
RMM:  72    -0.232964697038E+04   -0.41165E+01   -0.34698E+00 27986   0.376E+00    0.340E+01
RMM:  73    -0.232742973218E+04    0.22172E+01   -0.23122E+00 27720   0.370E+00    0.271E+01
RMM:  74    -0.232671568079E+04    0.71405E+00   -0.13528E+00 27857   0.261E+00    0.249E+01
RMM:  75    -0.232684607781E+04   -0.13040E+00   -0.87162E-01 29276   0.176E+00    0.255E+01
RMM:  76    -0.232642715126E+04    0.41893E+00   -0.60400E-01 33409   0.994E-01    0.241E+01
RMM:  77    -0.234144561006E+04   -0.15018E+02   -0.15817E+01 29381   0.712E+00    0.576E+01
RMM:  78    -0.232789553957E+04    0.13550E+02   -0.49641E+00 27805   0.475E+00    0.277E+01
RMM:  79    -0.232613569587E+04    0.17598E+01   -0.24145E+00 28026   0.329E+00    0.219E+01
RMM:  80    -0.232662330749E+04   -0.48761E+00   -0.33759E+00 32884   0.257E+00    0.232E+01
RMM:  81    -0.232533801940E+04    0.12853E+01   -0.11361E+00 28336   0.211E+00    0.172E+01
RMM:  82    -0.232971113424E+04   -0.43731E+01   -0.23334E+00 28080   0.313E+00    0.337E+01
RMM:  83    -0.232741179794E+04    0.22993E+01   -0.16807E+00 27720   0.302E+00    0.262E+01
RMM:  84    -0.232596688218E+04    0.14449E+01   -0.92499E-01 27731   0.215E+00    0.209E+01
RMM:  85    -0.232550138282E+04    0.46550E+00   -0.45830E-01 29466   0.121E+00    0.187E+01
RMM:  86    -0.232545246809E+04    0.48915E-01   -0.51490E-01 36858   0.743E-01    0.184E+01
RMM:  87    -0.232474798166E+04    0.70449E+00   -0.44657E-01 28121   0.129E+00    0.141E+01
RMM:  88    -0.232505427193E+04   -0.30629E+00   -0.30464E-01 27722   0.136E+00    0.162E+01
RMM:  89    -0.232500355219E+04    0.50720E-01   -0.20949E-01 28444   0.938E-01    0.156E+01
RMM:  90    -0.232474200801E+04    0.26154E+00   -0.26696E-01 27897   0.112E+00    0.137E+01
RMM:  91    -0.232416846708E+04    0.57354E+00   -0.22320E-01 27773   0.994E-01    0.870E+00
RMM:  92    -0.232407289048E+04    0.95577E-01   -0.34007E-01 27855   0.122E+00    0.758E+00
RMM:  93    -0.232389148304E+04    0.18141E+00   -0.18472E-01 27930   0.967E-01    0.477E+00
RMM:  94    -0.232391337624E+04   -0.21893E-01   -0.18697E-01 29909   0.739E-01    0.517E+00
RMM:  95    -0.232384133811E+04    0.72038E-01   -0.88547E-02 28283   0.656E-01    0.350E+00
RMM:  96    -0.232381381676E+04    0.27521E-01   -0.12386E-01 33275   0.462E-01    0.242E+00
RMM:  97    -0.232384037337E+04   -0.26557E-01   -0.12902E-01 31002   0.570E-01    0.310E+00
RMM:  98    -0.232379687314E+04    0.43500E-01   -0.41692E-02 28046   0.464E-01    0.137E+00
RMM:  99    -0.232379680033E+04    0.72819E-04   -0.38205E-02 32992   0.268E-01    0.125E+00
RMM: 100    -0.232379667618E+04    0.12414E-03   -0.17947E-02 31089   0.210E-01
   2 F= -.23237967E+04 E0= -.23210142E+04  d E =0.546062E+02
       N       E                     dE             d eps       ncg     rms          rms(c)
DAV:   1    -0.232388717760E+04   -0.90377E-01   -0.17411E+01 28868   0.437E+00    0.161E+00
RMM:   2    -0.240011960800E+04   -0.76232E+02   -0.10633E+01 33261   0.414E+00    0.114E+02
RMM:   3    -0.233237856347E+04    0.67741E+02   -0.16141E+00 27920   0.263E+00    0.375E+01
RMM:   4    -0.233002101394E+04    0.23575E+01   -0.11846E+00 29933   0.182E+00    0.324E+01
RMM:   5    -0.232623733802E+04    0.37837E+01   -0.10433E+00 28716   0.179E+00    0.202E+01
RMM:   6    -0.232585287003E+04    0.38447E+00   -0.13128E+00 28552   0.208E+00    0.194E+01
RMM:   7    -0.232550697540E+04    0.34589E+00   -0.16170E+00 28569   0.234E+00    0.170E+01
RMM:   8    -0.232449473784E+04    0.10122E+01   -0.57795E-01 27720   0.185E+00    0.102E+01
RMM:   9    -0.232402109909E+04    0.47364E+00   -0.19378E-01 28305   0.883E-01    0.480E+00
RMM:  10    -0.232394291727E+04    0.78182E-01   -0.16632E-01 29580   0.699E-01    0.321E+00
RMM:  11    -0.232393601557E+04    0.69017E-02   -0.13157E-01 30765   0.573E-01    0.287E+00
RMM:  12    -0.232390189170E+04    0.34124E-01   -0.38972E-02 27747   0.431E-01    0.158E+00
RMM:  13    -0.232389638448E+04    0.55072E-02   -0.38425E-02 34664   0.215E-01    0.105E+00
RMM:  14    -0.232389610017E+04    0.28431E-03   -0.19520E-02 39007   0.127E-01    0.910E-01
RMM:  15    -0.232389551859E+04    0.58158E-03   -0.88118E-03 35251   0.105E-01    0.742E-01
RMM:  16    -0.232389485170E+04    0.66689E-03   -0.45466E-03 31709   0.103E-01    0.639E-01
RMM:  17    -0.232389457935E+04    0.27235E-03   -0.40743E-03 30393   0.107E-01    0.570E-01
RMM:  18    -0.232389451046E+04    0.68898E-04   -0.16523E-03 27860   0.944E-02    0.565E-01
RMM:  19    -0.232389434267E+04    0.16779E-03   -0.15039E-03 30728   0.639E-02    0.527E-01
RMM:  20    -0.232389417608E+04    0.16659E-03   -0.11205E-03 31900   0.500E-02    0.491E-01
RMM:  21    -0.232389395975E+04    0.21632E-03   -0.67837E-04 31376   0.414E-02    0.442E-01
RMM:  22    -0.232389348554E+04    0.47421E-03   -0.80022E-04 32310   0.416E-02    0.301E-01
RMM:  23    -0.232389308534E+04    0.40020E-03   -0.37289E-04 29559   0.364E-02    0.124E-01
RMM:  24    -0.232389306993E+04    0.15415E-04   -0.48743E-04 40613   0.195E-02    0.819E-02
RMM:  25    -0.232389309774E+04   -0.27807E-04   -0.19013E-04 36444   0.155E-02    0.102E-01
RMM:  26    -0.232389311752E+04   -0.19780E-04   -0.74186E-05 31742   0.127E-02    0.115E-01
RMM:  27    -0.232389310772E+04    0.97957E-05   -0.74046E-05 37574   0.901E-03    0.101E-01
RMM:  28    -0.232389307153E+04    0.36187E-04   -0.37474E-05 32192   0.876E-03    0.491E-02
RMM:  29    -0.232389306686E+04    0.46692E-05   -0.18697E-05 29713   0.696E-03    0.366E-02
RMM:  30    -0.232389306959E+04   -0.27294E-05   -0.19188E-05 30819   0.513E-03    0.382E-02
RMM:  31    -0.232389306905E+04    0.53894E-06   -0.70065E-06 23600   0.449E-03
   3 F= -.23238931E+04 E0= -.23211131E+04  d E =0.545098E+02
       N       E                     dE             d eps       ncg     rms          rms(c)
DAV:   1    -0.232395306526E+04   -0.59996E-01   -0.99998E+00 28406   0.329E+00    0.800E-01
RMM:   2    -0.232834254998E+04   -0.43895E+01   -0.90350E-01 32007   0.145E+00    0.280E+01
RMM:   3    -0.232586153530E+04    0.24810E+01   -0.29204E-01 31532   0.847E-01    0.187E+01
RMM:   4    -0.232516785637E+04    0.69368E+00   -0.14497E-01 28511   0.749E-01    0.145E+01
RMM:   5    -0.232424520963E+04    0.92265E+00   -0.11621E-01 29484   0.601E-01    0.712E+00
RMM:   6    -0.232410137430E+04    0.14384E+00   -0.98828E-02 28268   0.612E-01    0.526E+00
RMM:   7    -0.232430711583E+04   -0.20574E+00   -0.29063E-01 31806   0.771E-01    0.782E+00
RMM:   8    -0.232419150364E+04    0.11561E+00   -0.16317E-01 28683   0.726E-01    0.644E+00
RMM:   9    -0.232397544686E+04    0.21606E+00   -0.56951E-02 27720   0.576E-01    0.157E+00
RMM:  10    -0.232396451801E+04    0.10929E-01   -0.34469E-02 31787   0.262E-01    0.113E+00
RMM:  11    -0.232396652690E+04   -0.20089E-02   -0.28252E-02 33565   0.227E-01    0.123E+00
RMM:  12    -0.232396096906E+04    0.55578E-02   -0.87101E-03 28430   0.182E-01    0.715E-01
RMM:  13    -0.232395922283E+04    0.17462E-02   -0.63771E-03 33221   0.103E-01    0.389E-01
RMM:  14    -0.232395926873E+04   -0.45892E-04   -0.42624E-03 37725   0.668E-02    0.367E-01
RMM:  15    -0.232395896379E+04    0.30494E-03   -0.12698E-03 31978   0.539E-02    0.250E-01
RMM:  16    -0.232395875127E+04    0.21252E-03   -0.56269E-04 30720   0.402E-02    0.156E-01
RMM:  17    -0.232395881993E+04   -0.68658E-04   -0.69647E-04 33334   0.375E-02    0.179E-01
RMM:  18    -0.232395875322E+04    0.66705E-04   -0.26051E-04 28455   0.328E-02    0.137E-01
RMM:  19    -0.232395871795E+04    0.35272E-04   -0.16860E-04 30137   0.224E-02    0.109E-01
RMM:  20    -0.232395872080E+04   -0.28449E-05   -0.21971E-04 34290   0.196E-02    0.106E-01
RMM:  21    -0.232395868126E+04    0.39532E-04   -0.80919E-05 29950   0.165E-02    0.623E-02
RMM:  22    -0.232395867566E+04    0.56034E-05   -0.74287E-05 35248   0.983E-03    0.463E-02
RMM:  23    -0.232395867389E+04    0.17714E-05   -0.48241E-05 37557   0.671E-03    0.359E-02
RMM:  24    -0.232395866996E+04    0.39335E-05   -0.20199E-05 31516   0.595E-03    0.193E-02
RMM:  25    -0.232395866989E+04    0.67754E-07   -0.11585E-05 26362   0.383E-03    0.160E-02
RMM:  26    -0.232395867014E+04   -0.24936E-06   -0.50586E-06 20916   0.340E-03
   4 F= -.23239587E+04 E0= -.23211805E+04  d E =0.544442E+02
       N       E                     dE             d eps       ncg     rms          rms(c)
DAV:   1    -0.232390857185E+04    0.50098E-01   -0.24588E+02 27790   0.164E+01    0.446E+00
RMM:   2    -0.243704332547E+04   -0.11313E+03   -0.70146E+01 34152   0.103E+01    0.130E+02
RMM:   3    -0.237719163366E+04    0.59852E+02   -0.93750E+00 32390   0.452E+00    0.964E+01
RMM:   4    -0.235847154709E+04    0.18720E+02   -0.64727E+00 30916   0.373E+00    0.772E+01
RMM:   5    -0.233229648172E+04    0.26175E+02   -0.41114E+00 29901   0.320E+00    0.368E+01
RMM:   6    -0.232656928792E+04    0.57272E+01   -0.25270E+00 28067   0.315E+00    0.219E+01
RMM:   7    -0.233190920570E+04   -0.53399E+01   -0.77496E+00 32042   0.395E+00    0.379E+01
RMM:   8    -0.233005153815E+04    0.18577E+01   -0.41709E+00 29769   0.345E+00    0.323E+01
RMM:   9    -0.232463450921E+04    0.54170E+01   -0.16005E+00 27720   0.304E+00    0.892E+00
RMM:  10    -0.232429491923E+04    0.33959E+00   -0.94879E-01 31122   0.149E+00    0.597E+00
RMM:  11    -0.232434679591E+04   -0.51877E-01   -0.88934E-01 33401   0.128E+00    0.641E+00
RMM:  12    -0.232425228152E+04    0.94514E-01   -0.37121E-01 29938   0.102E+00    0.493E+00
RMM:  13    -0.232421189977E+04    0.40382E-01   -0.27465E-01 34934   0.607E-01    0.375E+00
RMM:  14    -0.232419015239E+04    0.21747E-01   -0.13378E-01 34296   0.481E-01    0.314E+00
RMM:  15    -0.232414988454E+04    0.40268E-01   -0.36822E-02 29048   0.367E-01    0.145E+00
RMM:  16    -0.232414297909E+04    0.69055E-02   -0.26642E-02 32309   0.233E-01    0.880E-01
RMM:  17    -0.232414547610E+04   -0.24970E-02   -0.26361E-02 38044   0.171E-01    0.998E-01
RMM:  18    -0.232414809793E+04   -0.26218E-02   -0.11242E-02 30768   0.174E-01    0.118E+00
RMM:  19    -0.232414759840E+04    0.49953E-03   -0.93979E-03 28838   0.188E-01    0.113E+00
RMM:  20    -0.232414829116E+04   -0.69276E-03   -0.81714E-03 28470   0.176E-01    0.114E+00
RMM:  21    -0.232414878966E+04   -0.49849E-03   -0.45103E-03 28963   0.132E-01    0.117E+00
RMM:  22    -0.232414747200E+04    0.13177E-02   -0.43237E-03 34751   0.784E-02    0.105E+00
RMM:  23    -0.232414560685E+04    0.18652E-02   -0.18206E-03 30788   0.709E-02    0.875E-01
RMM:  24    -0.232414302200E+04    0.25848E-02   -0.13782E-03 30490   0.639E-02    0.518E-01
RMM:  25    -0.232414219443E+04    0.82757E-03   -0.81216E-04 29203   0.564E-02    0.360E-01
RMM:  26    -0.232414205583E+04    0.13860E-03   -0.11601E-03 37331   0.374E-02    0.306E-01
RMM:  27    -0.232414187983E+04    0.17600E-03   -0.60734E-04 37213   0.282E-02    0.242E-01
RMM:  28    -0.232414180099E+04    0.78843E-04   -0.34931E-04 36142   0.203E-02    0.205E-01
RMM:  29    -0.232414173923E+04    0.61753E-04   -0.25401E-04 35297   0.194E-02    0.168E-01
RMM:  30    -0.232414162574E+04    0.11349E-03   -0.10553E-04 30834   0.167E-02    0.828E-02
RMM:  31    -0.232414162175E+04    0.39944E-05   -0.99758E-05 36324   0.108E-02    0.682E-02
RMM:  32    -0.232414162578E+04   -0.40371E-05   -0.54570E-05 37526   0.795E-03    0.653E-02
RMM:  33    -0.232414162862E+04   -0.28340E-05   -0.19065E-05 29531   0.767E-03    0.634E-02
RMM:  34    -0.232414162630E+04    0.23190E-05   -0.20288E-05 31654   0.538E-03    0.575E-02
RMM:  35    -0.232414161779E+04    0.85081E-05   -0.11506E-05 27945   0.511E-03    0.403E-02
RMM:  36    -0.232414161569E+04    0.21001E-05   -0.61644E-06 22503   0.454E-03    0.333E-02
RMM:  37    -0.232414161551E+04    0.18236E-06   -0.63941E-06 22702   0.385E-03
   5 F= -.23241416E+04 E0= -.23213727E+04  d E =0.542613E+02
