<?xml version="1.0" encoding="ISO-8859-1"?>
<modeling>
 <generator>
  <i name="program" type="string">vasp </i>
  <i name="version" type="string">5.4.4.18Apr17-6-g9f103f2a35  </i>
  <i name="subversion" type="string">(build Sep 27 2018 12:46:37) complex + VL-xray_ parallel </i>
  <i name="platform" type="string">LLNL_Quartz_ifc </i>
  <i name="date" type="string">2021 09 26 </i>
  <i name="time" type="string">22:10:30 </i>
 </generator>
 <incar>
  <i type="int" name="ISTART">     2</i>
  <i type="string" name="PREC">accurate</i>
  <i type="string" name="ALGO"> Fast</i>
  <i type="int" name="ICHARG">     2</i>
  <i type="int" name="INIWAV">     1</i>
  <i type="int" name="NELM">   100</i>
  <i type="int" name="NELMIN">     4</i>
  <i type="int" name="IBRION">     2</i>
  <i name="EDIFF">      0.00000100</i>
  <i type="int" name="NSW">     5</i>
  <i type="int" name="ISIF">     2</i>
  <i type="int" name="ISYM">     2</i>
  <i name="ENCUT">    450.00000000</i>
  <i name="POTIM">      0.25000000</i>
  <i type="string" name="LREAL"> Auto</i>
  <i type="int" name="ISMEAR">     0</i>
  <i name="SIGMA">      0.15000000</i>
  <i type="logical" name="LWAVE"> F  </i>
  <i type="logical" name="LCHARG"> F  </i>
  <i type="int" name="ICORELEVEL">     0</i>
  <i type="int" name="CLNT">     1</i>
  <i type="int" name="CLN">     1</i>
  <i type="int" name="INCAR     ">     0</i>
  <i name="CLZ">      0.00000000</i>
  <v type="int" name="KPOINT_BSE">    -1     0     0     0</v>
  <i type="int" name="NELM">   100</i>
 </incar>
 <structure name="primitive_cell" >
  <crystal>
   <varray name="basis" >
    <v>       9.72667804       0.00000000       0.00000000 </v>
    <v>       0.00000000       8.42355028       0.00000000 </v>
    <v>       0.00000000       0.00000000      45.00000000 </v>
   </varray>
   <i name="volume">   3686.99226691 </i>
   <varray name="rec_basis" >
    <v>       0.10281002       0.00000000       0.00000000 </v>
    <v>       0.00000000       0.11871479       0.00000000 </v>
    <v>       0.00000000       0.00000000       0.02222222 </v>
   </varray>
  </crystal>
  <varray name="positions" >
   <v>       0.06182789       0.03095388       0.12432391 </v>
   <v>       0.18317909       0.11245639       0.16650460 </v>
   <v>       0.05569446      -0.13429461       0.16678279 </v>
   <v>       0.18610611      -0.21136188       0.12423981 </v>
   <v>      -0.06628687      -0.21150749       0.12463775 </v>
   <v>      -0.18654331       0.03139831       0.12433255 </v>
   <v>      -0.06876104       0.11489594       0.16728421 </v>
   <v>       0.31118487       0.03150597       0.12438537 </v>
   <v>       0.18468842       0.28761663       0.12446683 </v>
   <v>      -0.06563231       0.28782949       0.12437258 </v>
   <v>       0.30526900      -0.13458730       0.16616160 </v>
   <v>       0.05501294       0.36603197       0.16678780 </v>
   <v>      -0.19344145      -0.13553212       0.16727277 </v>
   <v>       0.43200145       0.11304395       0.16667060 </v>
   <v>       0.30707334       0.36376241       0.16682880 </v>
   <v>      -0.05960334      -0.04474832       0.21163318 </v>
   <v>       0.43449277      -0.21210498       0.12443059 </v>
   <v>       0.18249697      -0.38599361       0.16674221 </v>
   <v>       0.18930849      -0.04389558       0.21206509 </v>
   <v>       0.06512579       0.20533314       0.21165219 </v>
   <v>      -0.06707681      -0.38688005       0.16684173 </v>
   <v>      -0.31581639      -0.21120907       0.12470202 </v>
   <v>       0.06169828      -0.46891356       0.12432824 </v>
   <v>       0.43441718       0.28765048       0.12453032 </v>
   <v>      -0.19501010       0.36646799       0.16649401 </v>
   <v>      -0.31747460       0.11444844       0.16723165 </v>
   <v>      -0.31367370       0.28836717       0.12428453 </v>
   <v>       0.06666454      -0.29420354       0.21170022 </v>
   <v>      -0.18487511       0.20499855       0.21163924 </v>
   <v>      -0.18711200      -0.46974755       0.12431254 </v>
   <v>      -0.43738515       0.03259301       0.12454864 </v>
   <v>       0.31260583      -0.46794022       0.12432682 </v>
   <v>       0.31598813       0.20526132       0.21206625 </v>
   <v>      -0.44421244      -0.13495906       0.16666439 </v>
   <v>      -0.18353485      -0.29478178       0.21172500 </v>
   <v>       0.43185335      -0.38604562       0.16666373 </v>
   <v>      -0.31075761      -0.04422568       0.21194700 </v>
   <v>       0.31501004      -0.29550942       0.21238267 </v>
   <v>       0.43951492      -0.04302686       0.21233611 </v>
   <v>      -0.31745857      -0.38765032       0.16677481 </v>
   <v>       0.18946659       0.45523930       0.21172488 </v>
   <v>      -0.05981345       0.45585839       0.21204217 </v>
   <v>      -0.44392816       0.36584077       0.16673580 </v>
   <v>       0.05918031       0.03857568       0.25617321 </v>
   <v>       0.18415225      -0.21074570       0.25598327 </v>
   <v>       0.30928498       0.03896681       0.25567253 </v>
   <v>      -0.06641511      -0.21096259       0.25596652 </v>
   <v>      -0.43414794       0.20337587       0.21199124 </v>
   <v>      -0.43691657      -0.47049187       0.12485378 </v>
   <v>      -0.19077032       0.03840249       0.25613778 </v>
   <v>       0.18386154       0.28907359       0.25613408 </v>
   <v>      -0.06597048       0.28953641       0.25607325 </v>
   <v>      -0.31104450       0.45617766       0.21208528 </v>
   <v>       0.43965306       0.45593685       0.21187447 </v>
   <v>      -0.43473558      -0.29534317       0.21176238 </v>
   <v>       0.05973528      -0.46153430       0.25606043 </v>
   <v>       0.43382740      -0.21045628       0.25616235 </v>
   <v>      -0.31611875      -0.21093406       0.25615595 </v>
   <v>       0.43390733       0.28950766       0.25616351 </v>
   <v>      -0.31562970       0.28971904       0.25610867 </v>
   <v>       0.30872867      -0.46187089       0.25565235 </v>
   <v>      -0.44098591       0.03889062       0.25589091 </v>
   <v>      -0.19105251      -0.46163611       0.25625600 </v>
   <v>       0.06904176      -0.12503315       0.30045354 </v>
   <v>      -0.05504610       0.12381914       0.30036378 </v>
   <v>       0.19430698       0.12454846       0.30043793 </v>
   <v>      -0.18074243      -0.12502109       0.30040491 </v>
   <v>       0.31925122      -0.12559069       0.30042436 </v>
   <v>       0.06891533       0.37494199       0.30044843 </v>
   <v>      -0.05564971      -0.37567012       0.30021910 </v>
   <v>      -0.44095984      -0.46125193       0.25610824 </v>
   <v>      -0.30532461       0.12439074       0.30043109 </v>
   <v>       0.19411059      -0.37562225       0.30052851 </v>
   <v>      -0.18063955       0.37491026       0.30038574 </v>
   <v>       0.44413397       0.12473689       0.30051747 </v>
   <v>       0.31947262       0.37415103       0.30040796 </v>
   <v>      -0.30599768      -0.37506342       0.30041653 </v>
   <v>      -0.43075338      -0.12524875       0.30049549 </v>
   <v>       0.44460687      -0.37523700       0.30050804 </v>
   <v>      -0.43067983       0.37446668       0.30048327 </v>
   <v>       0.18375160      -0.04734373       0.34508914 </v>
   <v>      -0.06603114      -0.04833654       0.34493107 </v>
   <v>       0.05875371       0.20279737       0.34506095 </v>
   <v>       0.05868863      -0.29771553       0.34493273 </v>
   <v>       0.30913919       0.20288243       0.34497113 </v>
   <v>      -0.19105702       0.20252957       0.34507487 </v>
   <v>       0.30895663      -0.29747664       0.34494180 </v>
   <v>       0.43356635      -0.04731166       0.34507316 </v>
   <v>      -0.19127665      -0.29724335       0.34509409 </v>
   <v>      -0.31641316      -0.04831064       0.34490051 </v>
   <v>      -0.06630720       0.45226847       0.34488770 </v>
   <v>       0.18370705       0.45268804       0.34509126 </v>
   <v>      -0.44103847       0.20272180       0.34497043 </v>
   <v>       0.43358795       0.45246999       0.34510573 </v>
   <v>      -0.31639684       0.45226194       0.34503584 </v>
   <v>       0.06561714       0.03739591      -0.12467563 </v>
   <v>      -0.44098622      -0.29727323       0.34501456 </v>
   <v>       0.18762000      -0.20516642      -0.12436146 </v>
   <v>      -0.06238554      -0.20653858      -0.12481088 </v>
   <v>      -0.18689976       0.03955054      -0.12457742 </v>
   <v>       0.31460309       0.03965664      -0.12445033 </v>
   <v>       0.18844263       0.29425001      -0.12426495 </v>
   <v>      -0.06465772       0.29599361      -0.12472817 </v>
   <v>       0.06643544       0.03780501       0.38908661 </v>
   <v>       0.43689898      -0.20476882      -0.12430348 </v>
   <v>       0.06476812      -0.46154500      -0.12445442 </v>
   <v>      -0.31526203      -0.20484573      -0.12456881 </v>
   <v>       0.43670330       0.29606652      -0.12403511 </v>
   <v>      -0.31367114       0.29733953      -0.12425877 </v>
   <v>      -0.05879300      -0.21244164       0.38907161 </v>
   <v>       0.19211660      -0.21234631       0.38906120 </v>
   <v>      -0.18243795       0.03869103       0.38924460 </v>
   <v>      -0.05885078       0.28675232       0.38898469 </v>
   <v>       0.31631886       0.03693811       0.38907048 </v>
   <v>       0.19124258       0.28772723       0.38904730 </v>
   <v>       0.31449862      -0.46130788      -0.12420644 </v>
   <v>      -0.18655551      -0.46145536      -0.12442135 </v>
   <v>      -0.43650052       0.03882529      -0.12422135 </v>
   <v>      -0.30849225      -0.21233274       0.38907870 </v>
   <v>       0.06714279      -0.46179567       0.38908493 </v>
   <v>      -0.30870738       0.28740975       0.38904748 </v>
   <v>       0.44139637      -0.21243045       0.38911701 </v>
   <v>       0.44155128       0.28760764       0.38910690 </v>
   <v>      -0.18372549      -0.46237624       0.38910995 </v>
   <v>      -0.43373223       0.03783596       0.38908860 </v>
   <v>       0.31624885      -0.46221796       0.38907691 </v>
   <v>      -0.43643739      -0.46087310      -0.12433410 </v>
   <v>      -0.05831515      -0.03693354      -0.16643996 </v>
   <v>       0.19132613      -0.03736149      -0.16671147 </v>
   <v>       0.06643110       0.21340852      -0.16636723 </v>
   <v>       0.06592635      -0.28489596      -0.16637747 </v>
   <v>      -0.18220373       0.21387285      -0.16665123 </v>
   <v>       0.31686868       0.21187072      -0.16667917 </v>
   <v>      -0.43364221      -0.46235085       0.38909235 </v>
   <v>      -0.18311767      -0.28573598      -0.16695310 </v>
   <v>      -0.30840822      -0.03831606      -0.16687826 </v>
   <v>       0.31766932      -0.28749161      -0.16720836 </v>
   <v>       0.44272558      -0.03809625      -0.16691261 </v>
   <v>      -0.05840985       0.46273807      -0.16647694 </v>
   <v>       0.19169709       0.46256501      -0.16682929 </v>
   <v>       0.06213136      -0.12903483       0.43442658 </v>
   <v>       0.18758981       0.12017077       0.43437699 </v>
   <v>      -0.06293625       0.12018180       0.43457667 </v>
   <v>      -0.43411686       0.21295317      -0.16698561 </v>
   <v>      -0.30804840       0.46139897      -0.16694720 </v>
   <v>       0.44166795       0.46230572      -0.16686107 </v>
   <v>      -0.43364830      -0.28734125      -0.16693377 </v>
   <v>      -0.18851681      -0.12903866       0.43421099 </v>
   <v>       0.31206420      -0.12965821       0.43445782 </v>
   <v>       0.06248763       0.37083024       0.43440095 </v>
   <v>       0.18701606      -0.37973975       0.43443722 </v>
   <v>      -0.06270837      -0.37957590       0.43447575 </v>
   <v>      -0.31228963       0.11989380       0.43439130 </v>
   <v>       0.43697572       0.12066504       0.43437845 </v>
   <v>      -0.18822466       0.37153712       0.43424569 </v>
   <v>       0.31225744       0.37051067       0.43443167 </v>
   <v>      -0.31209721      -0.37962218       0.43445019 </v>
   <v>       0.43704467      -0.37949980       0.43440266 </v>
   <v>      -0.43761259      -0.12965528       0.43447738 </v>
   <v>      -0.43800036       0.37047426       0.43445238 </v>
   <v>       0.06016894      -0.12717913      -0.21177228 </v>
   <v>       0.18496558       0.12144766      -0.21170057 </v>
   <v>      -0.06470352       0.12269841      -0.21166757 </v>
   <v>      -0.18991982      -0.12779345      -0.21179744 </v>
   <v>       0.31136686      -0.12860988      -0.21195386 </v>
   <v>       0.06084518       0.37301619      -0.21189037 </v>
   <v>       0.43521003       0.12116451      -0.21135243 </v>
   <v>       0.18544359      -0.37929067      -0.21191593 </v>
   <v>      -0.06590234      -0.37737727      -0.21199571 </v>
   <v>      -0.31644481       0.12190949      -0.21168124 </v>
   <v>       0.31067749       0.37208926      -0.21179477 </v>
   <v>      -0.18942928       0.37294107      -0.21182121 </v>
   <v>       0.43419683      -0.37871023      -0.21148760 </v>
   <v>      -0.43982272      -0.12783555      -0.21171811 </v>
   <v>      -0.31505179      -0.37852671      -0.21181740 </v>
   <v>       0.18720926      -0.04415038       0.47866354 </v>
   <v>      -0.06283347      -0.04465160       0.47870110 </v>
   <v>       0.06251423       0.20588326       0.47864223 </v>
   <v>      -0.43964147       0.37168287      -0.21164475 </v>
   <v>       0.06222471      -0.29429239       0.47854393 </v>
   <v>      -0.18777505       0.20581373       0.47867042 </v>
   <v>       0.31226930       0.20570316       0.47865851 </v>
   <v>      -0.18764547      -0.29428953       0.47864081 </v>
   <v>       0.31218707      -0.29427386       0.47864624 </v>
   <v>      -0.31275872      -0.04429958       0.47865078 </v>
   <v>       0.43727397      -0.04433195       0.47863439 </v>
   <v>      -0.06277829       0.45565240       0.47865890 </v>
   <v>       0.18726389       0.45575631       0.47866086 </v>
   <v>      -0.43788452       0.20587309       0.47863690 </v>
   <v>      -0.31287337       0.45555162       0.47863747 </v>
   <v>       0.43727273       0.45579759       0.47860042 </v>
   <v>      -0.43776260      -0.29418432       0.47861582 </v>
   <v>       0.06557370       0.03986024      -0.25605564 </v>
   <v>      -0.05949246      -0.20992398      -0.25587180 </v>
   <v>       0.19047159      -0.20972595      -0.25601677 </v>
   <v>      -0.18456652       0.04036107      -0.25613568 </v>
   <v>      -0.05996756       0.28959251      -0.25601856 </v>
   <v>       0.31534985       0.04071481      -0.25612797 </v>
   <v>       0.19102782       0.29044625      -0.25607734 </v>
   <v>      -0.30993954      -0.20908514      -0.25597223 </v>
   <v>       0.06557614      -0.46017707      -0.25601195 </v>
   <v>       0.43982743      -0.20926204      -0.25594269 </v>
   <v>      -0.30946748       0.29032740      -0.25609011 </v>
   <v>       0.43992628       0.29093862      -0.25597889 </v>
   <v>      -0.18440585      -0.46001821      -0.25605121 </v>
   <v>       0.31553555      -0.45987389      -0.25588903 </v>
   <v>      -0.43406353       0.04049884      -0.25610495 </v>
   <v>       0.06164679      -0.12874267      -0.47863076 </v>
   <v>       0.18663117       0.12137469      -0.47861374 </v>
   <v>      -0.06358858       0.12136191      -0.47860447 </v>
   <v>      -0.18849541      -0.12864951      -0.47867261 </v>
   <v>       0.31158829      -0.12840847      -0.47861776 </v>
   <v>       0.06134131       0.37189851      -0.47862173 </v>
   <v>      -0.06349322      -0.37852664      -0.47859892 </v>
   <v>       0.18673507      -0.37868960      -0.47856325 </v>
   <v>       0.43656675       0.12134940      -0.47865055 </v>
   <v>      -0.31346689       0.12141242      -0.47865157 </v>
   <v>       0.31143794       0.37139097      -0.47864409 </v>
   <v>      -0.18831775       0.37174407      -0.47864214 </v>
   <v>      -0.43441467      -0.45942055      -0.25615762 </v>
   <v>      -0.31349980      -0.37862620      -0.47872340 </v>
   <v>       0.43658996      -0.37831456      -0.47867319 </v>
   <v>      -0.43819989      -0.12810482      -0.47860033 </v>
   <v>      -0.43839986       0.37137833      -0.47864633 </v>
   <v>       0.18507893      -0.04190658      -0.30033108 </v>
   <v>      -0.06480781      -0.04174520      -0.30043999 </v>
   <v>       0.06030941       0.20800963      -0.30044758 </v>
   <v>       0.06044819      -0.29205914      -0.30043838 </v>
   <v>       0.31049739       0.20794829      -0.30038743 </v>
   <v>      -0.18952106       0.20783431      -0.30040414 </v>
   <v>       0.31026463      -0.29222946      -0.30042445 </v>
   <v>      -0.18979358      -0.29219012      -0.30043663 </v>
   <v>       0.43503348      -0.04203410      -0.30044652 </v>
   <v>      -0.31503328      -0.04202351      -0.30039957 </v>
   <v>       0.18494037       0.45801108      -0.30045622 </v>
   <v>      -0.06501603       0.45796451      -0.30043803 </v>
   <v>      -0.43961467       0.20775975      -0.30041639 </v>
   <v>       0.43530426       0.45788157      -0.30044646 </v>
   <v>      -0.31500152       0.45797381      -0.30042214 </v>
   <v>      -0.06308440      -0.04269453      -0.43453915 </v>
   <v>       0.18705614      -0.04281136      -0.43453529 </v>
   <v>       0.06245847       0.20725262      -0.43460560 </v>
   <v>      -0.43964185      -0.29234195      -0.30042733 </v>
   <v>       0.06188143      -0.29362415      -0.43447447 </v>
   <v>      -0.18862608       0.20672795      -0.43454955 </v>
   <v>       0.31145001       0.20658940      -0.43450026 </v>
   <v>       0.31168651      -0.29290103      -0.43456497 </v>
   <v>      -0.18846254      -0.29332026      -0.43453555 </v>
   <v>       0.43692982      -0.04283869      -0.43462025 </v>
   <v>      -0.31261888      -0.04290247      -0.43452777 </v>
   <v>       0.18723916       0.45711842      -0.43454457 </v>
   <v>      -0.06327613       0.45665405      -0.43442141 </v>
   <v>      -0.43773343       0.20701718      -0.43450992 </v>
   <v>      -0.31312783       0.45700207      -0.43459516 </v>
   <v>       0.43698508       0.45713720      -0.43452589 </v>
   <v>      -0.43791891      -0.29302154      -0.43451119 </v>
   <v>       0.06643173      -0.12525583      -0.34511331 </v>
   <v>      -0.05850236       0.12489947      -0.34510743 </v>
   <v>       0.19155217       0.12497236      -0.34509677 </v>
   <v>      -0.18366198      -0.12516190      -0.34507728 </v>
   <v>       0.31663741      -0.12512963      -0.34513132 </v>
   <v>       0.06642282       0.37481573      -0.34509670 </v>
   <v>      -0.05849689      -0.37491322      -0.34514732 </v>
   <v>       0.19154049      -0.37509216      -0.34506325 </v>
   <v>      -0.30867340       0.12490145      -0.34508341 </v>
   <v>      -0.18353595       0.37478807      -0.34510109 </v>
   <v>       0.44163894       0.12482106      -0.34518203 </v>
   <v>       0.31652511       0.37475142      -0.34509175 </v>
   <v>      -0.30873284      -0.37507539      -0.34506898 </v>
   <v>      -0.43377171      -0.12551811      -0.34508676 </v>
   <v>       0.44144327      -0.37506843      -0.34509879 </v>
   <v>      -0.43348146       0.37476606      -0.34513524 </v>
   <v>       0.05866884       0.03787615      -0.38913418 </v>
   <v>       0.18358817      -0.21206125      -0.38913668 </v>
   <v>      -0.06632471      -0.21233988      -0.38909270 </v>
   <v>       0.30873457       0.03801301      -0.38904055 </v>
   <v>      -0.19121429       0.03791967      -0.38911581 </v>
   <v>       0.18371823       0.28792930      -0.38907501 </v>
   <v>      -0.06635865       0.28783608      -0.38911915 </v>
   <v>       0.43373508      -0.21206093      -0.38910971 </v>
   <v>       0.05864404      -0.46223063      -0.38909588 </v>
   <v>      -0.31634011      -0.21211249      -0.38912982 </v>
   <v>       0.43363272       0.28796637      -0.38913690 </v>
   <v>      -0.31647902       0.28796451      -0.38906460 </v>
   <v>       0.30873170      -0.46218235      -0.38910218 </v>
   <v>      -0.19134899      -0.46200434      -0.38909413 </v>
   <v>      -0.44114259       0.03812202      -0.38904164 </v>
   <v>      -0.44137075      -0.46205284      -0.38912201 </v>
  </varray>
 </structure>
 <varray name="primitive_index" >
  <v type="int" >        1 </v>
  <v type="int" >      125 </v>
  <v type="int" >       60 </v>
  <v type="int" >       83 </v>
  <v type="int" >       44 </v>
  <v type="int" >      202 </v>
  <v type="int" >       26 </v>
  <v type="int" >      256 </v>
  <v type="int" >      111 </v>
  <v type="int" >      155 </v>
  <v type="int" >      277 </v>
  <v type="int" >       51 </v>
  <v type="int" >      102 </v>
  <v type="int" >      182 </v>
  <v type="int" >      108 </v>
  <v type="int" >      212 </v>
  <v type="int" >      170 </v>
  <v type="int" >       20 </v>
  <v type="int" >      146 </v>
  <v type="int" >       50 </v>
  <v type="int" >      104 </v>
  <v type="int" >      163 </v>
  <v type="int" >      176 </v>
  <v type="int" >      117 </v>
  <v type="int" >      284 </v>
  <v type="int" >      166 </v>
  <v type="int" >      145 </v>
  <v type="int" >      250 </v>
  <v type="int" >      167 </v>
  <v type="int" >      205 </v>
  <v type="int" >      114 </v>
  <v type="int" >       91 </v>
  <v type="int" >      275 </v>
  <v type="int" >      192 </v>
  <v type="int" >      213 </v>
  <v type="int" >      174 </v>
  <v type="int" >       92 </v>
  <v type="int" >      276 </v>
  <v type="int" >      229 </v>
  <v type="int" >       97 </v>
  <v type="int" >      189 </v>
  <v type="int" >      175 </v>
  <v type="int" >       30 </v>
  <v type="int" >      185 </v>
  <v type="int" >      200 </v>
  <v type="int" >      179 </v>
  <v type="int" >       52 </v>
  <v type="int" >      103 </v>
  <v type="int" >      283 </v>
  <v type="int" >       24 </v>
  <v type="int" >      112 </v>
  <v type="int" >      127 </v>
  <v type="int" >      261 </v>
  <v type="int" >      139 </v>
  <v type="int" >      243 </v>
  <v type="int" >      168 </v>
  <v type="int" >      137 </v>
  <v type="int" >      118 </v>
  <v type="int" >      265 </v>
  <v type="int" >       58 </v>
  <v type="int" >      249 </v>
  <v type="int" >      221 </v>
  <v type="int" >       81 </v>
  <v type="int" >      214 </v>
  <v type="int" >      135 </v>
  <v type="int" >      215 </v>
  <v type="int" >       72 </v>
  <v type="int" >       98 </v>
  <v type="int" >      226 </v>
  <v type="int" >      178 </v>
  <v type="int" >       28 </v>
  <v type="int" >      109 </v>
  <v type="int" >      263 </v>
  <v type="int" >      220 </v>
  <v type="int" >      159 </v>
  <v type="int" >      242 </v>
  <v type="int" >      130 </v>
  <v type="int" >      210 </v>
  <v type="int" >      101 </v>
  <v type="int" >      171 </v>
  <v type="int" >      258 </v>
  <v type="int" >      194 </v>
  <v type="int" >       47 </v>
  <v type="int" >      216 </v>
  <v type="int" >       86 </v>
  <v type="int" >      207 </v>
  <v type="int" >      208 </v>
  <v type="int" >      172 </v>
  <v type="int" >       73 </v>
  <v type="int" >       25 </v>
  <v type="int" >       12 </v>
  <v type="int" >      116 </v>
  <v type="int" >      219 </v>
  <v type="int" >      206 </v>
  <v type="int" >       48 </v>
  <v type="int" >      282 </v>
  <v type="int" >      164 </v>
  <v type="int" >      268 </v>
  <v type="int" >      281 </v>
  <v type="int" >       14 </v>
  <v type="int" >      245 </v>
  <v type="int" >      120 </v>
  <v type="int" >      280 </v>
  <v type="int" >      124 </v>
  <v type="int" >      150 </v>
  <v type="int" >      266 </v>
  <v type="int" >       29 </v>
  <v type="int" >      255 </v>
  <v type="int" >      191 </v>
  <v type="int" >      190 </v>
  <v type="int" >      287 </v>
  <v type="int" >      279 </v>
  <v type="int" >       13 </v>
  <v type="int" >      165 </v>
  <v type="int" >      248 </v>
  <v type="int" >       18 </v>
  <v type="int" >      231 </v>
  <v type="int" >      161 </v>
  <v type="int" >       45 </v>
  <v type="int" >      273 </v>
  <v type="int" >       84 </v>
  <v type="int" >      264 </v>
  <v type="int" >        4 </v>
  <v type="int" >      123 </v>
  <v type="int" >       16 </v>
  <v type="int" >       67 </v>
  <v type="int" >       64 </v>
  <v type="int" >       17 </v>
  <v type="int" >        7 </v>
  <v type="int" >      259 </v>
  <v type="int" >      134 </v>
  <v type="int" >        6 </v>
  <v type="int" >       39 </v>
  <v type="int" >      222 </v>
  <v type="int" >      253 </v>
  <v type="int" >       88 </v>
  <v type="int" >        5 </v>
  <v type="int" >      110 </v>
  <v type="int" >       36 </v>
  <v type="int" >      181 </v>
  <v type="int" >      285 </v>
  <v type="int" >      160 </v>
  <v type="int" >      158 </v>
  <v type="int" >      143 </v>
  <v type="int" >       82 </v>
  <v type="int" >       74 </v>
  <v type="int" >      241 </v>
  <v type="int" >      235 </v>
  <v type="int" >       23 </v>
  <v type="int" >      218 </v>
  <v type="int" >      238 </v>
  <v type="int" >      131 </v>
  <v type="int" >      257 </v>
  <v type="int" >      201 </v>
  <v type="int" >       80 </v>
  <v type="int" >      113 </v>
  <v type="int" >      232 </v>
  <v type="int" >      278 </v>
  <v type="int" >       69 </v>
  <v type="int" >      251 </v>
  <v type="int" >      197 </v>
  <v type="int" >        3 </v>
  <v type="int" >      149 </v>
  <v type="int" >       55 </v>
  <v type="int" >      224 </v>
  <v type="int" >      254 </v>
  <v type="int" >       49 </v>
  <v type="int" >      272 </v>
  <v type="int" >      132 </v>
  <v type="int" >      188 </v>
  <v type="int" >      138 </v>
  <v type="int" >       57 </v>
  <v type="int" >      184 </v>
  <v type="int" >       33 </v>
  <v type="int" >       66 </v>
  <v type="int" >       94 </v>
  <v type="int" >      236 </v>
  <v type="int" >      223 </v>
  <v type="int" >      106 </v>
  <v type="int" >      157 </v>
  <v type="int" >       21 </v>
  <v type="int" >      230 </v>
  <v type="int" >      234 </v>
  <v type="int" >       99 </v>
  <v type="int" >       75 </v>
  <v type="int" >      105 </v>
  <v type="int" >      269 </v>
  <v type="int" >      244 </v>
  <v type="int" >      237 </v>
  <v type="int" >      199 </v>
  <v type="int" >      156 </v>
  <v type="int" >      169 </v>
  <v type="int" >        9 </v>
  <v type="int" >       46 </v>
  <v type="int" >      262 </v>
  <v type="int" >      151 </v>
  <v type="int" >      187 </v>
  <v type="int" >      239 </v>
  <v type="int" >       11 </v>
  <v type="int" >       43 </v>
  <v type="int" >      211 </v>
  <v type="int" >       31 </v>
  <v type="int" >       19 </v>
  <v type="int" >       71 </v>
  <v type="int" >       87 </v>
  <v type="int" >      288 </v>
  <v type="int" >      267 </v>
  <v type="int" >       27 </v>
  <v type="int" >      140 </v>
  <v type="int" >      286 </v>
  <v type="int" >       10 </v>
  <v type="int" >      144 </v>
  <v type="int" >      107 </v>
  <v type="int" >      203 </v>
  <v type="int" >       68 </v>
  <v type="int" >      119 </v>
  <v type="int" >       34 </v>
  <v type="int" >      183 </v>
  <v type="int" >      177 </v>
  <v type="int" >      270 </v>
  <v type="int" >      195 </v>
  <v type="int" >      252 </v>
  <v type="int" >       77 </v>
  <v type="int" >      247 </v>
  <v type="int" >      173 </v>
  <v type="int" >      225 </v>
  <v type="int" >       37 </v>
  <v type="int" >      274 </v>
  <v type="int" >       63 </v>
  <v type="int" >      233 </v>
  <v type="int" >      154 </v>
  <v type="int" >      141 </v>
  <v type="int" >       38 </v>
  <v type="int" >       54 </v>
  <v type="int" >      246 </v>
  <v type="int" >      152 </v>
  <v type="int" >       53 </v>
  <v type="int" >      193 </v>
  <v type="int" >       76 </v>
  <v type="int" >      129 </v>
  <v type="int" >      162 </v>
  <v type="int" >       62 </v>
  <v type="int" >      133 </v>
  <v type="int" >       65 </v>
  <v type="int" >      271 </v>
  <v type="int" >       93 </v>
  <v type="int" >       90 </v>
  <v type="int" >       32 </v>
  <v type="int" >       56 </v>
  <v type="int" >       95 </v>
  <v type="int" >       59 </v>
  <v type="int" >       42 </v>
  <v type="int" >        8 </v>
  <v type="int" >      228 </v>
  <v type="int" >       70 </v>
  <v type="int" >      186 </v>
  <v type="int" >      196 </v>
  <v type="int" >      122 </v>
  <v type="int" >      121 </v>
  <v type="int" >       79 </v>
  <v type="int" >        2 </v>
  <v type="int" >      198 </v>
  <v type="int" >      240 </v>
  <v type="int" >      153 </v>
  <v type="int" >      209 </v>
  <v type="int" >       35 </v>
  <v type="int" >      204 </v>
  <v type="int" >       85 </v>
  <v type="int" >      227 </v>
  <v type="int" >       89 </v>
  <v type="int" >       40 </v>
  <v type="int" >       78 </v>
  <v type="int" >      142 </v>
  <v type="int" >       15 </v>
  <v type="int" >      136 </v>
  <v type="int" >      148 </v>
  <v type="int" >      217 </v>
  <v type="int" >       61 </v>
  <v type="int" >      100 </v>
  <v type="int" >       96 </v>
  <v type="int" >      126 </v>
  <v type="int" >      180 </v>
  <v type="int" >      115 </v>
  <v type="int" >      147 </v>
  <v type="int" >       41 </v>
  <v type="int" >       22 </v>
  <v type="int" >      260 </v>
  <v type="int" >      128 </v>
 </varray>
 <kpoints>
  <generation param="Gamma">
   <v type="int" name="divisions">       4        4        1 </v>
   <v name="usershift">      0.00000000       0.00000000       0.00000000 </v>
   <v name="genvec1">      0.25000000       0.00000000       0.00000000 </v>
   <v name="genvec2">      0.00000000       0.25000000       0.00000000 </v>
   <v name="genvec3">      0.00000000       0.00000000       1.00000000 </v>
   <v name="shift">      0.00000000       0.00000000       0.00000000 </v>
  </generation>
  <varray name="kpointlist" >
   <v>       0.00000000       0.00000000       0.00000000 </v>
   <v>       0.25000000       0.00000000       0.00000000 </v>
   <v>       0.50000000       0.00000000       0.00000000 </v>
   <v>       0.00000000       0.25000000       0.00000000 </v>
   <v>       0.25000000       0.25000000       0.00000000 </v>
   <v>       0.50000000       0.25000000       0.00000000 </v>
   <v>      -0.25000000       0.25000000       0.00000000 </v>
   <v>       0.00000000       0.50000000       0.00000000 </v>
   <v>       0.25000000       0.50000000       0.00000000 </v>
   <v>       0.50000000       0.50000000       0.00000000 </v>
  </varray>
  <varray name="weights" >
   <v>       0.06250000 </v>
   <v>       0.12500000 </v>
   <v>       0.06250000 </v>
   <v>       0.12500000 </v>
   <v>       0.12500000 </v>
   <v>       0.12500000 </v>
   <v>       0.12500000 </v>
   <v>       0.06250000 </v>
   <v>       0.12500000 </v>
   <v>       0.06250000 </v>
  </varray>
 </kpoints>
 <parameters>
  <separator name="general" >
   <i type="string" name="SYSTEM">unknown system</i>
   <i type="logical" name="LCOMPAT"> F  </i>
  </separator>
  <separator name="electronic" >
   <i type="string" name="PREC">accura</i>
   <i name="ENMAX">    450.00000000</i>
   <i name="ENAUG">    838.43500000</i>
   <i name="EDIFF">      0.00000100</i>
   <i type="int" name="IALGO">    68</i>
   <i type="int" name="IWAVPR">    11</i>
   <i type="int" name="NBANDS">  1386</i>
   <i name="NELECT">   2290.00000000</i>
   <i type="int" name="TURBO">     0</i>
   <i type="int" name="IRESTART">     0</i>
   <i type="int" name="NREBOOT">     0</i>
   <i type="int" name="NMIN">     0</i>
   <i name="EREF">      0.00000000</i>
   <separator name="electronic smearing" >
    <i type="int" name="ISMEAR">     0</i>
    <i name="SIGMA">      0.15000000</i>
    <i name="KSPACING">      0.50000000</i>
    <i type="logical" name="KGAMMA"> T  </i>
   </separator>
   <separator name="electronic projectors" >
    <i type="logical" name="LREAL"> T  </i>
    <v name="ROPT">     -0.00025000     -0.00025000</v>
    <i type="int" name="LMAXPAW">  -100</i>
    <i type="int" name="LMAXMIX">     2</i>
    <i type="logical" name="NLSPLINE"> F  </i>
   </separator>
   <separator name="electronic startup" >
    <i type="int" name="ISTART">     0</i>
    <i type="int" name="ICHARG">     2</i>
    <i type="int" name="INIWAV">     1</i>
   </separator>
   <separator name="electronic spin" >
    <i type="int" name="ISPIN">     1</i>
    <i type="logical" name="LNONCOLLINEAR"> F  </i>
    <v name="MAGMOM">      1.00000000      1.00000000      1.00000000      1.00000000      1.00000000      1.00000000      1.00000000      1.00000000      1.00000000      1.00000000      1.00000000      1.00000000      1.00000000      1.00000000      1.00000000      1.00000000      1.00000000      1.00000000      1.00000000      1.00000000
      1.00000000      1.00000000      1.00000000      1.00000000      1.00000000      1.00000000      1.00000000      1.00000000      1.00000000      1.00000000      1.00000000      1.00000000      1.00000000      1.00000000      1.00000000      1.00000000      1.00000000      1.00000000      1.00000000      1.00000000
      1.00000000      1.00000000      1.00000000      1.00000000      1.00000000      1.00000000      1.00000000      1.00000000      1.00000000      1.00000000      1.00000000      1.00000000      1.00000000      1.00000000      1.00000000      1.00000000      1.00000000      1.00000000      1.00000000      1.00000000
      1.00000000      1.00000000      1.00000000      1.00000000      1.00000000      1.00000000      1.00000000      1.00000000      1.00000000      1.00000000      1.00000000      1.00000000      1.00000000      1.00000000      1.00000000      1.00000000      1.00000000      1.00000000      1.00000000      1.00000000
      1.00000000      1.00000000      1.00000000      1.00000000      1.00000000      1.00000000      1.00000000      1.00000000      1.00000000      1.00000000      1.00000000      1.00000000      1.00000000      1.00000000      1.00000000      1.00000000      1.00000000      1.00000000      1.00000000      1.00000000
      1.00000000      1.00000000      1.00000000      1.00000000      1.00000000      1.00000000      1.00000000      1.00000000      1.00000000      1.00000000      1.00000000      1.00000000      1.00000000      1.00000000      1.00000000      1.00000000      1.00000000      1.00000000      1.00000000      1.00000000
      1.00000000      1.00000000      1.00000000      1.00000000      1.00000000      1.00000000      1.00000000      1.00000000      1.00000000      1.00000000      1.00000000      1.00000000      1.00000000      1.00000000      1.00000000      1.00000000      1.00000000      1.00000000      1.00000000      1.00000000
      1.00000000      1.00000000      1.00000000      1.00000000      1.00000000      1.00000000      1.00000000      1.00000000      1.00000000      1.00000000      1.00000000      1.00000000      1.00000000      1.00000000      1.00000000      1.00000000      1.00000000      1.00000000      1.00000000      1.00000000
      1.00000000      1.00000000      1.00000000      1.00000000      1.00000000      1.00000000      1.00000000      1.00000000      1.00000000      1.00000000      1.00000000      1.00000000      1.00000000      1.00000000      1.00000000      1.00000000      1.00000000      1.00000000      1.00000000      1.00000000
      1.00000000      1.00000000      1.00000000      1.00000000      1.00000000      1.00000000      1.00000000      1.00000000      1.00000000      1.00000000      1.00000000      1.00000000      1.00000000      1.00000000      1.00000000      1.00000000      1.00000000      1.00000000      1.00000000      1.00000000
      1.00000000      1.00000000      1.00000000      1.00000000      1.00000000      1.00000000      1.00000000      1.00000000      1.00000000      1.00000000      1.00000000      1.00000000      1.00000000      1.00000000      1.00000000      1.00000000      1.00000000      1.00000000      1.00000000      1.00000000
      1.00000000      1.00000000      1.00000000      1.00000000      1.00000000      1.00000000      1.00000000      1.00000000      1.00000000      1.00000000      1.00000000      1.00000000      1.00000000      1.00000000      1.00000000      1.00000000      1.00000000      1.00000000      1.00000000      1.00000000
      1.00000000      1.00000000      1.00000000      1.00000000      1.00000000      1.00000000      1.00000000      1.00000000      1.00000000      1.00000000      1.00000000      1.00000000      1.00000000      1.00000000      1.00000000      1.00000000      1.00000000      1.00000000      1.00000000      1.00000000
      1.00000000      1.00000000      1.00000000      1.00000000      1.00000000      1.00000000      1.00000000      1.00000000      1.00000000      1.00000000      1.00000000      1.00000000      1.00000000      1.00000000      1.00000000      1.00000000      1.00000000      1.00000000      1.00000000      1.00000000
      1.00000000      1.00000000      1.00000000      1.00000000      1.00000000      1.00000000      1.00000000      1.00000000</v>
    <i name="NUPDOWN">     -1.00000000</i>
    <i type="logical" name="LSORBIT"> F  </i>
    <v name="SAXIS">      0.00000000      0.00000000      1.00000000</v>
    <i type="logical" name="LSPIRAL"> F  </i>
    <v name="QSPIRAL">      0.00000000      0.00000000      0.00000000</v>
    <i type="logical" name="LZEROZ"> F  </i>
   </separator>
   <separator name="electronic exchange-correlation" >
    <i type="logical" name="LASPH"> F  </i>
    <i type="logical" name="LMETAGGA"> F  </i>
   </separator>
   <separator name="electronic convergence" >
    <i type="int" name="NELM">   100</i>
    <i type="int" name="NELMDL">     0</i>
    <i type="int" name="NELMIN">     4</i>
    <i name="ENINI">    450.00000000</i>
    <separator name="electronic convergence detail" >
     <i type="logical" name="LDIAG"> T  </i>
     <i type="logical" name="LSUBROT"> F  </i>
     <i name="WEIMIN">      0.00100000</i>
     <i name="EBREAK">      0.00000000</i>
     <i name="DEPER">      0.30000000</i>
     <i type="int" name="NRMM">     4</i>
     <i name="TIME">      0.40000000</i>
    </separator>
   </separator>
   <separator name="electronic mixer" >
    <i name="AMIX">      0.40000000</i>
    <i name="BMIX">      1.00000000</i>
    <i name="AMIN">      0.10000000</i>
    <i name="AMIX_MAG">      1.60000000</i>
    <i name="BMIX_MAG">      1.00000000</i>
    <separator name="electronic mixer details" >
     <i type="int" name="IMIX">     4</i>
     <i type="logical" name="MIXFIRST"> F  </i>
     <i type="int" name="MAXMIX">   -45</i>
     <i name="WC">    100.00000000</i>
     <i type="int" name="INIMIX">     1</i>
     <i type="int" name="MIXPRE">     1</i>
     <i type="int" name="MREMOVE">     5</i>
    </separator>
   </separator>
   <separator name="electronic dipolcorrection" >
    <i type="logical" name="LDIPOL"> F  </i>
    <i type="logical" name="LMONO"> F  </i>
    <i type="int" name="IDIPOL">     0</i>
    <i name="EPSILON">      1.00000000</i>
    <v name="DIPOL">   -100.00000000   -100.00000000   -100.00000000</v>
    <i name="EFIELD">      0.00000000</i>
   </separator>
  </separator>
  <separator name="grids" >
   <i type="int" name="NGX">    70</i>
   <i type="int" name="NGY">    60</i>
   <i type="int" name="NGZ">   320</i>
   <i type="int" name="NGXF">   140</i>
   <i type="int" name="NGYF">   120</i>
   <i type="int" name="NGZF">   640</i>
   <i type="logical" name="ADDGRID"> F  </i>
  </separator>
  <separator name="ionic" >
   <i type="int" name="NSW">     5</i>
   <i type="int" name="IBRION">     2</i>
   <i type="int" name="MDALGO">     0</i>
   <i type="int" name="ISIF">     2</i>
   <i name="PSTRESS">      0.00000000</i>
   <i name="EDIFFG">      0.00001000</i>
   <i type="int" name="NFREE">     1</i>
   <i name="POTIM">      0.25000000</i>
   <i name="SMASS">     -3.00000000</i>
   <i name="SCALEE">      1.00000000</i>
  </separator>
  <separator name="ionic md" >
   <i name="TEBEG">      0.00010000</i>
   <i name="TEEND">      0.00010000</i>
   <i type="int" name="NBLOCK">     1</i>
   <i type="int" name="KBLOCK">     5</i>
   <i type="int" name="NPACO">   256</i>
   <i name="APACO">     16.00000000</i>
  </separator>
  <separator name="symmetry" >
   <i type="int" name="ISYM">     2</i>
   <i name="SYMPREC">      0.00001000</i>
  </separator>
  <separator name="dos" >
   <i type="int" name="LORBIT">     0</i>
   <v name="RWIGS">     -1.00000000     -1.00000000</v>
   <i type="int" name="NEDOS">   301</i>
   <i name="EMIN">     10.00000000</i>
   <i name="EMAX">    -10.00000000</i>
   <i name="EFERMI">      0.00000000</i>
  </separator>
  <separator name="writing" >
   <i type="int" name="NWRITE">     2</i>
   <i type="logical" name="LWAVE"> F  </i>
   <i type="logical" name="LDOWNSAMPLE"> F  </i>
   <i type="logical" name="LCHARG"> F  </i>
   <i type="logical" name="LPARD"> F  </i>
   <i type="logical" name="LVTOT"> F  </i>
   <i type="logical" name="LVHAR"> F  </i>
   <i type="logical" name="LELF"> F  </i>
   <i type="logical" name="LOPTICS"> F  </i>
   <v name="STM">      0.00000000      0.00000000      0.00000000      0.00000000      0.00000000      0.00000000      0.00000000</v>
  </separator>
  <separator name="performance" >
   <i type="int" name="NPAR">    14</i>
   <i type="int" name="NSIM">     4</i>
   <i type="int" name="NBLK">    -1</i>
   <i type="logical" name="LPLANE"> T  </i>
   <i type="logical" name="LSCALAPACK"> T  </i>
   <i type="logical" name="LSCAAWARE"> T  </i>
   <i type="logical" name="LSCALU"> F  </i>
   <i type="logical" name="LASYNC"> F  </i>
   <i type="logical" name="LORBITALREAL"> F  </i>
  </separator>
  <separator name="miscellaneous" >
   <i type="int" name="IDIOT">     3</i>
   <i type="int" name="ISPECIAL">     0</i>
   <i type="logical" name="LMUSIC"> F  </i>
   <v name="POMASS">     55.84700000     54.93800000</v>
   <v name="DARWINR">      0.00000000      0.00000000</v>
   <v name="DARWINV">      1.00000000      1.00000000</v>
   <i type="logical" name="LCORR"> T  </i>
  </separator>
  <i type="logical" name="GGA_COMPAT"> T  </i>
  <i type="logical" name="LBERRY"> F  </i>
  <i type="int" name="ICORELEVEL">     0</i>
  <i type="logical" name="LDAU"> F  </i>
  <i type="int" name="I_CONSTRAINED_M">     0</i>
  <separator name="electronic exchange-correlation" >
   <i type="string" name="GGA">--</i>
   <i type="int" name="VOSKOWN">     0</i>
   <i type="logical" name="LHFCALC"> F  </i>
   <i type="string" name="PRECFOCK"></i>
   <i type="logical" name="LSYMGRAD"> F  </i>
   <i type="logical" name="LHFONE"> F  </i>
   <i type="logical" name="LRHFCALC"> F  </i>
   <i type="logical" name="LTHOMAS"> F  </i>
   <i type="logical" name="LMODELHF"> F  </i>
   <i name="ENCUT4O">     -1.00000000</i>
   <i type="int" name="EXXOEP">     0</i>
   <i type="int" name="FOURORBIT">     0</i>
   <i name="AEXX">      0.00000000</i>
   <i name="HFALPHA">      0.00000000</i>
   <i name="MCALPHA">      0.00000000</i>
   <i name="ALDAX">      1.00000000</i>
   <i name="AGGAX">      1.00000000</i>
   <i name="ALDAC">      1.00000000</i>
   <i name="AGGAC">      1.00000000</i>
   <i type="int" name="NKREDX">     1</i>
   <i type="int" name="NKREDY">     1</i>
   <i type="int" name="NKREDZ">     1</i>
   <i type="logical" name="SHIFTRED"> F  </i>
   <i type="logical" name="ODDONLY"> F  </i>
   <i type="logical" name="EVENONLY"> F  </i>
   <i type="int" name="LMAXFOCK">     0</i>
   <i type="int" name="NMAXFOCKAE">     0</i>
   <i type="logical" name="LFOCKAEDFT"> F  </i>
   <i name="HFSCREEN">      0.00000000</i>
   <i name="HFSCREENC">      0.00000000</i>
   <i type="int" name="NBANDSGWLOW">     0</i>
  </separator>
  <separator name="vdW DFT" >
   <i type="logical" name="LUSE_VDW"> F  </i>
   <i name="Zab_VDW">     -0.84910000</i>
   <i name="PARAM1">      0.12340000</i>
   <i name="PARAM2">      1.00000000</i>
   <i name="PARAM3">      0.00000000</i>
  </separator>
  <separator name="model GW" >
   <i type="int" name="MODEL_GW">     0</i>
   <i name="MODEL_EPS0">      7.68123389</i>
   <i name="MODEL_ALPHA">      1.00000000</i>
  </separator>
  <separator name="linear response parameters" >
   <i type="logical" name="LEPSILON"> F  </i>
   <i type="logical" name="LRPA"> F  </i>
   <i type="logical" name="LNABLA"> F  </i>
   <i type="logical" name="LVEL"> F  </i>
   <i type="int" name="KINTER">     0</i>
   <i name="CSHIFT">      0.10000000</i>
   <i name="OMEGAMAX">     -1.00000000</i>
   <i name="DEG_THRESHOLD">      0.00200000</i>
   <i name="RTIME">     -0.10000000</i>
   <i name="WPLASMAI">      0.00000000</i>
   <v name="DFIELD">      0.00000000      0.00000000      0.00000000</v>
   <v name="WPLASMA">      0.00000000      0.00000000      0.00000000      0.00000000      0.00000000      0.00000000      0.00000000      0.00000000      0.00000000</v>
  </separator>
  <separator name="orbital magnetization" >
   <i type="logical" name="NUCIND"> F  </i>
   <v name="MAGPOS">      0.00000000      0.00000000      0.00000000</v>
   <i type="logical" name="LNICSALL"> T  </i>
   <i type="logical" name="ORBITALMAG"> F  </i>
   <i type="logical" name="LMAGBLOCH"> F  </i>
   <i type="logical" name="LCHIMAG"> F  </i>
   <i type="logical" name="LGAUGE"> T  </i>
   <i type="int" name="MAGATOM">     0</i>
   <v name="MAGDIPOL">      0.00000000      0.00000000      0.00000000</v>
   <v name="AVECCONST">      0.00000000      0.00000000      0.00000000</v>
  </separator>
  <separator name="response functions" >
   <i type="logical" name="LADDER"> F  </i>
   <i type="logical" name="LRPAFORCE"> F  </i>
   <i type="logical" name="LFXC"> F  </i>
   <i type="logical" name="LHARTREE"> T  </i>
   <i type="int" name="IBSE">     0</i>
   <v type="int" name="KPOINT">    -1     0     0     0</v>
   <i type="logical" name="LTCTE"> F  </i>
   <i type="logical" name="LTETE"> F  </i>
   <i type="logical" name="LTRIPLET"> F  </i>
   <i type="logical" name="LFXCEPS"> F  </i>
   <i type="logical" name="LFXHEG"> F  </i>
   <i type="int" name="NATURALO">     2</i>
   <i type="logical" name="L2ORDER"> F  </i>
   <i type="logical" name="LMP2LT"> F  </i>
   <i type="logical" name="LUSEW"> F  </i>
   <i name="ENCUTGW">     -2.00000000</i>
   <i name="ENCUTGWSOFT">     -2.00000000</i>
   <i name="ENCUTLF">     -1.00000000</i>
   <i type="int" name="LMAXMP2">    -1</i>
   <i name="SCISSOR">      0.00000000</i>
   <i type="int" name="NOMEGA">     0</i>
   <i type="int" name="NOMEGAR">     0</i>
   <i type="int" name="NBANDSGW">    -1</i>
   <i type="int" name="NBANDSO">    -1</i>
   <i type="int" name="NBANDSV">    -1</i>
   <i type="int" name="NELM">   100</i>
   <i type="int" name="NELMHF">     1</i>
   <i type="int" name="DIM">     3</i>
   <i type="int" name="ANTIRES">     0</i>
   <i name="OMEGAMAX">    -30.00000000</i>
   <i name="OMEGAMIN">    -30.00000000</i>
   <i name="OMEGATL">   -200.00000000</i>
   <i type="int" name="OMEGAGRID">   140</i>
   <i name="CSHIFT">     -0.10000000</i>
   <i type="logical" name="SELFENERGY"> F  </i>
   <i type="logical" name="LSPECTRAL"> F  </i>
   <i type="logical" name="LSPECTRALGW"> F  </i>
   <i type="logical" name="LSINGLES"> F  </i>
   <i type="logical" name="LFERMIGW"> F  </i>
   <i type="logical" name="ODDONLYGW"> F  </i>
   <i type="logical" name="EVENONLYGW"> F  </i>
   <i type="int" name="NKREDLFX">     1</i>
   <i type="int" name="NKREDLFY">     1</i>
   <i type="int" name="NKREDLFZ">     1</i>
   <i type="int" name="MAXMEM">  2800</i>
   <i type="int" name="TELESCOPE">     0</i>
   <i type="int" name="TAUPAR">     1</i>
   <i type="int" name="OMEGAPAR">    -1</i>
   <i name="LAMBDA">      1.00000000</i>
  </separator>
  <separator name="External order field" >
   <i name="OFIELD_KAPPA">      0.00000000</i>
   <v name="OFIELD_K">      0.00000000      0.00000000      0.00000000</v>
   <i name="OFIELD_Q6_NEAR">      0.00000000</i>
   <i name="OFIELD_Q6_FAR">      0.00000000</i>
   <i name="OFIELD_A">      0.00000000</i>
  </separator>
 </parameters>
 <atominfo>
  <atoms>     288 </atoms>
  <types>       2 </types>
  <array name="atoms" >
   <dimension dim="1">ion</dimension>
   <field type="string">element</field>
   <field type="int">atomtype</field>
   <set>
    <rc><c>Fe</c><c>   1</c></rc>
    <rc><c>Fe</c><c>   1</c></rc>
    <rc><c>Fe</c><c>   1</c></rc>
    <rc><c>Fe</c><c>   1</c></rc>
    <rc><c>Fe</c><c>   1</c></rc>
    <rc><c>Fe</c><c>   1</c></rc>
    <rc><c>Fe</c><c>   1</c></rc>
    <rc><c>Fe</c><c>   1</c></rc>
    <rc><c>Fe</c><c>   1</c></rc>
    <rc><c>Fe</c><c>   1</c></rc>
    <rc><c>Fe</c><c>   1</c></rc>
    <rc><c>Fe</c><c>   1</c></rc>
    <rc><c>Fe</c><c>   1</c></rc>
    <rc><c>Fe</c><c>   1</c></rc>
    <rc><c>Fe</c><c>   1</c></rc>
    <rc><c>Fe</c><c>   1</c></rc>
    <rc><c>Fe</c><c>   1</c></rc>
    <rc><c>Fe</c><c>   1</c></rc>
    <rc><c>Fe</c><c>   1</c></rc>
    <rc><c>Fe</c><c>   1</c></rc>
    <rc><c>Fe</c><c>   1</c></rc>
    <rc><c>Fe</c><c>   1</c></rc>
    <rc><c>Fe</c><c>   1</c></rc>
    <rc><c>Fe</c><c>   1</c></rc>
    <rc><c>Fe</c><c>   1</c></rc>
    <rc><c>Fe</c><c>   1</c></rc>
    <rc><c>Fe</c><c>   1</c></rc>
    <rc><c>Fe</c><c>   1</c></rc>
    <rc><c>Fe</c><c>   1</c></rc>
    <rc><c>Fe</c><c>   1</c></rc>
    <rc><c>Fe</c><c>   1</c></rc>
    <rc><c>Fe</c><c>   1</c></rc>
    <rc><c>Fe</c><c>   1</c></rc>
    <rc><c>Fe</c><c>   1</c></rc>
    <rc><c>Fe</c><c>   1</c></rc>
    <rc><c>Fe</c><c>   1</c></rc>
    <rc><c>Fe</c><c>   1</c></rc>
    <rc><c>Fe</c><c>   1</c></rc>
    <rc><c>Fe</c><c>   1</c></rc>
    <rc><c>Fe</c><c>   1</c></rc>
    <rc><c>Fe</c><c>   1</c></rc>
    <rc><c>Fe</c><c>   1</c></rc>
    <rc><c>Fe</c><c>   1</c></rc>
    <rc><c>Fe</c><c>   1</c></rc>
    <rc><c>Fe</c><c>   1</c></rc>
    <rc><c>Fe</c><c>   1</c></rc>
    <rc><c>Fe</c><c>   1</c></rc>
    <rc><c>Fe</c><c>   1</c></rc>
    <rc><c>Fe</c><c>   1</c></rc>
    <rc><c>Fe</c><c>   1</c></rc>
    <rc><c>Fe</c><c>   1</c></rc>
    <rc><c>Fe</c><c>   1</c></rc>
    <rc><c>Fe</c><c>   1</c></rc>
    <rc><c>Fe</c><c>   1</c></rc>
    <rc><c>Fe</c><c>   1</c></rc>
    <rc><c>Fe</c><c>   1</c></rc>
    <rc><c>Fe</c><c>   1</c></rc>
    <rc><c>Fe</c><c>   1</c></rc>
    <rc><c>Fe</c><c>   1</c></rc>
    <rc><c>Fe</c><c>   1</c></rc>
    <rc><c>Fe</c><c>   1</c></rc>
    <rc><c>Fe</c><c>   1</c></rc>
    <rc><c>Fe</c><c>   1</c></rc>
    <rc><c>Fe</c><c>   1</c></rc>
    <rc><c>Fe</c><c>   1</c></rc>
    <rc><c>Fe</c><c>   1</c></rc>
    <rc><c>Fe</c><c>   1</c></rc>
    <rc><c>Fe</c><c>   1</c></rc>
    <rc><c>Fe</c><c>   1</c></rc>
    <rc><c>Fe</c><c>   1</c></rc>
    <rc><c>Fe</c><c>   1</c></rc>
    <rc><c>Fe</c><c>   1</c></rc>
    <rc><c>Fe</c><c>   1</c></rc>
    <rc><c>Fe</c><c>   1</c></rc>
    <rc><c>Fe</c><c>   1</c></rc>
    <rc><c>Fe</c><c>   1</c></rc>
    <rc><c>Fe</c><c>   1</c></rc>
    <rc><c>Fe</c><c>   1</c></rc>
    <rc><c>Fe</c><c>   1</c></rc>
    <rc><c>Fe</c><c>   1</c></rc>
    <rc><c>Fe</c><c>   1</c></rc>
    <rc><c>Fe</c><c>   1</c></rc>
    <rc><c>Fe</c><c>   1</c></rc>
    <rc><c>Fe</c><c>   1</c></rc>
    <rc><c>Fe</c><c>   1</c></rc>
    <rc><c>Fe</c><c>   1</c></rc>
    <rc><c>Fe</c><c>   1</c></rc>
    <rc><c>Fe</c><c>   1</c></rc>
    <rc><c>Fe</c><c>   1</c></rc>
    <rc><c>Fe</c><c>   1</c></rc>
    <rc><c>Fe</c><c>   1</c></rc>
    <rc><c>Fe</c><c>   1</c></rc>
    <rc><c>Fe</c><c>   1</c></rc>
    <rc><c>Fe</c><c>   1</c></rc>
    <rc><c>Fe</c><c>   1</c></rc>
    <rc><c>Fe</c><c>   1</c></rc>
    <rc><c>Fe</c><c>   1</c></rc>
    <rc><c>Fe</c><c>   1</c></rc>
    <rc><c>Fe</c><c>   1</c></rc>
    <rc><c>Fe</c><c>   1</c></rc>
    <rc><c>Fe</c><c>   1</c></rc>
    <rc><c>Fe</c><c>   1</c></rc>
    <rc><c>Fe</c><c>   1</c></rc>
    <rc><c>Fe</c><c>   1</c></rc>
    <rc><c>Fe</c><c>   1</c></rc>
    <rc><c>Fe</c><c>   1</c></rc>
    <rc><c>Fe</c><c>   1</c></rc>
    <rc><c>Fe</c><c>   1</c></rc>
    <rc><c>Fe</c><c>   1</c></rc>
    <rc><c>Fe</c><c>   1</c></rc>
    <rc><c>Fe</c><c>   1</c></rc>
    <rc><c>Fe</c><c>   1</c></rc>
    <rc><c>Fe</c><c>   1</c></rc>
    <rc><c>Fe</c><c>   1</c></rc>
    <rc><c>Fe</c><c>   1</c></rc>
    <rc><c>Fe</c><c>   1</c></rc>
    <rc><c>Fe</c><c>   1</c></rc>
    <rc><c>Fe</c><c>   1</c></rc>
    <rc><c>Fe</c><c>   1</c></rc>
    <rc><c>Fe</c><c>   1</c></rc>
    <rc><c>Fe</c><c>   1</c></rc>
    <rc><c>Fe</c><c>   1</c></rc>
    <rc><c>Fe</c><c>   1</c></rc>
    <rc><c>Fe</c><c>   1</c></rc>
    <rc><c>Fe</c><c>   1</c></rc>
    <rc><c>Fe</c><c>   1</c></rc>
    <rc><c>Fe</c><c>   1</c></rc>
    <rc><c>Fe</c><c>   1</c></rc>
    <rc><c>Fe</c><c>   1</c></rc>
    <rc><c>Fe</c><c>   1</c></rc>
    <rc><c>Fe</c><c>   1</c></rc>
    <rc><c>Fe</c><c>   1</c></rc>
    <rc><c>Fe</c><c>   1</c></rc>
    <rc><c>Fe</c><c>   1</c></rc>
    <rc><c>Fe</c><c>   1</c></rc>
    <rc><c>Fe</c><c>   1</c></rc>
    <rc><c>Fe</c><c>   1</c></rc>
    <rc><c>Fe</c><c>   1</c></rc>
    <rc><c>Fe</c><c>   1</c></rc>
    <rc><c>Fe</c><c>   1</c></rc>
    <rc><c>Fe</c><c>   1</c></rc>
    <rc><c>Fe</c><c>   1</c></rc>
    <rc><c>Fe</c><c>   1</c></rc>
    <rc><c>Fe</c><c>   1</c></rc>
    <rc><c>Fe</c><c>   1</c></rc>
    <rc><c>Fe</c><c>   1</c></rc>
    <rc><c>Fe</c><c>   1</c></rc>
    <rc><c>Fe</c><c>   1</c></rc>
    <rc><c>Fe</c><c>   1</c></rc>
    <rc><c>Fe</c><c>   1</c></rc>
    <rc><c>Fe</c><c>   1</c></rc>
    <rc><c>Fe</c><c>   1</c></rc>
    <rc><c>Fe</c><c>   1</c></rc>
    <rc><c>Fe</c><c>   1</c></rc>
    <rc><c>Fe</c><c>   1</c></rc>
    <rc><c>Fe</c><c>   1</c></rc>
    <rc><c>Fe</c><c>   1</c></rc>
    <rc><c>Fe</c><c>   1</c></rc>
    <rc><c>Fe</c><c>   1</c></rc>
    <rc><c>Fe</c><c>   1</c></rc>
    <rc><c>Fe</c><c>   1</c></rc>
    <rc><c>Fe</c><c>   1</c></rc>
    <rc><c>Fe</c><c>   1</c></rc>
    <rc><c>Fe</c><c>   1</c></rc>
    <rc><c>Fe</c><c>   1</c></rc>
    <rc><c>Fe</c><c>   1</c></rc>
    <rc><c>Fe</c><c>   1</c></rc>
    <rc><c>Fe</c><c>   1</c></rc>
    <rc><c>Fe</c><c>   1</c></rc>
    <rc><c>Fe</c><c>   1</c></rc>
    <rc><c>Fe</c><c>   1</c></rc>
    <rc><c>Fe</c><c>   1</c></rc>
    <rc><c>Fe</c><c>   1</c></rc>
    <rc><c>Fe</c><c>   1</c></rc>
    <rc><c>Fe</c><c>   1</c></rc>
    <rc><c>Fe</c><c>   1</c></rc>
    <rc><c>Fe</c><c>   1</c></rc>
    <rc><c>Fe</c><c>   1</c></rc>
    <rc><c>Fe</c><c>   1</c></rc>
    <rc><c>Fe</c><c>   1</c></rc>
    <rc><c>Fe</c><c>   1</c></rc>
    <rc><c>Fe</c><c>   1</c></rc>
    <rc><c>Fe</c><c>   1</c></rc>
    <rc><c>Fe</c><c>   1</c></rc>
    <rc><c>Fe</c><c>   1</c></rc>
    <rc><c>Fe</c><c>   1</c></rc>
    <rc><c>Fe</c><c>   1</c></rc>
    <rc><c>Fe</c><c>   1</c></rc>
    <rc><c>Fe</c><c>   1</c></rc>
    <rc><c>Fe</c><c>   1</c></rc>
    <rc><c>Fe</c><c>   1</c></rc>
    <rc><c>Fe</c><c>   1</c></rc>
    <rc><c>Fe</c><c>   1</c></rc>
    <rc><c>Fe</c><c>   1</c></rc>
    <rc><c>Fe</c><c>   1</c></rc>
    <rc><c>Fe</c><c>   1</c></rc>
    <rc><c>Fe</c><c>   1</c></rc>
    <rc><c>Fe</c><c>   1</c></rc>
    <rc><c>Fe</c><c>   1</c></rc>
    <rc><c>Fe</c><c>   1</c></rc>
    <rc><c>Fe</c><c>   1</c></rc>
    <rc><c>Fe</c><c>   1</c></rc>
    <rc><c>Fe</c><c>   1</c></rc>
    <rc><c>Fe</c><c>   1</c></rc>
    <rc><c>Fe</c><c>   1</c></rc>
    <rc><c>Fe</c><c>   1</c></rc>
    <rc><c>Fe</c><c>   1</c></rc>
    <rc><c>Fe</c><c>   1</c></rc>
    <rc><c>Fe</c><c>   1</c></rc>
    <rc><c>Fe</c><c>   1</c></rc>
    <rc><c>Fe</c><c>   1</c></rc>
    <rc><c>Fe</c><c>   1</c></rc>
    <rc><c>Fe</c><c>   1</c></rc>
    <rc><c>Fe</c><c>   1</c></rc>
    <rc><c>Fe</c><c>   1</c></rc>
    <rc><c>Fe</c><c>   1</c></rc>
    <rc><c>Fe</c><c>   1</c></rc>
    <rc><c>Fe</c><c>   1</c></rc>
    <rc><c>Fe</c><c>   1</c></rc>
    <rc><c>Fe</c><c>   1</c></rc>
    <rc><c>Fe</c><c>   1</c></rc>
    <rc><c>Fe</c><c>   1</c></rc>
    <rc><c>Fe</c><c>   1</c></rc>
    <rc><c>Fe</c><c>   1</c></rc>
    <rc><c>Fe</c><c>   1</c></rc>
    <rc><c>Fe</c><c>   1</c></rc>
    <rc><c>Fe</c><c>   1</c></rc>
    <rc><c>Fe</c><c>   1</c></rc>
    <rc><c>Fe</c><c>   1</c></rc>
    <rc><c>Fe</c><c>   1</c></rc>
    <rc><c>Fe</c><c>   1</c></rc>
    <rc><c>Fe</c><c>   1</c></rc>
    <rc><c>Fe</c><c>   1</c></rc>
    <rc><c>Fe</c><c>   1</c></rc>
    <rc><c>Fe</c><c>   1</c></rc>
    <rc><c>Fe</c><c>   1</c></rc>
    <rc><c>Fe</c><c>   1</c></rc>
    <rc><c>Fe</c><c>   1</c></rc>
    <rc><c>Fe</c><c>   1</c></rc>
    <rc><c>Fe</c><c>   1</c></rc>
    <rc><c>Fe</c><c>   1</c></rc>
    <rc><c>Fe</c><c>   1</c></rc>
    <rc><c>Fe</c><c>   1</c></rc>
    <rc><c>Fe</c><c>   1</c></rc>
    <rc><c>Fe</c><c>   1</c></rc>
    <rc><c>Fe</c><c>   1</c></rc>
    <rc><c>Fe</c><c>   1</c></rc>
    <rc><c>Fe</c><c>   1</c></rc>
    <rc><c>Fe</c><c>   1</c></rc>
    <rc><c>Fe</c><c>   1</c></rc>
    <rc><c>Fe</c><c>   1</c></rc>
    <rc><c>Fe</c><c>   1</c></rc>
    <rc><c>Fe</c><c>   1</c></rc>
    <rc><c>Fe</c><c>   1</c></rc>
    <rc><c>Fe</c><c>   1</c></rc>
    <rc><c>Fe</c><c>   1</c></rc>
    <rc><c>Fe</c><c>   1</c></rc>
    <rc><c>Fe</c><c>   1</c></rc>
    <rc><c>Fe</c><c>   1</c></rc>
    <rc><c>Fe</c><c>   1</c></rc>
    <rc><c>Fe</c><c>   1</c></rc>
    <rc><c>Fe</c><c>   1</c></rc>
    <rc><c>Fe</c><c>   1</c></rc>
    <rc><c>Fe</c><c>   1</c></rc>
    <rc><c>Fe</c><c>   1</c></rc>
    <rc><c>Fe</c><c>   1</c></rc>
    <rc><c>Fe</c><c>   1</c></rc>
    <rc><c>Fe</c><c>   1</c></rc>
    <rc><c>Fe</c><c>   1</c></rc>
    <rc><c>Fe</c><c>   1</c></rc>
    <rc><c>Fe</c><c>   1</c></rc>
    <rc><c>Fe</c><c>   1</c></rc>
    <rc><c>Fe</c><c>   1</c></rc>
    <rc><c>Fe</c><c>   1</c></rc>
    <rc><c>Mn</c><c>   2</c></rc>
    <rc><c>Mn</c><c>   2</c></rc>
    <rc><c>Mn</c><c>   2</c></rc>
    <rc><c>Mn</c><c>   2</c></rc>
    <rc><c>Mn</c><c>   2</c></rc>
    <rc><c>Mn</c><c>   2</c></rc>
    <rc><c>Mn</c><c>   2</c></rc>
    <rc><c>Mn</c><c>   2</c></rc>
    <rc><c>Mn</c><c>   2</c></rc>
    <rc><c>Mn</c><c>   2</c></rc>
    <rc><c>Mn</c><c>   2</c></rc>
    <rc><c>Mn</c><c>   2</c></rc>
    <rc><c>Mn</c><c>   2</c></rc>
    <rc><c>Mn</c><c>   2</c></rc>
   </set>
  </array>
  <array name="atomtypes" >
   <dimension dim="1">type</dimension>
   <field type="int">atomspertype</field>
   <field type="string">element</field>
   <field>mass</field>
   <field>valence</field>
   <field type="string">pseudopotential</field>
   <set>
    <rc><c> 274</c><c>Fe</c><c>     55.84700000</c><c>      8.00000000</c><c>  PAW_PBE Fe_GW 31Mar2010               </c></rc>
    <rc><c>  14</c><c>Mn</c><c>     54.93800000</c><c>      7.00000000</c><c>  PAW_PBE Mn_GW 31Mar2010               </c></rc>
   </set>
  </array>
 </atominfo>
 <structure name="initialpos" >
  <crystal>
   <varray name="basis" >
    <v>       9.72667804       0.00000000       0.00000000 </v>
    <v>       0.00000000       8.42355028       0.00000000 </v>
    <v>       0.00000000       0.00000000      45.00000000 </v>
   </varray>
   <i name="volume">   3686.99226691 </i>
   <varray name="rec_basis" >
    <v>       0.10281002       0.00000000       0.00000000 </v>
    <v>       0.00000000       0.11871479       0.00000000 </v>
    <v>       0.00000000       0.00000000       0.02222222 </v>
   </varray>
  </crystal>
  <varray name="positions" >
   <v>       0.06182789       0.03095388       0.12432391 </v>
   <v>       0.31663741       0.87487037       0.65486868 </v>
   <v>       0.18496558       0.12144766       0.78829943 </v>
   <v>       0.44155128       0.28760764       0.38910690 </v>
   <v>       0.31766932       0.71250839       0.83279164 </v>
   <v>       0.81779627       0.21387285       0.83334877 </v>
   <v>       0.19132613       0.96263851       0.83328853 </v>
   <v>       0.56226657       0.20701718       0.56549008 </v>
   <v>       0.06557370       0.03986024       0.74394436 </v>
   <v>       0.81150459       0.87135049       0.52132739 </v>
   <v>       0.19102782       0.29044625       0.74392266 </v>
   <v>       0.93369280       0.45226847       0.34488770 </v>
   <v>       0.94114922       0.28675232       0.38898469 </v>
   <v>       0.81310024       0.03955054       0.87542258 </v>
   <v>       0.18358817       0.78793875       0.61086332 </v>
   <v>       0.56626777       0.03783596       0.38908860 </v>
   <v>       0.94168485       0.96306646       0.83356004 </v>
   <v>       0.31449862       0.53869212       0.87579356 </v>
   <v>       0.69053252       0.29032740       0.74390989 </v>
   <v>       0.18249697       0.61400639       0.16674221 </v>
   <v>       0.81222495       0.20581373       0.47867042 </v>
   <v>       0.80865101       0.53799566       0.61090587 </v>
   <v>       0.31206420       0.87034179       0.43445782 </v>
   <v>       0.80922968       0.03840249       0.25613778 </v>
   <v>       0.68358684       0.95168936       0.34490051 </v>
   <v>       0.93123896       0.11489594       0.16728421 </v>
   <v>       0.06164679       0.87125733       0.52136924 </v>
   <v>       0.55904016       0.53874807       0.25610824 </v>
   <v>       0.68473797       0.79515427       0.87543119 </v>
   <v>       0.55607184       0.36584077       0.16673580 </v>
   <v>       0.43982743       0.79073796       0.74405731 </v>
   <v>       0.81153746       0.70667974       0.56546445 </v>
   <v>       0.56017728       0.87216445       0.78828189 </v>
   <v>       0.68653311       0.12141242       0.52134843 </v>
   <v>       0.81646405       0.37478807       0.65489891 </v>
   <v>       0.94159015       0.46273807       0.83352306 </v>
   <v>       0.06030941       0.20800963       0.69955242 </v>
   <v>       0.43503348       0.95796590       0.69955348 </v>
   <v>       0.31686868       0.21187072       0.83332083 </v>
   <v>       0.44144327       0.62493157       0.65490121 </v>
   <v>       0.30873170       0.53781765       0.61089782 </v>
   <v>       0.93672387       0.45665405       0.56557859 </v>
   <v>       0.69006046       0.79091486       0.74402777 </v>
   <v>       0.93371313       0.78849251       0.12463775 </v>
   <v>       0.69150775       0.78766726       0.38907870 </v>
   <v>       0.94050754       0.79007602       0.74412820 </v>
   <v>       0.05875371       0.20279737       0.34506095 </v>
   <v>       0.68360316       0.45226194       0.34503584 </v>
   <v>       0.43521003       0.12116451       0.78864757 </v>
   <v>       0.06512579       0.20533314       0.21165219 </v>
   <v>       0.05501294       0.36603197       0.16678780 </v>
   <v>       0.93358489       0.78903741       0.25596652 </v>
   <v>       0.56038533       0.20775975       0.69958361 </v>
   <v>       0.68496672       0.95797649       0.69960043 </v>
   <v>       0.81008018       0.87220655       0.78820256 </v>
   <v>       0.43692982       0.95716131       0.56537975 </v>
   <v>       0.81057072       0.37294107       0.78817879 </v>
   <v>       0.68437030       0.28971904       0.25610867 </v>
   <v>       0.18723916       0.45711842       0.56545543 </v>
   <v>       0.05569446       0.86570539       0.16678279 </v>
   <v>       0.18371823       0.28792930       0.61092499 </v>
   <v>       0.06245847       0.20725262       0.56539440 </v>
   <v>       0.31049739       0.20794829       0.69961257 </v>
   <v>       0.56356261       0.53912690       0.87566590 </v>
   <v>       0.06188143       0.70637585       0.56552553 </v>
   <v>       0.68494821       0.62147329       0.78818260 </v>
   <v>       0.31624885       0.53778204       0.38907691 </v>
   <v>       0.18673507       0.62131040       0.52143675 </v>
   <v>       0.56238741       0.87034472       0.43447738 </v>
   <v>       0.43698508       0.45713720       0.56547411 </v>
   <v>       0.43992628       0.29093862       0.74402111 </v>
   <v>       0.81925757       0.87497891       0.30040491 </v>
   <v>       0.80872335       0.70275665       0.34509409 </v>
   <v>       0.44166795       0.46230572       0.83313893 </v>
   <v>       0.68724128       0.95570042       0.47865078 </v>
   <v>       0.68499848       0.45797381       0.69957786 </v>
   <v>       0.56180011       0.87189518       0.52139967 </v>
   <v>       0.56651854       0.37476606       0.65486476 </v>
   <v>       0.81633802       0.87483810       0.65492272 </v>
   <v>       0.81177534       0.37153712       0.43424569 </v>
   <v>       0.80894749       0.53836389       0.25625600 </v>
   <v>       0.69195160       0.46139897       0.83305280 </v>
   <v>       0.18610611       0.78863812       0.12423981 </v>
   <v>       0.69129262       0.28740975       0.38904748 </v>
   <v>       0.31652511       0.37475142       0.65490825 </v>
   <v>       0.30913919       0.20288243       0.34497113 </v>
   <v>       0.81559415       0.53998179       0.74394879 </v>
   <v>       0.69159178       0.96168394       0.83312174 </v>
   <v>       0.56622829       0.87448189       0.65491324 </v>
   <v>       0.31168651       0.70709897       0.56543503 </v>
   <v>       0.31260583       0.53205978       0.12432682 </v>
   <v>       0.68924239       0.95577432       0.21194700 </v>
   <v>       0.31145001       0.20658940       0.56549974 </v>
   <v>       0.18720926       0.95584962       0.47866354 </v>
   <v>       0.68738112       0.95709753       0.56547223 </v>
   <v>       0.43373508       0.78793907       0.61089029 </v>
   <v>       0.68254143       0.61234968       0.16677481 </v>
   <v>       0.31925122       0.87440931       0.30042436 </v>
   <v>       0.31218707       0.70572614       0.47864624 </v>
   <v>       0.93364135       0.28783608       0.61088085 </v>
   <v>       0.44460687       0.62476300       0.30050804 </v>
   <v>       0.80655855       0.86446788       0.16727277 </v>
   <v>       0.56585206       0.20337587       0.21199124 </v>
   <v>       0.93292319       0.61311995       0.16684173 </v>
   <v>       0.43727397       0.95566805       0.47863439 </v>
   <v>       0.56035853       0.37168287       0.78835525 </v>
   <v>       0.06134131       0.37189851       0.52137827 </v>
   <v>       0.30707334       0.36376241       0.16682880 </v>
   <v>       0.69467539       0.12439074       0.30043109 </v>
   <v>       0.44272558       0.96190375       0.83308739 </v>
   <v>       0.18468842       0.28761663       0.12446683 </v>
   <v>       0.18386154       0.28907359       0.25613408 </v>
   <v>       0.31225744       0.37051067       0.43443167 </v>
   <v>       0.56261485       0.03259301       0.12454864 </v>
   <v>       0.43363272       0.28796637       0.61086310 </v>
   <v>       0.18370705       0.45268804       0.34509126 </v>
   <v>       0.43441718       0.28765048       0.12453032 </v>
   <v>       0.68388125       0.78906594       0.25615595 </v>
   <v>       0.43656675       0.12134940       0.52134945 </v>
   <v>       0.18844263       0.29425001       0.87573505 </v>
   <v>       0.19155217       0.12497236       0.65490323 </v>
   <v>       0.94149764       0.12489947       0.65489257 </v>
   <v>       0.81627451       0.53762376       0.38910995 </v>
   <v>       0.06643544       0.03780501       0.38908661 </v>
   <v>       0.18317909       0.11245639       0.16650460 </v>
   <v>       0.05864404       0.53776937       0.61090412 </v>
   <v>       0.93402952       0.28953641       0.25607325 </v>
   <v>       0.55862925       0.53794716       0.61087799 </v>
   <v>       0.93691560       0.95730547       0.56546085 </v>
   <v>       0.69400232       0.62493658       0.30041653 </v>
   <v>       0.93729163       0.62042410       0.43447575 </v>
   <v>       0.93409766       0.62262273       0.78800429 </v>
   <v>       0.56035815       0.70765805       0.69957267 </v>
   <v>       0.06592635       0.71510404       0.83362253 </v>
   <v>       0.94495390       0.12381914       0.30036378 </v>
   <v>       0.93367529       0.78766012       0.61090730 </v>
   <v>       0.43382740       0.78954372       0.25616235 </v>
   <v>       0.31067749       0.37208926       0.78820523 </v>
   <v>       0.43965306       0.45593685       0.21187447 </v>
   <v>       0.18663117       0.12137469       0.52138626 </v>
   <v>       0.81020642       0.70780988       0.69956337 </v>
   <v>       0.05866884       0.03787615       0.61086582 </v>
   <v>       0.56588314       0.21295317       0.83301439 </v>
   <v>       0.31158829       0.87159153       0.52138224 </v>
   <v>       0.68632630       0.28836717       0.12428453 </v>
   <v>       0.18930849       0.95610442       0.21206509 </v>
   <v>       0.68352098       0.28796451       0.61093540 </v>
   <v>       0.30873457       0.03801301       0.61095945 </v>
   <v>       0.93529648       0.12269841       0.78833243 </v>
   <v>       0.43689898       0.79523118       0.87569652 </v>
   <v>       0.81543348       0.04036107       0.74386432 </v>
   <v>       0.93498397       0.45796451       0.69956197 </v>
   <v>       0.19154049       0.62490784       0.65493675 </v>
   <v>       0.31026463       0.70777054       0.69957555 </v>
   <v>       0.93436769       0.28782949       0.12437258 </v>
   <v>       0.43727273       0.45579759       0.47860042 </v>
   <v>       0.06222471       0.70570761       0.47854393 </v>
   <v>       0.93706375       0.12018180       0.43457667 </v>
   <v>       0.44413397       0.12473689       0.30051747 </v>
   <v>       0.18758981       0.12017077       0.43437699 </v>
   <v>       0.56349948       0.03882529       0.87577865 </v>
   <v>       0.18705614       0.95718864       0.56546471 </v>
   <v>       0.68418361       0.78879093       0.12470202 </v>
   <v>       0.55901378       0.70272677       0.34501456 </v>
   <v>       0.31631886       0.03693811       0.38907048 </v>
   <v>       0.68252540       0.11444844       0.16723165 </v>
   <v>       0.81512489       0.20499855       0.21163924 </v>
   <v>       0.05973528       0.53846570       0.25606043 </v>
   <v>       0.56223740       0.70581568       0.47861582 </v>
   <v>       0.43449277       0.78789502       0.12443059 </v>
   <v>       0.56932017       0.37446668       0.30048327 </v>
   <v>       0.43356635       0.95268834       0.34507316 </v>
   <v>       0.18507893       0.95809342       0.69966892 </v>
   <v>       0.43185335       0.61395438       0.16666373 </v>
   <v>       0.94018655       0.45585839       0.21204217 </v>
   <v>       0.06169828       0.53108644       0.12432824 </v>
   <v>       0.81168225       0.37174407       0.52135786 </v>
   <v>       0.94435029       0.62432988       0.30021910 </v>
   <v>       0.30928498       0.03896681       0.25567253 </v>
   <v>       0.68365989       0.78788751       0.61087018 </v>
   <v>       0.19169709       0.46256501       0.83317071 </v>
   <v>       0.43200145       0.11304395       0.16667060 </v>
   <v>       0.31143794       0.37139097       0.52135591 </v>
   <v>       0.43419683       0.62128977       0.78851240 </v>
   <v>       0.05918031       0.03857568       0.25617321 </v>
   <v>       0.56208109       0.70697846       0.56548881 </v>
   <v>       0.94003244       0.28959251       0.74398144 </v>
   <v>       0.68355519       0.12190949       0.78831876 </v>
   <v>       0.18946659       0.45523930       0.21172488 </v>
   <v>       0.94120700       0.78755836       0.38907161 </v>
   <v>       0.68632886       0.29733953       0.87574123 </v>
   <v>       0.55578756       0.86504094       0.16666439 </v>
   <v>       0.43530426       0.45788157       0.69955354 </v>
   <v>       0.93396886       0.95166346       0.34493107 </v>
   <v>       0.68650020       0.62137380       0.52127660 </v>
   <v>       0.06643173       0.87474417       0.65488669 </v>
   <v>       0.06016894       0.87282087       0.78822772 </v>
   <v>       0.06642282       0.37481573       0.65490330 </v>
   <v>       0.68712663       0.45555162       0.47863747 </v>
   <v>       0.18415225       0.78925430       0.25598327 </v>
   <v>       0.43697572       0.12066504       0.43437845 </v>
   <v>       0.81345669       0.03139831       0.12433255 </v>
   <v>       0.93650678       0.62147336       0.52140108 </v>
   <v>       0.44163894       0.12482106       0.65481797 </v>
   <v>       0.81288800       0.53025245       0.12431254 </v>
   <v>       0.43358795       0.45246999       0.34510573 </v>
   <v>       0.80894298       0.20252957       0.34507487 </v>
   <v>       0.30895663       0.70252336       0.34494180 </v>
   <v>       0.69132660       0.12490145       0.65491659 </v>
   <v>       0.56924662       0.87475125       0.30049549 </v>
   <v>       0.06557614       0.53982293       0.74398805 </v>
   <v>       0.94039666       0.95525168       0.21163318 </v>
   <v>       0.81646515       0.70521822       0.21172500 </v>
   <v>       0.06904176       0.87496685       0.30045354 </v>
   <v>       0.19430698       0.12454846       0.30043793 </v>
   <v>       0.05868863       0.70228447       0.34493273 </v>
   <v>       0.80878571       0.03791967       0.61088419 </v>
   <v>       0.06248763       0.37083024       0.43440095 </v>
   <v>       0.55896153       0.20272180       0.34497043 </v>
   <v>       0.81936045       0.37491026       0.30038574 </v>
   <v>       0.55901409       0.03889062       0.25589091 </v>
   <v>       0.56635779       0.53764915       0.38909235 </v>
   <v>       0.06251423       0.20588326       0.47864223 </v>
   <v>       0.31136686       0.87139012       0.78804614 </v>
   <v>       0.93519219       0.95825480       0.69956001 </v>
   <v>       0.06891533       0.37494199       0.30044843 </v>
   <v>       0.69126716       0.62492461       0.65493102 </v>
   <v>       0.68687217       0.45700207       0.56540484 </v>
   <v>       0.43951492       0.95697314       0.21233611 </v>
   <v>       0.31226930       0.20570316       0.47865851 </v>
   <v>       0.81344449       0.53854464       0.87557865 </v>
   <v>       0.68790279       0.62037782       0.43445019 </v>
   <v>       0.81047894       0.20783431       0.69959586 </v>
   <v>       0.81235453       0.70571047       0.47864081 </v>
   <v>       0.81148319       0.87096134       0.43421099 </v>
   <v>       0.93716653       0.95534840       0.47870110 </v>
   <v>       0.56211548       0.20587309       0.47863690 </v>
   <v>       0.18701606       0.62026025       0.43443722 </v>
   <v>       0.31534985       0.04071481       0.74387203 </v>
   <v>       0.94150311       0.62508678       0.65485268 </v>
   <v>       0.56635170       0.71265875       0.83306623 </v>
   <v>       0.31947262       0.37415103       0.30040796 </v>
   <v>       0.56526442       0.70465683       0.21176238 </v>
   <v>       0.18726389       0.45575631       0.47866086 </v>
   <v>       0.31460309       0.03965664       0.87554967 </v>
   <v>       0.18494037       0.45801108       0.69954378 </v>
   <v>       0.56160014       0.37137833       0.52135367 </v>
   <v>       0.19124258       0.28772723       0.38904730 </v>
   <v>       0.30872867       0.53812911       0.25565235 </v>
   <v>       0.06666454       0.70579646       0.21170022 </v>
   <v>       0.56199964       0.37047426       0.43445238 </v>
   <v>       0.43658996       0.62168544       0.52132681 </v>
   <v>       0.81688233       0.71426402       0.83304690 </v>
   <v>       0.06084518       0.37301619       0.78810963 </v>
   <v>       0.43670330       0.29606652       0.87596489 </v>
   <v>       0.31118487       0.03150597       0.12438537 </v>
   <v>       0.68771037       0.11989380       0.43439130 </v>
   <v>       0.18375160       0.95265627       0.34508914 </v>
   <v>       0.06643110       0.21340852       0.83363277 </v>
   <v>       0.55885741       0.03812202       0.61095836 </v>
   <v>       0.68895550       0.45617766       0.21208528 </v>
   <v>       0.19047159       0.79027405       0.74398323 </v>
   <v>       0.19411059       0.62437775       0.30052851 </v>
   <v>       0.44139637       0.78756955       0.38911701 </v>
   <v>       0.43390733       0.28950766       0.25616351 </v>
   <v>       0.06476812       0.53845500       0.87554558 </v>
   <v>       0.56593647       0.04049884       0.74389505 </v>
   <v>       0.18762000       0.79483358       0.87563854 </v>
   <v>       0.93722171       0.45565240       0.47865890 </v>
   <v>       0.56558533       0.54057945       0.74384238 </v>
   <v>       0.81137392       0.20672795       0.56545045 </v>
   <v>       0.18544359       0.62070933       0.78808407 </v>
   <v>       0.06714279       0.53820433       0.38908493 </v>
   <v>       0.06044819       0.70794086       0.69956162 </v>
   <v>       0.31598813       0.20526132       0.21206625 </v>
   <v>       0.31501004       0.70449058       0.21238267 </v>
   <v>       0.30526900       0.86541270       0.16616160 </v>
   <v>       0.43704467       0.62050020       0.43440266 </v>
   <v>       0.81756205       0.03869103       0.38924460 </v>
   <v>       0.93534228       0.29599361       0.87527183 </v>
   <v>       0.93761446       0.79346142       0.87518912 </v>
   <v>       0.06561714       0.03739591       0.87532437 </v>
   <v>       0.56308343       0.52950813       0.12485378 </v>
   <v>       0.80498990       0.36646799       0.16649401 </v>
   <v>       0.06213136       0.87096517       0.43442658 </v>
   <v>       0.93641142       0.12136191       0.52139553 </v>
   <v>       0.19211660       0.78765369       0.38906120 </v>
   <v>       0.31553555       0.54012611       0.74411097 </v>
  </varray>
 </structure>
 <calculation>
  <scstep>
   <time name="dav">   54.66   54.67</time>
   <time name="total">   54.82   54.86</time>
   <energy>
    <i name="alphaZ">  16293.21160653 </i>
    <i name="ewald"> 735710.44706187 </i>
    <i name="hartreedc">-926210.70779510 </i>
    <i name="XCdc">  -6511.93381106 </i>
    <i name="pawpsdc"> 162273.92519768 </i>
    <i name="pawaedc">-159623.75899949 </i>
    <i name="eentropy">     -1.07775702 </i>
    <i name="bandstr">  38484.34364236 </i>
    <i name="atom"> 168671.76673737 </i>
    <i name="e_fr_energy">  29086.21588315 </i>
    <i name="e_wo_entrp">  29087.29364016 </i>
    <i name="e_0_energy">  29086.75476165 </i>
   </energy>
  </scstep>
  <scstep>
   <time name="dav">   54.09   54.12</time>
   <time name="total">   54.10   54.13</time>
   <energy>
    <i name="e_fr_energy">   1190.20805658 </i>
    <i name="e_wo_entrp">   1191.70080489 </i>
    <i name="e_0_energy">   1190.95443073 </i>
   </energy>
  </scstep>
  <scstep>
   <time name="dav">   70.91   70.94</time>
   <time name="total">   70.91   70.95</time>
   <energy>
    <i name="e_fr_energy">  -1948.73180063 </i>
    <i name="e_wo_entrp">  -1945.17406230 </i>
    <i name="e_0_energy">  -1946.95293146 </i>
   </energy>
  </scstep>
  <scstep>
   <time name="dav">   89.26   89.30</time>
   <time name="total">   89.27   89.31</time>
   <energy>
    <i name="e_fr_energy">  -2618.83024177 </i>
    <i name="e_wo_entrp">  -2615.30883540 </i>
    <i name="e_0_energy">  -2617.06953858 </i>
   </energy>
  </scstep>
  <scstep>
   <time name="dav">   85.38   85.42</time>
   <time name="total">   87.50   87.54</time>
   <energy>
    <i name="e_fr_energy">  -2738.55132373 </i>
    <i name="e_wo_entrp">  -2734.90432391 </i>
    <i name="e_0_energy">  -2736.72782382 </i>
   </energy>
  </scstep>
  <scstep>
   <time name="diag">    8.27    8.27</time>
   <time name="diis">   37.45   37.45</time>
   <time name="orth">    2.29    2.29</time>
   <time name="total">   50.23   50.27</time>
   <energy>
    <i name="e_fr_energy">  -5450.52355034 </i>
    <i name="e_wo_entrp">  -5447.91196246 </i>
    <i name="e_0_energy">  -5449.21775640 </i>
   </energy>
  </scstep>
  <scstep>
   <time name="diag">    8.31    8.32</time>
   <time name="diis">   22.15   22.15</time>
   <time name="orth">    2.30    2.30</time>
   <time name="total">   34.85   34.88</time>
[...]
       <r>     5.9037     0.0000  2772.0000 </r>
       <r>     5.9466     0.0000  2772.0000 </r>
       <r>     5.9896     0.0000  2772.0000 </r>
       <r>     6.0325     0.0000  2772.0000 </r>
       <r>     6.0755     0.0000  2772.0000 </r>
       <r>     6.1184     0.0000  2772.0000 </r>
       <r>     6.1614     0.0000  2772.0000 </r>
       <r>     6.2044     0.0000  2772.0000 </r>
       <r>     6.2473     0.0000  2772.0000 </r>
       <r>     6.2903     0.0000  2772.0000 </r>
       <r>     6.3332     0.0000  2772.0000 </r>
       <r>     6.3762     0.0000  2772.0000 </r>
       <r>     6.4191     0.0000  2772.0000 </r>
       <r>     6.4621     0.0000  2772.0000 </r>
       <r>     6.5050     0.0000  2772.0000 </r>
       <r>     6.5480     0.0000  2772.0000 </r>
       <r>     6.5909     0.0000  2772.0000 </r>
       <r>     6.6339     0.0000  2772.0000 </r>
       <r>     6.6769     0.0000  2772.0000 </r>
       <r>     6.7198     0.0000  2772.0000 </r>
       <r>     6.7628     0.0000  2772.0000 </r>
       <r>     6.8057     0.0000  2772.0000 </r>
       <r>     6.8487     0.0000  2772.0000 </r>
      </set>
     </set>
    </array>
   </total>
  </dos>
 </calculation>
 <structure name="finalpos" >
  <crystal>
   <varray name="basis" >
    <v>       9.72667804       0.00000000       0.00000000 </v>
    <v>       0.00000000       8.42355028       0.00000000 </v>
    <v>       0.00000000       0.00000000      45.00000000 </v>
   </varray>
   <i name="volume">   3686.99226691 </i>
   <varray name="rec_basis" >
    <v>       0.10281002       0.00000000       0.00000000 </v>
    <v>       0.00000000       0.11871479       0.00000000 </v>
    <v>       0.00000000       0.00000000       0.02222222 </v>
   </varray>
  </crystal>
  <varray name="positions" >
   <v>       0.06210858       0.03177381       0.12427264 </v>
   <v>       0.31641535       0.87495992       0.65439452 </v>
   <v>       0.18508837       0.12176908       0.78845595 </v>
   <v>       0.44105117       0.28747634       0.38920340 </v>
   <v>       0.31722002       0.71237640       0.83279459 </v>
   <v>       0.81799817       0.21330070       0.83337358 </v>
   <v>       0.19054668       0.96239215       0.83332140 </v>
   <v>       0.56184259       0.20687238       0.56586428 </v>
   <v>       0.06515596       0.03982069       0.74378388 </v>
   <v>       0.81185648       0.87178905       0.52182828 </v>
   <v>       0.19112161       0.29089034       0.74386118 </v>
   <v>       0.93391026       0.45233492       0.34494976 </v>
   <v>       0.94120313       0.28701035       0.38916520 </v>
   <v>       0.81296434       0.03983482       0.87531183 </v>
   <v>       0.18381221       0.78810374       0.61062226 </v>
   <v>       0.56630071       0.03766360       0.38924531 </v>
   <v>       0.94169842       0.96320666       0.83352220 </v>
   <v>       0.31456265       0.53955682       0.87576683 </v>
   <v>       0.69073821       0.29022286       0.74374340 </v>
   <v>       0.18278632       0.61433954       0.16665390 </v>
   <v>       0.81244833       0.20568078       0.47883332 </v>
   <v>       0.80882049       0.53830414       0.61065082 </v>
   <v>       0.31206398       0.87056558       0.43461329 </v>
   <v>       0.80945930       0.03886871       0.25607959 </v>
   <v>       0.68382039       0.95182764       0.34495566 </v>
   <v>       0.93165388       0.11513964       0.16721381 </v>
   <v>       0.06158971       0.87171682       0.52190092 </v>
   <v>       0.55895373       0.53847014       0.25602576 </v>
   <v>       0.68472868       0.79513340       0.87538461 </v>
   <v>       0.55591270       0.36575365       0.16666495 </v>
   <v>       0.43979632       0.79022677       0.74400071 </v>
   <v>       0.81172394       0.70669851       0.56582477 </v>
   <v>       0.56031054       0.87173760       0.78839572 </v>
   <v>       0.68684785       0.12140920       0.52182437 </v>
   <v>       0.81642921       0.37475352       0.65462176 </v>
   <v>       0.94164074       0.46267985       0.83343835 </v>
   <v>       0.06013486       0.20790429       0.69912653 </v>
   <v>       0.43546013       0.95811563       0.69908640 </v>
   <v>       0.31645902       0.21184697       0.83327423 </v>
   <v>       0.44103175       0.62496758       0.65447317 </v>
   <v>       0.30875991       0.53799250       0.61065808 </v>
   <v>       0.93712491       0.45666206       0.56587940 </v>
   <v>       0.69037208       0.79111356       0.74384883 </v>
   <v>       0.93388397       0.78762130       0.12457402 </v>
   <v>       0.69160723       0.78761110       0.38925752 </v>
   <v>       0.94003216       0.79025832       0.74396229 </v>
   <v>       0.05914085       0.20310765       0.34508804 </v>
   <v>       0.68396224       0.45251247       0.34501690 </v>
   <v>       0.43521975       0.12158016       0.78872430 </v>
   <v>       0.06479626       0.20532084       0.21168626 </v>
   <v>       0.05538468       0.36589947       0.16676966 </v>
   <v>       0.93404154       0.78895809       0.25590942 </v>
   <v>       0.56074870       0.20755874       0.69915498 </v>
   <v>       0.68521456       0.95783058       0.69923134 </v>
   <v>       0.81029880       0.87220577       0.78832230 </v>
   <v>       0.43649091       0.95697922       0.56583041 </v>
   <v>       0.81066967       0.37307738       0.78829664 </v>
   <v>       0.68433818       0.28964177       0.25603406 </v>
   <v>       0.18723231       0.45708674       0.56586771 </v>
   <v>       0.05637652       0.86587581       0.16679091 </v>
   <v>       0.18408774       0.28785461       0.61069181 </v>
   <v>       0.06246664       0.20698788       0.56571828 </v>
   <v>       0.31073817       0.20775784       0.69912407 </v>
   <v>       0.56344707       0.53962986       0.87563269 </v>
   <v>       0.06207312       0.70644410       0.56592722 </v>
   <v>       0.68478300       0.62170238       0.78830434 </v>
   <v>       0.31577676       0.53773414       0.38917094 </v>
   <v>       0.18680466       0.62136692       0.52196310 </v>
   <v>       0.56262121       0.87049314       0.43465030 </v>
   <v>       0.43668560       0.45726358       0.56585948 </v>
   <v>       0.43961846       0.29140608       0.74395704 </v>
   <v>       0.81914942       0.87496399       0.30042501 </v>
   <v>       0.80887991       0.70251075       0.34513199 </v>
   <v>       0.44145322       0.46238089       0.83306421 </v>
   <v>       0.68719251       0.95565362       0.47875417 </v>
   <v>       0.68537143       0.45796456       0.69917783 </v>
   <v>       0.56149071       0.87192614       0.52190653 </v>
   <v>       0.56602407       0.37463325       0.65452147 </v>
   <v>       0.81629970       0.87471145       0.65459920 </v>
   <v>       0.81213370       0.37165267       0.43440609 </v>
   <v>       0.80910323       0.53806180       0.25616287 </v>
   <v>       0.69210708       0.46130855       0.83305648 </v>
   <v>       0.18656596       0.78812751       0.12419948 </v>
   <v>       0.69164258       0.28743063       0.38921409 </v>
   <v>       0.31619779       0.37457192       0.65445243 </v>
   <v>       0.30900304       0.20309047       0.34502616 </v>
   <v>       0.81552483       0.54007399       0.74376317 </v>
   <v>       0.69213255       0.96156596       0.83321156 </v>
   <v>       0.56578087       0.87454741       0.65455167 </v>
   <v>       0.31167166       0.70721848       0.56584639 </v>
   <v>       0.31270463       0.53255142       0.12425962 </v>
   <v>       0.68909489       0.95597083       0.21191296 </v>
   <v>       0.31133513       0.20643634       0.56590332 </v>
   <v>       0.18730775       0.95592071       0.47881925 </v>
   <v>       0.68717527       0.95688992       0.56582901 </v>
   <v>       0.43353397       0.78812105       0.61061955 </v>
   <v>       0.68239645       0.61274183       0.16670427 </v>
   <v>       0.31892502       0.87435145       0.30038639 </v>
   <v>       0.31218562       0.70566169       0.47882663 </v>
   <v>       0.93409687       0.28772570       0.61064013 </v>
   <v>       0.44436891       0.62436807       0.30049081 </v>
   <v>       0.80644242       0.86454717       0.16722767 </v>
   <v>       0.56608238       0.20383470       0.21198623 </v>
   <v>       0.93308427       0.61317869       0.16681639 </v>
   <v>       0.43729335       0.95576806       0.47879325 </v>
   <v>       0.56006373       0.37223356       0.78847631 </v>
   <v>       0.06133102       0.37152038       0.52186488 </v>
   <v>       0.30726837       0.36419801       0.16667358 </v>
   <v>       0.69460002       0.12464977       0.30041584 </v>
   <v>       0.44259685       0.96158799       0.83312855 </v>
   <v>       0.18484952       0.28703514       0.12441277 </v>
   <v>       0.18404865       0.28910298       0.25611968 </v>
   <v>       0.31183719       0.37039829       0.43460177 </v>
   <v>       0.56223907       0.03310428       0.12445074 </v>
   <v>       0.43346129       0.28794011       0.61063520 </v>
   <v>       0.18387534       0.45239605       0.34513776 </v>
   <v>       0.43472049       0.28682550       0.12445683 </v>
   <v>       0.68391923       0.78887664       0.25609709 </v>
   <v>       0.43646760       0.12123911       0.52184185 </v>
   <v>       0.18858676       0.29408660       0.87567154 </v>
   <v>       0.19161415       0.12490548       0.65444826 </v>
   <v>       0.94163603       0.12474209       0.65455605 </v>
   <v>       0.81634303       0.53756546       0.38929016 </v>
   <v>       0.06639864       0.03810580       0.38921779 </v>
   <v>       0.18315495       0.11242341       0.16644535 </v>
   <v>       0.05922508       0.53814685       0.61066371 </v>
   <v>       0.93429468       0.28940295       0.25599049 </v>
   <v>       0.55831298       0.53812649       0.61060646 </v>
   <v>       0.93731877       0.95743750       0.56577999 </v>
   <v>       0.69389614       0.62456157       0.30046325 </v>
   <v>       0.93706015       0.62020902       0.43462105 </v>
   <v>       0.93440493       0.62283294       0.78817438 </v>
   <v>       0.56088894       0.70784526       0.69912378 </v>
   <v>       0.06579626       0.71515055       0.83356700 </v>
   <v>       0.94463555       0.12402554       0.30038536 </v>
   <v>       0.93419527       0.78799976       0.61063246 </v>
   <v>       0.43364489       0.78944996       0.25607224 </v>
   <v>       0.31096399       0.37333881       0.78825785 </v>
   <v>       0.43986309       0.45603503       0.21187082 </v>
   <v>       0.18622967       0.12143054       0.52188647 </v>
   <v>       0.81022557       0.70787378       0.69919696 </v>
   <v>       0.05918814       0.03761227       0.61059551 </v>
   <v>       0.56604150       0.21280429       0.83307368 </v>
   <v>       0.31170005       0.87162594       0.52191225 </v>
   <v>       0.68584794       0.28752434       0.12416798 </v>
   <v>       0.18925847       0.95571883       0.21203523 </v>
   <v>       0.68331544       0.28788191       0.61067217 </v>
   <v>       0.30879356       0.03793930       0.61071906 </v>
   <v>       0.93537772       0.12264081       0.78850168 </v>
   <v>       0.43678409       0.79473327       0.87567894 </v>
   <v>       0.81536336       0.04023790       0.74366621 </v>
   <v>       0.93481215       0.45796794       0.69913650 </v>
   <v>       0.19141460       0.62486131       0.65444513 </v>
   <v>       0.31052575       0.70748464       0.69918221 </v>
   <v>       0.93426621       0.28729171       0.12426295 </v>
   <v>       0.43720288       0.45567871       0.47876764 </v>
   <v>       0.06214156       0.70540524       0.47869248 </v>
   <v>       0.93699846       0.12043845       0.43469570 </v>
   <v>       0.44392398       0.12499723       0.30048917 </v>
   <v>       0.18739686       0.12046619       0.43453538 </v>
   <v>       0.56393229       0.03918763       0.87574305 </v>
   <v>       0.18708823       0.95708481       0.56589925 </v>
   <v>       0.68355323       0.78820172       0.12461382 </v>
   <v>       0.55917280       0.70266868       0.34502656 </v>
   <v>       0.31602029       0.03709586       0.38918524 </v>
   <v>       0.68223899       0.11471635       0.16705862 </v>
   <v>       0.81507574       0.20526711       0.21167392 </v>
   <v>       0.06008336       0.53837166       0.25596179 </v>
   <v>       0.56229827       0.70583738       0.47875138 </v>
   <v>       0.43450525       0.78766865       0.12437015 </v>
   <v>       0.56913773       0.37426800       0.30044587 </v>
   <v>       0.43354500       0.95287266       0.34512469 </v>
   <v>       0.18509210       0.95826306       0.69921557 </v>
   <v>       0.43201246       0.61431426       0.16657028 </v>
   <v>       0.94004099       0.45561337       0.21203386 </v>
   <v>       0.06175274       0.53144809       0.12426432 </v>
   <v>       0.81207459       0.37144406       0.52183156 </v>
   <v>       0.94412105       0.62412410       0.30025200 </v>
   <v>       0.30923621       0.03881389       0.25563833 </v>
   <v>       0.68356877       0.78812902       0.61059429 </v>
   <v>       0.19140192       0.46267120       0.83310107 </v>
   <v>       0.43237435       0.11298480       0.16647238 </v>
   <v>       0.31134359       0.37153636       0.52186123 </v>
   <v>       0.43368786       0.62080730       0.78855631 </v>
   <v>       0.05968163       0.03876780       0.25605310 </v>
   <v>       0.56161732       0.70700287       0.56586606 </v>
   <v>       0.93961918       0.28946865       0.74381510 </v>
   <v>       0.68383917       0.12206983       0.78839274 </v>
   <v>       0.18912206       0.45530122       0.21176105 </v>
   <v>       0.94095156       0.78733936       0.38924578 </v>
   <v>       0.68618941       0.29653307       0.87570991 </v>
   <v>       0.55550300       0.86515942       0.16652849 </v>
   <v>       0.43534931       0.45798409       0.69917883 </v>
   <v>       0.93420417       0.95201482       0.34494557 </v>
   <v>       0.68650368       0.62152947       0.52177577 </v>
   <v>       0.06650054       0.87467164       0.65444839 </v>
   <v>       0.06010579       0.87261048       0.78843308 </v>
   <v>       0.06661453       0.37480511       0.65452317 </v>
   <v>       0.68728158       0.45551471       0.47872253 </v>
   <v>       0.18447124       0.78929979       0.25589942 </v>
   <v>       0.43700094       0.12051317       0.43458510 </v>
   <v>       0.81266035       0.03247708       0.12428050 </v>
   <v>       0.93668762       0.62158728       0.52189492 </v>
   <v>       0.44113811       0.12469983       0.65440993 </v>
   <v>       0.81244673       0.53064818       0.12417242 </v>
   <v>       0.43362692       0.45245898       0.34506156 </v>
   <v>       0.80937785       0.20263722       0.34505318 </v>
   <v>       0.30903662       0.70254621       0.34499459 </v>
   <v>       0.69096491       0.12471543       0.65460284 </v>
   <v>       0.56909170       0.87465877       0.30050887 </v>
   <v>       0.06581226       0.53994514       0.74390113 </v>
   <v>       0.94059999       0.95553179       0.21164221 </v>
   <v>       0.81632121       0.70464628       0.21170882 </v>
   <v>       0.06884063       0.87485995       0.30044114 </v>
   <v>       0.19408209       0.12479513       0.30042769 </v>
   <v>       0.05901590       0.70222036       0.34496550 </v>
   <v>       0.80899485       0.03760031       0.61062110 </v>
   <v>       0.06224791       0.37074717       0.43454384 </v>
   <v>       0.55898706       0.20278955       0.34494204 </v>
   <v>       0.81912451       0.37462921       0.30040434 </v>
   <v>       0.55881112       0.03929980       0.25583236 </v>
   <v>       0.56660491       0.53785953       0.38920900 </v>
   <v>       0.06232643       0.20587771       0.47882962 </v>
   <v>       0.31146244       0.87082242       0.78821628 </v>
   <v>       0.93505241       0.95810663       0.69919464 </v>
   <v>       0.06874832       0.37466825       0.30045555 </v>
   <v>       0.69100674       0.62501768       0.65463886 </v>
   <v>       0.68665778       0.45708023       0.56576031 </v>
   <v>       0.43918536       0.95649394       0.21227383 </v>
   <v>       0.31225047       0.20553124       0.47879984 </v>
   <v>       0.81320843       0.53916941       0.87549343 </v>
   <v>       0.68831032       0.62044853       0.43459932 </v>
   <v>       0.81049374       0.20775384       0.69923396 </v>
   <v>       0.81237877       0.70551019       0.47872124 </v>
   <v>       0.81148805       0.87097099       0.43437868 </v>
   <v>       0.93710120       0.95562172       0.47888814 </v>
   <v>       0.56208884       0.20557699       0.47876805 </v>
   <v>       0.18674761       0.62015669       0.43458865 </v>
   <v>       0.31519340       0.04080740       0.74371550 </v>
   <v>       0.94163167       0.62512590       0.65452189 </v>
   <v>       0.56628630       0.71245091       0.83304155 </v>
   <v>       0.31922900       0.37399643       0.30038327 </v>
   <v>       0.56499754       0.70450637       0.21172764 </v>
   <v>       0.18708619       0.45554320       0.47880192 </v>
   <v>       0.31474341       0.03963545       0.87549393 </v>
   <v>       0.18522126       0.45811773       0.69917354 </v>
   <v>       0.56144188       0.37142574       0.52184257 </v>
   <v>       0.19092278       0.28769307       0.38915951 </v>
   <v>       0.30881200       0.53798531       0.25561878 </v>
   <v>       0.06672459       0.70573191       0.21171624 </v>
   <v>       0.56233579       0.37046854       0.43466898 </v>
   <v>       0.43644208       0.62185654       0.52187578 </v>
   <v>       0.81707220       0.71432837       0.83302182 </v>
   <v>       0.06116527       0.37327479       0.78828926 </v>
   <v>       0.43704235       0.29588185       0.87594620 </v>
   <v>       0.31165575       0.03177890       0.12429509 </v>
   <v>       0.68795655       0.11981899       0.43456631 </v>
   <v>       0.18401020       0.95285211       0.34513687 </v>
   <v>       0.06599087       0.21271743       0.83356261 </v>
   <v>       0.55851367       0.03802048       0.61069495 </v>
   <v>       0.68887422       0.45587044       0.21206753 </v>
   <v>       0.19027441       0.78978105       0.74392416 </v>
   <v>       0.19390561       0.62415506       0.30048693 </v>
   <v>       0.44122445       0.78774323       0.38922831 </v>
   <v>       0.43407608       0.28962443       0.25617553 </v>
   <v>       0.06520254       0.53928886       0.87546719 </v>
   <v>       0.56609252       0.04043587       0.74371216 </v>
   <v>       0.18798947       0.79434561       0.87557819 </v>
   <v>       0.93731091       0.45559003       0.47873435 </v>
   <v>       0.56509732       0.54072199       0.74376425 </v>
   <v>       0.81180453       0.20647139       0.56570138 </v>
   <v>       0.18636857       0.62047396       0.78816740 </v>
   <v>       0.06688546       0.53792920       0.38923345 </v>
   <v>       0.06009661       0.70802890       0.69911958 </v>
   <v>       0.31574153       0.20498679       0.21209686 </v>
   <v>       0.31486944       0.70493297       0.21232814 </v>
   <v>       0.30553918       0.86543484       0.16615958 </v>
   <v>       0.43713142       0.62059538       0.43461544 </v>
   <v>       0.81744669       0.03859566       0.38947988 </v>
   <v>       0.93518041       0.29513527       0.87516596 </v>
   <v>       0.93761669       0.79371461       0.87504436 </v>
   <v>       0.06529211       0.03749535       0.87512243 </v>
   <v>       0.56288806       0.52995827       0.12471113 </v>
   <v>       0.80507271       0.36632001       0.16648097 </v>
   <v>       0.06194261       0.87099789       0.43460131 </v>
   <v>       0.93679276       0.12144846       0.52203179 </v>
   <v>       0.19201842       0.78757848       0.38919772 </v>
   <v>       0.31536118       0.54008557       0.74418593 </v>
  </varray>
 </structure>
</modeling>
