unknown system                          
           1
     9.726678    0.000000    0.000000
     0.000000    8.423550    0.000000
     0.000000    0.000000   45.000000
   Fe   Mn
 274  14
Direct configuration=     1
   0.06182789  0.03095388  0.12432391
   0.31663741  0.87487037  0.65486868
   0.18496558  0.12144766  0.78829943
   0.44155128  0.28760764  0.38910690
   0.31766932  0.71250839  0.83279164
   0.81779627  0.21387285  0.83334877
   0.19132613  0.96263851  0.83328853
   0.56226657  0.20701718  0.56549008
   0.06557370  0.03986024  0.74394436
   0.81150459  0.87135049  0.52132739
   0.19102782  0.29044625  0.74392266
   0.93369280  0.45226847  0.34488770
   0.94114922  0.28675232  0.38898469
   0.81310024  0.03955054  0.87542258
   0.18358817  0.78793875  0.61086332
   0.56626777  0.03783596  0.38908860
   0.94168485  0.96306646  0.83356004
   0.31449862  0.53869212  0.87579356
   0.69053252  0.29032740  0.74390989
   0.18249697  0.61400639  0.16674221
   0.81222495  0.20581373  0.47867042
   0.80865101  0.53799566  0.61090587
   0.31206420  0.87034179  0.43445782
   0.80922968  0.03840249  0.25613778
   0.68358684  0.95168936  0.34490051
   0.93123896  0.11489594  0.16728421
   0.06164679  0.87125733  0.52136924
   0.55904016  0.53874807  0.25610824
   0.68473797  0.79515427  0.87543119
   0.55607184  0.36584077  0.16673580
   0.43982743  0.79073796  0.74405731
   0.81153746  0.70667974  0.56546445
   0.56017728  0.87216445  0.78828189
   0.68653311  0.12141242  0.52134843
   0.81646405  0.37478807  0.65489891
   0.94159015  0.46273807  0.83352306
   0.06030941  0.20800963  0.69955242
   0.43503348  0.95796590  0.69955348
   0.31686868  0.21187072  0.83332083
   0.44144327  0.62493157  0.65490121
   0.30873170  0.53781765  0.61089782
   0.93672387  0.45665405  0.56557859
   0.69006046  0.79091486  0.74402777
   0.93371313  0.78849251  0.12463775
   0.69150775  0.78766726  0.38907870
   0.94050754  0.79007602  0.74412820
   0.05875371  0.20279737  0.34506095
   0.68360316  0.45226194  0.34503584
   0.43521003  0.12116451  0.78864757
   0.06512579  0.20533314  0.21165219
   0.05501294  0.36603197  0.16678780
   0.93358489  0.78903741  0.25596652
   0.56038533  0.20775975  0.69958361
   0.68496672  0.95797649  0.69960043
   0.81008018  0.87220655  0.78820256
   0.43692982  0.95716131  0.56537975
   0.81057072  0.37294107  0.78817879
   0.68437030  0.28971904  0.25610867
   0.18723916  0.45711842  0.56545543
   0.05569446  0.86570539  0.16678279
   0.18371823  0.28792930  0.61092499
   0.06245847  0.20725262  0.56539440
   0.31049739  0.20794829  0.69961257
   0.56356261  0.53912690  0.87566590
   0.06188143  0.70637585  0.56552553
   0.68494821  0.62147329  0.78818260
   0.31624885  0.53778204  0.38907691
   0.18673507  0.62131040  0.52143675
   0.56238741  0.87034472  0.43447738
   0.43698508  0.45713720  0.56547411
   0.43992628  0.29093862  0.74402111
   0.81925757  0.87497891  0.30040491
   0.80872335  0.70275665  0.34509409
   0.44166795  0.46230572  0.83313893
   0.68724128  0.95570042  0.47865078
   0.68499848  0.45797381  0.69957786
   0.56180011  0.87189518  0.52139967
   0.56651854  0.37476606  0.65486476
   0.81633802  0.87483810  0.65492272
   0.81177534  0.37153712  0.43424569
   0.80894749  0.53836389  0.25625600
   0.69195160  0.46139897  0.83305280
   0.18610611  0.78863812  0.12423981
   0.69129262  0.28740975  0.38904748
   0.31652511  0.37475142  0.65490825
   0.30913919  0.20288243  0.34497113
   0.81559415  0.53998179  0.74394879
   0.69159178  0.96168394  0.83312174
   0.56622829  0.87448189  0.65491324
   0.31168651  0.70709897  0.56543503
   0.31260583  0.53205978  0.12432682
   0.68924239  0.95577432  0.21194700
   0.31145001  0.20658940  0.56549974
   0.18720926  0.95584962  0.47866354
   0.68738112  0.95709753  0.56547223
   0.43373508  0.78793907  0.61089029
   0.68254143  0.61234968  0.16677481
   0.31925122  0.87440931  0.30042436
   0.31218707  0.70572614  0.47864624
   0.93364135  0.28783608  0.61088085
   0.44460687  0.62476300  0.30050804
   0.80655855  0.86446788  0.16727277
   0.56585206  0.20337587  0.21199124
   0.93292319  0.61311995  0.16684173
   0.43727397  0.95566805  0.47863439
   0.56035853  0.37168287  0.78835525
   0.06134131  0.37189851  0.52137827
   0.30707334  0.36376241  0.16682880
   0.69467539  0.12439074  0.30043109
   0.44272558  0.96190375  0.83308739
   0.18468842  0.28761663  0.12446683
   0.18386154  0.28907359  0.25613408
   0.31225744  0.37051067  0.43443167
   0.56261485  0.03259301  0.12454864
   0.43363272  0.28796637  0.61086310
   0.18370705  0.45268804  0.34509126
   0.43441718  0.28765048  0.12453032
   0.68388125  0.78906594  0.25615595
   0.43656675  0.12134940  0.52134945
   0.18844263  0.29425001  0.87573505
   0.19155217  0.12497236  0.65490323
   0.94149764  0.12489947  0.65489257
   0.81627451  0.53762376  0.38910995
   0.06643544  0.03780501  0.38908661
   0.18317909  0.11245639  0.16650460
   0.05864404  0.53776937  0.61090412
   0.93402952  0.28953641  0.25607325
   0.55862925  0.53794716  0.61087799
   0.93691560  0.95730547  0.56546085
   0.69400232  0.62493658  0.30041653
   0.93729163  0.62042410  0.43447575
   0.93409766  0.62262273  0.78800429
   0.56035815  0.70765805  0.69957267
   0.06592635  0.71510404  0.83362253
   0.94495390  0.12381914  0.30036378
   0.93367529  0.78766012  0.61090730
   0.43382740  0.78954372  0.25616235
   0.31067749  0.37208926  0.78820523
   0.43965306  0.45593685  0.21187447
   0.18663117  0.12137469  0.52138626
   0.81020642  0.70780988  0.69956337
   0.05866884  0.03787615  0.61086582
   0.56588314  0.21295317  0.83301439
   0.31158829  0.87159153  0.52138224
   0.68632630  0.28836717  0.12428453
   0.18930849  0.95610442  0.21206509
   0.68352098  0.28796451  0.61093540
   0.30873457  0.03801301  0.61095945
   0.93529648  0.12269841  0.78833243
   0.43689898  0.79523118  0.87569652
   0.81543348  0.04036107  0.74386432
   0.93498397  0.45796451  0.69956197
   0.19154049  0.62490784  0.65493675
   0.31026463  0.70777054  0.69957555
   0.93436769  0.28782949  0.12437258
   0.43727273  0.45579759  0.47860042
   0.06222471  0.70570761  0.47854393
   0.93706375  0.12018180  0.43457667
   0.44413397  0.12473689  0.30051747
   0.18758981  0.12017077  0.43437699
   0.56349948  0.03882529  0.87577865
   0.18705614  0.95718864  0.56546471
   0.68418361  0.78879093  0.12470202
   0.55901378  0.70272677  0.34501456
   0.31631886  0.03693811  0.38907048
   0.68252540  0.11444844  0.16723165
   0.81512489  0.20499855  0.21163924
   0.05973528  0.53846570  0.25606043
   0.56223740  0.70581568  0.47861582
   0.43449277  0.78789502  0.12443059
   0.56932017  0.37446668  0.30048327
   0.43356635  0.95268834  0.34507316
   0.18507893  0.95809342  0.69966892
   0.43185335  0.61395438  0.16666373
   0.94018655  0.45585839  0.21204217
   0.06169828  0.53108644  0.12432824
   0.81168225  0.37174407  0.52135786
   0.94435029  0.62432988  0.30021910
   0.30928498  0.03896681  0.25567253
   0.68365989  0.78788751  0.61087018
   0.19169709  0.46256501  0.83317071
   0.43200145  0.11304395  0.16667060
   0.31143794  0.37139097  0.52135591
   0.43419683  0.62128977  0.78851240
   0.05918031  0.03857568  0.25617321
   0.56208109  0.70697846  0.56548881
   0.94003244  0.28959251  0.74398144
   0.68355519  0.12190949  0.78831876
   0.18946659  0.45523930  0.21172488
   0.94120700  0.78755836  0.38907161
   0.68632886  0.29733953  0.87574123
   0.55578756  0.86504094  0.16666439
   0.43530426  0.45788157  0.69955354
   0.93396886  0.95166346  0.34493107
   0.68650020  0.62137380  0.52127660
   0.06643173  0.87474417  0.65488669
   0.06016894  0.87282087  0.78822772
   0.06642282  0.37481573  0.65490330
   0.68712663  0.45555162  0.47863747
   0.18415225  0.78925430  0.25598327
   0.43697572  0.12066504  0.43437845
   0.81345669  0.03139831  0.12433255
   0.93650678  0.62147336  0.52140108
   0.44163894  0.12482106  0.65481797
   0.81288800  0.53025245  0.12431254
   0.43358795  0.45246999  0.34510573
   0.80894298  0.20252957  0.34507487
   0.30895663  0.70252336  0.34494180
   0.69132660  0.12490145  0.65491659
   0.56924662  0.87475125  0.30049549
   0.06557614  0.53982293  0.74398805
   0.94039666  0.95525168  0.21163318
   0.81646515  0.70521822  0.21172500
   0.06904176  0.87496685  0.30045354
   0.19430698  0.12454846  0.30043793
   0.05868863  0.70228447  0.34493273
   0.80878571  0.03791967  0.61088419
   0.06248763  0.37083024  0.43440095
   0.55896153  0.20272180  0.34497043
   0.81936045  0.37491026  0.30038574
   0.55901409  0.03889062  0.25589091
   0.56635779  0.53764915  0.38909235
   0.06251423  0.20588326  0.47864223
   0.31136686  0.87139012  0.78804614
   0.93519219  0.95825480  0.69956001
   0.06891533  0.37494199  0.30044843
   0.69126716  0.62492461  0.65493102
   0.68687217  0.45700207  0.56540484
   0.43951492  0.95697314  0.21233611
   0.31226930  0.20570316  0.47865851
   0.81344449  0.53854464  0.87557865
   0.68790279  0.62037782  0.43445019
   0.81047894  0.20783431  0.69959586
   0.81235453  0.70571047  0.47864081
   0.81148319  0.87096134  0.43421099
   0.93716653  0.95534840  0.47870110
   0.56211548  0.20587309  0.47863690
   0.18701606  0.62026025  0.43443722
   0.31534985  0.04071481  0.74387203
   0.94150311  0.62508678  0.65485268
   0.56635170  0.71265875  0.83306623
   0.31947262  0.37415103  0.30040796
   0.56526442  0.70465683  0.21176238
   0.18726389  0.45575631  0.47866086
   0.31460309  0.03965664  0.87554967
   0.18494037  0.45801108  0.69954378
   0.56160014  0.37137833  0.52135367
   0.19124258  0.28772723  0.38904730
   0.30872867  0.53812911  0.25565235
   0.06666454  0.70579646  0.21170022
   0.56199964  0.37047426  0.43445238
   0.43658996  0.62168544  0.52132681
   0.81688233  0.71426402  0.83304690
   0.06084518  0.37301619  0.78810963
   0.43670330  0.29606652  0.87596489
   0.31118487  0.03150597  0.12438537
   0.68771037  0.11989380  0.43439130
   0.18375160  0.95265627  0.34508914
   0.06643110  0.21340852  0.83363277
   0.55885741  0.03812202  0.61095836
   0.68895550  0.45617766  0.21208528
   0.19047159  0.79027405  0.74398323
   0.19411059  0.62437775  0.30052851
   0.44139637  0.78756955  0.38911701
   0.43390733  0.28950766  0.25616351
   0.06476812  0.53845500  0.87554558
   0.56593647  0.04049884  0.74389505
   0.18762000  0.79483358  0.87563854
   0.93722171  0.45565240  0.47865890
   0.56558533  0.54057945  0.74384238
   0.81137392  0.20672795  0.56545045
   0.18544359  0.62070933  0.78808407
   0.06714279  0.53820433  0.38908493
   0.06044819  0.70794086  0.69956162
   0.31598813  0.20526132  0.21206625
   0.31501004  0.70449058  0.21238267
   0.30526900  0.86541270  0.16616160
   0.43704467  0.62050020  0.43440266
   0.81756205  0.03869103  0.38924460
   0.93534228  0.29599361  0.87527183
   0.93761446  0.79346142  0.87518912
   0.06561714  0.03739591  0.87532437
   0.56308343  0.52950813  0.12485378
   0.80498990  0.36646799  0.16649401
   0.06213136  0.87096517  0.43442658
   0.93641142  0.12136191  0.52139553
   0.19211660  0.78765369  0.38906120
   0.31553555  0.54012611  0.74411097
Direct configuration=     2
   0.06252046  0.03297697  0.12419741
   0.31608950  0.87509134  0.65369873
   0.18526856  0.12224074  0.78868564
   0.44031731  0.28728368  0.38934500
   0.31656071  0.71218273  0.83279892
   0.81829444  0.21246111  0.83340998
   0.18940291  0.96203064  0.83336964
   0.56122043  0.20665992  0.56641338
   0.06454297  0.03976264  0.74354841
   0.81237285  0.87243260  0.52256328
   0.19125924  0.29154201  0.74377096
   0.93422936  0.45243242  0.34504083
   0.94128222  0.28738899  0.38943007
   0.81276491  0.04025196  0.87514931
   0.18414096  0.78834585  0.61026851
   0.56634905  0.03741068  0.38947529
   0.94171833  0.96341240  0.83346668
   0.31465660  0.54082568  0.87572760
   0.69104005  0.29006947  0.74349910
   0.18321092  0.61482841  0.16652432
   0.81277611  0.20548568  0.47907234
   0.80906919  0.53875680  0.61027654
   0.31206366  0.87089396  0.43484143
   0.80979625  0.03955285  0.25599420
   0.68416309  0.95203055  0.34503658
   0.93226273  0.11549724  0.16711050
   0.06150593  0.87239108  0.52268110
   0.55882689  0.53806231  0.25590472
   0.68471505  0.79510278  0.87531626
   0.55567917  0.36562581  0.16656099
   0.43975066  0.78947665  0.74391766
   0.81199758  0.70672605  0.56635351
   0.56050608  0.87111125  0.78856274
   0.68730970  0.12140447  0.52252276
   0.81637808  0.37470283  0.65421507
   0.94171497  0.46259442  0.83331406
   0.05987872  0.20774970  0.69850159
   0.43608621  0.95833536  0.69840100
   0.31585788  0.21181213  0.83320585
   0.44042790  0.62502042  0.65384506
   0.30880130  0.53824907  0.61030628
   0.93771340  0.45667381  0.56632081
   0.69082937  0.79140515  0.74358627
   0.93413465  0.78634290  0.12448051
   0.69175321  0.78752867  0.38951994
   0.93933460  0.79052582  0.74371884
   0.05970894  0.20356294  0.34512780
   0.68448915  0.45288011  0.34498910
   0.43523401  0.12219008  0.78883689
   0.06431269  0.20530278  0.21173625
   0.05593017  0.36570505  0.16674303
   0.93471163  0.78884170  0.25582562
   0.56128192  0.20726377  0.69852600
   0.68557824  0.95761647  0.69868973
   0.81061961  0.87220463  0.78849799
   0.43584686  0.95671201  0.56649171
   0.81081487  0.37327740  0.78846956
   0.68429104  0.28952840  0.25592457
   0.18722226  0.45704025  0.56647268
   0.05737738  0.86612589  0.16680282
   0.18462996  0.28774501  0.61034965
   0.06247864  0.20659940  0.56619355
   0.31109149  0.20747837  0.69840725
   0.56327753  0.54036791  0.87558397
   0.06235441  0.70654424  0.56651666
   0.68454058  0.62203856  0.78848298
   0.31508403  0.53766385  0.38930891
   0.18690677  0.62144986  0.52273547
   0.56296429  0.87071092  0.43490406
   0.43624615  0.45744902  0.56642496
   0.43916677  0.29209204  0.74386302
   0.81899071  0.87494209  0.30045450
   0.80910964  0.70214992  0.34518761
   0.44113813  0.46249120  0.83295457
   0.68712095  0.95558494  0.47890589
   0.68591869  0.45795099  0.69859082
   0.56103670  0.87197158  0.52265029
   0.56529849  0.37443836  0.65401773
   0.81624347  0.87452561  0.65412445
   0.81265957  0.37182222  0.43464147
   0.80933177  0.53761850  0.25602621
   0.69233524  0.46117587  0.83306188
   0.18724074  0.78737824  0.12414029
   0.69215610  0.28746127  0.38945856
   0.31571748  0.37430853  0.65378357
   0.30880326  0.20339575  0.34510692
   0.81542311  0.54020930  0.74349079
   0.69292608  0.96139283  0.83334337
   0.56512432  0.87464356  0.65402109
   0.31164987  0.70739386  0.56645002
   0.31284960  0.53327285  0.12416101
   0.68887845  0.95625918  0.21186300
   0.31116655  0.20621173  0.56649553
   0.18745228  0.95602503  0.47904772
   0.68687321  0.95658528  0.56635255
   0.43323886  0.78838809  0.61022228
   0.68218371  0.61331727  0.16660075
   0.31844634  0.87426654  0.30033066
   0.31218349  0.70556711  0.47909133
   0.93476531  0.28756374  0.61028689
   0.44401973  0.62378855  0.30046552
   0.80627202  0.86466353  0.16716149
   0.56642035  0.20450798  0.21197889
   0.93332064  0.61326489  0.16677921
   0.43732179  0.95591480  0.47902636
   0.55963115  0.37304165  0.78865394
   0.06131593  0.37096552  0.52257894
   0.30755455  0.36483719  0.16644582
   0.69448943  0.12502988  0.30039346
   0.44240795  0.96112464  0.83318894
   0.18508592  0.28618185  0.12433344
   0.18432321  0.28914609  0.25609856
   0.31122051  0.37023340  0.43485139
   0.56168765  0.03385451  0.12430710
   0.43320974  0.28790157  0.61030078
   0.18412229  0.45196760  0.34520599
   0.43516556  0.28561492  0.12434899
   0.68397497  0.78859887  0.25601073
   0.43632211  0.12107726  0.52256439
   0.18879826  0.29384682  0.87557836
   0.19170510  0.12480734  0.65378063
   0.94183909  0.12451114  0.65406224
   0.81644358  0.53747990  0.38955460
   0.06634464  0.03854718  0.38941028
   0.18311953  0.11237501  0.16635841
   0.06007769  0.53870076  0.61031092
   0.93468378  0.28920711  0.25586905
   0.55784888  0.53838963  0.61020802
   0.93791038  0.95763125  0.56624829
   0.69374034  0.62401128  0.30053181
   0.93672046  0.61989343  0.43483425
   0.93485582  0.62314139  0.78842397
   0.56166783  0.70811997  0.69846509
   0.06560538  0.71521880  0.83348551
   0.94416842  0.12432842  0.30041701
   0.93495828  0.78849815  0.61022916
   0.43337707  0.78931237  0.25594001
   0.31138439  0.37517239  0.78833507
   0.44017129  0.45617910  0.21186545
   0.18564050  0.12151248  0.52262048
   0.81025366  0.70796756  0.69865930
   0.05995015  0.03722506  0.61019886
   0.56627389  0.21258581  0.83316068
   0.31186406  0.87167643  0.52268999
   0.68514600  0.28628758  0.12399695
   0.18918508  0.95515302  0.21199142
   0.68301383  0.28776069  0.61028590
   0.30888013  0.03783115  0.61036632
   0.93549694  0.12255629  0.78875003
   0.43661550  0.79400263  0.87565315
   0.81526047  0.04005718  0.74337551
   0.93456003  0.45797298  0.69851215
   0.19122989  0.62479302  0.65372371
   0.31090892  0.70706510  0.69860503
   0.93411731  0.28650258  0.12410207
   0.43710040  0.45550427  0.47901302
   0.06201954  0.70496153  0.47891045
   0.93690265  0.12081504  0.43487037
   0.44361583  0.12537924  0.30044764
   0.18711373  0.12089968  0.43476780
   0.56456739  0.03971933  0.87569082
   0.18713532  0.95693245  0.56653689
   0.68262821  0.78733712  0.12448438
   0.55940615  0.70258346  0.34504417
   0.31558217  0.03732735  0.38935364
   0.68181870  0.11510948  0.16680471
   0.81500361  0.20566121  0.21172480
   0.06059413  0.53823368  0.25581706
   0.56238758  0.70586921  0.47895029
   0.43452356  0.78733648  0.12428145
   0.56887001  0.37397645  0.30039099
   0.43351366  0.95314314  0.34520029
   0.18511142  0.95851199  0.69855031
   0.43224593  0.61484234  0.16643317
   0.93982740  0.45525381  0.21202166
   0.06183265  0.53197878  0.12417052
   0.81265031  0.37100383  0.52252667
   0.94378467  0.62382214  0.30030027
   0.30916466  0.03858949  0.25558815
   0.68343505  0.78848342  0.61018943
   0.19096879  0.46282701  0.83299888
   0.43292153  0.11289801  0.16618152
   0.31120515  0.37174971  0.52260272
   0.43294099  0.62009932  0.78862073
   0.06041727  0.03904973  0.25587685
   0.56093679  0.70703868  0.56641962
   0.93901276  0.28928691  0.74357102
   0.68425587  0.12230512  0.78850131
   0.18861651  0.45539209  0.21181413
   0.94057674  0.78701800  0.38950135
   0.68598478  0.29534967  0.87566394
   0.55508543  0.86533327  0.16632907
   0.43541542  0.45813453  0.69862898
   0.93454946  0.95253041  0.34496686
   0.68650878  0.62175790  0.52250826
   0.06660151  0.87456521  0.65380523
   0.06001312  0.87230176  0.78873443
   0.06689584  0.37478952  0.65396537
   0.68750895  0.45546054  0.47884735
   0.18493932  0.78936653  0.25577637
   0.43703795  0.12029032  0.43488834
   0.81149182  0.03406006  0.12420414
   0.93695298  0.62175444  0.52261959
   0.44040318  0.12452194  0.65381119
   0.81179920  0.53122887  0.12396682
   0.43368410  0.45244281  0.34499675
   0.81001597  0.20279519  0.34502134
   0.30915399  0.70257973  0.34507205
   0.69043415  0.12444247  0.65414244
   0.56886437  0.87452308  0.30052851
   0.06615875  0.54012448  0.74377357
   0.94089836  0.95594282  0.21165545
   0.81610998  0.70380701  0.21168508
   0.06854550  0.87470310  0.30042293
   0.19375209  0.12515710  0.30041266
   0.05949613  0.70212629  0.34501359
   0.80930173  0.03713169  0.61023505
   0.06189614  0.37062526  0.43475352
   0.55902453  0.20288896  0.34490038
   0.81877829  0.37421680  0.30043163
   0.55851329  0.03990021  0.25574644
   0.56696754  0.53816823  0.38938017
   0.06205084  0.20586956  0.47910459
   0.31160269  0.86998937  0.78846593
   0.93484730  0.95788921  0.69865848
   0.06850325  0.37426655  0.30046600
   0.69062461  0.62515426  0.65421015
   0.68634319  0.45719493  0.56628193
   0.43870177  0.95579076  0.21218244
   0.31222283  0.20527897  0.47900722
   0.81286203  0.54008618  0.87536836
   0.68890833  0.62055229  0.43481815
   0.81051546  0.20763575  0.69870290
   0.81241435  0.70521629  0.47883924
   0.81149520  0.87098515  0.43462474
   0.93700533  0.95602280  0.47916261
   0.56204976  0.20514250  0.47896049
   0.18635369  0.62000472  0.43481087
   0.31496384  0.04094327  0.74348581
   0.94182032  0.62518330  0.65403649
   0.56619034  0.71214594  0.83300535
   0.31887151  0.37376955  0.30034705
   0.56460591  0.70428560  0.21167666
   0.18682543  0.45523049  0.47900890
   0.31494931  0.03960434  0.87541213
   0.18563346  0.45827422  0.69863025
   0.56120965  0.37149530  0.52255999
   0.19045351  0.28764296  0.38932416
   0.30893427  0.53777430  0.25556953
   0.06681272  0.70563717  0.21173976
   0.56282905  0.37046013  0.43498682
   0.43622509  0.62210762  0.52268134
   0.81735081  0.71442279  0.83298502
   0.06163498  0.37365426  0.78855285
   0.43753989  0.29561087  0.87591878
   0.31234670  0.03217940  0.12416262
   0.68831779  0.11970921  0.43482311
   0.18438968  0.95313950  0.34520691
   0.06534488  0.21170334  0.83345964
   0.55800927  0.03787149  0.61030843
   0.68875496  0.45541962  0.21204148
   0.18998506  0.78905763  0.74383747
   0.19360483  0.62382828  0.30042593
   0.44097218  0.78799808  0.38939163
   0.43432369  0.28979580  0.25619317
   0.06584001  0.54051247  0.87535216
   0.56632151  0.04034346  0.74344379
   0.18853162  0.79362957  0.87548964
   0.93744179  0.45549851  0.47884508
   0.56438121  0.54093116  0.74364961
   0.81243640  0.20609492  0.56606960
   0.18772587  0.62012858  0.78828969
   0.06650784  0.53752547  0.38945139
   0.05958070  0.70815809  0.69847093
   0.31537967  0.20458395  0.21214178
   0.31466311  0.70558213  0.21224812
   0.30593563  0.86546733  0.16615661
   0.43725873  0.62073504  0.43492769
   0.81727741  0.03845570  0.38982513
   0.93494289  0.29387574  0.87501061
   0.93761996  0.79408615  0.87483194
   0.06481516  0.03764126  0.87482611
   0.56260138  0.53061880  0.12450180
   0.80519423  0.36610286  0.16646183
   0.06166562  0.87104590  0.43485771
   0.93735233  0.12157546  0.52296544
   0.19187435  0.78746811  0.38939806
   0.31510529  0.54002608  0.74429592
Direct configuration=     3
   0.06244581  0.03275891  0.12421105
   0.31614856  0.87506752  0.65382484
   0.18523590  0.12215526  0.78864401
   0.44045032  0.28731859  0.38931934
   0.31668020  0.71221783  0.83279814
   0.81824074  0.21261328  0.83340338
   0.18961021  0.96209616  0.83336090
   0.56133320  0.20669843  0.56631386
   0.06465407  0.03977316  0.74359108
   0.81227926  0.87231596  0.52243006
   0.19123429  0.29142390  0.74378731
   0.93417153  0.45241475  0.34502433
   0.94126789  0.28732037  0.38938207
   0.81280106  0.04017636  0.87517877
   0.18408137  0.78830197  0.61033263
   0.56634029  0.03745652  0.38943361
   0.94171472  0.96337511  0.83347674
   0.31463957  0.54059571  0.87573471
   0.69098534  0.29009727  0.74354338
   0.18313396  0.61473981  0.16654781
   0.81271670  0.20552104  0.47902902
   0.80902412  0.53867476  0.61034438
   0.31206372  0.87083445  0.43480008
   0.80973518  0.03942886  0.25600968
   0.68410097  0.95199377  0.34502192
   0.93215238  0.11543243  0.16712923
   0.06152112  0.87226887  0.52253969
   0.55884988  0.53813623  0.25592666
   0.68471752  0.79510833  0.87532865
   0.55572149  0.36564898  0.16657983
   0.43975894  0.78961260  0.74393271
   0.81194799  0.70672106  0.56625768
   0.56047064  0.87122477  0.78853247
   0.68722599  0.12140533  0.52239618
   0.81638735  0.37471202  0.65428878
   0.94170152  0.46260991  0.83333659
   0.05992515  0.20777772  0.69861486
   0.43597274  0.95829553  0.69852522
   0.31596683  0.21181845  0.83321825
   0.44053734  0.62501084  0.65395890
   0.30879380  0.53820257  0.61037004
   0.93760674  0.45667168  0.56624080
   0.69074649  0.79135230  0.74363386
   0.93408922  0.78657460  0.12449746
   0.69172675  0.78754361  0.38947238
   0.93946103  0.79047734  0.74376297
   0.05960598  0.20348042  0.34512059
   0.68439365  0.45281348  0.34499414
   0.43523142  0.12207954  0.78881648
   0.06440033  0.20530605  0.21172719
   0.05583130  0.36574029  0.16674786
   0.93459019  0.78886280  0.25584081
   0.56118528  0.20731723  0.69864000
   0.68551232  0.95765527  0.69878789
   0.81056146  0.87220483  0.78846614
   0.43596359  0.95676044  0.56637185
   0.81078855  0.37324115  0.78843822
   0.68429958  0.28954895  0.25594442
   0.18722408  0.45704868  0.56636304
   0.05719598  0.86608057  0.16680066
   0.18453169  0.28776488  0.61041166
   0.06247647  0.20666981  0.56610741
   0.31102745  0.20752902  0.69853716
   0.56330826  0.54023414  0.87559280
   0.06230343  0.70652609  0.56640982
   0.68458452  0.62197763  0.78845060
   0.31520958  0.53767659  0.38928390
   0.18688827  0.62143483  0.52259548
   0.56290211  0.87067145  0.43485807
   0.43632580  0.45741541  0.56632247
   0.43924864  0.29196771  0.74388006
   0.81901947  0.87494606  0.30044915
   0.80906800  0.70221532  0.34517753
   0.44119523  0.46247121  0.83297444
   0.68713392  0.95559739  0.47887839
   0.68581951  0.45795345  0.69869722
   0.56111899  0.87196334  0.52251549
   0.56542999  0.37447368  0.65410903
   0.81625366  0.87455930  0.65421050
   0.81256426  0.37179149  0.43459881
   0.80929035  0.53769884  0.25605098
   0.69229389  0.46119992  0.83306090
   0.18711844  0.78751404  0.12415102
   0.69206302  0.28745572  0.38941425
   0.31580453  0.37435627  0.65390480
   0.30883947  0.20334042  0.34509228
   0.81544155  0.54018477  0.74354016
   0.69278226  0.96142421  0.83331948
   0.56524331  0.87462613  0.65411725
   0.31165382  0.70736207  0.56634061
   0.31282333  0.53314209  0.12417888
   0.68891767  0.95620692  0.21187206
   0.31119710  0.20625244  0.56638820
   0.18742609  0.95600613  0.47900631
   0.68692796  0.95664050  0.56625767
   0.43329235  0.78833969  0.61029428
   0.68222227  0.61321297  0.16661951
   0.31853310  0.87428193  0.30034076
   0.31218387  0.70558425  0.47904336
   0.93464416  0.28759309  0.61035091
   0.44408302  0.62389358  0.30047010
   0.80630290  0.86464244  0.16717349
   0.56635909  0.20438596  0.21198022
   0.93327780  0.61324927  0.16678595
   0.43731664  0.95588821  0.47898411
   0.55970955  0.37289519  0.78862175
   0.06131867  0.37106608  0.52244952
   0.30750268  0.36472134  0.16648710
   0.69450947  0.12496098  0.30039752
   0.44244219  0.96120862  0.83317799
   0.18504307  0.28633650  0.12434782
   0.18427345  0.28913828  0.25610238
   0.31133228  0.37026328  0.43480615
   0.56178759  0.03371854  0.12433313
   0.43325533  0.28790856  0.61036139
   0.18407753  0.45204526  0.34519362
   0.43508489  0.28583433  0.12436853
   0.68396486  0.78864922  0.25602639
   0.43634848  0.12110659  0.52243344
   0.18875993  0.29389028  0.87559525
   0.19168862  0.12482513  0.65390163
   0.94180229  0.12455300  0.65415174
   0.81642536  0.53749541  0.38950667
   0.06635443  0.03846718  0.38937539
   0.18312595  0.11238378  0.16637417
   0.05992316  0.53860037  0.61037486
   0.93461325  0.28924260  0.25589106
   0.55793299  0.53834194  0.61028024
   0.93780316  0.95759613  0.56616341
   0.69376858  0.62411101  0.30051939
   0.93678203  0.61995063  0.43479561
   0.93477410  0.62308548  0.78837873
   0.56152667  0.70807018  0.69858448
   0.06563997  0.71520643  0.83350028
   0.94425308  0.12427352  0.30041127
   0.93481999  0.78840782  0.61030226
   0.43342561  0.78933731  0.25596397
   0.31130820  0.37484007  0.78832107
   0.44011543  0.45615299  0.21186643
   0.18574729  0.12149763  0.52248745
   0.81024857  0.70795056  0.69875675
   0.05981204  0.03729524  0.61027075
   0.56623177  0.21262541  0.83314491
   0.31183433  0.87166728  0.52254903
   0.68527322  0.28651173  0.12402794
   0.18919839  0.95525557  0.21199936
   0.68306849  0.28778266  0.61035591
   0.30886444  0.03785075  0.61043025
   0.93547534  0.12257161  0.78870502
   0.43664606  0.79413506  0.87565782
   0.81527912  0.04008993  0.74342820
   0.93460573  0.45797206  0.69862531
   0.19126336  0.62480540  0.65385446
   0.31083947  0.70714114  0.69870964
   0.93414430  0.28664560  0.12413123
   0.43711897  0.45553589  0.47896855
   0.06204166  0.70504195  0.47887095
   0.93692002  0.12074679  0.43483871
   0.44367168  0.12531001  0.30045517
   0.18716504  0.12082111  0.43472567
   0.56445228  0.03962297  0.87570028
   0.18712679  0.95696006  0.56642132
   0.68279586  0.78749382  0.12450784
   0.55936386  0.70259890  0.34504098
   0.31566157  0.03728540  0.38932312
   0.68189488  0.11503823  0.16685073
   0.81501669  0.20558978  0.21171558
   0.06050156  0.53825868  0.25584329
   0.56237139  0.70586344  0.47891424
   0.43452024  0.78739669  0.12429753
   0.56891853  0.37402929  0.30040094
   0.43351934  0.95309412  0.34518659
   0.18510792  0.95846687  0.69867088
   0.43220362  0.61474663  0.16645802
   0.93986612  0.45531898  0.21202387
   0.06181816  0.53188259  0.12418752
   0.81254596  0.37108362  0.52240069
   0.94384564  0.62387687  0.30029152
   0.30917763  0.03863016  0.25559724
   0.68345929  0.78841919  0.61026281
   0.19104729  0.46279877  0.83301740
   0.43282235  0.11291374  0.16623423
   0.31123024  0.37171105  0.52246833
   0.43307635  0.62022764  0.78860905
   0.06028394  0.03899863  0.25590879
   0.56106013  0.70703219  0.56631929
   0.93912267  0.28931985  0.74361526
   0.68418034  0.12226248  0.78848163
   0.18870814  0.45537562  0.21180451
   0.94064467  0.78707624  0.38945503
   0.68602187  0.29556415  0.87567227
   0.55516111  0.86530176  0.16636521
   0.43540344  0.45810726  0.69872863
   0.93448688  0.95243696  0.34496300
   0.68650786  0.62171650  0.52237550
   0.06658321  0.87458450  0.65392180
   0.06002991  0.87235771  0.78867981
   0.06684485  0.37479234  0.65406646
   0.68746774  0.45547036  0.47882473
   0.18485449  0.78935444  0.25579867
   0.43703124  0.12033071  0.43483338
   0.81170361  0.03377316  0.12421798
   0.93690489  0.62172414  0.52248825
   0.44053638  0.12455418  0.65391971
   0.81191656  0.53112363  0.12400408
   0.43367373  0.45244574  0.34500850