       N       E                     dE             d eps       ncg     rms          rms(c)
DAV:   1     0.292356581871E+05    0.29236E+05   -0.86595E+05 27944   0.197E+03
DAV:   2     0.119735233712E+04   -0.28038E+05   -0.27425E+05 27720   0.605E+02
DAV:   3    -0.194124698669E+04   -0.31386E+04   -0.27271E+04 39102   0.280E+02
DAV:   4    -0.261114158707E+04   -0.66989E+03   -0.61008E+03 50918   0.977E+01
DAV:   5    -0.273116572347E+04   -0.12002E+03   -0.11244E+03 48328   0.398E+01    0.203E+02
RMM:   6    -0.584110131594E+04   -0.31099E+04   -0.11983E+04 48585   0.247E+02    0.646E+02
RMM:   7    -0.376492415486E+04    0.20762E+04   -0.38247E+03 43106   0.102E+02    0.401E+02
RMM:   8    -0.114412161769E+05   -0.76763E+04   -0.19278E+04 46086   0.373E+02    0.117E+03
RMM:   9    -0.142541919625E+05   -0.28130E+04   -0.16912E+04 50123   0.180E+02    0.789E+02
RMM:  10    -0.790062095673E+04    0.63536E+04   -0.53052E+03 37400   0.136E+02    0.509E+02
RMM:  11    -0.949171505273E+04   -0.15911E+04   -0.14395E+04 42970   0.266E+02    0.796E+02
RMM:  12    -0.106403356319E+05   -0.11486E+04   -0.14337E+04 48284   0.136E+02    0.750E+02
RMM:  13    -0.101749672494E+05    0.46537E+03   -0.88516E+03 47611   0.128E+02    0.717E+02
RMM:  14    -0.646308697011E+04    0.37119E+04   -0.64093E+03 36814   0.128E+02    0.558E+02
RMM:  15    -0.755091432479E+04   -0.10878E+04   -0.29778E+03 35623   0.778E+01    0.527E+02
RMM:  16    -0.716909711547E+04    0.38182E+03   -0.77823E+03 45611   0.239E+02    0.581E+02
RMM:  17    -0.477187606626E+04    0.23972E+04   -0.68324E+03 47371   0.154E+02    0.469E+02
RMM:  18    -0.400433680400E+04    0.76754E+03   -0.19915E+03 48454   0.105E+02    0.394E+02
RMM:  19    -0.269071240307E+04    0.13136E+04   -0.21764E+03 49479   0.939E+01    0.267E+02
RMM:  20    -0.272387767152E+04   -0.33165E+02   -0.18019E+03 51161   0.656E+01    0.252E+02
RMM:  21    -0.261443813545E+04    0.10944E+03   -0.12768E+03 49893   0.541E+01    0.174E+02
RMM:  22    -0.265656612580E+04   -0.42128E+02   -0.45231E+02 51511   0.444E+01    0.165E+02
RMM:  23    -0.277796100894E+04   -0.12139E+03   -0.83587E+02 49283   0.454E+01    0.188E+02
RMM:  24    -0.278944628217E+04   -0.11485E+02   -0.11212E+03 51318   0.416E+01    0.193E+02
RMM:  25    -0.270261985899E+04    0.86826E+02   -0.75939E+02 49689   0.301E+01    0.143E+02
RMM:  26    -0.269101378812E+04    0.11606E+02   -0.32436E+02 49016   0.258E+01    0.136E+02
RMM:  27    -0.267980971119E+04    0.11204E+02   -0.62127E+02 50398   0.192E+01    0.139E+02
RMM:  28    -0.262366129936E+04    0.56148E+02   -0.67768E+02 50369   0.175E+01    0.132E+02
RMM:  29    -0.256631306125E+04    0.57348E+02   -0.60000E+02 47095   0.157E+01    0.132E+02
RMM:  30    -0.253811001846E+04    0.28203E+02   -0.42145E+02 46092   0.115E+01    0.130E+02
RMM:  31    -0.253783403457E+04    0.27598E+00   -0.27522E+02 45886   0.821E+00    0.135E+02
RMM:  32    -0.255006483635E+04   -0.12231E+02   -0.16374E+02 44459   0.629E+00    0.142E+02
RMM:  33    -0.255724986781E+04   -0.71850E+01   -0.80533E+01 47427   0.331E+00    0.150E+02
RMM:  34    -0.264627037707E+04   -0.89021E+02   -0.95848E+01 35712   0.671E+00    0.173E+02
RMM:  35    -0.266495258136E+04   -0.18682E+02   -0.71449E+01 43245   0.357E+00    0.185E+02
RMM:  36    -0.263399740878E+04    0.30955E+02   -0.18539E+01 37321   0.262E+00    0.186E+02
RMM:  37    -0.254235669116E+04    0.91641E+02   -0.60936E+00 31313   0.362E+00    0.170E+02
RMM:  38    -0.250806340171E+04    0.34293E+02   -0.16088E+01 32131   0.537E+00    0.163E+02
RMM:  39    -0.243308528062E+04    0.74978E+02   -0.12259E+01 33999   0.450E+00    0.126E+02
RMM:  40    -0.234787731127E+04    0.85208E+02   -0.28457E+01 34768   0.574E+00    0.634E+01
RMM:  41    -0.234123264145E+04    0.66447E+01   -0.26919E+01 34023   0.597E+00    0.612E+01
RMM:  42    -0.234104124650E+04    0.19139E+00   -0.10545E+01 33115   0.432E+00    0.576E+01
RMM:  43    -0.234333950419E+04   -0.22983E+01   -0.86362E+00 38531   0.293E+00    0.598E+01
RMM:  44    -0.234281074414E+04    0.52876E+00   -0.50327E+00 42031   0.139E+00    0.587E+01
RMM:  45    -0.234172646979E+04    0.10843E+01   -0.20728E+00 36813   0.120E+00    0.571E+01
RMM:  46    -0.234023370774E+04    0.14928E+01   -0.20636E+00 32201   0.209E+00    0.551E+01
RMM:  47    -0.233860646986E+04    0.16272E+01   -0.22966E+00 31021   0.249E+00    0.530E+01
RMM:  48    -0.233707817478E+04    0.15283E+01   -0.28500E+00 32237   0.257E+00    0.515E+01
RMM:  49    -0.233461970843E+04    0.24585E+01   -0.32144E+00 36813   0.219E+00    0.485E+01
RMM:  50    -0.233161226627E+04    0.30074E+01   -0.32315E+00 33969   0.241E+00    0.453E+01
RMM:  51    -0.237858935068E+04   -0.46977E+02   -0.11735E+02 32407   0.166E+01    0.104E+02
RMM:  52    -0.237141443633E+04    0.71749E+01   -0.54121E+01 34000   0.105E+01    0.100E+02
RMM:  53    -0.237251234949E+04   -0.10979E+01   -0.19903E+01 28519   0.867E+00    0.106E+02
RMM:  54    -0.236614025911E+04    0.63721E+01   -0.11393E+01 27964   0.716E+00    0.104E+02
RMM:  55    -0.236185194072E+04    0.42883E+01   -0.96039E+00 28150   0.634E+00    0.994E+01
RMM:  56    -0.249610680548E+04   -0.13425E+03   -0.45095E+01 29249   0.138E+01    0.181E+02
RMM:  57    -0.241765939510E+04    0.78447E+02   -0.38240E+01 31388   0.973E+00    0.140E+02
RMM:  58    -0.237863547171E+04    0.39024E+02   -0.17205E+01 28314   0.796E+00    0.104E+02
RMM:  59    -0.237903565971E+04   -0.40019E+00   -0.25666E+01 28363   0.102E+01    0.104E+02
RMM:  60    -0.234518413150E+04    0.33852E+02   -0.20313E+01 29596   0.808E+00    0.665E+01
RMM:  61    -0.237695715372E+04   -0.31773E+02   -0.35604E+01 29120   0.117E+01    0.969E+01
RMM:  62    -0.235261236290E+04    0.24345E+02   -0.21594E+01 29157   0.846E+00    0.750E+01
RMM:  63    -0.234197639806E+04    0.10636E+02   -0.11489E+01 28051   0.725E+00    0.640E+01
RMM:  64    -0.233625926004E+04    0.57171E+01   -0.10812E+01 30494   0.551E+00    0.562E+01
RMM:  65    -0.233044210548E+04    0.58172E+01   -0.55546E+00 28735   0.453E+00    0.480E+01
RMM:  66    -0.235535937883E+04   -0.24917E+02   -0.23735E+01 31588   0.732E+00    0.814E+01
RMM:  67    -0.233286447016E+04    0.22495E+02   -0.82429E+00 28441   0.627E+00    0.528E+01
RMM:  68    -0.233398164930E+04   -0.11172E+01   -0.78463E+00 32459   0.377E+00    0.545E+01
RMM:  69    -0.233283755718E+04    0.11441E+01   -0.47527E+00 36727   0.241E+00    0.533E+01
RMM:  70    -0.233198117764E+04    0.85638E+00   -0.16173E+00 33114   0.170E+00    0.518E+01
RMM:  71    -0.233312079391E+04   -0.11396E+01   -0.86978E+00 27873   0.580E+00    0.513E+01
RMM:  72    -0.233163654566E+04    0.14842E+01   -0.38411E+00 27720   0.511E+00    0.491E+01
RMM:  73    -0.232955960124E+04    0.20769E+01   -0.15734E+00 28491   0.252E+00    0.453E+01
RMM:  74    -0.233141758477E+04   -0.18580E+01   -0.10788E+00 28742   0.214E+00    0.488E+01
RMM:  75    -0.233131339047E+04    0.10419E+00   -0.11707E+00 30114   0.188E+00    0.486E+01
RMM:  76    -0.234057297172E+04   -0.92596E+01   -0.25206E+01 29346   0.914E+00    0.632E+01
RMM:  77    -0.233079211034E+04    0.97809E+01   -0.12128E+01 27740   0.801E+00    0.493E+01
RMM:  78    -0.232215474049E+04    0.86374E+01   -0.60598E+00 29157   0.497E+00    0.292E+01
RMM:  79    -0.232264726931E+04   -0.49253E+00   -0.58410E+00 32190   0.330E+00    0.305E+01
RMM:  80    -0.232258361980E+04    0.63650E-01   -0.25498E+00 31879   0.235E+00    0.307E+01
RMM:  81    -0.233680323391E+04   -0.14220E+02   -0.80915E+00 29086   0.532E+00    0.594E+01
RMM:  82    -0.232412930345E+04    0.12674E+02   -0.43732E+00 27763   0.489E+00    0.334E+01
RMM:  83    -0.232640001155E+04   -0.22707E+01   -0.28685E+00 28694   0.372E+00    0.388E+01
RMM:  84    -0.232445447501E+04    0.19455E+01   -0.32671E+00 28849   0.365E+00    0.338E+01
RMM:  85    -0.232138839159E+04    0.30661E+01   -0.33673E+00 29539   0.323E+00    0.242E+01
RMM:  86    -0.232358277510E+04   -0.21944E+01   -0.46994E+00 27877   0.443E+00    0.316E+01
RMM:  87    -0.231957887959E+04    0.40039E+01   -0.20702E+00 27723   0.338E+00    0.165E+01
RMM:  88    -0.231928191389E+04    0.29697E+00   -0.91848E-01 28939   0.185E+00    0.150E+01
RMM:  89    -0.231910280673E+04    0.17911E+00   -0.94386E-01 32803   0.131E+00    0.135E+01
RMM:  90    -0.231842048723E+04    0.68232E+00   -0.45254E-01 28349   0.136E+00    0.855E+00
RMM:  91    -0.231909877704E+04   -0.67829E+00   -0.11685E+00 28454   0.221E+00    0.147E+01
RMM:  92    -0.231844621835E+04    0.65256E+00   -0.53611E-01 27926   0.179E+00    0.941E+00
RMM:  93    -0.231816428566E+04    0.28193E+00   -0.24151E-01 28994   0.102E+00    0.533E+00
RMM:  94    -0.231812816678E+04    0.36119E-01   -0.21760E-01 30404   0.795E-01    0.454E+00
RMM:  95    -0.231820224658E+04   -0.74080E-01   -0.19465E-01 32597   0.610E-01    0.580E+00
RMM:  96    -0.231842923741E+04   -0.22699E+00   -0.25241E-01 29871   0.902E-01    0.868E+00
RMM:  97    -0.231833286979E+04    0.96368E-01   -0.79091E-02 28767   0.634E-01    0.771E+00
RMM:  98    -0.231825874310E+04    0.74127E-01   -0.84561E-02 34714   0.333E-01    0.655E+00
RMM:  99    -0.231818370592E+04    0.75037E-01   -0.41634E-02 30674   0.347E-01    0.516E+00
RMM: 100    -0.231817254555E+04    0.11160E-01   -0.37443E-02 31249   0.310E-01
   1 F= -.23181725E+04 E0= -.23153952E+04  d E =-.231817E+04
       N       E                     dE             d eps       ncg     rms          rms(c)
DAV:   1    -0.231926888229E+04   -0.10852E+01   -0.43905E+01 33054   0.823E+00    0.141E+01
RMM:   2    -0.593341878442E+04   -0.36141E+04   -0.15560E+03 45055   0.816E+01    0.314E+02
RMM:   3    -0.330246192049E+04    0.26310E+04   -0.49435E+02 29744   0.424E+01    0.267E+02
RMM:   4    -0.282033999709E+04    0.48212E+03   -0.85241E+01 28043   0.192E+01    0.260E+02
RMM:   5    -0.238679868746E+04    0.43354E+03   -0.33783E+01 30437   0.108E+01    0.116E+02
RMM:   6    -0.235105342324E+04    0.35745E+02   -0.27674E+01 30535   0.844E+00    0.763E+01
RMM:   7    -0.234148561067E+04    0.95678E+01   -0.35536E+01 32781   0.852E+00    0.649E+01
RMM:   8    -0.232992258082E+04    0.11563E+02   -0.32215E+01 35233   0.780E+00    0.454E+01
RMM:   9    -0.236276705814E+04   -0.32844E+02   -0.13425E+01 29844   0.639E+00    0.856E+01
RMM:  10    -0.232454676389E+04    0.38220E+02   -0.89245E+00 35726   0.349E+00    0.311E+01
RMM:  11    -0.233109730043E+04   -0.65505E+01   -0.33580E+00 28178   0.393E+00    0.494E+01
RMM:  12    -0.232620891991E+04    0.48884E+01   -0.37704E+00 39990   0.189E+00    0.378E+01
RMM:  13    -0.232651554173E+04   -0.30662E+00   -0.16223E+00 29937   0.215E+00    0.388E+01
RMM:  14    -0.232431025215E+04    0.22053E+01   -0.12488E+00 31978   0.161E+00    0.327E+01
RMM:  15    -0.232059649923E+04    0.37138E+01   -0.13209E+00 33871   0.150E+00    0.197E+01
RMM:  16    -0.231897650972E+04    0.16200E+01   -0.96677E-01 31940   0.144E+00    0.106E+01
RMM:  17    -0.231868474865E+04    0.29176E+00   -0.81489E-01 33885   0.123E+00    0.913E+00
RMM:  18    -0.231856864163E+04    0.11611E+00   -0.32291E-01 31052   0.931E-01    0.853E+00
RMM:  19    -0.231853743104E+04    0.31211E-01   -0.22073E-01 37037   0.532E-01    0.828E+00
RMM:  20    -0.231854827877E+04   -0.10848E-01   -0.11740E-01 41199   0.293E-01    0.837E+00
RMM:  21    -0.231852962421E+04    0.18655E-01   -0.40677E-02 39071   0.170E-01    0.811E+00
RMM:  22    -0.231851381600E+04    0.15808E-01   -0.16852E-02 35200   0.141E-01    0.788E+00
RMM:  23    -0.231843087942E+04    0.82937E-01   -0.19084E-02 29130   0.262E-01    0.653E+00
RMM:  24    -0.231833766072E+04    0.93219E-01   -0.29787E-02 27871   0.375E-01    0.446E+00
RMM:  25    -0.231833581756E+04    0.18432E-02   -0.54205E-02 29583   0.409E-01    0.414E+00
RMM:  26    -0.231833649311E+04   -0.67555E-03   -0.62087E-02 31103   0.398E-01    0.402E+00
RMM:  27    -0.231832647900E+04    0.10014E-01   -0.40567E-02 33437   0.277E-01    0.375E+00
RMM:  28    -0.231832764543E+04   -0.11664E-02   -0.31726E-02 33807   0.243E-01    0.364E+00
RMM:  29    -0.231832832683E+04   -0.68140E-03   -0.33461E-02 28738   0.369E-01    0.357E+00
RMM:  30    -0.231832540959E+04    0.29172E-02   -0.20931E-02 29342   0.271E-01    0.349E+00
RMM:  31    -0.231840793191E+04   -0.82522E-01   -0.34503E-02 32257   0.270E-01    0.512E+00
RMM:  32    -0.231842533657E+04   -0.17405E-01   -0.18652E-02 36283   0.168E-01    0.545E+00
RMM:  33    -0.231844698068E+04   -0.21644E-01   -0.95659E-03 33385   0.131E-01    0.582E+00
RMM:  34    -0.231849078381E+04   -0.43803E-01   -0.88767E-03 30867   0.157E-01    0.640E+00
RMM:  35    -0.231846885633E+04    0.21927E-01   -0.55123E-03 37164   0.847E-02    0.605E+00
RMM:  36    -0.231845679955E+04    0.12057E-01   -0.53469E-03 28394   0.152E-01    0.586E+00
RMM:  37    -0.231840478168E+04    0.52018E-01   -0.75995E-03 27862   0.178E-01    0.495E+00
RMM:  38    -0.231838809370E+04    0.16688E-01   -0.50482E-03 34367   0.967E-02    0.466E+00
RMM:  39    -0.231839344290E+04   -0.53492E-02   -0.36269E-03 30948   0.969E-02    0.474E+00
RMM:  40    -0.231838403764E+04    0.94053E-02   -0.18677E-03 37037   0.525E-02    0.455E+00
RMM:  41    -0.231837586629E+04    0.81713E-02   -0.10745E-03 31918   0.495E-02    0.439E+00
RMM:  42    -0.231834456280E+04    0.31303E-01   -0.17758E-03 29960   0.732E-02    0.373E+00
RMM:  43    -0.231832460930E+04    0.19953E-01   -0.17256E-03 32609   0.607E-02    0.324E+00
RMM:  44    -0.231830209848E+04    0.22511E-01   -0.28887E-03 32965   0.773E-02    0.258E+00
RMM:  45    -0.231828893491E+04    0.13164E-01   -0.19921E-03 30880   0.727E-02    0.212E+00
RMM:  46    -0.231828576394E+04    0.31710E-02   -0.21334E-03 42600   0.330E-02    0.198E+00
RMM:  47    -0.231826644739E+04    0.19317E-01   -0.44303E-03 35153   0.812E-02    0.779E-01
RMM:  48    -0.231826512633E+04    0.13211E-02   -0.26057E-03 34300   0.697E-02    0.558E-01
RMM:  49    -0.231826482438E+04    0.30196E-03   -0.20956E-03 32204   0.690E-02    0.510E-01
RMM:  50    -0.231826382317E+04    0.10012E-02   -0.15225E-03 32440   0.586E-02    0.247E-01
RMM:  51    -0.231826362047E+04    0.20270E-03   -0.10610E-03 35452   0.398E-02    0.138E-01
RMM:  52    -0.231826385391E+04   -0.23344E-03   -0.12301E-03 38450   0.399E-02    0.231E-01
RMM:  53    -0.231826366837E+04    0.18554E-03   -0.27637E-04 29789   0.304E-02    0.130E-01
RMM:  54    -0.231826364549E+04    0.22881E-04   -0.27195E-04 37728   0.184E-02    0.105E-01
RMM:  55    -0.231826365427E+04   -0.87809E-05   -0.13887E-04 31791   0.181E-02    0.111E-01
RMM:  56    -0.231826364056E+04    0.13711E-04   -0.56152E-05 29550   0.144E-02    0.986E-02
RMM:  57    -0.231826368948E+04   -0.48926E-04   -0.81692E-05 35416   0.114E-02    0.133E-01
RMM:  58    -0.231826360948E+04    0.80002E-04   -0.27200E-05 30351   0.854E-03    0.562E-02
RMM:  59    -0.231826360067E+04    0.88113E-05   -0.21642E-05 31033   0.637E-03    0.409E-02
RMM:  60    -0.231826359463E+04    0.60396E-05   -0.11658E-05 26986   0.539E-03    0.240E-02
RMM:  61    -0.231826359339E+04    0.12438E-05   -0.56863E-06 21811   0.445E-03    0.195E-02
RMM:  62    -0.231826359461E+04   -0.12185E-05   -0.54202E-06 21478   0.363E-03    0.234E-02
RMM:  63    -0.231826359302E+04    0.15830E-05   -0.29049E-06 18155   0.388E-03    0.147E-02
RMM:  64    -0.231826359273E+04    0.29142E-06   -0.17923E-06 16949   0.277E-03
   2 F= -.23182636E+04 E0= -.23154845E+04  d E =-.910472E-01
       N       E                     dE             d eps       ncg     rms          rms(c)
DAV:   1    -0.231817711348E+04    0.86480E-01   -0.33801E+02 27720   0.194E+01    0.389E+00
RMM:   2    -0.235972446634E+04   -0.41547E+02   -0.11704E+01 28278   0.714E+00    0.859E+01
RMM:   3    -0.233080985106E+04    0.28915E+02   -0.51342E+00 35965   0.316E+00    0.439E+01
RMM:   4    -0.235650507715E+04   -0.25695E+02   -0.29650E+00 29571   0.302E+00    0.806E+01
RMM:   5    -0.232113456088E+04    0.35371E+02   -0.17130E+00 28849   0.247E+00    0.183E+01
RMM:   6    -0.232206112186E+04   -0.92656E+00   -0.27642E+00 30602   0.261E+00    0.242E+01
RMM:   7    -0.232471623715E+04   -0.26551E+01   -0.28604E+00 29481   0.290E+00    0.336E+01
RMM:   8    -0.232109196542E+04    0.36243E+01   -0.12303E+00 27849   0.228E+00    0.213E+01
RMM:   9    -0.231906066550E+04    0.20313E+01   -0.64871E-01 27755   0.189E+00    0.851E+00
RMM:  10    -0.231917046467E+04   -0.10980E+00   -0.53815E-01 28010   0.145E+00    0.105E+01
RMM:  11    -0.231876716020E+04    0.40330E+00   -0.36403E-01 27954   0.125E+00    0.515E+00
RMM:  12    -0.231864139063E+04    0.12577E+00   -0.16413E-01 27896   0.895E-01    0.259E+00
RMM:  13    -0.231862861305E+04    0.12778E-01   -0.14521E-01 32687   0.493E-01    0.200E+00
RMM:  14    -0.231863599066E+04   -0.73776E-02   -0.99686E-02 32846   0.427E-01    0.211E+00
RMM:  15    -0.231863199092E+04    0.39997E-02   -0.55136E-02 31379   0.360E-01    0.190E+00
RMM:  16    -0.231862065328E+04    0.11338E-01   -0.23948E-02 30700   0.265E-01    0.122E+00
RMM:  17    -0.231862201105E+04   -0.13578E-02   -0.26920E-02 36047   0.192E-01    0.124E+00
RMM:  18    -0.231861865983E+04    0.33512E-02   -0.10300E-02 31019   0.165E-01    0.923E-01
RMM:  19    -0.231861728872E+04    0.13711E-02   -0.59255E-03 31221   0.124E-01    0.739E-01
RMM:  20    -0.231861725032E+04    0.38398E-04   -0.72128E-03 34371   0.116E-01    0.712E-01
RMM:  21    -0.231861597228E+04    0.12780E-02   -0.34869E-03 29658   0.110E-01    0.513E-01
RMM:  22    -0.231861592724E+04    0.45041E-04   -0.32932E-03 36800   0.634E-02    0.468E-01
RMM:  23    -0.231861576504E+04    0.16220E-03   -0.15997E-03 34668   0.506E-02    0.427E-01
RMM:  24    -0.231861508128E+04    0.68376E-03   -0.73780E-04 30229   0.492E-02    0.227E-01
RMM:  25    -0.231861501822E+04    0.63055E-04   -0.73795E-04 36241   0.320E-02    0.179E-01
RMM:  26    -0.231861500625E+04    0.11973E-04   -0.46285E-04 34164   0.286E-02    0.160E-01
RMM:  27    -0.231861499185E+04    0.14399E-04   -0.20445E-04 31074   0.236E-02    0.152E-01
RMM:  28    -0.231861498325E+04    0.85961E-05   -0.20031E-04 39559   0.122E-02    0.137E-01
RMM:  29    -0.231861494408E+04    0.39176E-04   -0.84118E-05 35078   0.108E-02    0.102E-01
RMM:  30    -0.231861490482E+04    0.39259E-04   -0.35619E-05 31132   0.930E-03    0.491E-02
RMM:  31    -0.231861490135E+04    0.34692E-05   -0.31367E-05 34646   0.580E-03    0.377E-02
RMM:  32    -0.231861490032E+04    0.10251E-05   -0.19392E-05 31536   0.614E-03    0.336E-02
RMM:  33    -0.231861489720E+04    0.31267E-05   -0.86298E-06 24841   0.510E-03    0.242E-02
RMM:  34    -0.231861489693E+04    0.26356E-06   -0.56246E-06 21351   0.300E-03
   3 F= -.23186149E+04 E0= -.23158217E+04  d E =-.442351E+00
       N       E                     dE             d eps       ncg     rms          rms(c)
DAV:   1    -0.231600831679E+04    0.26066E+01   -0.13510E+03 27720   0.393E+01    0.861E+00
RMM:   2    -0.249959919229E+04   -0.18359E+03   -0.69006E+01 29070   0.162E+01    0.174E+02
RMM:   3    -0.238295600476E+04    0.11664E+03   -0.25339E+01 36467   0.708E+00    0.995E+01
RMM:   4    -0.250046101477E+04   -0.11751E+03   -0.26928E+01 31311   0.711E+00    0.167E+02
RMM:   5    -0.232560595069E+04    0.17486E+03   -0.85355E+00 29034   0.536E+00    0.343E+01
RMM:   6    -0.233056870399E+04   -0.49628E+01   -0.10745E+01 32194   0.481E+00    0.457E+01
RMM:   7    -0.234980858355E+04   -0.19240E+02   -0.14971E+01 30743   0.606E+00    0.730E+01
RMM:   8    -0.233201539677E+04    0.17793E+02   -0.71394E+00 27945   0.540E+00    0.489E+01
RMM:   9    -0.232221694459E+04    0.97985E+01   -0.38278E+00 27744   0.457E+00    0.256E+01
RMM:  10    -0.232112535885E+04    0.10916E+01   -0.22765E+00 28012   0.305E+00    0.230E+01
RMM:  11    -0.231925133216E+04    0.18740E+01   -0.16130E+00 28732   0.234E+00    0.129E+01
RMM:  12    -0.231880909074E+04    0.44224E+00   -0.12544E+00 29599   0.186E+00    0.937E+00
RMM:  13    -0.231863844578E+04    0.17064E+00   -0.90381E-01 31435   0.142E+00    0.736E+00
RMM:  14    -0.231846031804E+04    0.17813E+00   -0.40500E-01 30789   0.102E+00    0.439E+00
RMM:  15    -0.231846111356E+04   -0.79552E-03   -0.33392E-01 34157   0.732E-01    0.421E+00
RMM:  16    -0.231843084381E+04    0.30270E-01   -0.20620E-01 37121   0.509E-01    0.312E+00
RMM:  17    -0.231841050100E+04    0.20343E-01   -0.60869E-02 29867   0.444E-01    0.249E+00
RMM:  18    -0.231839846745E+04    0.12034E-01   -0.40772E-02 32416   0.291E-01    0.190E+00
RMM:  19    -0.231840609299E+04   -0.76255E-02   -0.48405E-02 34468   0.285E-01    0.216E+00
RMM:  20    -0.231840495800E+04    0.11350E-02   -0.28408E-02 30948   0.275E-01    0.198E+00
RMM:  21    -0.231840366546E+04    0.12925E-02   -0.19916E-02 31443   0.222E-01    0.189E+00
RMM:  22    -0.231840329581E+04    0.36965E-03   -0.20492E-02 35347   0.180E-01    0.188E+00
RMM:  23    -0.231839920462E+04    0.40912E-02   -0.70748E-03 30433   0.147E-01    0.165E+00
RMM:  24    -0.231839530595E+04    0.38987E-02   -0.82533E-03 34881   0.118E-01    0.138E+00
RMM:  25    -0.231838968055E+04    0.56254E-02   -0.40974E-03 31084   0.105E-01    0.904E-01
RMM:  26    -0.231838830993E+04    0.13706E-02   -0.26097E-03 29861   0.940E-02    0.748E-01
RMM:  27    -0.231838745229E+04    0.85763E-03   -0.36308E-03 37234   0.699E-02    0.624E-01
RMM:  28    -0.231838666987E+04    0.78242E-03   -0.14835E-03 31957   0.564E-02    0.483E-01
RMM:  29    -0.231838667416E+04   -0.42943E-05   -0.14808E-03 36436   0.449E-02    0.464E-01
RMM:  30    -0.231838652481E+04    0.14936E-03   -0.76321E-04 30921   0.457E-02    0.402E-01
RMM:  31    -0.231838646256E+04    0.62250E-04   -0.39346E-04 29735   0.371E-02    0.385E-01
RMM:  32    -0.231838635156E+04    0.11100E-03   -0.48911E-04 35074   0.290E-02    0.343E-01
RMM:  33    -0.231838603122E+04    0.32034E-03   -0.30743E-04 30720   0.291E-02    0.221E-01
RMM:  34    -0.231838594545E+04    0.85773E-04   -0.21061E-04 32239   0.216E-02    0.179E-01
RMM:  35    -0.231838592368E+04    0.21766E-04   -0.22512E-04 37568   0.178E-02    0.157E-01
RMM:  36    -0.231838586960E+04    0.54085E-04   -0.80866E-05 29799   0.164E-02    0.118E-01
RMM:  37    -0.231838585581E+04    0.13785E-04   -0.82835E-05 36867   0.107E-02    0.102E-01
RMM:  38    -0.231838582470E+04    0.31114E-04   -0.47166E-05 30364   0.117E-02    0.652E-02
RMM:  39    -0.231838580752E+04    0.17177E-04   -0.26745E-05 30432   0.868E-03    0.330E-02
RMM:  40    -0.231838580852E+04   -0.10048E-05   -0.27410E-05 33858   0.493E-03    0.303E-02
RMM:  41    -0.231838580985E+04   -0.13264E-05   -0.14466E-05 30445   0.558E-03    0.324E-02
RMM:  42    -0.231838580747E+04    0.23791E-05   -0.58291E-06 22053   0.428E-03    0.231E-02
RMM:  43    -0.231838580759E+04   -0.12049E-06   -0.38193E-06 19445   0.280E-03
   4 F= -.23183858E+04 E0= -.23155679E+04  d E =-.213262E+00
       N       E                     dE             d eps       ncg     rms          rms(c)
DAV:   1    -0.231771523984E+04    0.67057E+00   -0.63308E+02 27720   0.267E+01    0.510E+00
RMM:   2    -0.236497817701E+04   -0.47263E+02   -0.21434E+01 28923   0.903E+00    0.882E+01
RMM:   3    -0.233007426719E+04    0.34904E+02   -0.81999E+00 38594   0.346E+00    0.441E+01
RMM:   4    -0.235672915458E+04   -0.26655E+02   -0.45266E+00 28580   0.404E+00    0.826E+01
RMM:   5    -0.232489511146E+04    0.31834E+02   -0.28671E+00 35483   0.228E+00    0.308E+01
RMM:   6    -0.232231962449E+04    0.25755E+01   -0.29222E+00 28494   0.315E+00    0.260E+01
RMM:   7    -0.233016014881E+04   -0.78405E+01   -0.56468E+00 32605   0.326E+00    0.480E+01
RMM:   8    -0.232153091834E+04    0.86292E+01   -0.23347E+00 27993   0.303E+00    0.213E+01
RMM:   9    -0.231905926791E+04    0.24717E+01   -0.10065E+00 27741   0.234E+00    0.823E+00
RMM:  10    -0.231930866668E+04   -0.24940E+00   -0.10210E+00 29108   0.180E+00    0.109E+01
RMM:  11    -0.231910783342E+04    0.20083E+00   -0.77853E-01 28882   0.164E+00    0.870E+00
RMM:  12    -0.231883533605E+04    0.27250E+00   -0.34086E-01 27819   0.131E+00    0.561E+00
RMM:  13    -0.231875244580E+04    0.82890E-01   -0.20224E-01 30263   0.736E-01    0.409E+00
RMM:  14    -0.231872904612E+04    0.23400E-01   -0.16851E-01 35978   0.471E-01    0.332E+00
RMM:  15    -0.231869883712E+04    0.30209E-01   -0.77493E-02 30763   0.466E-01    0.219E+00
RMM:  16    -0.231869295129E+04    0.58858E-02   -0.34101E-02 29366   0.353E-01    0.199E+00
RMM:  17    -0.231869181569E+04    0.11356E-02   -0.42388E-02 35785   0.250E-01    0.188E+00
RMM:  18    -0.231867927717E+04    0.12539E-01   -0.16077E-02 30939   0.203E-01    0.997E-01
RMM:  19    -0.231867811340E+04    0.11638E-02   -0.13344E-02 34126   0.151E-01    0.830E-01
RMM:  20    -0.231867854393E+04   -0.43053E-03   -0.10087E-02 32683   0.148E-01    0.841E-01
RMM:  21    -0.231867756120E+04    0.98273E-03   -0.40596E-03 29322   0.127E-01    0.715E-01
RMM:  22    -0.231867769369E+04   -0.13249E-03   -0.51034E-03 36389   0.824E-02    0.702E-01
RMM:  23    -0.231867644303E+04    0.12507E-02   -0.21836E-03 30891   0.752E-02    0.482E-01
RMM:  24    -0.231867566970E+04    0.77334E-03   -0.99328E-04 29407   0.623E-02    0.293E-01
RMM:  25    -0.231867559200E+04    0.77701E-04   -0.13383E-03 34596   0.456E-02    0.235E-01
RMM:  26    -0.231867555184E+04    0.40159E-04   -0.62615E-04 32333   0.352E-02    0.227E-01
RMM:  27    -0.231867553761E+04    0.14226E-04   -0.47067E-04 36790   0.233E-02    0.205E-01
RMM:  28    -0.231867547803E+04    0.59581E-04   -0.28803E-04 37467   0.190E-02    0.161E-01
RMM:  29    -0.231867541271E+04    0.65321E-04   -0.10329E-04 31301   0.159E-02    0.104E-01
RMM:  30    -0.231867540557E+04    0.71358E-05   -0.10669E-04 39063   0.104E-02    0.904E-02
RMM:  31    -0.231867537584E+04    0.29732E-04   -0.47946E-05 32671   0.976E-03    0.496E-02
RMM:  32    -0.231867536791E+04    0.79358E-05   -0.23098E-05 30778   0.730E-03    0.276E-02
RMM:  33    -0.231867536867E+04   -0.76366E-06   -0.20028E-05 30780   0.454E-03    0.257E-02
RMM:  34    -0.231867536811E+04    0.56106E-06   -0.71799E-06 23061   0.404E-03
   5 F= -.23186754E+04 E0= -.23158737E+04  d E =-.502823E+00
