<?xml version="1.0" encoding="ISO-8859-1"?>
<modeling>
 <generator>
  <i name="program" type="string">vasp </i>
  <i name="version" type="string">5.4.4.18Apr17-6-g9f103f2a35  </i>
  <i name="subversion" type="string">(build Sep 27 2018 12:46:37) complex + VL-xray_ parallel </i>
  <i name="platform" type="string">LLNL_Quartz_ifc </i>
  <i name="date" type="string">2021 09 26 </i>
  <i name="time" type="string">21:24:32 </i>
 </generator>
 <incar>
  <i type="int" name="ISTART">     2</i>
  <i type="string" name="PREC">accurate</i>
  <i type="string" name="ALGO"> Fast</i>
  <i type="int" name="ICHARG">     2</i>
  <i type="int" name="INIWAV">     1</i>
  <i type="int" name="NELM">   100</i>
  <i type="int" name="NELMIN">     4</i>
  <i type="int" name="IBRION">     2</i>
  <i name="EDIFF">      0.00000100</i>
  <i type="int" name="NSW">     5</i>
  <i type="int" name="ISIF">     2</i>
  <i type="int" name="ISYM">     2</i>
  <i name="ENCUT">    450.00000000</i>
  <i name="POTIM">      0.25000000</i>
  <i type="string" name="LREAL"> Auto</i>
  <i type="int" name="ISMEAR">     0</i>
  <i name="SIGMA">      0.15000000</i>
  <i type="logical" name="LWAVE"> F  </i>
  <i type="logical" name="LCHARG"> F  </i>
  <i type="int" name="ICORELEVEL">     0</i>
  <i type="int" name="CLNT">     1</i>
  <i type="int" name="CLN">     1</i>
  <i type="int" name="INCAR     ">     0</i>
  <i name="CLZ">      0.00000000</i>
  <v type="int" name="KPOINT_BSE">    -1     0     0     0</v>
  <i type="int" name="NELM">   100</i>
 </incar>
 <structure name="primitive_cell" >
  <crystal>
   <varray name="basis" >
    <v>       9.72667804       0.00000000       0.00000000 </v>
    <v>       0.00000000       8.42355028       0.00000000 </v>
    <v>       0.00000000       0.00000000      45.00000000 </v>
   </varray>
   <i name="volume">   3686.99226691 </i>
   <varray name="rec_basis" >
    <v>       0.10281002       0.00000000       0.00000000 </v>
    <v>       0.00000000       0.11871479       0.00000000 </v>
    <v>       0.00000000       0.00000000       0.02222222 </v>
   </varray>
  </crystal>
  <varray name="positions" >
   <v>       0.06251945       0.03299833       0.12461002 </v>
   <v>      -0.05814885       0.11273837       0.16687494 </v>
   <v>       0.19270491       0.11139559       0.16627279 </v>
   <v>       0.06774014      -0.13718238       0.16676548 </v>
   <v>       0.18716100       0.28237880       0.12463889 </v>
   <v>       0.31199774       0.03283729       0.12448889 </v>
   <v>      -0.06405972       0.28199403       0.12448607 </v>
   <v>       0.18705369      -0.21789612       0.12442629 </v>
   <v>      -0.18834468       0.03294798       0.12447073 </v>
   <v>      -0.06395381      -0.21836602       0.12457558 </v>
   <v>       0.06681972       0.36142100       0.16692196 </v>
   <v>      -0.18310456      -0.13785549       0.16687409 </v>
   <v>       0.31780943      -0.13904672       0.16633695 </v>
   <v>      -0.30755746       0.11183383       0.16701946 </v>
   <v>      -0.18306917       0.36273172       0.16697238 </v>
   <v>       0.18021836      -0.04760759       0.21167920 </v>
   <v>       0.31745246       0.36125936       0.16676829 </v>
   <v>       0.05488312       0.20280150       0.21182923 </v>
   <v>      -0.06927939      -0.04681585       0.21183006 </v>
   <v>      -0.05838750      -0.38751918       0.16687283 </v>
   <v>       0.44193054       0.11205526       0.16677156 </v>
   <v>       0.43657666      -0.21790803       0.12445340 </v>
   <v>      -0.31235701       0.28239601       0.12434309 </v>
   <v>       0.43735605       0.28280182       0.12446733 </v>
   <v>       0.06167197      -0.46714527       0.12450130 </v>
   <v>       0.19216713      -0.38740935       0.16680840 </v>
   <v>      -0.31242462      -0.21745677       0.12449464 </v>
   <v>       0.30567511       0.20286635       0.21187044 </v>
   <v>       0.05585769      -0.29780071       0.21160267 </v>
   <v>      -0.43699064       0.03290869       0.12452553 </v>
   <v>       0.31249007      -0.46661816       0.12447747 </v>
   <v>      -0.19435982       0.20257625       0.21167468 </v>
   <v>      -0.18874673      -0.46764885       0.12440992 </v>
   <v>       0.43052392      -0.04732818       0.21182694 </v>
   <v>       0.30508883      -0.29766827       0.21182060 </v>
   <v>      -0.43305420      -0.13722801       0.16679476 </v>
   <v>       0.18059765       0.45234845       0.21161524 </v>
   <v>      -0.30824660      -0.38785463       0.16690103 </v>
   <v>      -0.19475323      -0.29718687       0.21175105 </v>
   <v>      -0.07010345       0.45276584       0.21175855 </v>
   <v>      -0.31994605      -0.04706742       0.21180251 </v>
   <v>       0.44159558      -0.38746314       0.16684541 </v>
   <v>      -0.43255160       0.36277653       0.16695802 </v>
   <v>       0.06538662       0.03521425       0.25599153 </v>
   <v>      -0.44456790       0.20220936       0.21157066 </v>
   <v>       0.43062530       0.45215200       0.21156242 </v>
   <v>      -0.18458774       0.03515893       0.25596354 </v>
   <v>      -0.05962707      -0.21469816       0.25602060 </v>
   <v>       0.19049756      -0.21462230       0.25602972 </v>
   <v>      -0.05955855       0.28524211       0.25599269 </v>
   <v>       0.31507416       0.03567117       0.25598815 </v>
   <v>       0.19023889       0.28533607       0.25603091 </v>
   <v>      -0.43724825      -0.46762493       0.12449929 </v>
   <v>      -0.31940493       0.45254288       0.21167193 </v>
   <v>      -0.44468784      -0.29740171       0.21175683 </v>
   <v>      -0.30995221      -0.21450035       0.25599285 </v>
   <v>       0.06558690      -0.46466565       0.25594110 </v>
   <v>      -0.30981293       0.28515716       0.25599128 </v>
   <v>       0.44017564      -0.21466699       0.25592970 </v>
   <v>       0.44062599       0.28526500       0.25599934 </v>
   <v>      -0.43435672       0.03545849       0.25600108 </v>
   <v>      -0.18470503      -0.46462107       0.25602829 </v>
   <v>       0.31558751      -0.46472653       0.25600965 </v>
   <v>       0.05442532      -0.12741167       0.30008082 </v>
   <v>       0.17940909       0.12256175       0.30030263 </v>
   <v>      -0.07134552       0.12203028       0.30031219 </v>
   <v>       0.30378963      -0.12797877       0.30034234 </v>
   <v>      -0.19564573      -0.12758490       0.30015408 </v>
   <v>       0.05398200       0.37232267       0.30022317 </v>
   <v>       0.17888595      -0.37818010       0.30019996 </v>
   <v>       0.42868516       0.12199331       0.30034731 </v>
   <v>      -0.43456112      -0.46468028       0.25602936 </v>
   <v>      -0.07112308      -0.37769537       0.30025770 </v>
   <v>       0.30367535       0.37304803       0.30024482 </v>
   <v>      -0.32080884       0.12201679       0.30023727 </v>
   <v>      -0.19635097       0.37192857       0.30031726 </v>
   <v>       0.42879276      -0.37794945       0.30027562 </v>
   <v>      -0.44617894      -0.12791578       0.30034425 </v>
   <v>      -0.32089909      -0.37805380       0.30014327 </v>
   <v>      -0.44622969       0.37203289       0.30031179 </v>
   <v>      -0.05766001      -0.04773987       0.34504142 </v>
   <v>       0.19128673      -0.04833193       0.34499163 </v>
   <v>       0.06575457       0.20258344       0.34505943 </v>
   <v>      -0.18355368       0.20173719       0.34497077 </v>
   <v>       0.06629276      -0.29813918       0.34497827 </v>
   <v>       0.31626908       0.20200885       0.34487876 </v>
   <v>      -0.18336007      -0.29757554       0.34494478 </v>
   <v>      -0.30868788      -0.04821019       0.34497861 </v>
   <v>      -0.05868950       0.45190402       0.34492869 </v>
   <v>       0.31621557      -0.29836016       0.34495030 </v>
   <v>       0.19145082       0.45161028       0.34496728 </v>
   <v>       0.44166279      -0.04810123       0.34498461 </v>
   <v>      -0.43385652       0.20186218       0.34494670 </v>
   <v>      -0.30904913       0.45170736       0.34494262 </v>
   <v>       0.44136307       0.45194984       0.34498368 </v>
   <v>       0.06412449       0.04268602      -0.12441225 </v>
   <v>      -0.43382051      -0.29798529       0.34491663 </v>
   <v>       0.19329780      -0.20312826      -0.12411069 </v>
   <v>      -0.05924680      -0.20451357      -0.12433005 </v>
   <v>      -0.18550119       0.04272580      -0.12431720 </v>
   <v>       0.31486594       0.04148415      -0.12429913 </v>
   <v>      -0.05891101       0.29682694      -0.12420172 </v>
   <v>       0.19078490       0.29592699      -0.12421692 </v>
   <v>       0.05857279       0.03738355       0.38907952 </v>
   <v>      -0.30725085      -0.20389841      -0.12438942 </v>
   <v>       0.06438800      -0.45775079      -0.12433615 </v>
   <v>       0.44074412      -0.20327277      -0.12424583 </v>
   <v>      -0.30629207       0.29691269      -0.12419087 </v>
   <v>       0.44297295       0.29633745      -0.12428541 </v>
   <v>       0.18344097      -0.21271691       0.38906108 </v>
   <v>       0.30874830       0.03749811       0.38903103 </v>
   <v>      -0.06632808      -0.21283662       0.38899599 </v>
   <v>       0.18343333       0.28804692       0.38908759 </v>
   <v>      -0.06608396       0.28707167       0.38895444 </v>
   <v>      -0.19140221       0.03736325       0.38904704 </v>
   <v>      -0.18549371      -0.45743932      -0.12436159 </v>
   <v>       0.31425866      -0.45750852      -0.12445895 </v>
   <v>      -0.43489510       0.04297915      -0.12440206 </v>
   <v>       0.43375452      -0.21248240       0.38908011 </v>
   <v>       0.05813039      -0.46218295       0.38902305 </v>
   <v>       0.43369335       0.28750961       0.38906714 </v>
   <v>      -0.31628593      -0.21240533       0.38906686 </v>
   <v>      -0.31633727       0.28753028       0.38906451 </v>
   <v>      -0.44140536       0.03752731       0.38890810 </v>
   <v>       0.30856570      -0.46230982       0.38907185 </v>
   <v>      -0.19129598      -0.46242163       0.38905006 </v>
   <v>      -0.43480529      -0.45811646      -0.12441307 </v>
   <v>       0.18394119      -0.03664253      -0.16680249 </v>
   <v>      -0.06667329      -0.03640835      -0.16689986 </v>
   <v>       0.05862724       0.21349568      -0.16668043 </v>
   <v>       0.05878277      -0.28691947      -0.16677847 </v>
   <v>       0.30893285       0.21390384      -0.16670267 </v>
   <v>      -0.19125328       0.21302018      -0.16685548 </v>
   <v>      -0.44151601      -0.46267752       0.38906663 </v>
   <v>       0.30804240      -0.28513163      -0.16608373 </v>
   <v>       0.43280525      -0.03701256      -0.16678667 </v>
   <v>      -0.19166485      -0.28632482      -0.16692223 </v>
   <v>      -0.31613195      -0.03655789      -0.16688110 </v>
   <v>       0.18371510       0.46437919      -0.16675547 </v>
   <v>      -0.06641969       0.46332114      -0.16698125 </v>
   <v>       0.06284309      -0.12920665       0.43442406 </v>
   <v>      -0.06152144       0.11979210       0.43433892 </v>
   <v>       0.18806065       0.12021203       0.43447369 </v>
   <v>      -0.44101897       0.21343180      -0.16675093 </v>
   <v>       0.43366985       0.46378552      -0.16679754 </v>
   <v>      -0.31644548       0.46312121      -0.16693398 </v>
   <v>      -0.18695400      -0.12950320       0.43443466 </v>
   <v>       0.31319147      -0.12918919       0.43443407 </v>
   <v>      -0.44106133      -0.28675040      -0.16674354 </v>
   <v>       0.06307716       0.37066830       0.43445722 </v>
   <v>       0.18828033      -0.37999762       0.43436391 </v>
   <v>      -0.06195050      -0.38069667       0.43459173 </v>
   <v>      -0.31198686       0.12029242       0.43446916 </v>
   <v>       0.43804885       0.11995440       0.43445059 </v>
   <v>      -0.18728659       0.37037132       0.43445317 </v>
   <v>       0.31293756       0.37096411       0.43442937 </v>
   <v>       0.43832375      -0.37938645       0.43427262 </v>
   <v>      -0.31197629      -0.37958298       0.43443710 </v>
   <v>      -0.43725818      -0.12960337       0.43444342 </v>
   <v>      -0.43700115       0.37039632       0.43443846 </v>
   <v>      -0.05443350       0.12475412      -0.21150516 </v>
   <v>       0.07082418      -0.12549768      -0.21159381 </v>
   <v>       0.19561172       0.12502757      -0.21150828 </v>
   <v>      -0.17913480      -0.12561591      -0.21161916 </v>
   <v>       0.32072754      -0.12533475      -0.21159382 </v>
   <v>       0.07081243       0.37455542      -0.21160014 </v>
   <v>      -0.05437947      -0.37507156      -0.21146604 </v>
   <v>      -0.30425338       0.12467173      -0.21156677 </v>
   <v>       0.19522310      -0.37538456      -0.21162997 </v>
   <v>      -0.17933744       0.37446619      -0.21158334 </v>
   <v>       0.44535654       0.12496105      -0.21140874 </v>
   <v>       0.32074562       0.37445349      -0.21157869 </v>
   <v>      -0.30458848      -0.37541544      -0.21146781 </v>
   <v>      -0.42963551      -0.12575725      -0.21163912 </v>
   <v>       0.44602774      -0.37541184      -0.21164149 </v>
   <v>      -0.06229542      -0.04422217       0.47862563 </v>
   <v>       0.18800441      -0.04395914       0.47864270 </v>
   <v>       0.06278296       0.20575945       0.47863469 </v>
   <v>      -0.42911319       0.37447316      -0.21161766 </v>
   <v>       0.06310123      -0.29445753       0.47862008 </v>
   <v>      -0.18691536       0.20569473       0.47854231 </v>
   <v>       0.31285082       0.20588065       0.47858761 </v>
   <v>      -0.18712391      -0.29416312       0.47862723 </v>
   <v>       0.31277747      -0.29429494       0.47863047 </v>
   <v>      -0.31213427      -0.04401843       0.47863048 </v>
   <v>       0.43791208      -0.04404440       0.47861123 </v>
   <v>      -0.06226086       0.45585647       0.47862306 </v>
   <v>       0.18781023       0.45582010       0.47863277 </v>
   <v>      -0.43715918       0.20573738       0.47856575 </v>
   <v>      -0.31216520       0.45576205       0.47863856 </v>
   <v>       0.43796466       0.45596714       0.47861462 </v>
   <v>      -0.43724619      -0.29415771       0.47861481 </v>
   <v>       0.06058293       0.04219020      -0.25583393 </v>
   <v>       0.18589759      -0.20836461      -0.25584312 </v>
   <v>      -0.06425314      -0.20816531      -0.25584691 </v>
   <v>       0.31067173       0.04217644      -0.25591513 </v>
   <v>      -0.18928665       0.04222379      -0.25594499 </v>
   <v>       0.18570949       0.29190509      -0.25585521 </v>
   <v>      -0.06405560       0.29177611      -0.25584643 </v>
   <v>       0.06055056      -0.45778498      -0.25582019 </v>
   <v>       0.43585579      -0.20824398      -0.25585470 </v>
   <v>      -0.31432210      -0.20804624      -0.25583303 </v>
   <v>       0.43571632       0.29187256      -0.25586021 </v>
   <v>      -0.31440077       0.29164483      -0.25593737 </v>
   <v>       0.31079834      -0.45763352      -0.25578334 </v>
   <v>      -0.18936265      -0.45769095      -0.25588575 </v>
   <v>      -0.43945905       0.04227204      -0.25582824 </v>
   <v>       0.06330124      -0.12806189      -0.47876972 </v>
   <v>      -0.06139965       0.12196232      -0.47870673 </v>
   <v>       0.18849657       0.12224260      -0.47872107 </v>
   <v>      -0.18646703      -0.12798314      -0.47871018 </v>
   <v>       0.31365225      -0.12802459      -0.47874607 </v>
   <v>       0.06343401       0.37220481      -0.47867815 </v>
   <v>      -0.06149736      -0.37788297      -0.47867375 </v>
   <v>       0.18845862      -0.37790846      -0.47868483 </v>
   <v>      -0.31152582       0.12203081      -0.47871017 </v>
   <v>       0.43825166       0.12196935      -0.47867741 </v>
   <v>      -0.18650178       0.37202172      -0.47870492 </v>
   <v>       0.31346646       0.37223798      -0.47869273 </v>
   <v>      -0.43928174      -0.45760302      -0.25590776 </v>
   <v>      -0.31151384      -0.37771607      -0.47866162 </v>
   <v>       0.43843493      -0.37787600      -0.47867944 </v>
   <v>      -0.43654134      -0.12797700      -0.47868693 </v>
   <v>      -0.43653467       0.37198716      -0.47870728 </v>
   <v>      -0.05942448      -0.04163669      -0.30028358 </v>
   <v>       0.19048824      -0.04159834      -0.30029801 </v>
   <v>       0.06540422       0.20838657      -0.30031803 </v>
   <v>       0.06540087      -0.29161808      -0.30034297 </v>
   <v>      -0.18457244       0.20839104      -0.30030878 </v>
   <v>       0.31534014       0.20837063      -0.30029939 </v>
   <v>      -0.18445549      -0.29166089      -0.30030051 </v>
   <v>      -0.30941080      -0.04158816      -0.30027860 </v>
   <v>       0.31527514      -0.29160509      -0.30033908 </v>
   <v>       0.44034981      -0.04160996      -0.30030669 </v>
   <v>      -0.05958965       0.45836660      -0.30031683 </v>
   <v>       0.19033055       0.45825752      -0.30033041 </v>
   <v>      -0.43428900       0.20840844      -0.30030168 </v>
   <v>      -0.30923227       0.45840293      -0.30029938 </v>
   <v>       0.44035397       0.45828046      -0.30030149 </v>
   <v>       0.18872429      -0.04254586      -0.43472627 </v>
   <v>      -0.06123967      -0.04217134      -0.43454025 </v>
   <v>       0.06379465       0.20775409      -0.43452415 </v>
   <v>      -0.43465600      -0.29167734      -0.30033061 </v>
   <v>       0.06386359      -0.29223657      -0.43448793 </v>
   <v>      -0.18610108       0.20767526      -0.43457757 </v>
   <v>       0.31397635       0.20781010      -0.43445050 </v>
   <v>      -0.18603186      -0.29229031      -0.43457216 </v>
   <v>       0.31396614      -0.29239020      -0.43449864 </v>
   <v>      -0.31118949      -0.04226663      -0.43453866 </v>
   <v>       0.43885129      -0.04226904      -0.43453998 </v>
   <v>      -0.06113534       0.45765913      -0.43457701 </v>
   <v>       0.18880576       0.45765154      -0.43455758 </v>
   <v>      -0.43621915       0.20762012      -0.43456528 </v>
   <v>      -0.31120550       0.45773061      -0.43455682 </v>
   <v>       0.43872389       0.45774721      -0.43455515 </v>
   <v>      -0.43621600      -0.29242194      -0.43456899 </v>
   <v>       0.05878889      -0.12436186      -0.34509177 </v>
   <v>       0.18385824       0.12578990      -0.34508444 </v>
   <v>      -0.06595686       0.12594544      -0.34505520 </v>
   <v>       0.30883300      -0.12434372      -0.34506704 </v>
   <v>      -0.19112304      -0.12440766      -0.34509305 </v>
   <v>       0.05893881       0.37572598      -0.34507208 </v>
   <v>       0.18400059      -0.37403491      -0.34505519 </v>
   <v>      -0.06609827      -0.37401388      -0.34505777 </v>
   <v>       0.43393801       0.12584392      -0.34509201 </v>
   <v>       0.30882635       0.37567231      -0.34508312 </v>
   <v>      -0.31615506       0.12610768      -0.34503257 </v>
   <v>      -0.19116929       0.37562241      -0.34506739 </v>
   <v>       0.43396250      -0.37394084      -0.34504749 </v>
   <v>      -0.44115202      -0.12431548      -0.34508655 </v>
   <v>      -0.31597606      -0.37395916      -0.34504150 </v>
   <v>      -0.44114402       0.37558191      -0.34504137 </v>
   <v>       0.06265400       0.04183620      -0.38911249 </v>
   <v>      -0.06214930      -0.20824740      -0.38920356 </v>
   <v>       0.18771704      -0.20817181      -0.38918037 </v>
   <v>      -0.18697365       0.04175036      -0.38927680 </v>
   <v>       0.31271202       0.04180795      -0.38914222 </v>
   <v>      -0.06201423       0.29170426      -0.38925688 </v>
   <v>       0.18789100       0.29178596      -0.38923186 </v>
   <v>       0.06274400      -0.45813411      -0.38916809 </v>
   <v>       0.43769108      -0.20816504      -0.38915857 </v>
   <v>      -0.31231188      -0.20815994      -0.38909686 </v>
   <v>       0.43785004       0.29175171      -0.38922423 </v>
   <v>      -0.31236705       0.29188204      -0.38913895 </v>
   <v>       0.31276843      -0.45816359      -0.38919607 </v>
   <v>      -0.18724406      -0.45831103      -0.38913861 </v>
   <v>      -0.43721427       0.04160015      -0.38926729 </v>
   <v>      -0.43730045      -0.45828500      -0.38914856 </v>
  </varray>
 </structure>
 <varray name="primitive_index" >
  <v type="int" >        1 </v>
  <v type="int" >       26 </v>
  <v type="int" >      282 </v>
  <v type="int" >       60 </v>
  <v type="int" >      111 </v>
  <v type="int" >      256 </v>
  <v type="int" >      155 </v>
  <v type="int" >       83 </v>
  <v type="int" >      202 </v>
  <v type="int" >      212 </v>
  <v type="int" >       51 </v>
  <v type="int" >      102 </v>
  <v type="int" >      284 </v>
  <v type="int" >      166 </v>
  <v type="int" >      252 </v>
  <v type="int" >      146 </v>
  <v type="int" >        5 </v>
  <v type="int" >       50 </v>
  <v type="int" >      273 </v>
  <v type="int" >      104 </v>
  <v type="int" >      182 </v>
  <v type="int" >       48 </v>
  <v type="int" >      145 </v>
  <v type="int" >      117 </v>
  <v type="int" >      176 </v>
  <v type="int" >       20 </v>
  <v type="int" >      163 </v>
  <v type="int" >      123 </v>
  <v type="int" >      250 </v>
  <v type="int" >      251 </v>
  <v type="int" >       91 </v>
  <v type="int" >      167 </v>
  <v type="int" >      205 </v>
  <v type="int" >      229 </v>
  <v type="int" >      276 </v>
  <v type="int" >      277 </v>
  <v type="int" >      189 </v>
  <v type="int" >       97 </v>
  <v type="int" >      213 </v>
  <v type="int" >      175 </v>
  <v type="int" >       92 </v>
  <v type="int" >      174 </v>
  <v type="int" >       30 </v>
  <v type="int" >      185 </v>
  <v type="int" >      103 </v>
  <v type="int" >      139 </v>
  <v type="int" >       24 </v>
  <v type="int" >       52 </v>
  <v type="int" >      200 </v>
  <v type="int" >      127 </v>
  <v type="int" >      179 </v>
  <v type="int" >       35 </v>
  <v type="int" >      164 </v>
  <v type="int" >      261 </v>
  <v type="int" >      243 </v>
  <v type="int" >      118 </v>
  <v type="int" >      168 </v>
  <v type="int" >       58 </v>
  <v type="int" >      137 </v>
  <v type="int" >      265 </v>
  <v type="int" >      281 </v>
  <v type="int" >       81 </v>
  <v type="int" >      275 </v>
  <v type="int" >      214 </v>
  <v type="int" >      215 </v>
  <v type="int" >      135 </v>
  <v type="int" >       98 </v>
  <v type="int" >       72 </v>
  <v type="int" >      226 </v>
  <v type="int" >      285 </v>
  <v type="int" >      159 </v>
  <v type="int" >       28 </v>
  <v type="int" >      178 </v>
  <v type="int" >      242 </v>
  <v type="int" >      109 </v>
  <v type="int" >      220 </v>
  <v type="int" >      101 </v>
  <v type="int" >      210 </v>
  <v type="int" >      130 </v>
  <v type="int" >      171 </v>
  <v type="int" >      287 </v>
  <v type="int" >      258 </v>
  <v type="int" >       47 </v>
  <v type="int" >      207 </v>
  <v type="int" >      216 </v>
  <v type="int" >       86 </v>
  <v type="int" >       73 </v>
  <v type="int" >       25 </v>
  <v type="int" >       12 </v>
  <v type="int" >      208 </v>
  <v type="int" >      116 </v>
  <v type="int" >      172 </v>
  <v type="int" >      219 </v>
  <v type="int" >      279 </v>
  <v type="int" >      206 </v>
  <v type="int" >       84 </v>
  <v type="int" >       62 </v>
  <v type="int" >      268 </v>
  <v type="int" >      105 </v>
  <v type="int" >        2 </v>
  <v type="int" >      245 </v>
  <v type="int" >      280 </v>
  <v type="int" >      120 </v>
  <v type="int" >      124 </v>
  <v type="int" >       29 </v>
  <v type="int" >      266 </v>
  <v type="int" >      150 </v>
  <v type="int" >      191 </v>
  <v type="int" >      255 </v>
  <v type="int" >        7 </v>
  <v type="int" >      165 </v>
  <v type="int" >      190 </v>
  <v type="int" >      248 </v>
  <v type="int" >       13 </v>
  <v type="int" >       38 </v>
  <v type="int" >      247 </v>
  <v type="int" >       18 </v>
  <v type="int" >      161 </v>
  <v type="int" >      264 </v>
  <v type="int" >      286 </v>
  <v type="int" >        4 </v>
  <v type="int" >       45 </v>
  <v type="int" >       55 </v>
  <v type="int" >       16 </v>
  <v type="int" >       67 </v>
  <v type="int" >      270 </v>
  <v type="int" >       64 </v>
  <v type="int" >      173 </v>
  <v type="int" >       17 </v>
  <v type="int" >      259 </v>
  <v type="int" >      134 </v>
  <v type="int" >       39 </v>
  <v type="int" >        6 </v>
  <v type="int" >      222 </v>
  <v type="int" >      283 </v>
  <v type="int" >      110 </v>
  <v type="int" >      253 </v>
  <v type="int" >       88 </v>
  <v type="int" >      181 </v>
  <v type="int" >       36 </v>
  <v type="int" >      204 </v>
  <v type="int" >      158 </v>
  <v type="int" >      160 </v>
  <v type="int" >      143 </v>
  <v type="int" >       74 </v>
  <v type="int" >       82 </v>
  <v type="int" >      263 </v>
  <v type="int" >       23 </v>
  <v type="int" >      241 </v>
  <v type="int" >      218 </v>
  <v type="int" >      238 </v>
  <v type="int" >      131 </v>
  <v type="int" >      257 </v>
  <v type="int" >      201 </v>
  <v type="int" >       80 </v>
  <v type="int" >      113 </v>
  <v type="int" >      249 </v>
  <v type="int" >      232 </v>
  <v type="int" >       69 </v>
  <v type="int" >      235 </v>
  <v type="int" >      149 </v>
  <v type="int" >      197 </v>
  <v type="int" >        3 </v>
  <v type="int" >      112 </v>
  <v type="int" >      224 </v>
  <v type="int" >      254 </v>
  <v type="int" >      132 </v>
  <v type="int" >      188 </v>
  <v type="int" >      272 </v>
  <v type="int" >       57 </v>
  <v type="int" >       49 </v>
  <v type="int" >      138 </v>
  <v type="int" >       66 </v>
  <v type="int" >       33 </v>
  <v type="int" >      184 </v>
  <v type="int" >      236 </v>
  <v type="int" >      288 </v>
  <v type="int" >      223 </v>
  <v type="int" >      106 </v>
  <v type="int" >      157 </v>
  <v type="int" >       21 </v>
  <v type="int" >      230 </v>
  <v type="int" >      234 </v>
  <v type="int" >       99 </v>
  <v type="int" >       75 </v>
  <v type="int" >      221 </v>
  <v type="int" >      269 </v>
  <v type="int" >      244 </v>
  <v type="int" >      237 </v>
  <v type="int" >      199 </v>
  <v type="int" >      156 </v>
  <v type="int" >      169 </v>
  <v type="int" >        9 </v>
  <v type="int" >      262 </v>
  <v type="int" >       46 </v>
  <v type="int" >      239 </v>
  <v type="int" >      151 </v>
  <v type="int" >       11 </v>
  <v type="int" >      187 </v>
  <v type="int" >      211 </v>
  <v type="int" >       31 </v>
  <v type="int" >       43 </v>
  <v type="int" >       71 </v>
  <v type="int" >       19 </v>
  <v type="int" >       94 </v>
  <v type="int" >       87 </v>
  <v type="int" >      267 </v>
  <v type="int" >      180 </v>
  <v type="int" >       27 </v>
  <v type="int" >      140 </v>
  <v type="int" >       10 </v>
  <v type="int" >      144 </v>
  <v type="int" >      107 </v>
  <v type="int" >      203 </v>
  <v type="int" >       68 </v>
  <v type="int" >       34 </v>
  <v type="int" >      152 </v>
  <v type="int" >      177 </v>
  <v type="int" >      183 </v>
  <v type="int" >      278 </v>
  <v type="int" >      195 </v>
  <v type="int" >       14 </v>
  <v type="int" >       77 </v>
  <v type="int" >      108 </v>
  <v type="int" >      225 </v>
  <v type="int" >      119 </v>
  <v type="int" >       37 </v>
  <v type="int" >      274 </v>
  <v type="int" >      233 </v>
  <v type="int" >       63 </v>
  <v type="int" >      141 </v>
  <v type="int" >       54 </v>
  <v type="int" >      154 </v>
  <v type="int" >      125 </v>
  <v type="int" >      136 </v>
  <v type="int" >      246 </v>
  <v type="int" >       53 </v>
  <v type="int" >       76 </v>
  <v type="int" >      193 </v>
  <v type="int" >      162 </v>
  <v type="int" >      129 </v>
  <v type="int" >      170 </v>
  <v type="int" >      133 </v>
  <v type="int" >       65 </v>
  <v type="int" >      271 </v>
  <v type="int" >       93 </v>
  <v type="int" >       32 </v>
  <v type="int" >       90 </v>
  <v type="int" >       95 </v>
  <v type="int" >       56 </v>
  <v type="int" >       42 </v>
  <v type="int" >       59 </v>
  <v type="int" >        8 </v>
  <v type="int" >      228 </v>
  <v type="int" >       70 </v>
  <v type="int" >      186 </v>
  <v type="int" >      196 </v>
  <v type="int" >      121 </v>
  <v type="int" >      122 </v>
  <v type="int" >       44 </v>
  <v type="int" >       79 </v>
  <v type="int" >      198 </v>
  <v type="int" >      153 </v>
  <v type="int" >      240 </v>
  <v type="int" >      231 </v>
  <v type="int" >       85 </v>
  <v type="int" >      209 </v>
  <v type="int" >      194 </v>
  <v type="int" >       40 </v>
  <v type="int" >       89 </v>
  <v type="int" >      227 </v>
  <v type="int" >       78 </v>
  <v type="int" >      142 </v>
  <v type="int" >      114 </v>
  <v type="int" >       15 </v>
  <v type="int" >      217 </v>
  <v type="int" >      148 </v>
  <v type="int" >      100 </v>
  <v type="int" >       61 </v>
  <v type="int" >      126 </v>
  <v type="int" >       96 </v>
  <v type="int" >      192 </v>
  <v type="int" >      115 </v>
  <v type="int" >      147 </v>
  <v type="int" >       41 </v>
  <v type="int" >       22 </v>
  <v type="int" >      260 </v>
  <v type="int" >      128 </v>
 </varray>
 <kpoints>
  <generation param="Gamma">
   <v type="int" name="divisions">       4        4        1 </v>
   <v name="usershift">      0.00000000       0.00000000       0.00000000 </v>
   <v name="genvec1">      0.25000000       0.00000000       0.00000000 </v>
   <v name="genvec2">      0.00000000       0.25000000       0.00000000 </v>
   <v name="genvec3">      0.00000000       0.00000000       1.00000000 </v>
   <v name="shift">      0.00000000       0.00000000       0.00000000 </v>
  </generation>
  <varray name="kpointlist" >
   <v>       0.00000000       0.00000000       0.00000000 </v>
   <v>       0.25000000       0.00000000       0.00000000 </v>
   <v>       0.50000000       0.00000000       0.00000000 </v>
   <v>       0.00000000       0.25000000       0.00000000 </v>
   <v>       0.25000000       0.25000000       0.00000000 </v>
   <v>       0.50000000       0.25000000       0.00000000 </v>
   <v>      -0.25000000       0.25000000       0.00000000 </v>
   <v>       0.00000000       0.50000000       0.00000000 </v>
   <v>       0.25000000       0.50000000       0.00000000 </v>
   <v>       0.50000000       0.50000000       0.00000000 </v>
  </varray>
  <varray name="weights" >
   <v>       0.06250000 </v>
   <v>       0.12500000 </v>
   <v>       0.06250000 </v>
   <v>       0.12500000 </v>
   <v>       0.12500000 </v>
   <v>       0.12500000 </v>
   <v>       0.12500000 </v>
   <v>       0.06250000 </v>
   <v>       0.12500000 </v>
   <v>       0.06250000 </v>
  </varray>
 </kpoints>
 <parameters>
  <separator name="general" >
   <i type="string" name="SYSTEM">unknown system</i>
   <i type="logical" name="LCOMPAT"> F  </i>
  </separator>
  <separator name="electronic" >
   <i type="string" name="PREC">accura</i>
   <i name="ENMAX">    450.00000000</i>
   <i name="ENAUG">    838.43500000</i>
   <i name="EDIFF">      0.00000100</i>
   <i type="int" name="IALGO">    68</i>
   <i type="int" name="IWAVPR">    11</i>
   <i type="int" name="NBANDS">  1386</i>
   <i name="NELECT">   2297.00000000</i>
   <i type="int" name="TURBO">     0</i>
   <i type="int" name="IRESTART">     0</i>
   <i type="int" name="NREBOOT">     0</i>
   <i type="int" name="NMIN">     0</i>
   <i name="EREF">      0.00000000</i>
   <separator name="electronic smearing" >
    <i type="int" name="ISMEAR">     0</i>
    <i name="SIGMA">      0.15000000</i>
    <i name="KSPACING">      0.50000000</i>
    <i type="logical" name="KGAMMA"> T  </i>
   </separator>
   <separator name="electronic projectors" >
    <i type="logical" name="LREAL"> T  </i>
    <v name="ROPT">     -0.00025000     -0.00025000</v>
    <i type="int" name="LMAXPAW">  -100</i>
    <i type="int" name="LMAXMIX">     2</i>
    <i type="logical" name="NLSPLINE"> F  </i>
   </separator>
   <separator name="electronic startup" >
    <i type="int" name="ISTART">     0</i>
    <i type="int" name="ICHARG">     2</i>
    <i type="int" name="INIWAV">     1</i>
   </separator>
   <separator name="electronic spin" >
    <i type="int" name="ISPIN">     1</i>
    <i type="logical" name="LNONCOLLINEAR"> F  </i>
    <v name="MAGMOM">      1.00000000      1.00000000      1.00000000      1.00000000      1.00000000      1.00000000      1.00000000      1.00000000      1.00000000      1.00000000      1.00000000      1.00000000      1.00000000      1.00000000      1.00000000      1.00000000      1.00000000      1.00000000      1.00000000      1.00000000
      1.00000000      1.00000000      1.00000000      1.00000000      1.00000000      1.00000000      1.00000000      1.00000000      1.00000000      1.00000000      1.00000000      1.00000000      1.00000000      1.00000000      1.00000000      1.00000000      1.00000000      1.00000000      1.00000000      1.00000000
      1.00000000      1.00000000      1.00000000      1.00000000      1.00000000      1.00000000      1.00000000      1.00000000      1.00000000      1.00000000      1.00000000      1.00000000      1.00000000      1.00000000      1.00000000      1.00000000      1.00000000      1.00000000      1.00000000      1.00000000
      1.00000000      1.00000000      1.00000000      1.00000000      1.00000000      1.00000000      1.00000000      1.00000000      1.00000000      1.00000000      1.00000000      1.00000000      1.00000000      1.00000000      1.00000000      1.00000000      1.00000000      1.00000000      1.00000000      1.00000000
      1.00000000      1.00000000      1.00000000      1.00000000      1.00000000      1.00000000      1.00000000      1.00000000      1.00000000      1.00000000      1.00000000      1.00000000      1.00000000      1.00000000      1.00000000      1.00000000      1.00000000      1.00000000      1.00000000      1.00000000
      1.00000000      1.00000000      1.00000000      1.00000000      1.00000000      1.00000000      1.00000000      1.00000000      1.00000000      1.00000000      1.00000000      1.00000000      1.00000000      1.00000000      1.00000000      1.00000000      1.00000000      1.00000000      1.00000000      1.00000000
      1.00000000      1.00000000      1.00000000      1.00000000      1.00000000      1.00000000      1.00000000      1.00000000      1.00000000      1.00000000      1.00000000      1.00000000      1.00000000      1.00000000      1.00000000      1.00000000      1.00000000      1.00000000      1.00000000      1.00000000
      1.00000000      1.00000000      1.00000000      1.00000000      1.00000000      1.00000000      1.00000000      1.00000000      1.00000000      1.00000000      1.00000000      1.00000000      1.00000000      1.00000000      1.00000000      1.00000000      1.00000000      1.00000000      1.00000000      1.00000000
      1.00000000      1.00000000      1.00000000      1.00000000      1.00000000      1.00000000      1.00000000      1.00000000      1.00000000      1.00000000      1.00000000      1.00000000      1.00000000      1.00000000      1.00000000      1.00000000      1.00000000      1.00000000      1.00000000      1.00000000
      1.00000000      1.00000000      1.00000000      1.00000000      1.00000000      1.00000000      1.00000000      1.00000000      1.00000000      1.00000000      1.00000000      1.00000000      1.00000000      1.00000000      1.00000000      1.00000000      1.00000000      1.00000000      1.00000000      1.00000000
      1.00000000      1.00000000      1.00000000      1.00000000      1.00000000      1.00000000      1.00000000      1.00000000      1.00000000      1.00000000      1.00000000      1.00000000      1.00000000      1.00000000      1.00000000      1.00000000      1.00000000      1.00000000      1.00000000      1.00000000
      1.00000000      1.00000000      1.00000000      1.00000000      1.00000000      1.00000000      1.00000000      1.00000000      1.00000000      1.00000000      1.00000000      1.00000000      1.00000000      1.00000000      1.00000000      1.00000000      1.00000000      1.00000000      1.00000000      1.00000000
      1.00000000      1.00000000      1.00000000      1.00000000      1.00000000      1.00000000      1.00000000      1.00000000      1.00000000      1.00000000      1.00000000      1.00000000      1.00000000      1.00000000      1.00000000      1.00000000      1.00000000      1.00000000      1.00000000      1.00000000
      1.00000000      1.00000000      1.00000000      1.00000000      1.00000000      1.00000000      1.00000000      1.00000000      1.00000000      1.00000000      1.00000000      1.00000000      1.00000000      1.00000000      1.00000000      1.00000000      1.00000000      1.00000000      1.00000000      1.00000000
      1.00000000      1.00000000      1.00000000      1.00000000      1.00000000      1.00000000      1.00000000      1.00000000</v>
    <i name="NUPDOWN">     -1.00000000</i>
    <i type="logical" name="LSORBIT"> F  </i>
    <v name="SAXIS">      0.00000000      0.00000000      1.00000000</v>
    <i type="logical" name="LSPIRAL"> F  </i>
    <v name="QSPIRAL">      0.00000000      0.00000000      0.00000000</v>
    <i type="logical" name="LZEROZ"> F  </i>
   </separator>
   <separator name="electronic exchange-correlation" >
    <i type="logical" name="LASPH"> F  </i>
    <i type="logical" name="LMETAGGA"> F  </i>
   </separator>
   <separator name="electronic convergence" >
    <i type="int" name="NELM">   100</i>
    <i type="int" name="NELMDL">     0</i>
    <i type="int" name="NELMIN">     4</i>
    <i name="ENINI">    450.00000000</i>
    <separator name="electronic convergence detail" >
     <i type="logical" name="LDIAG"> T  </i>
     <i type="logical" name="LSUBROT"> F  </i>
     <i name="WEIMIN">      0.00100000</i>
     <i name="EBREAK">      0.00000000</i>
     <i name="DEPER">      0.30000000</i>
     <i type="int" name="NRMM">     4</i>
     <i name="TIME">      0.40000000</i>
    </separator>
   </separator>
   <separator name="electronic mixer" >
    <i name="AMIX">      0.40000000</i>
    <i name="BMIX">      1.00000000</i>
    <i name="AMIN">      0.10000000</i>
    <i name="AMIX_MAG">      1.60000000</i>
    <i name="BMIX_MAG">      1.00000000</i>
    <separator name="electronic mixer details" >
     <i type="int" name="IMIX">     4</i>
     <i type="logical" name="MIXFIRST"> F  </i>
     <i type="int" name="MAXMIX">   -45</i>
     <i name="WC">    100.00000000</i>
     <i type="int" name="INIMIX">     1</i>
     <i type="int" name="MIXPRE">     1</i>
     <i type="int" name="MREMOVE">     5</i>
    </separator>
   </separator>
   <separator name="electronic dipolcorrection" >
    <i type="logical" name="LDIPOL"> F  </i>
    <i type="logical" name="LMONO"> F  </i>
    <i type="int" name="IDIPOL">     0</i>
    <i name="EPSILON">      1.00000000</i>
    <v name="DIPOL">   -100.00000000   -100.00000000   -100.00000000</v>
    <i name="EFIELD">      0.00000000</i>
   </separator>
  </separator>
  <separator name="grids" >
   <i type="int" name="NGX">    70</i>
   <i type="int" name="NGY">    60</i>
   <i type="int" name="NGZ">   320</i>
   <i type="int" name="NGXF">   140</i>
   <i type="int" name="NGYF">   120</i>
   <i type="int" name="NGZF">   640</i>
   <i type="logical" name="ADDGRID"> F  </i>
  </separator>
  <separator name="ionic" >
   <i type="int" name="NSW">     5</i>
   <i type="int" name="IBRION">     2</i>
   <i type="int" name="MDALGO">     0</i>
   <i type="int" name="ISIF">     2</i>
   <i name="PSTRESS">      0.00000000</i>
   <i name="EDIFFG">      0.00001000</i>
   <i type="int" name="NFREE">     1</i>
   <i name="POTIM">      0.25000000</i>
   <i name="SMASS">     -3.00000000</i>
   <i name="SCALEE">      1.00000000</i>
  </separator>
  <separator name="ionic md" >
   <i name="TEBEG">      0.00010000</i>
   <i name="TEEND">      0.00010000</i>
   <i type="int" name="NBLOCK">     1</i>
   <i type="int" name="KBLOCK">     5</i>
   <i type="int" name="NPACO">   256</i>
   <i name="APACO">     16.00000000</i>
  </separator>
  <separator name="symmetry" >
   <i type="int" name="ISYM">     2</i>
   <i name="SYMPREC">      0.00001000</i>
  </separator>
  <separator name="dos" >
   <i type="int" name="LORBIT">     0</i>
   <v name="RWIGS">     -1.00000000     -1.00000000</v>
   <i type="int" name="NEDOS">   301</i>
   <i name="EMIN">     10.00000000</i>
   <i name="EMAX">    -10.00000000</i>
   <i name="EFERMI">      0.00000000</i>
  </separator>
  <separator name="writing" >
   <i type="int" name="NWRITE">     2</i>
   <i type="logical" name="LWAVE"> F  </i>
   <i type="logical" name="LDOWNSAMPLE"> F  </i>
   <i type="logical" name="LCHARG"> F  </i>
   <i type="logical" name="LPARD"> F  </i>
   <i type="logical" name="LVTOT"> F  </i>
   <i type="logical" name="LVHAR"> F  </i>
   <i type="logical" name="LELF"> F  </i>
   <i type="logical" name="LOPTICS"> F  </i>
   <v name="STM">      0.00000000      0.00000000      0.00000000      0.00000000      0.00000000      0.00000000      0.00000000</v>
  </separator>
  <separator name="performance" >
   <i type="int" name="NPAR">    14</i>
   <i type="int" name="NSIM">     4</i>
   <i type="int" name="NBLK">    -1</i>
   <i type="logical" name="LPLANE"> T  </i>
   <i type="logical" name="LSCALAPACK"> T  </i>
   <i type="logical" name="LSCAAWARE"> T  </i>
   <i type="logical" name="LSCALU"> F  </i>
   <i type="logical" name="LASYNC"> F  </i>
   <i type="logical" name="LORBITALREAL"> F  </i>
  </separator>
  <separator name="miscellaneous" >
   <i type="int" name="IDIOT">     3</i>
   <i type="int" name="ISPECIAL">     0</i>
   <i type="logical" name="LMUSIC"> F  </i>
   <v name="POMASS">     55.84700000     54.93800000</v>
   <v name="DARWINR">      0.00000000      0.00000000</v>
   <v name="DARWINV">      1.00000000      1.00000000</v>
   <i type="logical" name="LCORR"> T  </i>
  </separator>
  <i type="logical" name="GGA_COMPAT"> T  </i>
  <i type="logical" name="LBERRY"> F  </i>
  <i type="int" name="ICORELEVEL">     0</i>
  <i type="logical" name="LDAU"> F  </i>
  <i type="int" name="I_CONSTRAINED_M">     0</i>
  <separator name="electronic exchange-correlation" >
   <i type="string" name="GGA">--</i>
   <i type="int" name="VOSKOWN">     0</i>
   <i type="logical" name="LHFCALC"> F  </i>
   <i type="string" name="PRECFOCK"></i>
   <i type="logical" name="LSYMGRAD"> F  </i>
   <i type="logical" name="LHFONE"> F  </i>
   <i type="logical" name="LRHFCALC"> F  </i>
   <i type="logical" name="LTHOMAS"> F  </i>
   <i type="logical" name="LMODELHF"> F  </i>
   <i name="ENCUT4O">     -1.00000000</i>
   <i type="int" name="EXXOEP">     0</i>
   <i type="int" name="FOURORBIT">     0</i>
   <i name="AEXX">      0.00000000</i>
   <i name="HFALPHA">      0.00000000</i>
   <i name="MCALPHA">      0.00000000</i>
   <i name="ALDAX">      1.00000000</i>
   <i name="AGGAX">      1.00000000</i>
   <i name="ALDAC">      1.00000000</i>
   <i name="AGGAC">      1.00000000</i>
   <i type="int" name="NKREDX">     1</i>
   <i type="int" name="NKREDY">     1</i>
   <i type="int" name="NKREDZ">     1</i>
   <i type="logical" name="SHIFTRED"> F  </i>
   <i type="logical" name="ODDONLY"> F  </i>
   <i type="logical" name="EVENONLY"> F  </i>
   <i type="int" name="LMAXFOCK">     0</i>
   <i type="int" name="NMAXFOCKAE">     0</i>
   <i type="logical" name="LFOCKAEDFT"> F  </i>
   <i name="HFSCREEN">      0.00000000</i>
   <i name="HFSCREENC">      0.00000000</i>
   <i type="int" name="NBANDSGWLOW">     0</i>
  </separator>
  <separator name="vdW DFT" >
   <i type="logical" name="LUSE_VDW"> F  </i>
   <i name="Zab_VDW">     -0.84910000</i>
   <i name="PARAM1">      0.12340000</i>
   <i name="PARAM2">      1.00000000</i>
   <i name="PARAM3">      0.00000000</i>
  </separator>
  <separator name="model GW" >
   <i type="int" name="MODEL_GW">     0</i>
   <i name="MODEL_EPS0">      7.68123389</i>
   <i name="MODEL_ALPHA">      1.00000000</i>
  </separator>
  <separator name="linear response parameters" >
   <i type="logical" name="LEPSILON"> F  </i>
   <i type="logical" name="LRPA"> F  </i>
   <i type="logical" name="LNABLA"> F  </i>
   <i type="logical" name="LVEL"> F  </i>
   <i type="int" name="KINTER">     0</i>
   <i name="CSHIFT">      0.10000000</i>
   <i name="OMEGAMAX">     -1.00000000</i>
   <i name="DEG_THRESHOLD">      0.00200000</i>
   <i name="RTIME">     -0.10000000</i>
   <i name="WPLASMAI">      0.00000000</i>
   <v name="DFIELD">      0.00000000      0.00000000      0.00000000</v>
   <v name="WPLASMA">      0.00000000      0.00000000      0.00000000      0.00000000      0.00000000      0.00000000      0.00000000      0.00000000      0.00000000</v>
  </separator>
  <separator name="orbital magnetization" >
   <i type="logical" name="NUCIND"> F  </i>
   <v name="MAGPOS">      0.00000000      0.00000000      0.00000000</v>
   <i type="logical" name="LNICSALL"> T  </i>
   <i type="logical" name="ORBITALMAG"> F  </i>
   <i type="logical" name="LMAGBLOCH"> F  </i>
   <i type="logical" name="LCHIMAG"> F  </i>
   <i type="logical" name="LGAUGE"> T  </i>
   <i type="int" name="MAGATOM">     0</i>
   <v name="MAGDIPOL">      0.00000000      0.00000000      0.00000000</v>
   <v name="AVECCONST">      0.00000000      0.00000000      0.00000000</v>
  </separator>
  <separator name="response functions" >
   <i type="logical" name="LADDER"> F  </i>
   <i type="logical" name="LRPAFORCE"> F  </i>
   <i type="logical" name="LFXC"> F  </i>
   <i type="logical" name="LHARTREE"> T  </i>
   <i type="int" name="IBSE">     0</i>
   <v type="int" name="KPOINT">    -1     0     0     0</v>
   <i type="logical" name="LTCTE"> F  </i>
   <i type="logical" name="LTETE"> F  </i>
   <i type="logical" name="LTRIPLET"> F  </i>
   <i type="logical" name="LFXCEPS"> F  </i>
   <i type="logical" name="LFXHEG"> F  </i>
   <i type="int" name="NATURALO">     2</i>
   <i type="logical" name="L2ORDER"> F  </i>
   <i type="logical" name="LMP2LT"> F  </i>
   <i type="logical" name="LUSEW"> F  </i>
   <i name="ENCUTGW">     -2.00000000</i>
   <i name="ENCUTGWSOFT">     -2.00000000</i>
   <i name="ENCUTLF">     -1.00000000</i>
   <i type="int" name="LMAXMP2">    -1</i>
   <i name="SCISSOR">      0.00000000</i>
   <i type="int" name="NOMEGA">     0</i>
   <i type="int" name="NOMEGAR">     0</i>
   <i type="int" name="NBANDSGW">    -1</i>
   <i type="int" name="NBANDSO">    -1</i>
   <i type="int" name="NBANDSV">    -1</i>
   <i type="int" name="NELM">   100</i>
   <i type="int" name="NELMHF">     1</i>
   <i type="int" name="DIM">     3</i>
   <i type="int" name="ANTIRES">     0</i>
   <i name="OMEGAMAX">    -30.00000000</i>
   <i name="OMEGAMIN">    -30.00000000</i>
   <i name="OMEGATL">   -200.00000000</i>
   <i type="int" name="OMEGAGRID">   140</i>
   <i name="CSHIFT">     -0.10000000</i>
   <i type="logical" name="SELFENERGY"> F  </i>
   <i type="logical" name="LSPECTRAL"> F  </i>
   <i type="logical" name="LSPECTRALGW"> F  </i>
   <i type="logical" name="LSINGLES"> F  </i>
   <i type="logical" name="LFERMIGW"> F  </i>
   <i type="logical" name="ODDONLYGW"> F  </i>
   <i type="logical" name="EVENONLYGW"> F  </i>
   <i type="int" name="NKREDLFX">     1</i>
   <i type="int" name="NKREDLFY">     1</i>
   <i type="int" name="NKREDLFZ">     1</i>
   <i type="int" name="MAXMEM">  2800</i>
   <i type="int" name="TELESCOPE">     0</i>
   <i type="int" name="TAUPAR">     1</i>
   <i type="int" name="OMEGAPAR">    -1</i>
   <i name="LAMBDA">      1.00000000</i>
  </separator>
  <separator name="External order field" >
   <i name="OFIELD_KAPPA">      0.00000000</i>
   <v name="OFIELD_K">      0.00000000      0.00000000      0.00000000</v>
   <i name="OFIELD_Q6_NEAR">      0.00000000</i>
   <i name="OFIELD_Q6_FAR">      0.00000000</i>
   <i name="OFIELD_A">      0.00000000</i>
  </separator>
 </parameters>
 <atominfo>
  <atoms>     288 </atoms>
  <types>       2 </types>
  <array name="atoms" >
   <dimension dim="1">ion</dimension>
   <field type="string">element</field>
   <field type="int">atomtype</field>
   <set>
    <rc><c>Fe</c><c>   1</c></rc>
    <rc><c>Fe</c><c>   1</c></rc>
    <rc><c>Fe</c><c>   1</c></rc>
    <rc><c>Fe</c><c>   1</c></rc>
    <rc><c>Fe</c><c>   1</c></rc>
    <rc><c>Fe</c><c>   1</c></rc>
    <rc><c>Fe</c><c>   1</c></rc>
    <rc><c>Fe</c><c>   1</c></rc>
    <rc><c>Fe</c><c>   1</c></rc>
    <rc><c>Fe</c><c>   1</c></rc>
    <rc><c>Fe</c><c>   1</c></rc>
    <rc><c>Fe</c><c>   1</c></rc>
    <rc><c>Fe</c><c>   1</c></rc>
    <rc><c>Fe</c><c>   1</c></rc>
    <rc><c>Fe</c><c>   1</c></rc>
    <rc><c>Fe</c><c>   1</c></rc>
    <rc><c>Fe</c><c>   1</c></rc>
    <rc><c>Fe</c><c>   1</c></rc>
    <rc><c>Fe</c><c>   1</c></rc>
    <rc><c>Fe</c><c>   1</c></rc>
    <rc><c>Fe</c><c>   1</c></rc>
    <rc><c>Fe</c><c>   1</c></rc>
    <rc><c>Fe</c><c>   1</c></rc>
    <rc><c>Fe</c><c>   1</c></rc>
    <rc><c>Fe</c><c>   1</c></rc>
    <rc><c>Fe</c><c>   1</c></rc>
    <rc><c>Fe</c><c>   1</c></rc>
    <rc><c>Fe</c><c>   1</c></rc>
    <rc><c>Fe</c><c>   1</c></rc>
    <rc><c>Fe</c><c>   1</c></rc>
    <rc><c>Fe</c><c>   1</c></rc>
    <rc><c>Fe</c><c>   1</c></rc>
    <rc><c>Fe</c><c>   1</c></rc>
    <rc><c>Fe</c><c>   1</c></rc>
    <rc><c>Fe</c><c>   1</c></rc>
    <rc><c>Fe</c><c>   1</c></rc>
    <rc><c>Fe</c><c>   1</c></rc>
    <rc><c>Fe</c><c>   1</c></rc>
    <rc><c>Fe</c><c>   1</c></rc>
    <rc><c>Fe</c><c>   1</c></rc>
    <rc><c>Fe</c><c>   1</c></rc>
    <rc><c>Fe</c><c>   1</c></rc>
    <rc><c>Fe</c><c>   1</c></rc>
    <rc><c>Fe</c><c>   1</c></rc>
    <rc><c>Fe</c><c>   1</c></rc>
    <rc><c>Fe</c><c>   1</c></rc>
    <rc><c>Fe</c><c>   1</c></rc>
    <rc><c>Fe</c><c>   1</c></rc>
    <rc><c>Fe</c><c>   1</c></rc>
    <rc><c>Fe</c><c>   1</c></rc>
    <rc><c>Fe</c><c>   1</c></rc>
    <rc><c>Fe</c><c>   1</c></rc>
    <rc><c>Fe</c><c>   1</c></rc>
    <rc><c>Fe</c><c>   1</c></rc>
    <rc><c>Fe</c><c>   1</c></rc>
    <rc><c>Fe</c><c>   1</c></rc>
    <rc><c>Fe</c><c>   1</c></rc>
    <rc><c>Fe</c><c>   1</c></rc>
    <rc><c>Fe</c><c>   1</c></rc>
    <rc><c>Fe</c><c>   1</c></rc>
    <rc><c>Fe</c><c>   1</c></rc>
    <rc><c>Fe</c><c>   1</c></rc>
    <rc><c>Fe</c><c>   1</c></rc>
    <rc><c>Fe</c><c>   1</c></rc>
    <rc><c>Fe</c><c>   1</c></rc>
    <rc><c>Fe</c><c>   1</c></rc>
    <rc><c>Fe</c><c>   1</c></rc>
    <rc><c>Fe</c><c>   1</c></rc>
    <rc><c>Fe</c><c>   1</c></rc>
    <rc><c>Fe</c><c>   1</c></rc>
    <rc><c>Fe</c><c>   1</c></rc>
    <rc><c>Fe</c><c>   1</c></rc>
    <rc><c>Fe</c><c>   1</c></rc>
    <rc><c>Fe</c><c>   1</c></rc>
    <rc><c>Fe</c><c>   1</c></rc>
    <rc><c>Fe</c><c>   1</c></rc>
    <rc><c>Fe</c><c>   1</c></rc>
    <rc><c>Fe</c><c>   1</c></rc>
    <rc><c>Fe</c><c>   1</c></rc>
    <rc><c>Fe</c><c>   1</c></rc>
    <rc><c>Fe</c><c>   1</c></rc>
    <rc><c>Fe</c><c>   1</c></rc>
    <rc><c>Fe</c><c>   1</c></rc>
    <rc><c>Fe</c><c>   1</c></rc>
    <rc><c>Fe</c><c>   1</c></rc>
    <rc><c>Fe</c><c>   1</c></rc>
    <rc><c>Fe</c><c>   1</c></rc>
    <rc><c>Fe</c><c>   1</c></rc>
    <rc><c>Fe</c><c>   1</c></rc>
    <rc><c>Fe</c><c>   1</c></rc>
    <rc><c>Fe</c><c>   1</c></rc>
    <rc><c>Fe</c><c>   1</c></rc>
    <rc><c>Fe</c><c>   1</c></rc>
    <rc><c>Fe</c><c>   1</c></rc>
    <rc><c>Fe</c><c>   1</c></rc>
    <rc><c>Fe</c><c>   1</c></rc>
    <rc><c>Fe</c><c>   1</c></rc>
    <rc><c>Fe</c><c>   1</c></rc>
    <rc><c>Fe</c><c>   1</c></rc>
    <rc><c>Fe</c><c>   1</c></rc>
    <rc><c>Fe</c><c>   1</c></rc>
    <rc><c>Fe</c><c>   1</c></rc>
    <rc><c>Fe</c><c>   1</c></rc>
    <rc><c>Fe</c><c>   1</c></rc>
    <rc><c>Fe</c><c>   1</c></rc>
    <rc><c>Fe</c><c>   1</c></rc>
    <rc><c>Fe</c><c>   1</c></rc>
    <rc><c>Fe</c><c>   1</c></rc>
    <rc><c>Fe</c><c>   1</c></rc>
    <rc><c>Fe</c><c>   1</c></rc>
    <rc><c>Fe</c><c>   1</c></rc>
    <rc><c>Fe</c><c>   1</c></rc>
    <rc><c>Fe</c><c>   1</c></rc>
    <rc><c>Fe</c><c>   1</c></rc>
    <rc><c>Fe</c><c>   1</c></rc>
    <rc><c>Fe</c><c>   1</c></rc>
    <rc><c>Fe</c><c>   1</c></rc>
    <rc><c>Fe</c><c>   1</c></rc>
    <rc><c>Fe</c><c>   1</c></rc>
    <rc><c>Fe</c><c>   1</c></rc>
    <rc><c>Fe</c><c>   1</c></rc>
    <rc><c>Fe</c><c>   1</c></rc>
    <rc><c>Fe</c><c>   1</c></rc>
    <rc><c>Fe</c><c>   1</c></rc>
    <rc><c>Fe</c><c>   1</c></rc>
    <rc><c>Fe</c><c>   1</c></rc>
    <rc><c>Fe</c><c>   1</c></rc>
    <rc><c>Fe</c><c>   1</c></rc>
    <rc><c>Fe</c><c>   1</c></rc>
    <rc><c>Fe</c><c>   1</c></rc>
    <rc><c>Fe</c><c>   1</c></rc>
    <rc><c>Fe</c><c>   1</c></rc>
    <rc><c>Fe</c><c>   1</c></rc>
    <rc><c>Fe</c><c>   1</c></rc>
    <rc><c>Fe</c><c>   1</c></rc>
    <rc><c>Fe</c><c>   1</c></rc>
    <rc><c>Fe</c><c>   1</c></rc>
    <rc><c>Fe</c><c>   1</c></rc>
    <rc><c>Fe</c><c>   1</c></rc>
    <rc><c>Fe</c><c>   1</c></rc>
    <rc><c>Fe</c><c>   1</c></rc>
    <rc><c>Fe</c><c>   1</c></rc>
    <rc><c>Fe</c><c>   1</c></rc>
    <rc><c>Fe</c><c>   1</c></rc>
    <rc><c>Fe</c><c>   1</c></rc>
    <rc><c>Fe</c><c>   1</c></rc>
    <rc><c>Fe</c><c>   1</c></rc>
    <rc><c>Fe</c><c>   1</c></rc>
    <rc><c>Fe</c><c>   1</c></rc>
    <rc><c>Fe</c><c>   1</c></rc>
    <rc><c>Fe</c><c>   1</c></rc>
    <rc><c>Fe</c><c>   1</c></rc>
    <rc><c>Fe</c><c>   1</c></rc>
    <rc><c>Fe</c><c>   1</c></rc>
    <rc><c>Fe</c><c>   1</c></rc>
    <rc><c>Fe</c><c>   1</c></rc>
    <rc><c>Fe</c><c>   1</c></rc>
    <rc><c>Fe</c><c>   1</c></rc>
    <rc><c>Fe</c><c>   1</c></rc>
    <rc><c>Fe</c><c>   1</c></rc>
    <rc><c>Fe</c><c>   1</c></rc>
    <rc><c>Fe</c><c>   1</c></rc>
    <rc><c>Fe</c><c>   1</c></rc>
    <rc><c>Fe</c><c>   1</c></rc>
    <rc><c>Fe</c><c>   1</c></rc>
    <rc><c>Fe</c><c>   1</c></rc>
    <rc><c>Fe</c><c>   1</c></rc>
    <rc><c>Fe</c><c>   1</c></rc>
    <rc><c>Fe</c><c>   1</c></rc>
    <rc><c>Fe</c><c>   1</c></rc>
    <rc><c>Fe</c><c>   1</c></rc>
    <rc><c>Fe</c><c>   1</c></rc>
    <rc><c>Fe</c><c>   1</c></rc>
    <rc><c>Fe</c><c>   1</c></rc>
    <rc><c>Fe</c><c>   1</c></rc>
    <rc><c>Fe</c><c>   1</c></rc>
    <rc><c>Fe</c><c>   1</c></rc>
    <rc><c>Fe</c><c>   1</c></rc>
    <rc><c>Fe</c><c>   1</c></rc>
    <rc><c>Fe</c><c>   1</c></rc>
    <rc><c>Fe</c><c>   1</c></rc>
    <rc><c>Fe</c><c>   1</c></rc>
    <rc><c>Fe</c><c>   1</c></rc>
    <rc><c>Fe</c><c>   1</c></rc>
    <rc><c>Fe</c><c>   1</c></rc>
    <rc><c>Fe</c><c>   1</c></rc>
    <rc><c>Fe</c><c>   1</c></rc>
    <rc><c>Fe</c><c>   1</c></rc>
    <rc><c>Fe</c><c>   1</c></rc>
    <rc><c>Fe</c><c>   1</c></rc>
    <rc><c>Fe</c><c>   1</c></rc>
    <rc><c>Fe</c><c>   1</c></rc>
    <rc><c>Fe</c><c>   1</c></rc>
    <rc><c>Fe</c><c>   1</c></rc>
    <rc><c>Fe</c><c>   1</c></rc>
    <rc><c>Fe</c><c>   1</c></rc>
    <rc><c>Fe</c><c>   1</c></rc>
    <rc><c>Fe</c><c>   1</c></rc>
    <rc><c>Fe</c><c>   1</c></rc>
    <rc><c>Fe</c><c>   1</c></rc>
    <rc><c>Fe</c><c>   1</c></rc>
    <rc><c>Fe</c><c>   1</c></rc>
    <rc><c>Fe</c><c>   1</c></rc>
    <rc><c>Fe</c><c>   1</c></rc>
    <rc><c>Fe</c><c>   1</c></rc>
    <rc><c>Fe</c><c>   1</c></rc>
    <rc><c>Fe</c><c>   1</c></rc>
    <rc><c>Fe</c><c>   1</c></rc>
    <rc><c>Fe</c><c>   1</c></rc>
    <rc><c>Fe</c><c>   1</c></rc>
    <rc><c>Fe</c><c>   1</c></rc>
    <rc><c>Fe</c><c>   1</c></rc>
    <rc><c>Fe</c><c>   1</c></rc>
    <rc><c>Fe</c><c>   1</c></rc>
    <rc><c>Fe</c><c>   1</c></rc>
    <rc><c>Fe</c><c>   1</c></rc>
    <rc><c>Fe</c><c>   1</c></rc>
    <rc><c>Fe</c><c>   1</c></rc>
    <rc><c>Fe</c><c>   1</c></rc>
    <rc><c>Fe</c><c>   1</c></rc>
    <rc><c>Fe</c><c>   1</c></rc>
    <rc><c>Fe</c><c>   1</c></rc>
    <rc><c>Fe</c><c>   1</c></rc>
    <rc><c>Fe</c><c>   1</c></rc>
    <rc><c>Fe</c><c>   1</c></rc>
    <rc><c>Fe</c><c>   1</c></rc>
    <rc><c>Fe</c><c>   1</c></rc>
    <rc><c>Fe</c><c>   1</c></rc>
    <rc><c>Fe</c><c>   1</c></rc>
    <rc><c>Fe</c><c>   1</c></rc>
    <rc><c>Fe</c><c>   1</c></rc>
    <rc><c>Fe</c><c>   1</c></rc>
    <rc><c>Fe</c><c>   1</c></rc>
    <rc><c>Fe</c><c>   1</c></rc>
    <rc><c>Fe</c><c>   1</c></rc>
    <rc><c>Fe</c><c>   1</c></rc>
    <rc><c>Fe</c><c>   1</c></rc>
    <rc><c>Fe</c><c>   1</c></rc>
    <rc><c>Fe</c><c>   1</c></rc>
    <rc><c>Fe</c><c>   1</c></rc>
    <rc><c>Fe</c><c>   1</c></rc>
    <rc><c>Fe</c><c>   1</c></rc>
    <rc><c>Fe</c><c>   1</c></rc>
    <rc><c>Fe</c><c>   1</c></rc>
    <rc><c>Fe</c><c>   1</c></rc>
    <rc><c>Fe</c><c>   1</c></rc>
    <rc><c>Fe</c><c>   1</c></rc>
    <rc><c>Fe</c><c>   1</c></rc>
    <rc><c>Fe</c><c>   1</c></rc>
    <rc><c>Fe</c><c>   1</c></rc>
    <rc><c>Fe</c><c>   1</c></rc>
    <rc><c>Fe</c><c>   1</c></rc>
    <rc><c>Fe</c><c>   1</c></rc>
    <rc><c>Fe</c><c>   1</c></rc>
    <rc><c>Fe</c><c>   1</c></rc>
    <rc><c>Fe</c><c>   1</c></rc>
    <rc><c>Fe</c><c>   1</c></rc>
    <rc><c>Fe</c><c>   1</c></rc>
    <rc><c>Fe</c><c>   1</c></rc>
    <rc><c>Fe</c><c>   1</c></rc>
    <rc><c>Fe</c><c>   1</c></rc>
    <rc><c>Fe</c><c>   1</c></rc>
    <rc><c>Fe</c><c>   1</c></rc>
    <rc><c>Fe</c><c>   1</c></rc>
    <rc><c>Fe</c><c>   1</c></rc>
    <rc><c>Fe</c><c>   1</c></rc>
    <rc><c>Fe</c><c>   1</c></rc>
    <rc><c>Fe</c><c>   1</c></rc>
    <rc><c>Fe</c><c>   1</c></rc>
    <rc><c>Fe</c><c>   1</c></rc>
    <rc><c>Fe</c><c>   1</c></rc>
    <rc><c>Fe</c><c>   1</c></rc>
    <rc><c>Fe</c><c>   1</c></rc>
    <rc><c>Fe</c><c>   1</c></rc>
    <rc><c>Fe</c><c>   1</c></rc>
    <rc><c>Fe</c><c>   1</c></rc>
    <rc><c>Fe</c><c>   1</c></rc>
    <rc><c>Fe</c><c>   1</c></rc>
    <rc><c>Fe</c><c>   1</c></rc>
    <rc><c>Fe</c><c>   1</c></rc>
    <rc><c>Fe</c><c>   1</c></rc>
    <rc><c>Mn</c><c>   2</c></rc>
    <rc><c>Mn</c><c>   2</c></rc>
    <rc><c>Mn</c><c>   2</c></rc>
    <rc><c>Mn</c><c>   2</c></rc>
    <rc><c>Mn</c><c>   2</c></rc>
    <rc><c>Mn</c><c>   2</c></rc>
    <rc><c>Mn</c><c>   2</c></rc>
   </set>
  </array>
  <array name="atomtypes" >
   <dimension dim="1">type</dimension>
   <field type="int">atomspertype</field>
   <field type="string">element</field>
   <field>mass</field>
   <field>valence</field>
   <field type="string">pseudopotential</field>
   <set>
    <rc><c> 281</c><c>Fe</c><c>     55.84700000</c><c>      8.00000000</c><c>  PAW_PBE Fe_GW 31Mar2010               </c></rc>
    <rc><c>   7</c><c>Mn</c><c>     54.93800000</c><c>      7.00000000</c><c>  PAW_PBE Mn_GW 31Mar2010               </c></rc>
   </set>
  </array>
 </atominfo>
 <structure name="initialpos" >
  <crystal>
   <varray name="basis" >
    <v>       9.72667804       0.00000000       0.00000000 </v>
    <v>       0.00000000       8.42355028       0.00000000 </v>
    <v>       0.00000000       0.00000000      45.00000000 </v>
   </varray>
   <i name="volume">   3686.99226691 </i>
   <varray name="rec_basis" >
    <v>       0.10281002       0.00000000       0.00000000 </v>
    <v>       0.00000000       0.11871479       0.00000000 </v>
    <v>       0.00000000       0.00000000       0.02222222 </v>
   </varray>
  </crystal>
  <varray name="positions" >
   <v>       0.06251945       0.03299833       0.12461002 </v>
   <v>       0.81449881       0.04272580       0.87568280 </v>
   <v>       0.19561172       0.12502757       0.78849172 </v>
   <v>       0.43369335       0.28750961       0.38906714 </v>
   <v>       0.31745246       0.36125936       0.16676829 </v>
   <v>       0.80874672       0.21302018       0.83314452 </v>
   <v>       0.18344097       0.78728309       0.38906108 </v>
   <v>       0.56378085       0.20762012       0.56543472 </v>
   <v>       0.06058293       0.04219020       0.74416607 </v>
   <v>       0.81353297       0.87201686       0.52128982 </v>
   <v>       0.18570949       0.29190509       0.74414479 </v>
   <v>       0.94131050       0.45190402       0.34492869 </v>
   <v>       0.93391604       0.28707167       0.38895444 </v>
   <v>       0.43843493       0.62212400       0.52132056 </v>
   <v>       0.18771704       0.79182819       0.61081963 </v>
   <v>       0.55859464       0.03752731       0.38890810 </v>
   <v>       0.93332671       0.96359165       0.83310014 </v>
   <v>       0.31425866       0.54249148       0.87554105 </v>
   <v>       0.68559923       0.29164483       0.74406263 </v>
   <v>       0.19216713       0.61259065       0.16680840 </v>
   <v>       0.81308464       0.20569473       0.47854231 </v>
   <v>       0.81275594       0.54168897       0.61086139 </v>
   <v>       0.31319147       0.87081081       0.43443407 </v>
   <v>       0.81541226       0.03515893       0.25596354 </v>
   <v>       0.69131212       0.95178981       0.34497861 </v>
   <v>       0.94185115       0.11273837       0.16687494 </v>
   <v>       0.93860035       0.12196232       0.52129327 </v>
   <v>       0.56543888       0.53531972       0.25602936 </v>
   <v>       0.69274915       0.79610159       0.87561058 </v>
   <v>       0.56744840       0.36277653       0.16695802 </v>
   <v>       0.43585579       0.79175602       0.74414530 </v>
   <v>       0.81396814       0.70770969       0.56542784 </v>
   <v>       0.57036449       0.87424275       0.78836088 </v>
   <v>       0.68847418       0.12203081       0.52128983 </v>
   <v>       0.19023889       0.28533607       0.25603091 </v>
   <v>       0.93358031       0.46332114       0.83301875 </v>
   <v>       0.06540422       0.20838657       0.69968197 </v>
   <v>       0.80859779       0.03736325       0.38904704 </v>
   <v>       0.30893285       0.21390384       0.83329733 </v>
   <v>       0.43396250       0.62605916       0.65495251 </v>
   <v>       0.31276843       0.54183641       0.61080393 </v>
   <v>       0.93886466       0.45765913       0.56542299 </v>
   <v>       0.68567790       0.79195376       0.74416697 </v>
   <v>       0.30883300       0.87565628       0.65493296 </v>
   <v>       0.68371407       0.78759467       0.38906686 </v>
   <v>       0.93574686       0.79183469       0.74415309 </v>
   <v>       0.06575457       0.20258344       0.34505943 </v>
   <v>       0.43657666       0.78209197       0.12445340 </v>
   <v>       0.44535654       0.12496105       0.78859126 </v>
   <v>       0.05488312       0.20280150       0.21182923 </v>
   <v>       0.06681972       0.36142100       0.16692196 </v>
   <v>       0.94037293       0.78530184       0.25602060 </v>
   <v>       0.56571100       0.20840844       0.69969832 </v>
   <v>       0.69058920       0.95841184       0.69972140 </v>
   <v>       0.68366273       0.28753028       0.38906451 </v>
   <v>       0.43885129       0.95773096       0.56546002 </v>
   <v>       0.82066256       0.37446619       0.78841666 </v>
   <v>       0.69018707       0.28515716       0.25599128 </v>
   <v>       0.18880576       0.45765154       0.56544242 </v>
   <v>       0.06774014       0.86281762       0.16676548 </v>
   <v>       0.18789100       0.29178596       0.61076814 </v>
   <v>       0.56617949       0.70201471       0.34491663 </v>
   <v>       0.31534014       0.20837063       0.69970061 </v>
   <v>       0.56519471       0.54188354       0.87558693 </v>
   <v>       0.06386359       0.70776343       0.56551207 </v>
   <v>       0.69541152       0.62458456       0.78853219 </v>
   <v>       0.30856570       0.53769018       0.38907185 </v>
   <v>       0.18845862       0.62209154       0.52131517 </v>
   <v>       0.56274182       0.87039663       0.43444342 </v>
   <v>       0.43872389       0.45774721       0.56544485 </v>
   <v>       0.43571632       0.29187256       0.74413979 </v>
   <v>       0.80435427       0.87241510       0.30015408 </v>
   <v>       0.81663993       0.70242446       0.34494478 </v>
   <v>       0.43366985       0.46378552       0.83320246 </v>
   <v>       0.68786573       0.95598157       0.47863048 </v>
   <v>       0.69076773       0.45840293       0.69970062 </v>
   <v>       0.56345866       0.87202300       0.52131307 </v>
   <v>       0.55885598       0.37558191       0.65495863 </v>
   <v>       0.80887696       0.87559234       0.65490695 </v>
   <v>       0.81271341       0.37037132       0.43445317 </v>
   <v>       0.81529497       0.53537893       0.25602829 </v>
   <v>       0.68355452       0.46312121       0.83306602 </v>
   <v>       0.18705369       0.78210388       0.12442629 </v>
   <v>       0.06412449       0.04268602       0.87558775 </v>
   <v>       0.30882635       0.37567231       0.65491688 </v>
   <v>       0.31626908       0.20200885       0.34487876 </v>
   <v>       0.81063735       0.54230905       0.74411425 </v>
   <v>       0.68386805       0.96344211       0.83311890 </v>
   <v>       0.55884798       0.87568452       0.65491345 </v>
   <v>       0.31396614       0.70760980       0.56550136 </v>
   <v>       0.31249007       0.53338184       0.12447747 </v>
   <v>       0.68005395       0.95293258       0.21180251 </v>
   <v>       0.31397635       0.20781010       0.56554950 </v>
   <v>       0.31079834       0.54236648       0.74421666 </v>
   <v>       0.68881051       0.95773337       0.56546134 </v>
   <v>       0.43769108       0.79183496       0.61084143 </v>
   <v>       0.69175340       0.61214537       0.16690103 </v>
   <v>       0.30378963       0.87202123       0.30034234 </v>
   <v>       0.31277747       0.70570506       0.47863047 </v>
   <v>       0.93798577       0.29170426       0.61074312 </v>
   <v>       0.42879276       0.62205055       0.30027562 </v>
   <v>       0.81689544       0.86214451       0.16687409 </v>
   <v>       0.55543210       0.20220936       0.21157066 </v>
   <v>       0.94161250       0.61248082       0.16687283 </v>
   <v>       0.94075320       0.79548643       0.87566995 </v>
   <v>       0.57088681       0.37447316       0.78838234 </v>
   <v>       0.06343401       0.37220481       0.52132185 </v>
   <v>       0.56346533       0.37198716       0.52129272 </v>
   <v>       0.67919116       0.12201679       0.30023727 </v>
   <v>       0.43280525       0.96298744       0.83321333 </v>
   <v>       0.18716100       0.28237880       0.12463889 </v>
   <v>       0.82086520       0.87438409       0.78838084 </v>
   <v>       0.31293756       0.37096411       0.43442937 </v>
   <v>       0.93785070       0.79175260       0.61079644 </v>
   <v>       0.43785004       0.29175171       0.61077577 </v>
   <v>       0.19145082       0.45161028       0.34496728 </v>
   <v>       0.43735605       0.28280182       0.12446733 </v>
   <v>       0.69004779       0.78549965       0.25599285 </v>
   <v>       0.19048824       0.95840166       0.69970199 </v>
   <v>       0.19078490       0.29592699       0.87578308 </v>
   <v>       0.18385824       0.12578990       0.65491556 </v>
   <v>       0.93404314       0.12594544       0.65494480 </v>
   <v>       0.30567511       0.20286635       0.21187044 </v>
   <v>       0.05857279       0.03738355       0.38907952 </v>
   <v>       0.44034981       0.95839004       0.69969331 </v>
   <v>       0.06274400       0.54186589       0.61083191 </v>
   <v>       0.94044145       0.28524211       0.25599269 </v>
   <v>       0.56269955       0.54171500       0.61085144 </v>
   <v>       0.93876033       0.95782866       0.56545975 </v>
   <v>       0.67910091       0.62194620       0.30014327 </v>
   <v>       0.93804950       0.61930333       0.43459173 </v>
   <v>       0.94562053       0.62492844       0.78853396 </v>
   <v>       0.56534400       0.70832266       0.69966939 </v>
   <v>       0.05878277       0.71308053       0.83322153 </v>
   <v>       0.92865448       0.12203028       0.30031219 </v>
   <v>       0.94041035       0.45836660       0.69968317 </v>
   <v>       0.44017564       0.78533301       0.25592970 </v>
   <v>       0.32074562       0.37445349       0.78842131 </v>
   <v>       0.43062530       0.45215200       0.21156242 </v>
   <v>       0.18849657       0.12224260       0.52127893 </v>
   <v>       0.81554451       0.70833911       0.69969949 </v>
   <v>       0.06265400       0.04183620       0.61088751 </v>
   <v>       0.55898103       0.21343180       0.83324907 </v>
   <v>       0.31365225       0.87197541       0.52125393 </v>
   <v>       0.68764299       0.28239601       0.12434309 </v>
   <v>       0.18021836       0.95239241       0.21167920 </v>
   <v>       0.68763295       0.29188204       0.61086105 </v>
   <v>       0.31271202       0.04180795       0.61085778 </v>
   <v>       0.94556650       0.12475412       0.78849484 </v>
   <v>       0.44074412       0.79672723       0.87575417 </v>
   <v>       0.81071335       0.04222379       0.74405501 </v>
   <v>       0.43825166       0.12196935       0.52132259 </v>
   <v>       0.18400059       0.62596509       0.65494481 </v>
   <v>       0.31527514       0.70839491       0.69966092 </v>
   <v>       0.93594028       0.28199403       0.12448607 </v>
   <v>       0.43796466       0.45596714       0.47861462 </v>
   <v>       0.06310123       0.70554247       0.47862008 </v>
   <v>       0.93847856       0.11979210       0.43433892 </v>
   <v>       0.42868516       0.12199331       0.30034731 </v>
   <v>       0.18806065       0.12021203       0.43447369 </v>
   <v>       0.56510490       0.04297915       0.87559794 </v>
   <v>       0.18872429       0.95745414       0.56527373 </v>
   <v>       0.68757538       0.78254323       0.12449464 </v>
   <v>       0.56275175       0.53237507       0.12449929 </v>
   <v>       0.30874830       0.03749811       0.38903103 </v>
   <v>       0.69244254       0.11183383       0.16701946 </v>
   <v>       0.80564018       0.20257625       0.21167468 </v>
   <v>       0.06558690       0.53533435       0.25594110 </v>
   <v>       0.56275381       0.70584229       0.47861481 </v>
   <v>       0.06379465       0.20775409       0.56547585 </v>
   <v>       0.55377031       0.37203289       0.30031179 </v>
   <v>       0.44166279       0.95189877       0.34498461 </v>
   <v>       0.18394119       0.96335747       0.83319751 </v>
   <v>       0.44159558       0.61253686       0.16684541 </v>
   <v>       0.92989655       0.45276584       0.21175855 </v>
   <v>       0.06167197       0.53285473       0.12450130 </v>
   <v>       0.81349822       0.37202172       0.52129508 </v>
   <v>       0.92887692       0.62230463       0.30025770 </v>
   <v>       0.31507416       0.03567117       0.25598815 </v>
   <v>       0.06330124       0.87193811       0.52123028 </v>
   <v>       0.18371510       0.46437919       0.83324453 </v>
   <v>       0.44193054       0.11205526       0.16677156 </v>
   <v>       0.31346646       0.37223798       0.52130727 </v>
   <v>       0.44602774       0.62458816       0.78835851 </v>
   <v>       0.06538662       0.03521425       0.25599153 </v>
   <v>       0.56378400       0.70757806       0.56543101 </v>
   <v>       0.93594440       0.29177611       0.74415357 </v>
   <v>       0.69574662       0.12467173       0.78843323 </v>
   <v>       0.18059765       0.45234845       0.21161524 </v>
   <v>       0.93367192       0.78716338       0.38899599 </v>
   <v>       0.69370793       0.29691269       0.87580913 </v>
   <v>       0.68768812       0.79184006       0.61090314 </v>
   <v>       0.44035397       0.45828046       0.69969851 </v>
   <v>       0.80883071       0.37562241       0.65493261 </v>
   <v>       0.68848616       0.62228393       0.52133838 </v>
   <v>       0.05878889       0.87563814       0.65490823 </v>
   <v>       0.07082418       0.87450232       0.78840619 </v>
   <v>       0.05893881       0.37572598       0.65492792 </v>
   <v>       0.68783480       0.45576205       0.47863856 </v>
   <v>       0.19049756       0.78537770       0.25602972 </v>
   <v>       0.43804885       0.11995440       0.43445059 </v>
   <v>       0.81165532       0.03294798       0.12447073 </v>
   <v>       0.93850264       0.62211703       0.52132625 </v>
   <v>       0.06284309       0.87079335       0.43442406 </v>
   <v>       0.81125327       0.53235115       0.12440992 </v>
   <v>       0.44136307       0.45194984       0.34498368 </v>
   <v>       0.81644632       0.20173719       0.34497077 </v>
   <v>       0.31621557       0.70163984       0.34495030 </v>
   <v>       0.68384494       0.12610768       0.65496743 </v>
   <v>       0.55382106       0.87208422       0.30034425 </v>
   <v>       0.06055056       0.54221502       0.74417981 </v>
   <v>       0.93604619       0.78163398       0.12457558 </v>
   <v>       0.80524677       0.70281313       0.21175105 </v>
   <v>       0.05442532       0.87258833       0.30008082 </v>
   <v>       0.17940909       0.12256175       0.30030263 </v>
   <v>       0.06629276       0.70186082       0.34497827 </v>
   <v>       0.81302635       0.04175036       0.61072320 </v>
   <v>       0.06307716       0.37066830       0.43445722 </v>
   <v>       0.56614348       0.20186218       0.34494670 </v>
   <v>       0.80364903       0.37192857       0.30031726 </v>
   <v>       0.43791208       0.95595560       0.47861123 </v>
   <v>       0.55848399       0.53732248       0.38906663 </v>
   <v>       0.06278296       0.20575945       0.47863469 </v>
   <v>       0.32072754       0.87466525       0.78840618 </v>
   <v>       0.94057552       0.95836331       0.69971642 </v>
   <v>       0.05398200       0.37232267       0.30022317 </v>
   <v>       0.68402394       0.62604084       0.65495850 </v>
   <v>       0.68879450       0.45773061       0.56544318 </v>
   <v>       0.43052392       0.95267182       0.21182694 </v>
   <v>       0.31285082       0.20588065       0.47858761 </v>
   <v>       0.43393801       0.12584392       0.65490799 </v>
   <v>       0.68802371       0.62041702       0.43443710 </v>
   <v>       0.81542756       0.20839104       0.69969122 </v>
   <v>       0.81287609       0.70583688       0.47862723 </v>
   <v>       0.56299885       0.37039632       0.43443846 </v>
   <v>       0.93770458       0.95577783       0.47862563 </v>
   <v>       0.56284082       0.20573738       0.47856575 </v>
   <v>       0.18828033       0.62000238       0.43436391 </v>
   <v>       0.31067173       0.04217644       0.74408487 </v>
   <v>       0.93390173       0.62598612       0.65494223 </v>
   <v>       0.55893867       0.71324960       0.83325646 </v>
   <v>       0.30367535       0.37304803       0.30024482 </v>
   <v>       0.55531216       0.70259829       0.21175683 </v>
   <v>       0.18781023       0.45582010       0.47863277 </v>
   <v>       0.31486594       0.04148415       0.87570087 </v>
   <v>       0.19033055       0.45825752       0.69966959 </v>
   <v>       0.81450629       0.54256068       0.87563841 </v>
   <v>       0.18343333       0.28804692       0.38908759 </v>
   <v>       0.43832375       0.62061355       0.43427262 </v>
   <v>       0.05585769       0.70219929       0.21160267 </v>
   <v>       0.56300936       0.03290869       0.12452553 </v>
   <v>       0.81693083       0.36273172       0.16697238 </v>
   <v>       0.80833515       0.71367518       0.83307777 </v>
   <v>       0.07081243       0.37455542       0.78839986 </v>
   <v>       0.44297295       0.29633745       0.87571459 </v>
   <v>       0.31199774       0.03283729       0.12448889 </v>
   <v>       0.68801314       0.12029242       0.43446916 </v>
   <v>       0.19128673       0.95166807       0.34499163 </v>
   <v>       0.05862724       0.21349568       0.83331957 </v>
   <v>       0.56278573       0.04160015       0.61073271 </v>
   <v>       0.68059507       0.45254288       0.21167193 </v>
   <v>       0.18589759       0.79163539       0.74415688 </v>
   <v>       0.81304600       0.87049680       0.43443466 </v>
   <v>       0.43375452       0.78751760       0.38908011 </v>
   <v>       0.44062599       0.28526500       0.25599934 </v>
   <v>       0.06438800       0.54224921       0.87566385 </v>
   <v>       0.56054095       0.04227204       0.74417176 </v>
   <v>       0.19329780       0.79687174       0.87588931 </v>
   <v>       0.93773914       0.45585647       0.47862306 </v>
   <v>       0.80870402       0.53757837       0.38905006 </v>
   <v>       0.81389892       0.20767526       0.56542243 </v>
   <v>       0.19522310       0.62461544       0.78837003 </v>
   <v>       0.93072061       0.95318415       0.21183006 </v>
   <v>       0.06540087       0.70838192       0.69965703 </v>
   <v>       0.31558751       0.53527347       0.25600965 </v>
   <v>       0.30508883       0.70233173       0.21182060 </v>
   <v>       0.56694580       0.86277199       0.16679476 </v>
   <v>       0.56071826       0.54239698       0.74409224 </v>
   <v>       0.69095087       0.45170736       0.34494262 </v>
   <v>       0.94108899       0.29682694       0.87579828 </v>
   <v>       0.56564328       0.03545849       0.25600108 </v>
   <v>       0.19270491       0.11139559       0.16627279 </v>
   <v>       0.30804240       0.71486837       0.83391627 </v>
   <v>       0.31780943       0.86095328       0.16633695 </v>
   <v>       0.17888595       0.62181990       0.30019996 </v>
   <v>       0.05813039       0.53781705       0.38902305 </v>
   <v>       0.94233999       0.95226013       0.34504142 </v>
   <v>       0.18800441       0.95604086       0.47864270 </v>
  </varray>
 </structure>
 <calculation>
  <scstep>
   <time name="dav">   54.36   54.37</time>
   <time name="total">   54.51   54.55</time>
   <energy>
    <i name="alphaZ">  16403.00255340 </i>
    <i name="ewald"> 730782.67788989 </i>
    <i name="hartreedc">-922431.50411473 </i>
    <i name="XCdc">  -6388.69470599 </i>
    <i name="pawpsdc"> 163151.95320885 </i>
    <i name="pawaedc">-160818.84594568 </i>
    <i name="eentropy">     -1.04393621 </i>
    <i name="bandstr">  38623.51739999 </i>
    <i name="atom"> 169914.59583762 </i>
    <i name="e_fr_energy">  29235.65818714 </i>
    <i name="e_wo_entrp">  29236.70212335 </i>
    <i name="e_0_energy">  29236.18015525 </i>
   </energy>
  </scstep>
  <scstep>
   <time name="dav">   53.72   53.75</time>
   <time name="total">   53.73   53.75</time>
   <energy>
    <i name="e_fr_energy">   1197.35233712 </i>
    <i name="e_wo_entrp">   1198.81737116 </i>
    <i name="e_0_energy">   1198.08485414 </i>
   </energy>
  </scstep>
  <scstep>
   <time name="dav">   70.85   70.86</time>
   <time name="total">   70.86   70.86</time>
   <energy>
    <i name="e_fr_energy">  -1941.24698669 </i>
    <i name="e_wo_entrp">  -1937.66010185 </i>
    <i name="e_0_energy">  -1939.45354427 </i>
   </energy>
  </scstep>
  <scstep>
   <time name="dav">   88.33   88.38</time>
   <time name="total">   88.34   88.38</time>
   <energy>
    <i name="e_fr_energy">  -2611.14158707 </i>
    <i name="e_wo_entrp">  -2607.59330752 </i>
    <i name="e_0_energy">  -2609.36744729 </i>
   </energy>
  </scstep>
  <scstep>
   <time name="dav">   84.81   84.85</time>
   <time name="total">   86.95   86.99</time>
   <energy>
    <i name="e_fr_energy">  -2731.16572347 </i>
    <i name="e_wo_entrp">  -2727.49865939 </i>
    <i name="e_0_energy">  -2729.33219143 </i>
   </energy>
  </scstep>
  <scstep>
   <time name="diag">    8.33    8.33</time>
   <time name="diis">   37.67   37.67</time>
   <time name="orth">    2.27    2.27</time>
   <time name="total">   50.47   50.52</time>
   <energy>
    <i name="e_fr_energy">  -5841.10131594 </i>
    <i name="e_wo_entrp">  -5838.33190690 </i>
    <i name="e_0_energy">  -5839.71661142 </i>
   </energy>
  </scstep>
  <scstep>
   <time name="diag">    8.23    8.23</time>
   <time name="diis">   34.00   34.00</time>
   <time name="orth">    2.27    2.27</time>
   <time name="total">   46.70   46.74</time>
[...]
       <r>     5.9103     0.0000  2772.0000 </r>
       <r>     5.9534     0.0000  2772.0000 </r>
       <r>     5.9964     0.0000  2772.0000 </r>
       <r>     6.0394     0.0000  2772.0000 </r>
       <r>     6.0825     0.0000  2772.0000 </r>
       <r>     6.1255     0.0000  2772.0000 </r>
       <r>     6.1686     0.0000  2772.0000 </r>
       <r>     6.2116     0.0000  2772.0000 </r>
       <r>     6.2546     0.0000  2772.0000 </r>
       <r>     6.2977     0.0000  2772.0000 </r>
       <r>     6.3407     0.0000  2772.0000 </r>
       <r>     6.3838     0.0000  2772.0000 </r>
       <r>     6.4268     0.0000  2772.0000 </r>
       <r>     6.4698     0.0000  2772.0000 </r>
       <r>     6.5129     0.0000  2772.0000 </r>
       <r>     6.5559     0.0000  2772.0000 </r>
       <r>     6.5989     0.0000  2772.0000 </r>
       <r>     6.6420     0.0000  2772.0000 </r>
       <r>     6.6850     0.0000  2772.0000 </r>
       <r>     6.7281     0.0000  2772.0000 </r>
       <r>     6.7711     0.0000  2772.0000 </r>
       <r>     6.8141     0.0000  2772.0000 </r>
       <r>     6.8572     0.0000  2772.0000 </r>
      </set>
     </set>
    </array>
   </total>
  </dos>
 </calculation>
 <structure name="finalpos" >
  <crystal>
   <varray name="basis" >
    <v>       9.72667804       0.00000000       0.00000000 </v>
    <v>       0.00000000       8.42355028       0.00000000 </v>
    <v>       0.00000000       0.00000000      45.00000000 </v>
   </varray>
   <i name="volume">   3686.99226691 </i>
   <varray name="rec_basis" >
    <v>       0.10281002       0.00000000       0.00000000 </v>
    <v>       0.00000000       0.11871479       0.00000000 </v>
    <v>       0.00000000       0.00000000       0.02222222 </v>
   </varray>
  </crystal>
  <varray name="positions" >
   <v>       0.06282498       0.03178332       0.12435524 </v>
   <v>       0.81407203       0.04432334       0.87532496 </v>
   <v>       0.19270399       0.12552278       0.78831222 </v>
   <v>       0.43460160       0.28688573       0.38955536 </v>
   <v>       0.31549977       0.36382394       0.16658565 </v>
   <v>       0.81134183       0.21223822       0.83342331 </v>
   <v>       0.18515247       0.78725095       0.38956677 </v>
   <v>       0.56323054       0.20713580       0.56563332 </v>
   <v>       0.06264609       0.04209573       0.74381045 </v>
   <v>       0.81329147       0.87310003       0.52177485 </v>
   <v>       0.18782491       0.29230025       0.74376034 </v>
   <v>       0.93857322       0.45315035       0.34529905 </v>
   <v>       0.93552304       0.28698320       0.38957452 </v>
   <v>       0.43822049       0.62332258       0.52175261 </v>
   <v>       0.18746893       0.79187043       0.61043609 </v>
   <v>       0.55993000       0.03765304       0.38957367 </v>
   <v>       0.93578238       0.96258607       0.83362150 </v>
   <v>       0.31383061       0.54482930       0.87542787 </v>
   <v>       0.68746227       0.29222034       0.74377719 </v>
   <v>       0.18988344       0.61270364       0.16663917 </v>
   <v>       0.81302056       0.20508444       0.47813222 </v>
   <v>       0.81256098       0.54143938       0.61045642 </v>
   <v>       0.31286062       0.87087730       0.43421124 </v>
   <v>       0.81261767       0.03535441       0.25607628 </v>
   <v>       0.68813558       0.95298002       0.34526318 </v>
   <v>       0.93920209       0.11481255       0.16671215 </v>
   <v>       0.93850040       0.12302423       0.52172832 </v>
   <v>       0.56245135       0.53531553       0.25594409 </v>
   <v>       0.69110577       0.79472601       0.87538355 </v>
   <v>       0.56583703       0.36439212       0.16650722 </v>
   <v>       0.43758743       0.79199707       0.74381716 </v>
   <v>       0.81356155       0.70718282       0.56565952 </v>
   <v>       0.56719986       0.87519039       0.78819624 </v>
   <v>       0.68841440       0.12303852       0.52170188 </v>
   <v>       0.18747204       0.28558765       0.25605318 </v>
   <v>       0.93594939       0.46190816       0.83355227 </v>
   <v>       0.06425748       0.20859700       0.69954536 </v>
   <v>       0.80997791       0.03734888       0.38960618 </v>
   <v>       0.31149733       0.21286864       0.83350085 </v>
   <v>       0.43551311       0.62540326       0.65488965 </v>
   <v>       0.31242247       0.54156861       0.61044878 </v>
   <v>       0.93851248       0.45714629       0.56565826 </v>
   <v>       0.68745349       0.79225349       0.74380189 </v>
   <v>       0.31079100       0.87554142       0.65486917 </v>
   <v>       0.68577351       0.78768821       0.38960275 </v>
   <v>       0.93759655       0.79212632       0.74380489 </v>
   <v>       0.06342682       0.20308571       0.34534838 </v>
   <v>       0.43779514       0.78115181       0.12421403 </v>
   <v>       0.44289999       0.12544457       0.78833359 </v>
   <v>       0.05773031       0.20290802       0.21199292 </v>
   <v>       0.06431013       0.36365573       0.16676868 </v>
   <v>       0.93767346       0.78524671       0.25594606 </v>
   <v>       0.56408605       0.20840562       0.69956381 </v>
   <v>       0.68898462       0.95843790       0.69957903 </v>
   <v>       0.68533556       0.28696107       0.38959257 </v>
   <v>       0.43829252       0.95739317       0.56574713 </v>
   <v>       0.81744564       0.37525299       0.78816977 </v>
   <v>       0.68748269       0.28584086       0.25609430 </v>
   <v>       0.18839559       0.45711379       0.56566719 </v>
   <v>       0.06401034       0.86319607       0.16663420 </v>
   <v>       0.18740358       0.29143046       0.61040185 </v>
   <v>       0.56306659       0.70272868       0.34532125 </v>
   <v>       0.31440451       0.20843458       0.69958926 </v>
   <v>       0.56426616       0.54463185       0.87521793 </v>
   <v>       0.06352936       0.70708045       0.56575230 </v>
   <v>       0.69229910       0.62540948       0.78826199 </v>
   <v>       0.31008011       0.53746327       0.38959210 </v>
   <v>       0.18822948       0.62341339       0.52177942 </v>
   <v>       0.56276808       0.87084685       0.43424723 </v>
   <v>       0.43815839       0.45714541       0.56568252 </v>
   <v>       0.43771344       0.29223346       0.74379999 </v>
   <v>       0.80783286       0.87142071       0.30048277 </v>
   <v>       0.81365973       0.70346140       0.34535857 </v>
   <v>       0.43635464       0.46292979       0.83341291 </v>
   <v>       0.68785546       0.95482927       0.47816876 </v>
   <v>       0.68896864       0.45843382       0.69959941 </v>
   <v>       0.56320107       0.87314588       0.52175756 </v>
   <v>       0.56049256       0.37538486       0.65492734 </v>
   <v>       0.81057231       0.87575368       0.65489158 </v>
   <v>       0.81290849       0.37077374       0.43423676 </v>
   <v>       0.81242273       0.53532329       0.25602368 </v>
   <v>       0.68584459       0.46189727       0.83349386 </v>
   <v>       0.18759110       0.78173637       0.12429463 </v>
   <v>       0.06333057       0.04520545       0.87523830 </v>
   <v>       0.31069905       0.37555192       0.65485977 </v>
   <v>       0.31291210       0.20315226       0.34533452 </v>
   <v>       0.81235706       0.54189647       0.74378452 </v>
   <v>       0.68590641       0.96270627       0.83354444 </v>
   <v>       0.56054690       0.87561668       0.65488485 </v>
   <v>       0.31305223       0.70706183       0.56575225 </v>
   <v>       0.31351674       0.53204634       0.12461209 </v>
   <v>       0.68285394       0.95159635       0.21179021 </v>
   <v>       0.31327728       0.20731551       0.56579058 </v>
   <v>       0.31282770       0.54209614       0.74379102 </v>
   <v>       0.68832178       0.95722647       0.56566214 </v>
   <v>       0.43726048       0.79172925       0.61047601 </v>
   <v>       0.69008938       0.61361003       0.16661766 </v>
   <v>       0.30740798       0.87063711       0.30058341 </v>
   <v>       0.31297648       0.70430442       0.47814487 </v>
   <v>       0.93764678       0.29165000       0.61044910 </v>
   <v>       0.43233703       0.62098533       0.30049649 </v>
   <v>       0.81514554       0.86283454       0.16661623 </v>
   <v>       0.55772990       0.20228747       0.21182890 </v>
   <v>       0.93935461       0.61334522       0.16658209 </v>
   <v>       0.93926538       0.79453005       0.87534007 </v>
   <v>       0.56760718       0.37545078       0.78811204 </v>
   <v>       0.06338094       0.37294090       0.52182997 </v>
   <v>       0.56318923       0.37301089       0.52171777 </v>
   <v>       0.68275419       0.12085177       0.30051719 </v>
   <v>       0.43567230       0.96228420       0.83353569 </v>
   <v>       0.18791623       0.28279952       0.12431267 </v>
   <v>       0.81740672       0.87528599       0.78815549 </v>
   <v>       0.31254707       0.37110798       0.43424403 </v>
   <v>       0.93763263       0.79164303       0.61041490 </v>
   <v>       0.43732268       0.29148677       0.61043982 </v>
   <v>       0.18884838       0.45272361       0.34533333 </v>
   <v>       0.43815794       0.28248324       0.12459229 </v>
   <v>       0.68737978       0.78492001       0.25597899 </v>
   <v>       0.18934538       0.95853336       0.69956031 </v>
   <v>       0.18981905       0.29427159       0.87538790 </v>
   <v>       0.18575000       0.12554869       0.65483539 </v>
   <v>       0.93569512       0.12557606       0.65483648 </v>
   <v>       0.30868031       0.20229709       0.21201467 </v>
   <v>       0.06041709       0.03713004       0.38957410 </v>
   <v>       0.43927754       0.95857814       0.69958580 </v>
   <v>       0.06244913       0.54156687       0.61041257 </v>
   <v>       0.93727122       0.28595206       0.25597939 </v>
   <v>       0.56237985       0.54156346       0.61047140 </v>
   <v>       0.93846366       0.95734461       0.56573038 </v>
   <v>       0.68228333       0.62082120       0.30041454 </v>
   <v>       0.93785893       0.62058869       0.43430092 </v>
   <v>       0.94282671       0.62557941       0.78829615 </v>
   <v>       0.56410699       0.70840889       0.69956673 </v>
   <v>       0.06112471       0.71202106       0.83348246 </v>
   <v>       0.93218634       0.12109067       0.30049532 </v>
   <v>       0.93928254       0.45844591       0.69959822 </v>
   <v>       0.43697480       0.78535183       0.25602659 </v>
   <v>       0.31763607       0.37591964       0.78822012 </v>
   <v>       0.43319488       0.45189060       0.21176670 </v>
   <v>       0.18824266       0.12348138       0.52173437 </v>
   <v>       0.81406511       0.70844781       0.69957281 </v>
   <v>       0.06271487       0.04168411       0.61042812 </v>
   <v>       0.56197710       0.21247091       0.83350794 </v>
   <v>       0.31338508       0.87284094       0.52175352 </v>
   <v>       0.68730737       0.28243340       0.12458855 </v>
   <v>       0.18249761       0.95152307       0.21211201 </v>
   <v>       0.68750230       0.29156625       0.61047300 </v>
   <v>       0.31229827       0.04160280       0.61044560 </v>
   <v>       0.94240939       0.12556191       0.78826121 </v>
   <v>       0.44027691       0.79465654       0.87553809 </v>
   <v>       0.81236933       0.04214072       0.74380823 </v>
   <v>       0.43802983       0.12303032       0.52173600 </v>
   <v>       0.18579570       0.62538599       0.65485727 </v>
   <v>       0.31435028       0.70829851       0.69957206 </v>
   <v>       0.93733700       0.28230720       0.12473108 </v>
   <v>       0.43831968       0.45514429       0.47808809 </v>
   <v>       0.06298352       0.70465700       0.47813472 </v>
   <v>       0.93809787       0.12076027       0.43416937 </v>
   <v>       0.43264605       0.12091689       0.30055494 </v>
   <v>       0.18815351       0.12162763       0.43422386 </v>
   <v>       0.56463368       0.04550626       0.87522337 </v>
   <v>       0.18835363       0.95732464       0.56546235 </v>
   <v>       0.68812390       0.78173177       0.12465827 </v>
   <v>       0.56319105       0.53092216       0.12461288 </v>
   <v>       0.31044605       0.03759395       0.38955956 </v>
   <v>       0.69021541       0.11434240       0.16657179 </v>
   <v>       0.80822000       0.20244081       0.21183048 </v>
   <v>       0.06273692       0.53568372       0.25588789 </v>
   <v>       0.56271571       0.70473228       0.47812260 </v>
   <v>       0.06345478       0.20736530       0.56575863 </v>
   <v>       0.55722231       0.37069784       0.30043321 </v>
   <v>       0.43803463       0.95278673       0.34530605 </v>
   <v>       0.18640221       0.96276898       0.83355581 </v>
   <v>       0.44062410       0.61266352       0.16652913 </v>
   <v>       0.93332453       0.45183222       0.21180270 </v>
   <v>       0.06204201       0.53123103       0.12475212 </v>
   <v>       0.81336840       0.37296097       0.52174522 </v>
   <v>       0.93270103       0.62148814       0.30050887 </v>
   <v>       0.31226408       0.03533451       0.25608376 </v>
   <v>       0.06317907       0.87276764       0.52174427 </v>
   <v>       0.18600730       0.46279938       0.83354134 </v>
   <v>       0.44140871       0.11451300       0.16647748 </v>
   <v>       0.31308555       0.37291239       0.52181102 </v>
   <v>       0.44283564       0.62530627       0.78816128 </v>
   <v>       0.06263654       0.03559806       0.25607672 </v>
   <v>       0.56330668       0.70724764       0.56564225 </v>
   <v>       0.93761918       0.29222873       0.74380570 </v>
   <v>       0.69246282       0.12549556       0.78821756 </v>
   <v>       0.18311388       0.45178875       0.21174888 </v>
   <v>       0.93499386       0.78724270       0.38957325 </v>
   <v>       0.69068148       0.29489076       0.87545434 </v>
   <v>       0.68740398       0.79159419       0.61046531 </v>
   <v>       0.43925399       0.45838761       0.69961235 </v>
   <v>       0.81079825       0.37536065       0.65483548 </v>
   <v>       0.68831362       0.62311161       0.52173992 </v>
   <v>       0.06070321       0.87554776       0.65484072 </v>
   <v>       0.06777082       0.87513844       0.78819718 </v>
   <v>       0.06069632       0.37547254       0.65487127 </v>
   <v>       0.68780552       0.45488341       0.47811210 </v>
   <v>       0.18759382       0.78531157       0.25601624 </v>
   <v>       0.43742365       0.12110615       0.43418722 </v>
   <v>       0.81179155       0.03227666       0.12466951 </v>
   <v>       0.93839041       0.62327238       0.52180034 </v>
   <v>       0.06255942       0.87037759       0.43421199 </v>
   <v>       0.81178303       0.53188392       0.12461217 </v>
   <v>       0.43772724       0.45275183       0.34527804 </v>
   <v>       0.81320392       0.20276486       0.34532831 </v>
   <v>       0.31251018       0.70265373       0.34528650 </v>
   <v>       0.68565035       0.12541229       0.65488215 </v>
   <v>       0.55725242       0.87134629       0.30054515 </v>
   <v>       0.06276221       0.54178001       0.74383457 </v>
   <v>       0.93676358       0.78118448       0.12469638 </v>
   <v>       0.80807184       0.70139460       0.21177923 </v>
   <v>       0.05754060       0.87137376       0.30053961 </v>
   <v>       0.18222018       0.12096256       0.30058068 </v>
   <v>       0.06385262       0.70304987       0.34518356 </v>
   <v>       0.81250359       0.04165709       0.61045664 </v>
   <v>       0.06286519       0.37060775       0.43425372 </v>
   <v>       0.56296255       0.20334345       0.34529321 </v>
   <v>       0.80737036       0.37055226       0.30042359 </v>
   <v>       0.43853483       0.95535742       0.47813631 </v>
   <v>       0.56000728       0.53726608       0.38958007 </v>
   <v>       0.06229163       0.20499731       0.47814492 </v>
   <v>       0.31766191       0.87555567       0.78810058 </v>
   <v>       0.93912667       0.95851967       0.69956383 </v>
   <v>       0.05756193       0.37122263       0.30054962 </v>
   <v>       0.68559711       0.62540675       0.65489351 </v>
   <v>       0.68837092       0.45729653       0.56567841 </v>
   <v>       0.43322445       0.95224484       0.21205554 </v>
   <v>       0.31358490       0.20512919       0.47804035 </v>
   <v>       0.43559244       0.12542850       0.65486407 </v>
   <v>       0.68806077       0.62078955       0.43424910 </v>
   <v>       0.81410779       0.20845196       0.69955401 </v>
   <v>       0.81299199       0.70496323       0.47820884 </v>
   <v>       0.56270870       0.37093152       0.43423054 </v>
   <v>       0.93736075       0.95539341       0.47806242 </v>
   <v>       0.56273521       0.20507387       0.47810817 </v>
   <v>       0.18770057       0.62125741       0.43420219 </v>
   <v>       0.31278746       0.04204894       0.74379650 </v>
   <v>       0.93572013       0.62530742       0.65487466 </v>
   <v>       0.56160304       0.71187819       0.83339299 </v>
   <v>       0.30763576       0.37132029       0.30043364 </v>
   <v>       0.55796641       0.70155436       0.21191908 </v>
   <v>       0.18816574       0.45498489       0.47816313 </v>
   <v>       0.31408487       0.04470187       0.87533680 </v>
   <v>       0.18929646       0.45841899       0.69957065 </v>
   <v>       0.81399119       0.54503501       0.87524373 </v>
   <v>       0.18525867       0.28781217       0.38959257 </v>
   <v>       0.43766306       0.62091295       0.43424015 </v>
   <v>       0.05827214       0.70169059       0.21176194 </v>
   <v>       0.56334838       0.03257075       0.12466826 </v>
   <v>       0.81502744       0.36480463       0.16672418 </v>
   <v>       0.81116648       0.71262227       0.83348588 </v>
   <v>       0.06757413       0.37556514       0.78817334 </v>
   <v>       0.44100366       0.29461701       0.87540558 </v>
   <v>       0.31328987       0.03264478       0.12391788 </v>
   <v>       0.68776977       0.12097654       0.43429819 </v>
   <v>       0.18836963       0.95275691       0.34532177 </v>
   <v>       0.06075446       0.21264921       0.83360998 </v>
   <v>       0.56230398       0.04162642       0.61046131 </v>
   <v>       0.68293699       0.45224029       0.21181506 </v>
   <v>       0.18806633       0.79203023       0.74381858 </v>
   <v>       0.81284121       0.87064677       0.43423532 </v>
   <v>       0.43510417       0.78769433       0.38952510 </v>
   <v>       0.43734990       0.28562807       0.25600570 </v>
   <v>       0.06394004       0.54477301       0.87529099 </v>
   <v>       0.56233734       0.04201328       0.74383062 </v>
   <v>       0.19061697       0.79457447       0.87571160 </v>
   <v>       0.93732032       0.45468238       0.47813106 </v>
   <v>       0.81022559       0.53726157       0.38959435 </v>
   <v>       0.81349615       0.20726677       0.56563052 </v>
   <v>       0.19251884       0.62538467       0.78825889 </v>
   <v>       0.93386119       0.95153969       0.21184827 </v>
   <v>       0.06424876       0.70825802       0.69953583 </v>
   <v>       0.31273546       0.53522719       0.25594292 </v>
   <v>       0.30811877       0.70062921       0.21201221 </v>
   <v>       0.56637736       0.86400298       0.16658683 </v>
   <v>       0.56236037       0.54179311       0.74379403 </v>
   <v>       0.68785656       0.45281191       0.34529232 </v>
   <v>       0.94017745       0.29504801       0.87544812 </v>
   <v>       0.56211269       0.03556681       0.25604580 </v>
   <v>       0.18989747       0.11481270       0.16638738 </v>
   <v>       0.31076698       0.71279361       0.83390780 </v>
   <v>       0.31634802       0.86123783       0.16631525 </v>
   <v>       0.18192116       0.62150403       0.30056973 </v>
   <v>       0.06007871       0.53742441       0.38948898 </v>
   <v>       0.93936573       0.95267974       0.34536978 </v>
   <v>       0.18775570       0.95480331       0.47831749 </v>
  </varray>
 </structure>
</modeling>
