 288 288   0   0
  0.1280206E+02  0.9726678E-09  0.8423550E-09  0.4500000E-08  0.2500000E-15
  1.000000000000000E-004
  CAR 
 unknown system                          
      6.75384466     -6.08839563  301      4.29624857      1.00000000
     -6.088  0.0000E+00  0.0000E+00
     -6.046  0.0000E+00  0.0000E+00
     -6.003  0.0000E+00  0.0000E+00
     -5.960  0.0000E+00  0.0000E+00
     -5.917  0.0000E+00  0.0000E+00
     -5.874  0.0000E+00  0.0000E+00
     -5.832  0.0000E+00  0.0000E+00
     -5.789  0.0000E+00  0.0000E+00
     -5.746  0.0000E+00  0.0000E+00
     -5.703  0.0000E+00  0.0000E+00
     -5.660  0.0000E+00  0.0000E+00
     -5.618  0.0000E+00  0.0000E+00
     -5.575  0.0000E+00  0.0000E+00
     -5.532  0.0000E+00  0.0000E+00
     -5.489  0.0000E+00  0.0000E+00
     -5.446  0.1621E-15  0.6939E-17
     -5.403  0.4312E-14  0.1915E-15
     -5.361  0.9230E-13  0.4143E-14
     -5.318  0.1684E-11  0.7622E-13
     -5.275  0.2615E-10  0.1195E-11
     -5.232  0.3456E-09  0.1599E-10
     -5.189  0.3890E-08  0.1825E-09
     -5.147  0.3729E-07  0.1779E-08
     -5.104  0.3045E-06  0.1481E-07
     -5.061  0.2120E-05  0.1055E-06
     -5.018  0.1259E-04  0.6445E-06
     -4.975  0.6388E-04  0.3379E-05
     -4.933  0.2775E-03  0.1526E-04
     -4.890  0.1035E-02  0.5957E-04
     -4.847  0.3331E-02  0.2022E-03
     -4.804  0.9307E-02  0.6006E-03
     -4.761  0.2279E-01  0.1576E-02
     -4.719  0.4949E-01  0.3695E-02
     -4.676  0.9660E-01  0.7830E-02
     -4.633  0.1718E+00  0.1518E-01
     -4.590  0.2816E+00  0.2724E-01
     -4.547  0.4289E+00  0.4560E-01
     -4.505  0.6111E+00  0.7176E-01
     -4.462  0.8185E+00  0.1068E+00
     -4.419  0.1036E+01  0.1511E+00
     -4.376  0.1245E+01  0.2044E+00
     -4.333  0.1428E+01  0.2655E+00
     -4.290  0.1575E+01  0.3329E+00
     -4.248  0.1686E+01  0.4051E+00
     -4.205  0.1775E+01  0.4811E+00
     -4.162  0.1863E+01  0.5609E+00
     -4.119  0.1972E+01  0.6453E+00
     -4.076  0.2118E+01  0.7359E+00
     -4.034  0.2306E+01  0.8347E+00
     -3.991  0.2522E+01  0.9426E+00
     -3.948  0.2738E+01  0.1060E+01
     -3.905  0.2926E+01  0.1185E+01
     -3.862  0.3058E+01  0.1316E+01
     -3.820  0.3124E+01  0.1450E+01
     -3.777  0.3131E+01  0.1584E+01
     -3.734  0.3107E+01  0.1717E+01
     -3.691  0.3089E+01  0.1849E+01
     -3.648  0.3112E+01  0.1982E+01
     -3.606  0.3194E+01  0.2119E+01
     -3.563  0.3339E+01  0.2262E+01
     -3.520  0.3531E+01  0.2413E+01
     -3.477  0.3742E+01  0.2573E+01
     -3.434  0.3938E+01  0.2742E+01
     -3.392  0.4091E+01  0.2917E+01
     -3.349  0.4181E+01  0.3096E+01
     -3.306  0.4210E+01  0.3276E+01
     -3.263  0.4199E+01  0.3456E+01
     -3.220  0.4188E+01  0.3635E+01
     -3.177  0.4223E+01  0.3816E+01
     -3.135  0.4336E+01  0.4001E+01
     -3.092  0.4531E+01  0.4195E+01
     -3.049  0.4785E+01  0.4400E+01
     -3.006  0.5049E+01  0.4616E+01
     -2.963  0.5263E+01  0.4842E+01
     -2.921  0.5383E+01  0.5072E+01
     -2.878  0.5400E+01  0.5303E+01
     -2.835  0.5354E+01  0.5533E+01
     -2.792  0.5315E+01  0.5760E+01
     -2.749  0.5342E+01  0.5989E+01
     -2.707  0.5445E+01  0.6222E+01
     -2.664  0.5578E+01  0.6461E+01
     -2.621  0.5670E+01  0.6703E+01
     -2.578  0.5685E+01  0.6947E+01
     -2.535  0.5646E+01  0.7188E+01
     -2.493  0.5638E+01  0.7430E+01
     -2.450  0.5763E+01  0.7676E+01
     -2.407  0.6082E+01  0.7937E+01
     -2.364  0.6565E+01  0.8218E+01
     -2.321  0.7079E+01  0.8521E+01
     -2.279  0.7441E+01  0.8839E+01
     -2.236  0.7524E+01  0.9161E+01
     -2.193  0.7339E+01  0.9476E+01
     -2.150  0.7040E+01  0.9777E+01
     -2.107  0.6841E+01  0.1007E+02
     -2.064  0.6906E+01  0.1037E+02
     -2.022  0.7268E+01  0.1068E+02
     -1.979  0.7822E+01  0.1101E+02
     -1.936  0.8380E+01  0.1137E+02
     -1.893  0.8759E+01  0.1175E+02
     -1.850  0.8878E+01  0.1213E+02
     -1.808  0.8799E+01  0.1250E+02
     -1.765  0.8671E+01  0.1287E+02
     -1.722  0.8634E+01  0.1324E+02
     -1.679  0.8744E+01  0.1362E+02
     -1.636  0.8970E+01  0.1400E+02
     -1.594  0.9247E+01  0.1440E+02
     -1.551  0.9529E+01  0.1480E+02
     -1.508  0.9801E+01  0.1522E+02
     -1.465  0.1007E+02  0.1566E+02
     -1.422  0.1032E+02  0.1610E+02
     -1.380  0.1053E+02  0.1655E+02
     -1.337  0.1071E+02  0.1701E+02
     -1.294  0.1095E+02  0.1747E+02
     -1.251  0.1141E+02  0.1796E+02
     -1.208  0.1217E+02  0.1848E+02
     -1.166  0.1320E+02  0.1905E+02
     -1.123  0.1426E+02  0.1966E+02
     -1.080  0.1506E+02  0.2030E+02
     -1.037  0.1544E+02  0.2097E+02
     -0.994  0.1552E+02  0.2163E+02
     -0.951  0.1566E+02  0.2230E+02
     -0.909  0.1623E+02  0.2299E+02
     -0.866  0.1745E+02  0.2374E+02
     -0.823  0.1927E+02  0.2457E+02
     -0.780  0.2156E+02  0.2549E+02
     -0.737  0.2427E+02  0.2653E+02
     -0.695  0.2749E+02  0.2771E+02
     -0.652  0.3131E+02  0.2905E+02
     -0.609  0.3565E+02  0.3057E+02
     -0.566  0.4013E+02  0.3229E+02
     -0.523  0.4426E+02  0.3418E+02
     -0.481  0.4767E+02  0.3622E+02
     -0.438  0.5024E+02  0.3838E+02
     -0.395  0.5216E+02  0.4061E+02
     -0.352  0.5370E+02  0.4291E+02
     -0.309  0.5504E+02  0.4526E+02
     -0.267  0.5618E+02  0.4767E+02
     -0.224  0.5701E+02  0.5011E+02
     -0.181  0.5743E+02  0.5257E+02
     -0.138  0.5752E+02  0.5503E+02
     -0.095  0.5753E+02  0.5749E+02
     -0.053  0.5773E+02  0.5996E+02
     -0.010  0.5837E+02  0.6246E+02
      0.033  0.5961E+02  0.6501E+02
      0.076  0.6157E+02  0.6765E+02
      0.119  0.6425E+02  0.7040E+02
      0.161  0.6751E+02  0.7329E+02
      0.204  0.7103E+02  0.7633E+02
      0.247  0.7443E+02  0.7952E+02
      0.290  0.7744E+02  0.8283E+02
      0.333  0.7995E+02  0.8625E+02
      0.376  0.8200E+02  0.8977E+02
      0.418  0.8366E+02  0.9335E+02
      0.461  0.8496E+02  0.9698E+02
      0.504  0.8585E+02  0.1007E+03
      0.547  0.8627E+02  0.1044E+03
      0.590  0.8623E+02  0.1080E+03
      0.632  0.8575E+02  0.1117E+03
      0.675  0.8488E+02  0.1153E+03
      0.718  0.8358E+02  0.1189E+03
      0.761  0.8189E+02  0.1224E+03
      0.804  0.8003E+02  0.1259E+03
      0.846  0.7832E+02  0.1292E+03
      0.889  0.7708E+02  0.1325E+03
      0.932  0.7639E+02  0.1358E+03
      0.975  0.7606E+02  0.1390E+03
      1.018  0.7576E+02  0.1423E+03
      1.060  0.7519E+02  0.1455E+03
      1.103  0.7429E+02  0.1487E+03
      1.146  0.7330E+02  0.1518E+03
      1.189  0.7266E+02  0.1549E+03
      1.232  0.7267E+02  0.1580E+03
      1.274  0.7321E+02  0.1612E+03
      1.317  0.7373E+02  0.1643E+03
      1.360  0.7360E+02  0.1675E+03
      1.403  0.7252E+02  0.1706E+03
      1.446  0.7076E+02  0.1736E+03
      1.489  0.6900E+02  0.1766E+03
      1.531  0.6791E+02  0.1795E+03
      1.574  0.6788E+02  0.1824E+03
      1.617  0.6895E+02  0.1853E+03
      1.660  0.7086E+02  0.1884E+03
      1.703  0.7326E+02  0.1915E+03
      1.745  0.7581E+02  0.1947E+03
      1.788  0.7825E+02  0.1981E+03
      1.831  0.8043E+02  0.2015E+03
      1.874  0.8228E+02  0.2051E+03
      1.917  0.8387E+02  0.2086E+03
      1.959  0.8534E+02  0.2123E+03
      2.002  0.8682E+02  0.2160E+03
      2.045  0.8839E+02  0.2198E+03
      2.088  0.9004E+02  0.2237E+03
      2.131  0.9171E+02  0.2276E+03
      2.173  0.9336E+02  0.2316E+03
      2.216  0.9505E+02  0.2356E+03
      2.259  0.9698E+02  0.2398E+03
      2.302  0.9945E+02  0.2441E+03
      2.345  0.1027E+03  0.2485E+03
      2.387  0.1067E+03  0.2530E+03
      2.430  0.1112E+03  0.2578E+03
      2.473  0.1158E+03  0.2627E+03
      2.516  0.1200E+03  0.2679E+03
      2.559  0.1236E+03  0.2732E+03
      2.602  0.1263E+03  0.2786E+03
      2.644  0.1280E+03  0.2840E+03
      2.687  0.1290E+03  0.2896E+03
      2.730  0.1298E+03  0.2951E+03
      2.773  0.1309E+03  0.3007E+03
      2.816  0.1329E+03  0.3064E+03
      2.858  0.1359E+03  0.3122E+03
      2.901  0.1394E+03  0.3182E+03
      2.944  0.1422E+03  0.3243E+03
      2.987  0.1424E+03  0.3304E+03
      3.030  0.1389E+03  0.3363E+03
      3.072  0.1317E+03  0.3420E+03
      3.115  0.1222E+03  0.3472E+03
      3.158  0.1124E+03  0.3520E+03
      3.201  0.1038E+03  0.3565E+03
      3.244  0.9739E+02  0.3606E+03
      3.286  0.9325E+02  0.3646E+03
      3.329  0.9105E+02  0.3685E+03
      3.372  0.9020E+02  0.3724E+03
      3.415  0.9000E+02  0.3762E+03
      3.458  0.8971E+02  0.3801E+03
      3.500  0.8879E+02  0.3839E+03
      3.543  0.8714E+02  0.3876E+03
      3.586  0.8525E+02  0.3912E+03
      3.629  0.8395E+02  0.3948E+03
      3.672  0.8396E+02  0.3984E+03
      3.715  0.8546E+02  0.4021E+03
      3.757  0.8802E+02  0.4059E+03
      3.800  0.9096E+02  0.4098E+03
      3.843  0.9374E+02  0.4138E+03
      3.886  0.9616E+02  0.4179E+03
      3.929  0.9826E+02  0.4221E+03
      3.971  0.1001E+03  0.4264E+03
      4.014  0.1018E+03  0.4307E+03
      4.057  0.1030E+03  0.4351E+03
      4.100  0.1035E+03  0.4396E+03
      4.143  0.1031E+03  0.4440E+03
      4.185  0.1021E+03  0.4484E+03
      4.228  0.1006E+03  0.4527E+03
      4.271  0.9929E+02  0.4569E+03
      4.314  0.9847E+02  0.4611E+03
      4.357  0.9838E+02  0.4653E+03
      4.399  0.9891E+02  0.4696E+03
      4.442  0.9971E+02  0.4738E+03
      4.485  0.1003E+03  0.4781E+03
      4.528  0.1003E+03  0.4824E+03
      4.571  0.9974E+02  0.4867E+03
      4.613  0.9882E+02  0.4909E+03
      4.656  0.9816E+02  0.4951E+03
      4.699  0.9832E+02  0.4993E+03
      4.742  0.9959E+02  0.5036E+03
      4.785  0.1019E+03  0.5080E+03
      4.828  0.1049E+03  0.5125E+03
      4.870  0.1080E+03  0.5171E+03
      4.913  0.1107E+03  0.5218E+03
      4.956  0.1126E+03  0.5266E+03
      4.999  0.1126E+03  0.5315E+03
      5.042  0.1099E+03  0.5362E+03
      5.084  0.1032E+03  0.5406E+03
      5.127  0.9201E+02  0.5445E+03
      5.170  0.7677E+02  0.5478E+03
      5.213  0.5910E+02  0.5503E+03
      5.256  0.4146E+02  0.5521E+03
      5.298  0.2621E+02  0.5532E+03
      5.341  0.1480E+02  0.5539E+03
      5.384  0.7411E+01  0.5542E+03
      5.427  0.3271E+01  0.5543E+03
      5.470  0.1266E+01  0.5544E+03
      5.512  0.4284E+00  0.5544E+03
      5.555  0.1262E+00  0.5544E+03
      5.598  0.3233E-01  0.5544E+03
      5.641  0.7178E-02  0.5544E+03
      5.684  0.1379E-02  0.5544E+03
      5.726  0.2290E-03  0.5544E+03
      5.769  0.3281E-04  0.5544E+03
      5.812  0.4052E-05  0.5544E+03
      5.855  0.4306E-06  0.5544E+03
      5.898  0.3936E-07  0.5544E+03
      5.941  0.3091E-08  0.5544E+03
      5.983  0.2084E-09  0.5544E+03
      6.026  0.1205E-10  0.5544E+03
      6.069  0.5974E-12  0.5544E+03
      6.112  0.2425E-13  0.5544E+03
      6.155  0.4539E-15  0.5544E+03
      6.197  0.0000E+00  0.5544E+03
      6.240  0.0000E+00  0.5544E+03
      6.283  0.0000E+00  0.5544E+03
      6.326  0.0000E+00  0.5544E+03
      6.369  0.0000E+00  0.5544E+03
      6.411  0.0000E+00  0.5544E+03
      6.454  0.0000E+00  0.5544E+03
      6.497  0.0000E+00  0.5544E+03
      6.540  0.0000E+00  0.5544E+03
      6.583  0.0000E+00  0.5544E+03
      6.625  0.0000E+00  0.5544E+03
      6.668  0.0000E+00  0.5544E+03
      6.711  0.0000E+00  0.5544E+03
      6.754  0.0000E+00  0.5544E+03
