<?xml version="1.0" encoding="ISO-8859-1"?>
<modeling>
 <generator>
  <i name="program" type="string">vasp </i>
  <i name="version" type="string">5.4.4.18Apr17-6-g9f103f2a35  </i>
  <i name="subversion" type="string">(build Sep 27 2018 12:46:37) complex + VL-xray_ parallel </i>
  <i name="platform" type="string">LLNL_Quartz_ifc </i>
  <i name="date" type="string">2021 09 26 </i>
  <i name="time" type="string">19:22:35 </i>
 </generator>
 <incar>
  <i type="int" name="ISTART">     2</i>
  <i type="string" name="PREC">accurate</i>
  <i type="string" name="ALGO"> Fast</i>
  <i type="int" name="ICHARG">     2</i>
  <i type="int" name="INIWAV">     1</i>
  <i type="int" name="NELM">   100</i>
  <i type="int" name="NELMIN">     4</i>
  <i type="int" name="IBRION">     2</i>
  <i name="EDIFF">      0.00000100</i>
  <i type="int" name="NSW">     5</i>
  <i type="int" name="ISIF">     2</i>
  <i type="int" name="ISYM">     2</i>
  <i name="ENCUT">    450.00000000</i>
  <i name="POTIM">      0.25000000</i>
  <i type="string" name="LREAL"> Auto</i>
  <i type="int" name="ISMEAR">     0</i>
  <i name="SIGMA">      0.15000000</i>
  <i type="logical" name="LWAVE"> F  </i>
  <i type="logical" name="LCHARG"> F  </i>
  <i type="int" name="ICORELEVEL">     0</i>
  <i type="int" name="CLNT">     1</i>
  <i type="int" name="CLN">     1</i>
  <i type="int" name="INCAR     ">     0</i>
  <i name="CLZ">      0.00000000</i>
  <v type="int" name="KPOINT_BSE">    -1     0     0     0</v>
  <i type="int" name="NELM">   100</i>
 </incar>
 <structure name="primitive_cell" >
  <crystal>
   <varray name="basis" >
    <v>       9.72667804       0.00000000       0.00000000 </v>
    <v>       0.00000000       8.42355028       0.00000000 </v>
    <v>       0.00000000       0.00000000      45.00000000 </v>
   </varray>
   <i name="volume">   3686.99226691 </i>
   <varray name="rec_basis" >
    <v>       0.10281002       0.00000000       0.00000000 </v>
    <v>       0.00000000       0.11871479       0.00000000 </v>
    <v>       0.00000000       0.00000000       0.02222222 </v>
   </varray>
  </crystal>
  <varray name="positions" >
   <v>       0.06221800       0.03339070       0.12548619 </v>
   <v>      -0.06228060       0.11762319       0.16764324 </v>
   <v>       0.06321551      -0.13053849       0.16825496 </v>
   <v>      -0.06196559      -0.20893738       0.12558095 </v>
   <v>       0.18885611       0.11806505       0.16799399 </v>
   <v>       0.18835998      -0.21039643       0.12562198 </v>
   <v>       0.31174066       0.03399652       0.12543621 </v>
   <v>      -0.18824894       0.03420575       0.12540519 </v>
   <v>       0.18844159       0.29011305       0.12563738 </v>
   <v>      -0.06300191       0.29118050       0.12548053 </v>
   <v>      -0.18703486      -0.13082843       0.16821763 </v>
   <v>       0.31319849      -0.13053044       0.16841668 </v>
   <v>       0.06366405       0.36898030       0.16798636 </v>
   <v>      -0.31075021       0.11816444       0.16793868 </v>
   <v>      -0.06270546      -0.04202623       0.21281018 </v>
   <v>      -0.18702587       0.36882582       0.16711029 </v>
   <v>       0.18891858      -0.38026826       0.16835080 </v>
   <v>       0.18754682      -0.04188678       0.21295982 </v>
   <v>      -0.06117972      -0.38381742       0.16789462 </v>
   <v>       0.43622010      -0.21031832       0.12556687 </v>
   <v>      -0.31344179      -0.20917211       0.12557874 </v>
   <v>       0.43876335       0.11779834       0.16776469 </v>
   <v>       0.06212798       0.20791283       0.21282595 </v>
   <v>       0.06228385      -0.46507821       0.12544377 </v>
   <v>       0.31285560       0.36872881       0.16834040 </v>
   <v>       0.43615004       0.29055360       0.12563386 </v>
   <v>      -0.31267627       0.29136117       0.12547394 </v>
   <v>       0.06227774      -0.29204086       0.21273230 </v>
   <v>       0.31163668      -0.46480394       0.12554858 </v>
   <v>       0.31243650       0.20787304       0.21275068 </v>
   <v>      -0.43910738       0.03389173       0.12554564 </v>
   <v>      -0.18785390       0.20766075       0.21286590 </v>
   <v>      -0.18865135      -0.46549099       0.12542508 </v>
   <v>      -0.18761249      -0.29215163       0.21270745 </v>
   <v>       0.31234494      -0.29190713       0.21270704 </v>
   <v>      -0.31253275      -0.04190369       0.21281846 </v>
   <v>      -0.31146071      -0.38364760       0.16787339 </v>
   <v>       0.43747622      -0.04189358       0.21291643 </v>
   <v>      -0.43693045      -0.13065393       0.16836459 </v>
   <v>       0.43787214      -0.38097990       0.16844854 </v>
   <v>       0.18717459       0.45802138       0.21287888 </v>
   <v>      -0.06236706       0.45818748       0.21306937 </v>
   <v>      -0.43628118       0.36987081       0.16805083 </v>
   <v>       0.06490066       0.04178617       0.25734597 </v>
   <v>      -0.06030323      -0.20825855       0.25730258 </v>
   <v>       0.18963230      -0.20862219       0.25734493 </v>
   <v>      -0.18522061       0.04161203       0.25731612 </v>
   <v>      -0.43875616      -0.46509134       0.12548878 </v>
   <v>      -0.43742695       0.20815440       0.21287313 </v>
   <v>       0.31488747       0.04134962       0.25747772 </v>
   <v>      -0.06023137       0.29146237       0.25729169 </v>
   <v>       0.18989565       0.29094422       0.25721308 </v>
   <v>       0.43738985       0.45804173       0.21293720 </v>
   <v>      -0.31313916       0.45790950       0.21307754 </v>
   <v>      -0.43780280      -0.29213919       0.21277260 </v>
   <v>       0.06404852      -0.45946441       0.25722765 </v>
   <v>      -0.31004325      -0.20864969       0.25738764 </v>
   <v>       0.44047707      -0.20859768       0.25735463 </v>
   <v>      -0.30999089       0.29131732       0.25716911 </v>
   <v>       0.43968272       0.29133845       0.25739238 </v>
   <v>      -0.18574933      -0.45831311       0.25722426 </v>
   <v>       0.31296993      -0.45993605       0.25734457 </v>
   <v>      -0.43564710       0.04110044       0.25735416 </v>
   <v>       0.06252218      -0.12650722       0.30147681 </v>
   <v>       0.18698045       0.12431231       0.30137361 </v>
   <v>      -0.06268842       0.12400277       0.30150562 </v>
   <v>      -0.18760501      -0.12650123       0.30144222 </v>
   <v>       0.31209163      -0.12666979       0.30148633 </v>
   <v>       0.06209092       0.37407025       0.30146750 </v>
   <v>      -0.43550423      -0.45841293       0.25727073 </v>
   <v>      -0.06312000      -0.37555318       0.30147416 </v>
   <v>       0.18743309      -0.37619127       0.30157967 </v>
   <v>       0.43669272       0.12423168       0.30146094 </v>
   <v>      -0.31260713       0.12413520       0.30148113 </v>
   <v>       0.31236068       0.37364417       0.30143125 </v>
   <v>      -0.18750460       0.37408757       0.30147123 </v>
   <v>      -0.31296658      -0.37514144       0.30144691 </v>
   <v>       0.43735581      -0.37562829       0.30154756 </v>
   <v>      -0.43776262      -0.12636254       0.30146333 </v>
   <v>      -0.43768866       0.37372600       0.30141888 </v>
   <v>      -0.06160581      -0.04351981       0.34623313 </v>
   <v>       0.18773888      -0.04376845       0.34632017 </v>
   <v>       0.06254545       0.20679181       0.34619239 </v>
   <v>       0.06218758      -0.29332918       0.34621969 </v>
   <v>      -0.18735168       0.20593486       0.34615794 </v>
   <v>       0.31272407       0.20681569       0.34623387 </v>
   <v>       0.31237593      -0.29465079       0.34601924 </v>
   <v>      -0.18793356      -0.29392410       0.34621162 </v>
   <v>      -0.31227865      -0.04333252       0.34611139 </v>
   <v>       0.43755974      -0.04321517       0.34614712 </v>
   <v>      -0.06282030       0.45564393       0.34601206 </v>
   <v>       0.18779819       0.45655321       0.34632913 </v>
   <v>      -0.43714136       0.20590825       0.34618077 </v>
   <v>      -0.31202809       0.45632698       0.34603477 </v>
   <v>       0.43847511       0.45616386       0.34614488 </v>
   <v>       0.06229642       0.03365905      -0.12551723 </v>
   <v>      -0.43731631      -0.29463057       0.34602833 </v>
   <v>       0.18610414      -0.20952358      -0.12545935 </v>
   <v>      -0.06183299      -0.21070556      -0.12545297 </v>
   <v>       0.31309196       0.03646167      -0.12553485 </v>
   <v>       0.18803810       0.29139783      -0.12530640 </v>
   <v>      -0.18897971       0.03622072      -0.12563520 </v>
   <v>      -0.06389865       0.29140479      -0.12543045 </v>
   <v>       0.06244268       0.03978726       0.38977559 </v>
   <v>       0.43828583      -0.20895115      -0.12546157 </v>
   <v>      -0.31348987      -0.20942569      -0.12548413 </v>
   <v>       0.06142191      -0.46449789      -0.12548402 </v>
   <v>      -0.31257370       0.29210102      -0.12520490 </v>
   <v>       0.43756145       0.29222393      -0.12521553 </v>
   <v>       0.18729062      -0.20935977       0.38961002 </v>
   <v>      -0.06245424      -0.20942315       0.38973499 </v>
   <v>       0.31247385       0.03962679       0.38974820 </v>
   <v>      -0.18754044       0.04048921       0.38983073 </v>
   <v>      -0.06268884       0.29043484       0.38976299 </v>
   <v>       0.18763611       0.29037430       0.38976149 </v>
   <v>      -0.18909267      -0.46474413      -0.12534991 </v>
   <v>      -0.43673102       0.03460080      -0.12540194 </v>
   <v>       0.31315209      -0.46566570      -0.12543407 </v>
   <v>       0.06278110      -0.45908220       0.38982372 </v>
   <v>       0.43764104      -0.20934776       0.38979914 </v>
   <v>      -0.31253150      -0.20965766       0.38985797 </v>
   <v>      -0.31252402       0.29078278       0.38976392 </v>
   <v>       0.43763127       0.29046337       0.38980323 </v>
   <v>       0.31204412      -0.45947548       0.38979445 </v>
   <v>      -0.18743887      -0.45963603       0.38981816 </v>
   <v>      -0.43763340       0.04054334       0.38976493 </v>
   <v>      -0.43694953      -0.46444184      -0.12554093 </v>
   <v>       0.18539373      -0.03983135      -0.16704186 </v>
   <v>      -0.06306969      -0.04067029      -0.16761022 </v>
   <v>       0.06177647       0.20897485      -0.16740885 </v>
   <v>       0.06084433      -0.28862642      -0.16744357 </v>
   <v>       0.31022993       0.20778282      -0.16767808 </v>
   <v>      -0.18789306       0.20911755      -0.16758429 </v>
   <v>      -0.43770187      -0.45965704       0.38973885 </v>
   <v>       0.31087059      -0.28991128      -0.16794049 </v>
   <v>       0.43697121      -0.04173490      -0.16772647 </v>
   <v>      -0.31485265      -0.04149867      -0.16808539 </v>
   <v>      -0.19018430      -0.29149162      -0.16839736 </v>
   <v>       0.18571386       0.45966922      -0.16783666 </v>
   <v>      -0.06504320       0.45940148      -0.16798453 </v>
   <v>      -0.06258454       0.12308328       0.43461398 </v>
   <v>       0.18735755       0.12337966       0.43464439 </v>
   <v>       0.06187469      -0.12618401       0.43497087 </v>
   <v>      -0.43957636       0.20962135      -0.16801148 </v>
   <v>       0.43526508       0.45868062      -0.16794175 </v>
   <v>      -0.31497341       0.45829045      -0.16813873 </v>
   <v>      -0.18832171      -0.12799457       0.43454409 </v>
   <v>       0.31243759      -0.12795495       0.43460279 </v>
   <v>       0.06251735       0.37273073       0.43466792 </v>
   <v>      -0.43959790      -0.29099332      -0.16816538 </v>
   <v>       0.18758579      -0.37725357       0.43448695 </v>
   <v>      -0.06302757      -0.37745274       0.43457027 </v>
   <v>      -0.31260423       0.12323788       0.43466431 </v>
   <v>      -0.18744852       0.37287253       0.43462292 </v>
   <v>       0.31236525       0.37292429       0.43464654 </v>
   <v>       0.43738812       0.12354417       0.43482447 </v>
   <v>       0.43747561      -0.37673656       0.43466523 </v>
   <v>      -0.31260434      -0.37690759       0.43468241 </v>
   <v>      -0.43756576      -0.12718395       0.43456896 </v>
   <v>      -0.43761513       0.37235924       0.43461477 </v>
   <v>       0.18724555       0.11725672      -0.21267598 </v>
   <v>      -0.06222532       0.11714732      -0.21270482 </v>
   <v>       0.06199260      -0.13182595      -0.21297993 </v>
   <v>      -0.18809236      -0.13240285      -0.21289745 </v>
   <v>       0.06278988       0.36808162      -0.21288352 </v>
   <v>       0.31322518      -0.13224480      -0.21295521 </v>
   <v>      -0.31275239       0.11725047      -0.21269160 </v>
   <v>       0.43761471       0.11720604      -0.21273510 </v>
   <v>       0.18759023      -0.38301297      -0.21278262 </v>
   <v>      -0.18743649       0.36784942      -0.21278059 </v>
   <v>      -0.06296705      -0.38254287      -0.21286539 </v>
   <v>       0.31207729       0.36814874      -0.21286610 </v>
   <v>       0.18779435      -0.04422203       0.47869529 </v>
   <v>      -0.06272563      -0.04423423       0.47876311 </v>
   <v>       0.06260407       0.20593714       0.47863037 </v>
   <v>      -0.43739100      -0.13247708      -0.21272481 </v>
   <v>      -0.31227684      -0.38283640      -0.21273175 </v>
   <v>       0.43755230      -0.38288952      -0.21271506 </v>
   <v>       0.06244916      -0.29438526       0.47870519 </v>
   <v>      -0.18747626       0.20582983       0.47866064 </v>
   <v>       0.31258035       0.20596333       0.47866642 </v>
   <v>      -0.43730751       0.36740459      -0.21276212 </v>
   <v>      -0.18730352      -0.29401042       0.47866574 </v>
   <v>       0.31240857      -0.29425754       0.47870766 </v>
   <v>      -0.31238500      -0.04429995       0.47864953 </v>
   <v>       0.43759070      -0.04428908       0.47865310 </v>
   <v>      -0.06241779       0.45569930       0.47868206 </v>
   <v>       0.18770973       0.45573721       0.47869715 </v>
   <v>      -0.43732695       0.20578599       0.47864195 </v>
   <v>      -0.31246033       0.45579075       0.47865976 </v>
   <v>       0.43761901       0.45592690       0.47863989 </v>
   <v>      -0.43745266      -0.29390908       0.47866405 </v>
   <v>       0.05974580       0.03621136      -0.25744679 </v>
   <v>       0.18723227      -0.21297867      -0.25703028 </v>
   <v>      -0.06267092      -0.21243030      -0.25704652 </v>
   <v>       0.31087123       0.03715912      -0.25726219 </v>
   <v>       0.18711732       0.28733774      -0.25719692 </v>
   <v>      -0.06530098       0.28655143      -0.25728272 </v>
   <v>      -0.18959629       0.03780937      -0.25735649 </v>
   <v>      -0.31292642      -0.21188984      -0.25703070 </v>
   <v>       0.06187838      -0.46349405      -0.25711323 </v>
   <v>       0.43698584      -0.21256950      -0.25709006 </v>
   <v>       0.43429577       0.28761282      -0.25737306 </v>
   <v>      -0.31453441       0.28633208      -0.25752017 </v>
   <v>       0.06293391      -0.12957663      -0.47892359 </v>
   <v>      -0.06154823       0.12135360      -0.47888266 </v>
   <v>       0.18760865       0.12124203      -0.47889242 </v>
   <v>       0.31060133      -0.46381432      -0.25691494 </v>
   <v>      -0.18806015      -0.46261071      -0.25722679 </v>
   <v>      -0.43799175       0.03742660      -0.25723416 </v>
   <v>      -0.18754495      -0.12915024      -0.47890275 </v>
   <v>       0.31307865      -0.12943125      -0.47890300 </v>
   <v>       0.06309228       0.37077046      -0.47887107 </v>
   <v>       0.18801465      -0.37945004      -0.47891258 </v>
   <v>      -0.06226790      -0.37932276      -0.47887777 </v>
   <v>      -0.31195724       0.12086223      -0.47887732 </v>
   <v>       0.43783224       0.12081109      -0.47890676 </v>
   <v>       0.31329258       0.37078130      -0.47891532 </v>
   <v>      -0.18744431       0.37074823      -0.47886176 </v>
   <v>      -0.44047541      -0.46145616      -0.25745694 </v>
   <v>      -0.31221055      -0.37912981      -0.47891633 </v>
   <v>       0.43755607      -0.37917017      -0.47887615 </v>
   <v>      -0.43708379      -0.12912166      -0.47889999 </v>
   <v>      -0.43734436       0.37107886      -0.47888763 </v>
   <v>      -0.06200086      -0.04286724      -0.30144391 </v>
   <v>       0.18824816      -0.04315719      -0.30145397 </v>
   <v>       0.06303611       0.20624714      -0.30144109 </v>
   <v>       0.06313714      -0.29390527      -0.30138048 </v>
   <v>      -0.18678275       0.20616503      -0.30132365 </v>
   <v>       0.31281474       0.20623733      -0.30137660 </v>
   <v>      -0.18690168      -0.29400728      -0.30144765 </v>
   <v>       0.31317618      -0.29367783      -0.30142459 </v>
   <v>      -0.31193660      -0.04338345      -0.30148290 </v>
   <v>       0.43759989      -0.04383075      -0.30144087 </v>
   <v>      -0.06225339       0.45746734      -0.30125476 </v>
   <v>       0.18796106       0.45743819      -0.30129971 </v>
   <v>       0.18782648      -0.04277768      -0.43504850 </v>
   <v>      -0.06293668      -0.04269951      -0.43502353 </v>
   <v>       0.06252125       0.20698937      -0.43500180 </v>
   <v>      -0.43644795       0.20679247      -0.30125459 </v>
   <v>      -0.31150406       0.45652908      -0.30140408 </v>
   <v>       0.43863087       0.45669788      -0.30147704 </v>
   <v>       0.06232091      -0.29288691      -0.43511128 </v>
   <v>      -0.18763703       0.20706557      -0.43511001 </v>
   <v>       0.31252939       0.20701576      -0.43503558 </v>
   <v>      -0.43686979      -0.29369007      -0.30146167 </v>
   <v>      -0.18737606      -0.29286440      -0.43501488 </v>
   <v>       0.31219153      -0.29263650      -0.43500255 </v>
   <v>      -0.31214866      -0.04282227      -0.43506662 </v>
   <v>       0.43742921      -0.04292584      -0.43504075 </v>
   <v>       0.18756562       0.45716576      -0.43502336 </v>
   <v>      -0.06250037       0.45723903      -0.43500681 </v>
   <v>      -0.43753206       0.20710791      -0.43501559 </v>
   <v>       0.43732596       0.45750273      -0.43498034 </v>
   <v>      -0.31253581       0.45740863      -0.43491093 </v>
   <v>      -0.43767839      -0.29289359      -0.43497936 </v>
   <v>       0.06112830      -0.12815423      -0.34604794 </v>
   <v>      -0.06371998       0.12248131      -0.34596566 </v>
   <v>       0.18580807       0.12204279      -0.34603488 </v>
   <v>       0.31096913      -0.12825117      -0.34594860 </v>
   <v>      -0.18912257      -0.12828563      -0.34602740 </v>
   <v>       0.06119488       0.37142550      -0.34619514 </v>
   <v>      -0.06316441      -0.37733237      -0.34589737 </v>
   <v>       0.18630530      -0.37785804      -0.34597469 </v>
   <v>      -0.18887763       0.37186123      -0.34597717 </v>
   <v>       0.31104569       0.37190527      -0.34603962 </v>
   <v>       0.43630143       0.12151531      -0.34620163 </v>
   <v>      -0.31392944       0.12169589      -0.34613842 </v>
   <v>       0.43670169      -0.37801695      -0.34597597 </v>
   <v>      -0.31369816      -0.37772266      -0.34596939 </v>
   <v>       0.06423028       0.03722836      -0.38990931 </v>
   <v>      -0.43896220      -0.12799569      -0.34602925 </v>
   <v>      -0.06070244      -0.21230492      -0.38990391 </v>
   <v>       0.18911509      -0.21243827      -0.38993729 </v>
   <v>      -0.18574941       0.03752417      -0.38986740 </v>
   <v>       0.18919435       0.28761749      -0.38984191 </v>
   <v>      -0.06054329       0.28780575      -0.38978945 </v>
   <v>      -0.43897203       0.37168106      -0.34599962 </v>
   <v>       0.31432241       0.03764490      -0.38976426 </v>
   <v>      -0.31076305      -0.21242604      -0.38986838 </v>
   <v>       0.06409379      -0.46304680      -0.38980291 </v>
   <v>       0.43927750      -0.21240282      -0.38992150 </v>
   <v>      -0.31075120       0.28766118      -0.38982974 </v>
   <v>       0.43918990       0.28755031      -0.38988387 </v>
   <v>      -0.18579810      -0.46248874      -0.38987863 </v>
   <v>       0.31401305      -0.46261001      -0.38984901 </v>
   <v>      -0.43578533       0.03759668      -0.38977670 </v>
   <v>      -0.43583978      -0.46242691      -0.38985218 </v>
  </varray>
 </structure>
 <varray name="primitive_index" >
  <v type="int" >        1 </v>
  <v type="int" >       26 </v>
  <v type="int" >       60 </v>
  <v type="int" >       44 </v>
  <v type="int" >      125 </v>
  <v type="int" >       83 </v>
  <v type="int" >      256 </v>
  <v type="int" >      202 </v>
  <v type="int" >      111 </v>
  <v type="int" >      155 </v>
  <v type="int" >      102 </v>
  <v type="int" >      192 </v>
  <v type="int" >       51 </v>
  <v type="int" >      166 </v>
  <v type="int" >      212 </v>
  <v type="int" >      284 </v>
  <v type="int" >       20 </v>
  <v type="int" >      146 </v>
  <v type="int" >      104 </v>
  <v type="int" >       55 </v>
  <v type="int" >      163 </v>
  <v type="int" >      182 </v>
  <v type="int" >       50 </v>
  <v type="int" >      176 </v>
  <v type="int" >        7 </v>
  <v type="int" >      117 </v>
  <v type="int" >      145 </v>
  <v type="int" >      250 </v>
  <v type="int" >       91 </v>
  <v type="int" >      123 </v>
  <v type="int" >      114 </v>
  <v type="int" >      167 </v>
  <v type="int" >      205 </v>
  <v type="int" >      213 </v>
  <v type="int" >      276 </v>
  <v type="int" >       92 </v>
  <v type="int" >       97 </v>
  <v type="int" >      229 </v>
  <v type="int" >      277 </v>
  <v type="int" >      174 </v>
  <v type="int" >      189 </v>
  <v type="int" >      175 </v>
  <v type="int" >       30 </v>
  <v type="int" >      185 </v>
  <v type="int" >       52 </v>
  <v type="int" >      200 </v>
  <v type="int" >       24 </v>
  <v type="int" >      164 </v>
  <v type="int" >      103 </v>
  <v type="int" >      179 </v>
  <v type="int" >      127 </v>
  <v type="int" >      287 </v>
  <v type="int" >      139 </v>
  <v type="int" >      261 </v>
  <v type="int" >      243 </v>
  <v type="int" >      168 </v>
  <v type="int" >      118 </v>
  <v type="int" >      137 </v>
  <v type="int" >       58 </v>
  <v type="int" >      265 </v>
  <v type="int" >       81 </v>
  <v type="int" >      275 </v>
  <v type="int" >      281 </v>
  <v type="int" >      214 </v>
  <v type="int" >      215 </v>
  <v type="int" >      135 </v>
  <v type="int" >       72 </v>
  <v type="int" >       98 </v>
  <v type="int" >      226 </v>
  <v type="int" >       28 </v>
  <v type="int" >      178 </v>
  <v type="int" >      263 </v>
  <v type="int" >      159 </v>
  <v type="int" >      109 </v>
  <v type="int" >      242 </v>
  <v type="int" >      220 </v>
  <v type="int" >      130 </v>
  <v type="int" >      101 </v>
  <v type="int" >      210 </v>
  <v type="int" >      171 </v>
  <v type="int" >      194 </v>
  <v type="int" >      258 </v>
  <v type="int" >       47 </v>
  <v type="int" >      216 </v>
  <v type="int" >      207 </v>
  <v type="int" >       86 </v>
  <v type="int" >      208 </v>
  <v type="int" >       73 </v>
  <v type="int" >       25 </v>
  <v type="int" >      172 </v>
  <v type="int" >       12 </v>
  <v type="int" >      116 </v>
  <v type="int" >      219 </v>
  <v type="int" >      279 </v>
  <v type="int" >      206 </v>
  <v type="int" >      282 </v>
  <v type="int" >       62 </v>
  <v type="int" >      268 </v>
  <v type="int" >      105 </v>
  <v type="int" >      245 </v>
  <v type="int" >      120 </v>
  <v type="int" >       14 </v>
  <v type="int" >      280 </v>
  <v type="int" >      124 </v>
  <v type="int" >      150 </v>
  <v type="int" >       29 </v>
  <v type="int" >      266 </v>
  <v type="int" >      191 </v>
  <v type="int" >      255 </v>
  <v type="int" >      283 </v>
  <v type="int" >      190 </v>
  <v type="int" >      165 </v>
  <v type="int" >       48 </v>
  <v type="int" >       13 </v>
  <v type="int" >      248 </v>
  <v type="int" >      247 </v>
  <v type="int" >      161 </v>
  <v type="int" >       18 </v>
  <v type="int" >      273 </v>
  <v type="int" >      264 </v>
  <v type="int" >       45 </v>
  <v type="int" >       84 </v>
  <v type="int" >        4 </v>
  <v type="int" >       67 </v>
  <v type="int" >      270 </v>
  <v type="int" >       16 </v>
  <v type="int" >       64 </v>
  <v type="int" >      285 </v>
  <v type="int" >       17 </v>
  <v type="int" >      259 </v>
  <v type="int" >      134 </v>
  <v type="int" >       39 </v>
  <v type="int" >        6 </v>
  <v type="int" >      222 </v>
  <v type="int" >        5 </v>
  <v type="int" >      110 </v>
  <v type="int" >       88 </v>
  <v type="int" >      253 </v>
  <v type="int" >      181 </v>
  <v type="int" >       36 </v>
  <v type="int" >      158 </v>
  <v type="int" >      160 </v>
  <v type="int" >      204 </v>
  <v type="int" >      143 </v>
  <v type="int" >       74 </v>
  <v type="int" >       82 </v>
  <v type="int" >      235 </v>
  <v type="int" >       23 </v>
  <v type="int" >      218 </v>
  <v type="int" >      241 </v>
  <v type="int" >      238 </v>
  <v type="int" >      131 </v>
  <v type="int" >      257 </v>
  <v type="int" >       80 </v>
  <v type="int" >      113 </v>
  <v type="int" >      201 </v>
  <v type="int" >      249 </v>
  <v type="int" >      232 </v>
  <v type="int" >       69 </v>
  <v type="int" >      251 </v>
  <v type="int" >        3 </v>
  <v type="int" >      149 </v>
  <v type="int" >      197 </v>
  <v type="int" >      112 </v>
  <v type="int" >      254 </v>
  <v type="int" >      224 </v>
  <v type="int" >      188 </v>
  <v type="int" >       49 </v>
  <v type="int" >      272 </v>
  <v type="int" >       57 </v>
  <v type="int" >      132 </v>
  <v type="int" >      138 </v>
  <v type="int" >       94 </v>
  <v type="int" >      236 </v>
  <v type="int" >      223 </v>
  <v type="int" >       33 </v>
  <v type="int" >       66 </v>
  <v type="int" >      184 </v>
  <v type="int" >      157 </v>
  <v type="int" >       21 </v>
  <v type="int" >      230 </v>
  <v type="int" >      106 </v>
  <v type="int" >      234 </v>
  <v type="int" >       99 </v>
  <v type="int" >       75 </v>
  <v type="int" >      221 </v>
  <v type="int" >      269 </v>
  <v type="int" >      244 </v>
  <v type="int" >      237 </v>
  <v type="int" >      199 </v>
  <v type="int" >      156 </v>
  <v type="int" >      169 </v>
  <v type="int" >        9 </v>
  <v type="int" >      262 </v>
  <v type="int" >       46 </v>
  <v type="int" >      239 </v>
  <v type="int" >       11 </v>
  <v type="int" >      187 </v>
  <v type="int" >      151 </v>
  <v type="int" >       43 </v>
  <v type="int" >      211 </v>
  <v type="int" >       31 </v>
  <v type="int" >       71 </v>
  <v type="int" >       19 </v>
  <v type="int" >      286 </v>
  <v type="int" >       27 </v>
  <v type="int" >      140 </v>
  <v type="int" >      288 </v>
  <v type="int" >       87 </v>
  <v type="int" >      267 </v>
  <v type="int" >       10 </v>
  <v type="int" >      144 </v>
  <v type="int" >      107 </v>
  <v type="int" >       68 </v>
  <v type="int" >      203 </v>
  <v type="int" >       34 </v>
  <v type="int" >      119 </v>
  <v type="int" >      183 </v>
  <v type="int" >      177 </v>
  <v type="int" >      278 </v>
  <v type="int" >      195 </v>
  <v type="int" >      252 </v>
  <v type="int" >       77 </v>
  <v type="int" >      108 </v>
  <v type="int" >      225 </v>
  <v type="int" >      173 </v>
  <v type="int" >       37 </v>
  <v type="int" >      274 </v>
  <v type="int" >      233 </v>
  <v type="int" >       63 </v>
  <v type="int" >      141 </v>
  <v type="int" >      154 </v>
  <v type="int" >       54 </v>
  <v type="int" >       38 </v>
  <v type="int" >      152 </v>
  <v type="int" >      246 </v>
  <v type="int" >      162 </v>
  <v type="int" >      129 </v>
  <v type="int" >      170 </v>
  <v type="int" >       53 </v>
  <v type="int" >       76 </v>
  <v type="int" >      193 </v>
  <v type="int" >       65 </v>
  <v type="int" >      271 </v>
  <v type="int" >       93 </v>
  <v type="int" >      133 </v>
  <v type="int" >       32 </v>
  <v type="int" >       90 </v>
  <v type="int" >       95 </v>
  <v type="int" >       56 </v>
  <v type="int" >       59 </v>
  <v type="int" >       42 </v>
  <v type="int" >        8 </v>
  <v type="int" >       70 </v>
  <v type="int" >      228 </v>
  <v type="int" >      186 </v>
  <v type="int" >      196 </v>
  <v type="int" >      122 </v>
  <v type="int" >      121 </v>
  <v type="int" >        2 </v>
  <v type="int" >       79 </v>
  <v type="int" >      198 </v>
  <v type="int" >      240 </v>
  <v type="int" >      153 </v>
  <v type="int" >       35 </v>
  <v type="int" >       85 </v>
  <v type="int" >      231 </v>
  <v type="int" >      209 </v>
  <v type="int" >       40 </v>
  <v type="int" >      227 </v>
  <v type="int" >      142 </v>
  <v type="int" >       89 </v>
  <v type="int" >      136 </v>
  <v type="int" >       15 </v>
  <v type="int" >      217 </v>
  <v type="int" >       61 </v>
  <v type="int" >      100 </v>
  <v type="int" >       78 </v>
  <v type="int" >      148 </v>
  <v type="int" >      180 </v>
  <v type="int" >      126 </v>
  <v type="int" >       96 </v>
  <v type="int" >      147 </v>
  <v type="int" >      115 </v>
  <v type="int" >       22 </v>
  <v type="int" >       41 </v>
  <v type="int" >      260 </v>
  <v type="int" >      128 </v>
 </varray>
 <kpoints>
  <generation param="Gamma">
   <v type="int" name="divisions">       4        4        1 </v>
   <v name="usershift">      0.00000000       0.00000000       0.00000000 </v>
   <v name="genvec1">      0.25000000       0.00000000       0.00000000 </v>
   <v name="genvec2">      0.00000000       0.25000000       0.00000000 </v>
   <v name="genvec3">      0.00000000       0.00000000       1.00000000 </v>
   <v name="shift">      0.00000000       0.00000000       0.00000000 </v>
  </generation>
  <varray name="kpointlist" >
   <v>       0.00000000       0.00000000       0.00000000 </v>
   <v>       0.25000000       0.00000000       0.00000000 </v>
   <v>       0.50000000       0.00000000       0.00000000 </v>
   <v>       0.00000000       0.25000000       0.00000000 </v>
   <v>       0.25000000       0.25000000       0.00000000 </v>
   <v>       0.50000000       0.25000000       0.00000000 </v>
   <v>      -0.25000000       0.25000000       0.00000000 </v>
   <v>       0.00000000       0.50000000       0.00000000 </v>
   <v>       0.25000000       0.50000000       0.00000000 </v>
   <v>       0.50000000       0.50000000       0.00000000 </v>
  </varray>
  <varray name="weights" >
   <v>       0.06250000 </v>
   <v>       0.12500000 </v>
   <v>       0.06250000 </v>
   <v>       0.12500000 </v>
   <v>       0.12500000 </v>
   <v>       0.12500000 </v>
   <v>       0.12500000 </v>
   <v>       0.06250000 </v>
   <v>       0.12500000 </v>
   <v>       0.06250000 </v>
  </varray>
 </kpoints>
 <parameters>
  <separator name="general" >
   <i type="string" name="SYSTEM">unknown system</i>
   <i type="logical" name="LCOMPAT"> F  </i>
  </separator>
  <separator name="electronic" >
   <i type="string" name="PREC">accura</i>
   <i name="ENMAX">    450.00000000</i>
   <i name="ENAUG">    838.43500000</i>
   <i name="EDIFF">      0.00000100</i>
   <i type="int" name="IALGO">    68</i>
   <i type="int" name="IWAVPR">    11</i>
   <i type="int" name="NBANDS">  1386</i>
   <i name="NELECT">   2297.00000000</i>
   <i type="int" name="TURBO">     0</i>
   <i type="int" name="IRESTART">     0</i>
   <i type="int" name="NREBOOT">     0</i>
   <i type="int" name="NMIN">     0</i>
   <i name="EREF">      0.00000000</i>
   <separator name="electronic smearing" >
    <i type="int" name="ISMEAR">     0</i>
    <i name="SIGMA">      0.15000000</i>
    <i name="KSPACING">      0.50000000</i>
    <i type="logical" name="KGAMMA"> T  </i>
   </separator>
   <separator name="electronic projectors" >
    <i type="logical" name="LREAL"> T  </i>
    <v name="ROPT">     -0.00025000     -0.00025000</v>
    <i type="int" name="LMAXPAW">  -100</i>
    <i type="int" name="LMAXMIX">     2</i>
    <i type="logical" name="NLSPLINE"> F  </i>
   </separator>
   <separator name="electronic startup" >
    <i type="int" name="ISTART">     0</i>
    <i type="int" name="ICHARG">     2</i>
    <i type="int" name="INIWAV">     1</i>
   </separator>
   <separator name="electronic spin" >
    <i type="int" name="ISPIN">     1</i>
    <i type="logical" name="LNONCOLLINEAR"> F  </i>
    <v name="MAGMOM">      1.00000000      1.00000000      1.00000000      1.00000000      1.00000000      1.00000000      1.00000000      1.00000000      1.00000000      1.00000000      1.00000000      1.00000000      1.00000000      1.00000000      1.00000000      1.00000000      1.00000000      1.00000000      1.00000000      1.00000000
      1.00000000      1.00000000      1.00000000      1.00000000      1.00000000      1.00000000      1.00000000      1.00000000      1.00000000      1.00000000      1.00000000      1.00000000      1.00000000      1.00000000      1.00000000      1.00000000      1.00000000      1.00000000      1.00000000      1.00000000
      1.00000000      1.00000000      1.00000000      1.00000000      1.00000000      1.00000000      1.00000000      1.00000000      1.00000000      1.00000000      1.00000000      1.00000000      1.00000000      1.00000000      1.00000000      1.00000000      1.00000000      1.00000000      1.00000000      1.00000000
      1.00000000      1.00000000      1.00000000      1.00000000      1.00000000      1.00000000      1.00000000      1.00000000      1.00000000      1.00000000      1.00000000      1.00000000      1.00000000      1.00000000      1.00000000      1.00000000      1.00000000      1.00000000      1.00000000      1.00000000
      1.00000000      1.00000000      1.00000000      1.00000000      1.00000000      1.00000000      1.00000000      1.00000000      1.00000000      1.00000000      1.00000000      1.00000000      1.00000000      1.00000000      1.00000000      1.00000000      1.00000000      1.00000000      1.00000000      1.00000000
      1.00000000      1.00000000      1.00000000      1.00000000      1.00000000      1.00000000      1.00000000      1.00000000      1.00000000      1.00000000      1.00000000      1.00000000      1.00000000      1.00000000      1.00000000      1.00000000      1.00000000      1.00000000      1.00000000      1.00000000
      1.00000000      1.00000000      1.00000000      1.00000000      1.00000000      1.00000000      1.00000000      1.00000000      1.00000000      1.00000000      1.00000000      1.00000000      1.00000000      1.00000000      1.00000000      1.00000000      1.00000000      1.00000000      1.00000000      1.00000000
      1.00000000      1.00000000      1.00000000      1.00000000      1.00000000      1.00000000      1.00000000      1.00000000      1.00000000      1.00000000      1.00000000      1.00000000      1.00000000      1.00000000      1.00000000      1.00000000      1.00000000      1.00000000      1.00000000      1.00000000
      1.00000000      1.00000000      1.00000000      1.00000000      1.00000000      1.00000000      1.00000000      1.00000000      1.00000000      1.00000000      1.00000000      1.00000000      1.00000000      1.00000000      1.00000000      1.00000000      1.00000000      1.00000000      1.00000000      1.00000000
      1.00000000      1.00000000      1.00000000      1.00000000      1.00000000      1.00000000      1.00000000      1.00000000      1.00000000      1.00000000      1.00000000      1.00000000      1.00000000      1.00000000      1.00000000      1.00000000      1.00000000      1.00000000      1.00000000      1.00000000
      1.00000000      1.00000000      1.00000000      1.00000000      1.00000000      1.00000000      1.00000000      1.00000000      1.00000000      1.00000000      1.00000000      1.00000000      1.00000000      1.00000000      1.00000000      1.00000000      1.00000000      1.00000000      1.00000000      1.00000000
      1.00000000      1.00000000      1.00000000      1.00000000      1.00000000      1.00000000      1.00000000      1.00000000      1.00000000      1.00000000      1.00000000      1.00000000      1.00000000      1.00000000      1.00000000      1.00000000      1.00000000      1.00000000      1.00000000      1.00000000
      1.00000000      1.00000000      1.00000000      1.00000000      1.00000000      1.00000000      1.00000000      1.00000000      1.00000000      1.00000000      1.00000000      1.00000000      1.00000000      1.00000000      1.00000000      1.00000000      1.00000000      1.00000000      1.00000000      1.00000000
      1.00000000      1.00000000      1.00000000      1.00000000      1.00000000      1.00000000      1.00000000      1.00000000      1.00000000      1.00000000      1.00000000      1.00000000      1.00000000      1.00000000      1.00000000      1.00000000      1.00000000      1.00000000      1.00000000      1.00000000
      1.00000000      1.00000000      1.00000000      1.00000000      1.00000000      1.00000000      1.00000000      1.00000000</v>
    <i name="NUPDOWN">     -1.00000000</i>
    <i type="logical" name="LSORBIT"> F  </i>
    <v name="SAXIS">      0.00000000      0.00000000      1.00000000</v>
    <i type="logical" name="LSPIRAL"> F  </i>
    <v name="QSPIRAL">      0.00000000      0.00000000      0.00000000</v>
    <i type="logical" name="LZEROZ"> F  </i>
   </separator>
   <separator name="electronic exchange-correlation" >
    <i type="logical" name="LASPH"> F  </i>
    <i type="logical" name="LMETAGGA"> F  </i>
   </separator>
   <separator name="electronic convergence" >
    <i type="int" name="NELM">   100</i>
    <i type="int" name="NELMDL">     0</i>
    <i type="int" name="NELMIN">     4</i>
    <i name="ENINI">    450.00000000</i>
    <separator name="electronic convergence detail" >
     <i type="logical" name="LDIAG"> T  </i>
     <i type="logical" name="LSUBROT"> F  </i>
     <i name="WEIMIN">      0.00100000</i>
     <i name="EBREAK">      0.00000000</i>
     <i name="DEPER">      0.30000000</i>
     <i type="int" name="NRMM">     4</i>
     <i name="TIME">      0.40000000</i>
    </separator>
   </separator>
   <separator name="electronic mixer" >
    <i name="AMIX">      0.40000000</i>
    <i name="BMIX">      1.00000000</i>
    <i name="AMIN">      0.10000000</i>
    <i name="AMIX_MAG">      1.60000000</i>
    <i name="BMIX_MAG">      1.00000000</i>
    <separator name="electronic mixer details" >
     <i type="int" name="IMIX">     4</i>
     <i type="logical" name="MIXFIRST"> F  </i>
     <i type="int" name="MAXMIX">   -45</i>
     <i name="WC">    100.00000000</i>
     <i type="int" name="INIMIX">     1</i>
     <i type="int" name="MIXPRE">     1</i>
     <i type="int" name="MREMOVE">     5</i>
    </separator>
   </separator>
   <separator name="electronic dipolcorrection" >
    <i type="logical" name="LDIPOL"> F  </i>
    <i type="logical" name="LMONO"> F  </i>
    <i type="int" name="IDIPOL">     0</i>
    <i name="EPSILON">      1.00000000</i>
    <v name="DIPOL">   -100.00000000   -100.00000000   -100.00000000</v>
    <i name="EFIELD">      0.00000000</i>
   </separator>
  </separator>
  <separator name="grids" >
   <i type="int" name="NGX">    70</i>
   <i type="int" name="NGY">    60</i>
   <i type="int" name="NGZ">   320</i>
   <i type="int" name="NGXF">   140</i>
   <i type="int" name="NGYF">   120</i>
   <i type="int" name="NGZF">   640</i>
   <i type="logical" name="ADDGRID"> F  </i>
  </separator>
  <separator name="ionic" >
   <i type="int" name="NSW">     5</i>
   <i type="int" name="IBRION">     2</i>
   <i type="int" name="MDALGO">     0</i>
   <i type="int" name="ISIF">     2</i>
   <i name="PSTRESS">      0.00000000</i>
   <i name="EDIFFG">      0.00001000</i>
   <i type="int" name="NFREE">     1</i>
   <i name="POTIM">      0.25000000</i>
   <i name="SMASS">     -3.00000000</i>
   <i name="SCALEE">      1.00000000</i>
  </separator>
  <separator name="ionic md" >
   <i name="TEBEG">      0.00010000</i>
   <i name="TEEND">      0.00010000</i>
   <i type="int" name="NBLOCK">     1</i>
   <i type="int" name="KBLOCK">     5</i>
   <i type="int" name="NPACO">   256</i>
   <i name="APACO">     16.00000000</i>
  </separator>
  <separator name="symmetry" >
   <i type="int" name="ISYM">     2</i>
   <i name="SYMPREC">      0.00001000</i>
  </separator>
  <separator name="dos" >
   <i type="int" name="LORBIT">     0</i>
   <v name="RWIGS">     -1.00000000     -1.00000000</v>
   <i type="int" name="NEDOS">   301</i>
   <i name="EMIN">     10.00000000</i>
   <i name="EMAX">    -10.00000000</i>
   <i name="EFERMI">      0.00000000</i>
  </separator>
  <separator name="writing" >
   <i type="int" name="NWRITE">     2</i>
   <i type="logical" name="LWAVE"> F  </i>
   <i type="logical" name="LDOWNSAMPLE"> F  </i>
   <i type="logical" name="LCHARG"> F  </i>
   <i type="logical" name="LPARD"> F  </i>
   <i type="logical" name="LVTOT"> F  </i>
   <i type="logical" name="LVHAR"> F  </i>
   <i type="logical" name="LELF"> F  </i>
   <i type="logical" name="LOPTICS"> F  </i>
   <v name="STM">      0.00000000      0.00000000      0.00000000      0.00000000      0.00000000      0.00000000      0.00000000</v>
  </separator>
  <separator name="performance" >
   <i type="int" name="NPAR">    14</i>
   <i type="int" name="NSIM">     4</i>
   <i type="int" name="NBLK">    -1</i>
   <i type="logical" name="LPLANE"> T  </i>
   <i type="logical" name="LSCALAPACK"> T  </i>
   <i type="logical" name="LSCAAWARE"> T  </i>
   <i type="logical" name="LSCALU"> F  </i>
   <i type="logical" name="LASYNC"> F  </i>
   <i type="logical" name="LORBITALREAL"> F  </i>
  </separator>
  <separator name="miscellaneous" >
   <i type="int" name="IDIOT">     3</i>
   <i type="int" name="ISPECIAL">     0</i>
   <i type="logical" name="LMUSIC"> F  </i>
   <v name="POMASS">     55.84700000     54.93800000</v>
   <v name="DARWINR">      0.00000000      0.00000000</v>
   <v name="DARWINV">      1.00000000      1.00000000</v>
   <i type="logical" name="LCORR"> T  </i>
  </separator>
  <i type="logical" name="GGA_COMPAT"> T  </i>
  <i type="logical" name="LBERRY"> F  </i>
  <i type="int" name="ICORELEVEL">     0</i>
  <i type="logical" name="LDAU"> F  </i>
  <i type="int" name="I_CONSTRAINED_M">     0</i>
  <separator name="electronic exchange-correlation" >
   <i type="string" name="GGA">--</i>
   <i type="int" name="VOSKOWN">     0</i>
   <i type="logical" name="LHFCALC"> F  </i>
   <i type="string" name="PRECFOCK"></i>
   <i type="logical" name="LSYMGRAD"> F  </i>
   <i type="logical" name="LHFONE"> F  </i>
   <i type="logical" name="LRHFCALC"> F  </i>
   <i type="logical" name="LTHOMAS"> F  </i>
   <i type="logical" name="LMODELHF"> F  </i>
   <i name="ENCUT4O">     -1.00000000</i>
   <i type="int" name="EXXOEP">     0</i>
   <i type="int" name="FOURORBIT">     0</i>
   <i name="AEXX">      0.00000000</i>
   <i name="HFALPHA">      0.00000000</i>
   <i name="MCALPHA">      0.00000000</i>
   <i name="ALDAX">      1.00000000</i>
   <i name="AGGAX">      1.00000000</i>
   <i name="ALDAC">      1.00000000</i>
   <i name="AGGAC">      1.00000000</i>
   <i type="int" name="NKREDX">     1</i>
   <i type="int" name="NKREDY">     1</i>
   <i type="int" name="NKREDZ">     1</i>
   <i type="logical" name="SHIFTRED"> F  </i>
   <i type="logical" name="ODDONLY"> F  </i>
   <i type="logical" name="EVENONLY"> F  </i>
   <i type="int" name="LMAXFOCK">     0</i>
   <i type="int" name="NMAXFOCKAE">     0</i>
   <i type="logical" name="LFOCKAEDFT"> F  </i>
   <i name="HFSCREEN">      0.00000000</i>
   <i name="HFSCREENC">      0.00000000</i>
   <i type="int" name="NBANDSGWLOW">     0</i>
  </separator>
  <separator name="vdW DFT" >
   <i type="logical" name="LUSE_VDW"> F  </i>
   <i name="Zab_VDW">     -0.84910000</i>
   <i name="PARAM1">      0.12340000</i>
   <i name="PARAM2">      1.00000000</i>
   <i name="PARAM3">      0.00000000</i>
  </separator>
  <separator name="model GW" >
   <i type="int" name="MODEL_GW">     0</i>
   <i name="MODEL_EPS0">      7.68123389</i>
   <i name="MODEL_ALPHA">      1.00000000</i>
  </separator>
  <separator name="linear response parameters" >
   <i type="logical" name="LEPSILON"> F  </i>
   <i type="logical" name="LRPA"> F  </i>
   <i type="logical" name="LNABLA"> F  </i>
   <i type="logical" name="LVEL"> F  </i>
   <i type="int" name="KINTER">     0</i>
   <i name="CSHIFT">      0.10000000</i>
   <i name="OMEGAMAX">     -1.00000000</i>
   <i name="DEG_THRESHOLD">      0.00200000</i>
   <i name="RTIME">     -0.10000000</i>
   <i name="WPLASMAI">      0.00000000</i>
   <v name="DFIELD">      0.00000000      0.00000000      0.00000000</v>
   <v name="WPLASMA">      0.00000000      0.00000000      0.00000000      0.00000000      0.00000000      0.00000000      0.00000000      0.00000000      0.00000000</v>
  </separator>
  <separator name="orbital magnetization" >
   <i type="logical" name="NUCIND"> F  </i>
   <v name="MAGPOS">      0.00000000      0.00000000      0.00000000</v>
   <i type="logical" name="LNICSALL"> T  </i>
   <i type="logical" name="ORBITALMAG"> F  </i>
   <i type="logical" name="LMAGBLOCH"> F  </i>
   <i type="logical" name="LCHIMAG"> F  </i>
   <i type="logical" name="LGAUGE"> T  </i>
   <i type="int" name="MAGATOM">     0</i>
   <v name="MAGDIPOL">      0.00000000      0.00000000      0.00000000</v>
   <v name="AVECCONST">      0.00000000      0.00000000      0.00000000</v>
  </separator>
  <separator name="response functions" >
   <i type="logical" name="LADDER"> F  </i>
   <i type="logical" name="LRPAFORCE"> F  </i>
   <i type="logical" name="LFXC"> F  </i>
   <i type="logical" name="LHARTREE"> T  </i>
   <i type="int" name="IBSE">     0</i>
   <v type="int" name="KPOINT">    -1     0     0     0</v>
   <i type="logical" name="LTCTE"> F  </i>
   <i type="logical" name="LTETE"> F  </i>
   <i type="logical" name="LTRIPLET"> F  </i>
   <i type="logical" name="LFXCEPS"> F  </i>
   <i type="logical" name="LFXHEG"> F  </i>
   <i type="int" name="NATURALO">     2</i>
   <i type="logical" name="L2ORDER"> F  </i>
   <i type="logical" name="LMP2LT"> F  </i>
   <i type="logical" name="LUSEW"> F  </i>
   <i name="ENCUTGW">     -2.00000000</i>
   <i name="ENCUTGWSOFT">     -2.00000000</i>
   <i name="ENCUTLF">     -1.00000000</i>
   <i type="int" name="LMAXMP2">    -1</i>
   <i name="SCISSOR">      0.00000000</i>
   <i type="int" name="NOMEGA">     0</i>
   <i type="int" name="NOMEGAR">     0</i>
   <i type="int" name="NBANDSGW">    -1</i>
   <i type="int" name="NBANDSO">    -1</i>
   <i type="int" name="NBANDSV">    -1</i>
   <i type="int" name="NELM">   100</i>
   <i type="int" name="NELMHF">     1</i>
   <i type="int" name="DIM">     3</i>
   <i type="int" name="ANTIRES">     0</i>
   <i name="OMEGAMAX">    -30.00000000</i>
   <i name="OMEGAMIN">    -30.00000000</i>
   <i name="OMEGATL">   -200.00000000</i>
   <i type="int" name="OMEGAGRID">   140</i>
   <i name="CSHIFT">     -0.10000000</i>
   <i type="logical" name="SELFENERGY"> F  </i>
   <i type="logical" name="LSPECTRAL"> F  </i>
   <i type="logical" name="LSPECTRALGW"> F  </i>
   <i type="logical" name="LSINGLES"> F  </i>
   <i type="logical" name="LFERMIGW"> F  </i>
   <i type="logical" name="ODDONLYGW"> F  </i>
   <i type="logical" name="EVENONLYGW"> F  </i>
   <i type="int" name="NKREDLFX">     1</i>
   <i type="int" name="NKREDLFY">     1</i>
   <i type="int" name="NKREDLFZ">     1</i>
   <i type="int" name="MAXMEM">  2800</i>
   <i type="int" name="TELESCOPE">     0</i>
   <i type="int" name="TAUPAR">     1</i>
   <i type="int" name="OMEGAPAR">    -1</i>
   <i name="LAMBDA">      1.00000000</i>
  </separator>
  <separator name="External order field" >
   <i name="OFIELD_KAPPA">      0.00000000</i>
   <v name="OFIELD_K">      0.00000000      0.00000000      0.00000000</v>
   <i name="OFIELD_Q6_NEAR">      0.00000000</i>
   <i name="OFIELD_Q6_FAR">      0.00000000</i>
   <i name="OFIELD_A">      0.00000000</i>
  </separator>
 </parameters>
 <atominfo>
  <atoms>     288 </atoms>
  <types>       2 </types>
  <array name="atoms" >
   <dimension dim="1">ion</dimension>
   <field type="string">element</field>
   <field type="int">atomtype</field>
   <set>
    <rc><c>Fe</c><c>   1</c></rc>
    <rc><c>Fe</c><c>   1</c></rc>
    <rc><c>Fe</c><c>   1</c></rc>
    <rc><c>Fe</c><c>   1</c></rc>
    <rc><c>Fe</c><c>   1</c></rc>
    <rc><c>Fe</c><c>   1</c></rc>
    <rc><c>Fe</c><c>   1</c></rc>
    <rc><c>Fe</c><c>   1</c></rc>
    <rc><c>Fe</c><c>   1</c></rc>
    <rc><c>Fe</c><c>   1</c></rc>
    <rc><c>Fe</c><c>   1</c></rc>
    <rc><c>Fe</c><c>   1</c></rc>
    <rc><c>Fe</c><c>   1</c></rc>
    <rc><c>Fe</c><c>   1</c></rc>
    <rc><c>Fe</c><c>   1</c></rc>
    <rc><c>Fe</c><c>   1</c></rc>
    <rc><c>Fe</c><c>   1</c></rc>
    <rc><c>Fe</c><c>   1</c></rc>
    <rc><c>Fe</c><c>   1</c></rc>
    <rc><c>Fe</c><c>   1</c></rc>
    <rc><c>Fe</c><c>   1</c></rc>
    <rc><c>Fe</c><c>   1</c></rc>
    <rc><c>Fe</c><c>   1</c></rc>
    <rc><c>Fe</c><c>   1</c></rc>
    <rc><c>Fe</c><c>   1</c></rc>
    <rc><c>Fe</c><c>   1</c></rc>
    <rc><c>Fe</c><c>   1</c></rc>
    <rc><c>Fe</c><c>   1</c></rc>
    <rc><c>Fe</c><c>   1</c></rc>
    <rc><c>Fe</c><c>   1</c></rc>
    <rc><c>Fe</c><c>   1</c></rc>
    <rc><c>Fe</c><c>   1</c></rc>
    <rc><c>Fe</c><c>   1</c></rc>
    <rc><c>Fe</c><c>   1</c></rc>
    <rc><c>Fe</c><c>   1</c></rc>
    <rc><c>Fe</c><c>   1</c></rc>
    <rc><c>Fe</c><c>   1</c></rc>
    <rc><c>Fe</c><c>   1</c></rc>
    <rc><c>Fe</c><c>   1</c></rc>
    <rc><c>Fe</c><c>   1</c></rc>
    <rc><c>Fe</c><c>   1</c></rc>
    <rc><c>Fe</c><c>   1</c></rc>
    <rc><c>Fe</c><c>   1</c></rc>
    <rc><c>Fe</c><c>   1</c></rc>
    <rc><c>Fe</c><c>   1</c></rc>
    <rc><c>Fe</c><c>   1</c></rc>
    <rc><c>Fe</c><c>   1</c></rc>
    <rc><c>Fe</c><c>   1</c></rc>
    <rc><c>Fe</c><c>   1</c></rc>
    <rc><c>Fe</c><c>   1</c></rc>
    <rc><c>Fe</c><c>   1</c></rc>
    <rc><c>Fe</c><c>   1</c></rc>
    <rc><c>Fe</c><c>   1</c></rc>
    <rc><c>Fe</c><c>   1</c></rc>
    <rc><c>Fe</c><c>   1</c></rc>
    <rc><c>Fe</c><c>   1</c></rc>
    <rc><c>Fe</c><c>   1</c></rc>
    <rc><c>Fe</c><c>   1</c></rc>
    <rc><c>Fe</c><c>   1</c></rc>
    <rc><c>Fe</c><c>   1</c></rc>
    <rc><c>Fe</c><c>   1</c></rc>
    <rc><c>Fe</c><c>   1</c></rc>
    <rc><c>Fe</c><c>   1</c></rc>
    <rc><c>Fe</c><c>   1</c></rc>
    <rc><c>Fe</c><c>   1</c></rc>
    <rc><c>Fe</c><c>   1</c></rc>
    <rc><c>Fe</c><c>   1</c></rc>
    <rc><c>Fe</c><c>   1</c></rc>
    <rc><c>Fe</c><c>   1</c></rc>
    <rc><c>Fe</c><c>   1</c></rc>
    <rc><c>Fe</c><c>   1</c></rc>
    <rc><c>Fe</c><c>   1</c></rc>
    <rc><c>Fe</c><c>   1</c></rc>
    <rc><c>Fe</c><c>   1</c></rc>
    <rc><c>Fe</c><c>   1</c></rc>
    <rc><c>Fe</c><c>   1</c></rc>
    <rc><c>Fe</c><c>   1</c></rc>
    <rc><c>Fe</c><c>   1</c></rc>
    <rc><c>Fe</c><c>   1</c></rc>
    <rc><c>Fe</c><c>   1</c></rc>
    <rc><c>Fe</c><c>   1</c></rc>
    <rc><c>Fe</c><c>   1</c></rc>
    <rc><c>Fe</c><c>   1</c></rc>
    <rc><c>Fe</c><c>   1</c></rc>
    <rc><c>Fe</c><c>   1</c></rc>
    <rc><c>Fe</c><c>   1</c></rc>
    <rc><c>Fe</c><c>   1</c></rc>
    <rc><c>Fe</c><c>   1</c></rc>
    <rc><c>Fe</c><c>   1</c></rc>
    <rc><c>Fe</c><c>   1</c></rc>
    <rc><c>Fe</c><c>   1</c></rc>
    <rc><c>Fe</c><c>   1</c></rc>
    <rc><c>Fe</c><c>   1</c></rc>
    <rc><c>Fe</c><c>   1</c></rc>
    <rc><c>Fe</c><c>   1</c></rc>
    <rc><c>Fe</c><c>   1</c></rc>
    <rc><c>Fe</c><c>   1</c></rc>
    <rc><c>Fe</c><c>   1</c></rc>
    <rc><c>Fe</c><c>   1</c></rc>
    <rc><c>Fe</c><c>   1</c></rc>
    <rc><c>Fe</c><c>   1</c></rc>
    <rc><c>Fe</c><c>   1</c></rc>
    <rc><c>Fe</c><c>   1</c></rc>
    <rc><c>Fe</c><c>   1</c></rc>
    <rc><c>Fe</c><c>   1</c></rc>
    <rc><c>Fe</c><c>   1</c></rc>
    <rc><c>Fe</c><c>   1</c></rc>
    <rc><c>Fe</c><c>   1</c></rc>
    <rc><c>Fe</c><c>   1</c></rc>
    <rc><c>Fe</c><c>   1</c></rc>
    <rc><c>Fe</c><c>   1</c></rc>
    <rc><c>Fe</c><c>   1</c></rc>
    <rc><c>Fe</c><c>   1</c></rc>
    <rc><c>Fe</c><c>   1</c></rc>
    <rc><c>Fe</c><c>   1</c></rc>
    <rc><c>Fe</c><c>   1</c></rc>
    <rc><c>Fe</c><c>   1</c></rc>
    <rc><c>Fe</c><c>   1</c></rc>
    <rc><c>Fe</c><c>   1</c></rc>
    <rc><c>Fe</c><c>   1</c></rc>
    <rc><c>Fe</c><c>   1</c></rc>
    <rc><c>Fe</c><c>   1</c></rc>
    <rc><c>Fe</c><c>   1</c></rc>
    <rc><c>Fe</c><c>   1</c></rc>
    <rc><c>Fe</c><c>   1</c></rc>
    <rc><c>Fe</c><c>   1</c></rc>
    <rc><c>Fe</c><c>   1</c></rc>
    <rc><c>Fe</c><c>   1</c></rc>
    <rc><c>Fe</c><c>   1</c></rc>
    <rc><c>Fe</c><c>   1</c></rc>
    <rc><c>Fe</c><c>   1</c></rc>
    <rc><c>Fe</c><c>   1</c></rc>
    <rc><c>Fe</c><c>   1</c></rc>
    <rc><c>Fe</c><c>   1</c></rc>
    <rc><c>Fe</c><c>   1</c></rc>
    <rc><c>Fe</c><c>   1</c></rc>
    <rc><c>Fe</c><c>   1</c></rc>
    <rc><c>Fe</c><c>   1</c></rc>
    <rc><c>Fe</c><c>   1</c></rc>
    <rc><c>Fe</c><c>   1</c></rc>
    <rc><c>Fe</c><c>   1</c></rc>
    <rc><c>Fe</c><c>   1</c></rc>
    <rc><c>Fe</c><c>   1</c></rc>
    <rc><c>Fe</c><c>   1</c></rc>
    <rc><c>Fe</c><c>   1</c></rc>
    <rc><c>Fe</c><c>   1</c></rc>
    <rc><c>Fe</c><c>   1</c></rc>
    <rc><c>Fe</c><c>   1</c></rc>
    <rc><c>Fe</c><c>   1</c></rc>
    <rc><c>Fe</c><c>   1</c></rc>
    <rc><c>Fe</c><c>   1</c></rc>
    <rc><c>Fe</c><c>   1</c></rc>
    <rc><c>Fe</c><c>   1</c></rc>
    <rc><c>Fe</c><c>   1</c></rc>
    <rc><c>Fe</c><c>   1</c></rc>
    <rc><c>Fe</c><c>   1</c></rc>
    <rc><c>Fe</c><c>   1</c></rc>
    <rc><c>Fe</c><c>   1</c></rc>
    <rc><c>Fe</c><c>   1</c></rc>
    <rc><c>Fe</c><c>   1</c></rc>
    <rc><c>Fe</c><c>   1</c></rc>
    <rc><c>Fe</c><c>   1</c></rc>
    <rc><c>Fe</c><c>   1</c></rc>
    <rc><c>Fe</c><c>   1</c></rc>
    <rc><c>Fe</c><c>   1</c></rc>
    <rc><c>Fe</c><c>   1</c></rc>
    <rc><c>Fe</c><c>   1</c></rc>
    <rc><c>Fe</c><c>   1</c></rc>
    <rc><c>Fe</c><c>   1</c></rc>
    <rc><c>Fe</c><c>   1</c></rc>
    <rc><c>Fe</c><c>   1</c></rc>
    <rc><c>Fe</c><c>   1</c></rc>
    <rc><c>Fe</c><c>   1</c></rc>
    <rc><c>Fe</c><c>   1</c></rc>
    <rc><c>Fe</c><c>   1</c></rc>
    <rc><c>Fe</c><c>   1</c></rc>
    <rc><c>Fe</c><c>   1</c></rc>
    <rc><c>Fe</c><c>   1</c></rc>
    <rc><c>Fe</c><c>   1</c></rc>
    <rc><c>Fe</c><c>   1</c></rc>
    <rc><c>Fe</c><c>   1</c></rc>
    <rc><c>Fe</c><c>   1</c></rc>
    <rc><c>Fe</c><c>   1</c></rc>
    <rc><c>Fe</c><c>   1</c></rc>
    <rc><c>Fe</c><c>   1</c></rc>
    <rc><c>Fe</c><c>   1</c></rc>
    <rc><c>Fe</c><c>   1</c></rc>
    <rc><c>Fe</c><c>   1</c></rc>
    <rc><c>Fe</c><c>   1</c></rc>
    <rc><c>Fe</c><c>   1</c></rc>
    <rc><c>Fe</c><c>   1</c></rc>
    <rc><c>Fe</c><c>   1</c></rc>
    <rc><c>Fe</c><c>   1</c></rc>
    <rc><c>Fe</c><c>   1</c></rc>
    <rc><c>Fe</c><c>   1</c></rc>
    <rc><c>Fe</c><c>   1</c></rc>
    <rc><c>Fe</c><c>   1</c></rc>
    <rc><c>Fe</c><c>   1</c></rc>
    <rc><c>Fe</c><c>   1</c></rc>
    <rc><c>Fe</c><c>   1</c></rc>
    <rc><c>Fe</c><c>   1</c></rc>
    <rc><c>Fe</c><c>   1</c></rc>
    <rc><c>Fe</c><c>   1</c></rc>
    <rc><c>Fe</c><c>   1</c></rc>
    <rc><c>Fe</c><c>   1</c></rc>
    <rc><c>Fe</c><c>   1</c></rc>
    <rc><c>Fe</c><c>   1</c></rc>
    <rc><c>Fe</c><c>   1</c></rc>
    <rc><c>Fe</c><c>   1</c></rc>
    <rc><c>Fe</c><c>   1</c></rc>
    <rc><c>Fe</c><c>   1</c></rc>
    <rc><c>Fe</c><c>   1</c></rc>
    <rc><c>Fe</c><c>   1</c></rc>
    <rc><c>Fe</c><c>   1</c></rc>
    <rc><c>Fe</c><c>   1</c></rc>
    <rc><c>Fe</c><c>   1</c></rc>
    <rc><c>Fe</c><c>   1</c></rc>
    <rc><c>Fe</c><c>   1</c></rc>
    <rc><c>Fe</c><c>   1</c></rc>
    <rc><c>Fe</c><c>   1</c></rc>
    <rc><c>Fe</c><c>   1</c></rc>
    <rc><c>Fe</c><c>   1</c></rc>
    <rc><c>Fe</c><c>   1</c></rc>
    <rc><c>Fe</c><c>   1</c></rc>
    <rc><c>Fe</c><c>   1</c></rc>
    <rc><c>Fe</c><c>   1</c></rc>
    <rc><c>Fe</c><c>   1</c></rc>
    <rc><c>Fe</c><c>   1</c></rc>
    <rc><c>Fe</c><c>   1</c></rc>
    <rc><c>Fe</c><c>   1</c></rc>
    <rc><c>Fe</c><c>   1</c></rc>
    <rc><c>Fe</c><c>   1</c></rc>
    <rc><c>Fe</c><c>   1</c></rc>
    <rc><c>Fe</c><c>   1</c></rc>
    <rc><c>Fe</c><c>   1</c></rc>
    <rc><c>Fe</c><c>   1</c></rc>
    <rc><c>Fe</c><c>   1</c></rc>
    <rc><c>Fe</c><c>   1</c></rc>
    <rc><c>Fe</c><c>   1</c></rc>
    <rc><c>Fe</c><c>   1</c></rc>
    <rc><c>Fe</c><c>   1</c></rc>
    <rc><c>Fe</c><c>   1</c></rc>
    <rc><c>Fe</c><c>   1</c></rc>
    <rc><c>Fe</c><c>   1</c></rc>
    <rc><c>Fe</c><c>   1</c></rc>
    <rc><c>Fe</c><c>   1</c></rc>
    <rc><c>Fe</c><c>   1</c></rc>
    <rc><c>Fe</c><c>   1</c></rc>
    <rc><c>Fe</c><c>   1</c></rc>
    <rc><c>Fe</c><c>   1</c></rc>
    <rc><c>Fe</c><c>   1</c></rc>
    <rc><c>Fe</c><c>   1</c></rc>
    <rc><c>Fe</c><c>   1</c></rc>
    <rc><c>Fe</c><c>   1</c></rc>
    <rc><c>Fe</c><c>   1</c></rc>
    <rc><c>Fe</c><c>   1</c></rc>
    <rc><c>Fe</c><c>   1</c></rc>
    <rc><c>Fe</c><c>   1</c></rc>
    <rc><c>Fe</c><c>   1</c></rc>
    <rc><c>Fe</c><c>   1</c></rc>
    <rc><c>Fe</c><c>   1</c></rc>
    <rc><c>Fe</c><c>   1</c></rc>
    <rc><c>Fe</c><c>   1</c></rc>
    <rc><c>Fe</c><c>   1</c></rc>
    <rc><c>Fe</c><c>   1</c></rc>
    <rc><c>Fe</c><c>   1</c></rc>
    <rc><c>Fe</c><c>   1</c></rc>
    <rc><c>Fe</c><c>   1</c></rc>
    <rc><c>Fe</c><c>   1</c></rc>
    <rc><c>Fe</c><c>   1</c></rc>
    <rc><c>Fe</c><c>   1</c></rc>
    <rc><c>Fe</c><c>   1</c></rc>
    <rc><c>Fe</c><c>   1</c></rc>
    <rc><c>Fe</c><c>   1</c></rc>
    <rc><c>Fe</c><c>   1</c></rc>
    <rc><c>Fe</c><c>   1</c></rc>
    <rc><c>Fe</c><c>   1</c></rc>
    <rc><c>Fe</c><c>   1</c></rc>
    <rc><c>Fe</c><c>   1</c></rc>
    <rc><c>Fe</c><c>   1</c></rc>
    <rc><c>Fe</c><c>   1</c></rc>
    <rc><c>Mn</c><c>   2</c></rc>
    <rc><c>Mn</c><c>   2</c></rc>
    <rc><c>Mn</c><c>   2</c></rc>
    <rc><c>Mn</c><c>   2</c></rc>
    <rc><c>Mn</c><c>   2</c></rc>
    <rc><c>Mn</c><c>   2</c></rc>
    <rc><c>Mn</c><c>   2</c></rc>
   </set>
  </array>
  <array name="atomtypes" >
   <dimension dim="1">type</dimension>
   <field type="int">atomspertype</field>
   <field type="string">element</field>
   <field>mass</field>
   <field>valence</field>
   <field type="string">pseudopotential</field>
   <set>
    <rc><c> 281</c><c>Fe</c><c>     55.84700000</c><c>      8.00000000</c><c>  PAW_PBE Fe_GW 31Mar2010               </c></rc>
    <rc><c>   7</c><c>Mn</c><c>     54.93800000</c><c>      7.00000000</c><c>  PAW_PBE Mn_GW 31Mar2010               </c></rc>
   </set>
  </array>
 </atominfo>
 <structure name="initialpos" >
  <crystal>
   <varray name="basis" >
    <v>       9.72667804       0.00000000       0.00000000 </v>
    <v>       0.00000000       8.42355028       0.00000000 </v>
    <v>       0.00000000       0.00000000      45.00000000 </v>
   </varray>
   <i name="volume">   3686.99226691 </i>
   <varray name="rec_basis" >
    <v>       0.10281002       0.00000000       0.00000000 </v>
    <v>       0.00000000       0.11871479       0.00000000 </v>
    <v>       0.00000000       0.00000000       0.02222222 </v>
   </varray>
  </crystal>
  <varray name="positions" >
   <v>       0.06221800       0.03339070       0.12548619 </v>
   <v>       0.31096913       0.87174883       0.65405140 </v>
   <v>       0.18724555       0.11725672       0.78732402 </v>
   <v>       0.43763127       0.29046337       0.38980323 </v>
   <v>       0.31087059       0.71008872       0.83205951 </v>
   <v>       0.81210694       0.20911755       0.83241571 </v>
   <v>       0.31285560       0.36872881       0.16834040 </v>
   <v>       0.56246794       0.20710791       0.56498441 </v>
   <v>       0.05974580       0.03621136       0.74255321 </v>
   <v>       0.81245505       0.87084976       0.52109725 </v>
   <v>       0.18711732       0.28733774       0.74280308 </v>
   <v>       0.93717970       0.45564393       0.34601206 </v>
   <v>       0.93731116       0.29043484       0.38976299 </v>
   <v>       0.81102029       0.03622072       0.87436480 </v>
   <v>       0.18911509       0.78756173       0.61006271 </v>
   <v>       0.56236660       0.04054334       0.38976493 </v>
   <v>       0.93693031       0.95932971       0.83238978 </v>
   <v>       0.31315209       0.53433430       0.87456593 </v>
   <v>       0.68546559       0.28633208       0.74247983 </v>
   <v>       0.18891858       0.61973174       0.16835080 </v>
   <v>       0.81252374       0.20582983       0.47866064 </v>
   <v>       0.81420190       0.53751126       0.61012137 </v>
   <v>       0.31243759       0.87204505       0.43460279 </v>
   <v>       0.81477939       0.04161203       0.25731612 </v>
   <v>       0.68772135       0.95666748       0.34611139 </v>
   <v>       0.93771940       0.11762319       0.16764324 </v>
   <v>       0.93845177       0.12135360       0.52111734 </v>
   <v>       0.56449577       0.54158707       0.25727073 </v>
   <v>       0.68651013       0.79057431       0.87451587 </v>
   <v>       0.56371882       0.36987081       0.16805083 </v>
   <v>       0.43698584       0.78743050       0.74290994 </v>
   <v>       0.81262394       0.70713560       0.56498512 </v>
   <v>       0.56260900       0.86752292       0.78727519 </v>
   <v>       0.68804276       0.12086223       0.52112268 </v>
   <v>       0.81112237       0.37186123       0.65402283 </v>
   <v>       0.93495680       0.45940148       0.83201547 </v>
   <v>       0.06303611       0.20624714       0.69855891 </v>
   <v>       0.43759989       0.95616925       0.69855913 </v>
   <v>       0.31022993       0.20778282       0.83232192 </v>
   <v>       0.43670169       0.62198305       0.65402403 </v>
   <v>       0.31401305       0.53738999       0.61015099 </v>
   <v>       0.93749963       0.45723903       0.56499319 </v>
   <v>       0.68707358       0.78811016       0.74296930 </v>
   <v>       0.93803441       0.79106262       0.12558095 </v>
   <v>       0.68746850       0.79034234       0.38985797 </v>
   <v>       0.93732908       0.78756970       0.74295348 </v>
   <v>       0.06254545       0.20679181       0.34619239 </v>
   <v>       0.81245956       0.04048921       0.38983073 </v>
   <v>       0.43761471       0.11720604       0.78726490 </v>
   <v>       0.06212798       0.20791283       0.21282595 </v>
   <v>       0.06366405       0.36898030       0.16798636 </v>
   <v>       0.93969677       0.79174145       0.25730258 </v>
   <v>       0.56355205       0.20679247       0.69874541 </v>
   <v>       0.68806340       0.95661655       0.69851710 </v>
   <v>       0.43622010       0.78968168       0.12556687 </v>
   <v>       0.43742921       0.95707416       0.56495925 </v>
   <v>       0.81256351       0.36784942       0.78721941 </v>
   <v>       0.69000911       0.29131732       0.25716911 </v>
   <v>       0.18756562       0.45716576       0.56497664 </v>
   <v>       0.06321551       0.86946151       0.16825496 </v>
   <v>       0.18919435       0.28761749       0.61015809 </v>
   <v>       0.56268369       0.70536943       0.34602833 </v>
   <v>       0.31281474       0.20623733       0.69862340 </v>
   <v>       0.56305047       0.53555816       0.87445907 </v>
   <v>       0.06232091       0.70711309       0.56488872 </v>
   <v>       0.68772316       0.61716360       0.78726825 </v>
   <v>       0.31204412       0.54052452       0.38979445 </v>
   <v>       0.18801465       0.62054996       0.52108742 </v>
   <v>       0.56243424       0.87281605       0.43456896 </v>
   <v>       0.43732596       0.45750273       0.56501966 </v>
   <v>       0.43429577       0.28761282       0.74262694 </v>
   <v>       0.81239499       0.87349877       0.30144222 </v>
   <v>       0.81206644       0.70607590       0.34621162 </v>
   <v>       0.43526508       0.45868062       0.83205825 </v>
   <v>       0.68761500       0.95570005       0.47864953 </v>
   <v>       0.68849594       0.45652908       0.69859592 </v>
   <v>       0.56291621       0.87087834       0.52110001 </v>
   <v>       0.56102797       0.37168106       0.65400038 </v>
   <v>       0.81087743       0.87171437       0.65397260 </v>
   <v>       0.81255148       0.37287253       0.43462292 </v>
   <v>       0.81425067       0.54168689       0.25722426 </v>
   <v>       0.68502659       0.45829045       0.83186127 </v>
   <v>       0.18835998       0.78960357       0.12562198 </v>
   <v>       0.68747598       0.29078278       0.38976392 </v>
   <v>       0.31104569       0.37190527       0.65396038 </v>
   <v>       0.31272407       0.20681569       0.34623387 </v>
   <v>       0.81193985       0.53738929       0.74277321 </v>
   <v>       0.68514735       0.95850133       0.83191461 </v>
   <v>       0.56103780       0.87200431       0.65397075 </v>
   <v>       0.31219153       0.70736350       0.56499745 </v>
   <v>       0.31163668       0.53519606       0.12554858 </v>
   <v>       0.68746725       0.95809631       0.21281846 </v>
   <v>       0.31252939       0.20701576       0.56496442 </v>
   <v>       0.18779435       0.95577797       0.47869529 </v>
   <v>       0.68785134       0.95717773       0.56493338 </v>
   <v>       0.43927750       0.78759718       0.61007850 </v>
   <v>       0.68853929       0.61635240       0.16787339 </v>
   <v>       0.31209163       0.87333021       0.30148633 </v>
   <v>       0.31240857       0.70574246       0.47870766 </v>
   <v>       0.93945671       0.28780575       0.61021055 </v>
   <v>       0.43735581       0.62437171       0.30154756 </v>
   <v>       0.81296514       0.86917157       0.16821763 </v>
   <v>       0.56257305       0.20815440       0.21287313 </v>
   <v>       0.93882028       0.61618258       0.16789462 </v>
   <v>       0.93816701       0.78929444       0.87454703 </v>
   <v>       0.56269249       0.36740459       0.78723788 </v>
   <v>       0.06309228       0.37077046       0.52112893 </v>
   <v>       0.56265564       0.37107886       0.52111237 </v>
   <v>       0.68739287       0.12413520       0.30148113 </v>
   <v>       0.43697121       0.95826510       0.83227353 </v>
   <v>       0.18844159       0.29011305       0.12563738 </v>
   <v>       0.81190764       0.86759715       0.78710255 </v>
   <v>       0.31236525       0.37292429       0.43464654 </v>
   <v>       0.56089262       0.03389173       0.12554564 </v>
   <v>       0.43918990       0.28755031       0.61011613 </v>
   <v>       0.18779819       0.45655321       0.34632913 </v>
   <v>       0.43615004       0.29055360       0.12563386 </v>
   <v>       0.68995675       0.79135031       0.25738764 </v>
   <v>       0.43783224       0.12081109       0.52109324 </v>
   <v>       0.18803810       0.29139783       0.87469360 </v>
   <v>       0.18580807       0.12204279       0.65396512 </v>
   <v>       0.93628002       0.12248131       0.65403434 </v>
   <v>       0.31243650       0.20787304       0.21275068 </v>
   <v>       0.06244268       0.03978726       0.38977559 </v>
   <v>       0.18885611       0.11806505       0.16799399 </v>
   <v>       0.06409379       0.53695320       0.61019709 </v>
   <v>       0.93976863       0.29146237       0.25729169 </v>
   <v>       0.56416022       0.53757309       0.61014782 </v>
   <v>       0.93706332       0.95730049       0.56497647 </v>
   <v>       0.68703342       0.62485856       0.30144691 </v>
   <v>       0.93697243       0.62254726       0.43457027 </v>
   <v>       0.93703295       0.61745713       0.78713461 </v>
   <v>       0.56313021       0.70630993       0.69853833 </v>
   <v>       0.06084433       0.71137358       0.83255643 </v>
   <v>       0.93731158       0.12400277       0.30150562 </v>
   <v>       0.93929756       0.78769508       0.61009609 </v>
   <v>       0.44047707       0.79140232       0.25735463 </v>
   <v>       0.31207729       0.36814874       0.78713390 </v>
   <v>       0.43738985       0.45804173       0.21293720 </v>
   <v>       0.18760865       0.12124203       0.52110758 </v>
   <v>       0.81309832       0.70599272       0.69855235 </v>
   <v>       0.06423028       0.03722836       0.61009069 </v>
   <v>       0.56042364       0.20962135       0.83198852 </v>
   <v>       0.31307865       0.87056875       0.52109700 </v>
   <v>       0.68732373       0.29136117       0.12547394 </v>
   <v>       0.18754682       0.95811322       0.21295982 </v>
   <v>       0.68924880       0.28766118       0.61017026 </v>
   <v>       0.31432241       0.03764490       0.61023574 </v>
   <v>       0.93777468       0.11714732       0.78729518 </v>
   <v>       0.43828583       0.79104885       0.87453843 </v>
   <v>       0.81040371       0.03780937       0.74264351 </v>
   <v>       0.93774661       0.45746734       0.69874524 </v>
   <v>       0.18630530       0.62214196       0.65402531 </v>
   <v>       0.31317618       0.70632217       0.69857541 </v>
   <v>       0.93699809       0.29118050       0.12548053 </v>
   <v>       0.43761901       0.45592690       0.47863989 </v>
   <v>       0.06244916       0.70561474       0.47870519 </v>
   <v>       0.93741546       0.12308328       0.43461398 </v>
   <v>       0.43669272       0.12423168       0.30146094 </v>
   <v>       0.18735755       0.12337966       0.43464439 </v>
   <v>       0.56326898       0.03460080       0.87459806 </v>
   <v>       0.18782648       0.95722232       0.56495150 </v>
   <v>       0.68655821       0.79082789       0.12557874 </v>
   <v>       0.56124384       0.53490866       0.12548878 </v>
   <v>       0.31247385       0.03962679       0.38974820 </v>
   <v>       0.68924979       0.11816444       0.16793868 </v>
   <v>       0.81214610       0.20766075       0.21286590 </v>
   <v>       0.06404852       0.54053559       0.25722765 </v>
   <v>       0.56254734       0.70609092       0.47866405 </v>
   <v>       0.06252125       0.20698937       0.56499820 </v>
   <v>       0.56231134       0.37372600       0.30141888 </v>
   <v>       0.43755974       0.95678483       0.34614712 </v>
   <v>       0.18824816       0.95684281       0.69854603 </v>
   <v>       0.43787214       0.61902010       0.16844854 </v>
   <v>       0.93763294       0.45818748       0.21306937 </v>
   <v>       0.06228385       0.53492179       0.12544377 </v>
   <v>       0.81255569       0.37074823       0.52113824 </v>
   <v>       0.93688000       0.62444682       0.30147416 </v>
   <v>       0.31488747       0.04134962       0.25747772 </v>
   <v>       0.68923695       0.78757396       0.61013162 </v>
   <v>       0.18571386       0.45966922       0.83216334 </v>
   <v>       0.43876335       0.11779834       0.16776469 </v>
   <v>       0.31329258       0.37078130       0.52108468 </v>
   <v>       0.43755230       0.61711048       0.78728494 </v>
   <v>       0.06490066       0.04178617       0.25734597 </v>
   <v>       0.56232161       0.70710641       0.56502064 </v>
   <v>       0.93469902       0.28655143       0.74271728 </v>
   <v>       0.68724761       0.11725047       0.78730840 </v>
   <v>       0.18717459       0.45802138       0.21287888 </v>
   <v>       0.93754576       0.79057685       0.38973499 </v>
   <v>       0.68742630       0.29210102       0.87479510 </v>
   <v>       0.31319849       0.86946956       0.16841668 </v>
   <v>       0.43863087       0.45669788       0.69852296 </v>
   <v>       0.93839419       0.95648019       0.34623313 </v>
   <v>       0.68778945       0.62087019       0.52108367 </v>
   <v>       0.06112830       0.87184577       0.65395206 </v>
   <v>       0.06199260       0.86817405       0.78702007 </v>
   <v>       0.06119488       0.37142550       0.65380486 </v>
   <v>       0.68753967       0.45579075       0.47865976 </v>
   <v>       0.18963230       0.79137781       0.25734493 </v>
   <v>       0.43738812       0.12354417       0.43482447 </v>
   <v>       0.81175106       0.03420575       0.12540519 </v>
   <v>       0.93773210       0.62067724       0.52112223 </v>
   <v>       0.06187469       0.87381599       0.43497087 </v>
   <v>       0.81134865       0.53450901       0.12542508 </v>
   <v>       0.43847511       0.45616386       0.34614488 </v>
   <v>       0.81264832       0.20593486       0.34615794 </v>
   <v>       0.31237593       0.70534921       0.34601924 </v>
   <v>       0.68607056       0.12169589       0.65386158 </v>
   <v>       0.56223738       0.87363746       0.30146333 </v>
   <v>       0.06187838       0.53650595       0.74288677 </v>
   <v>       0.93729454       0.95797377       0.21281018 </v>
   <v>       0.81238751       0.70784837       0.21270745 </v>
   <v>       0.06252218       0.87349278       0.30147681 </v>
   <v>       0.18698045       0.12431231       0.30137361 </v>
   <v>       0.06218758       0.70667082       0.34621969 </v>
   <v>       0.81425059       0.03752417       0.61013260 </v>
   <v>       0.06251735       0.37273073       0.43466792 </v>
   <v>       0.56285864       0.20590825       0.34618077 </v>
   <v>       0.81249540       0.37408757       0.30147123 </v>
   <v>       0.43759070       0.95571092       0.47865310 </v>
   <v>       0.56229813       0.54034296       0.38973885 </v>
   <v>       0.06260407       0.20593714       0.47863037 </v>
   <v>       0.31322518       0.86775520       0.78704479 </v>
   <v>       0.93799914       0.95713276       0.69855609 </v>
   <v>       0.06209092       0.37407025       0.30146750 </v>
   <v>       0.68630184       0.62227734       0.65403061 </v>
   <v>       0.68746419       0.45740863       0.56508907 </v>
   <v>       0.43747622       0.95810642       0.21291643 </v>
   <v>       0.31258035       0.20596333       0.47866642 </v>
   <v>       0.43630143       0.12151531       0.65379837 </v>
   <v>       0.68739566       0.62309241       0.43468241 </v>
   <v>       0.81321725       0.20616503       0.69867635 </v>
   <v>       0.81269648       0.70598958       0.47866574 </v>
   <v>       0.81167829       0.87200543       0.43454409 </v>
   <v>       0.93727437       0.95576577       0.47876311 </v>
   <v>       0.56267305       0.20578599       0.47864195 </v>
   <v>       0.18758579       0.62274643       0.43448695 </v>
   <v>       0.31087123       0.03715912       0.74273781 </v>
   <v>       0.93683559       0.62266763       0.65410263 </v>
   <v>       0.56040210       0.70900668       0.83183462 </v>
   <v>       0.31236068       0.37364417       0.30143125 </v>
   <v>       0.56219720       0.70786081       0.21277260 </v>
   <v>       0.18770973       0.45573721       0.47869715 </v>
   <v>       0.31309196       0.03646167       0.87446515 </v>
   <v>       0.18796106       0.45743819       0.69870029 </v>
   <v>       0.81090733       0.53525587       0.87465009 </v>
   <v>       0.18763611       0.29037430       0.38976149 </v>
   <v>       0.43747561       0.62326344       0.43466523 </v>
   <v>       0.06227774       0.70795914       0.21273230 </v>
   <v>       0.56238487       0.37235924       0.43461477 </v>
   <v>       0.43755607       0.62082983       0.52112385 </v>
   <v>       0.80981570       0.70850838       0.83160264 </v>
   <v>       0.06278988       0.36808162       0.78711648 </v>
   <v>       0.43756145       0.29222393       0.87478447 </v>
   <v>       0.31174066       0.03399652       0.12543621 </v>
   <v>       0.68739577       0.12323788       0.43466431 </v>
   <v>       0.18773888       0.95623155       0.34632017 </v>
   <v>       0.06177647       0.20897485       0.83259115 </v>
   <v>       0.56421467       0.03759668       0.61022330 </v>
   <v>       0.68686084       0.45790950       0.21307754 </v>
   <v>       0.18723227       0.78702133       0.74296972 </v>
   <v>       0.18743309       0.62380873       0.30157967 </v>
   <v>       0.43764104       0.79065224       0.38979914 </v>
   <v>       0.43968272       0.29133845       0.25739238 </v>
   <v>       0.06142191       0.53550211       0.87451598 </v>
   <v>       0.56200825       0.03742660       0.74276584 </v>
   <v>       0.18610414       0.79047642       0.87454065 </v>
   <v>       0.93758221       0.45569930       0.47868206 </v>
   <v>       0.81256113       0.54036397       0.38981816 </v>
   <v>       0.81236297       0.20706557       0.56488999 </v>
   <v>       0.18759023       0.61698703       0.78721738 </v>
   <v>       0.06278110       0.54091780       0.38982372 </v>
   <v>       0.06313714       0.70609473       0.69861952 </v>
   <v>       0.31296993       0.54006395       0.25734457 </v>
   <v>       0.31234494       0.70809287       0.21270704 </v>
   <v>       0.56306955       0.86934607       0.16836459 </v>
   <v>       0.55952459       0.53854384       0.74254306 </v>
   <v>       0.68797191       0.45632698       0.34603477 </v>
   <v>       0.93610135       0.29140479       0.87456955 </v>
   <v>       0.56435290       0.04110044       0.25735416 </v>
   <v>       0.06229642       0.03365905       0.87448277 </v>
   <v>       0.18729062       0.79064023       0.38961002 </v>
   <v>       0.81297413       0.36882582       0.16711029 </v>
   <v>       0.18539373       0.96016865       0.83295814 </v>
   <v>       0.06293391       0.87042337       0.52107641 </v>
   <v>       0.18989565       0.29094422       0.25721308 </v>
   <v>       0.31060133       0.53618568       0.74308506 </v>
  </varray>
 </structure>
 <calculation>
  <scstep>
   <time name="dav">   55.05   55.07</time>
   <time name="total">   55.21   55.27</time>
   <energy>
    <i name="alphaZ">  16403.00255340 </i>
    <i name="ewald"> 762352.44107605 </i>
    <i name="hartreedc">-953955.07346268 </i>
    <i name="XCdc">  -6386.29712522 </i>
    <i name="pawpsdc"> 163151.95320885 </i>
    <i name="pawaedc">-160818.84594568 </i>
    <i name="eentropy">     -1.04093468 </i>
    <i name="bandstr">  38609.63505344 </i>
    <i name="atom"> 169914.59583762 </i>
    <i name="e_fr_energy">  29270.37026110 </i>
    <i name="e_wo_entrp">  29271.41119578 </i>
    <i name="e_0_energy">  29270.89072844 </i>
   </energy>
  </scstep>
  <scstep>
   <time name="dav">   54.62   54.66</time>
   <time name="total">   54.62   54.67</time>
   <energy>
    <i name="e_fr_energy">   1204.94565795 </i>
    <i name="e_wo_entrp">   1206.42625897 </i>
    <i name="e_0_energy">   1205.68595846 </i>
   </energy>
  </scstep>
  <scstep>
   <time name="dav">   71.72   71.77</time>
   <time name="total">   71.73   71.77</time>
   <energy>
    <i name="e_fr_energy">  -1940.19204630 </i>
    <i name="e_wo_entrp">  -1936.60205186 </i>
    <i name="e_0_energy">  -1938.39704908 </i>
   </energy>
  </scstep>
  <scstep>
   <time name="dav">   90.12   90.17</time>
   <time name="total">   90.13   90.18</time>
   <energy>
    <i name="e_fr_energy">  -2611.41594985 </i>
    <i name="e_wo_entrp">  -2607.89743944 </i>
    <i name="e_0_energy">  -2609.65669465 </i>
   </energy>
  </scstep>
  <scstep>
   <time name="dav">   85.73   85.78</time>
   <time name="total">   87.80   87.86</time>
   <energy>
    <i name="e_fr_energy">  -2731.95266777 </i>
    <i name="e_wo_entrp">  -2728.35078874 </i>
    <i name="e_0_energy">  -2730.15172826 </i>
   </energy>
  </scstep>
  <scstep>
   <time name="diag">    8.30    8.30</time>
   <time name="diis">   37.82   37.83</time>
   <time name="orth">    2.35    2.35</time>
   <time name="total">   50.71   50.76</time>
   <energy>
    <i name="e_fr_energy">  -6230.17439714 </i>
    <i name="e_wo_entrp">  -6226.64968532 </i>
    <i name="e_0_energy">  -6228.41204123 </i>
   </energy>
  </scstep>
  <scstep>
   <time name="diag">    8.36    8.37</time>
   <time name="diis">   38.25   38.26</time>
   <time name="orth">    2.32    2.32</time>
   <time name="total">   51.13   51.18</time>
[...]
       <r>     5.8121     0.0000  2772.0000 </r>
       <r>     5.8549     0.0000  2772.0000 </r>
       <r>     5.8977     0.0000  2772.0000 </r>
       <r>     5.9405     0.0000  2772.0000 </r>
       <r>     5.9833     0.0000  2772.0000 </r>
       <r>     6.0261     0.0000  2772.0000 </r>
       <r>     6.0689     0.0000  2772.0000 </r>
       <r>     6.1117     0.0000  2772.0000 </r>
       <r>     6.1545     0.0000  2772.0000 </r>
       <r>     6.1973     0.0000  2772.0000 </r>
       <r>     6.2402     0.0000  2772.0000 </r>
       <r>     6.2830     0.0000  2772.0000 </r>
       <r>     6.3258     0.0000  2772.0000 </r>
       <r>     6.3686     0.0000  2772.0000 </r>
       <r>     6.4114     0.0000  2772.0000 </r>
       <r>     6.4542     0.0000  2772.0000 </r>
       <r>     6.4970     0.0000  2772.0000 </r>
       <r>     6.5398     0.0000  2772.0000 </r>
       <r>     6.5826     0.0000  2772.0000 </r>
       <r>     6.6254     0.0000  2772.0000 </r>
       <r>     6.6682     0.0000  2772.0000 </r>
       <r>     6.7110     0.0000  2772.0000 </r>
       <r>     6.7538     0.0000  2772.0000 </r>
      </set>
     </set>
    </array>
   </total>
  </dos>
 </calculation>
 <structure name="finalpos" >
  <crystal>
   <varray name="basis" >
    <v>       9.72667804       0.00000000       0.00000000 </v>
    <v>       0.00000000       8.42355028       0.00000000 </v>
    <v>       0.00000000       0.00000000      45.00000000 </v>
   </varray>
   <i name="volume">   3686.99226691 </i>
   <varray name="rec_basis" >
    <v>       0.10281002       0.00000000       0.00000000 </v>
    <v>       0.00000000       0.11871479       0.00000000 </v>
    <v>       0.00000000       0.00000000       0.02222222 </v>
   </varray>
  </crystal>
  <varray name="positions" >
   <v>       0.06237572       0.03694490       0.12581312 </v>
   <v>       0.31228469       0.87217614       0.65394923 </v>
   <v>       0.18700091       0.12057565       0.78717516 </v>
   <v>       0.43794077       0.29001563       0.38998266 </v>
   <v>       0.31177702       0.70683452       0.83199962 </v>
   <v>       0.81190824       0.20652211       0.83221681 </v>
   <v>       0.31300996       0.37034360       0.16810686 </v>
   <v>       0.56273639       0.20563303       0.56527123 </v>
   <v>       0.06161510       0.03770159       0.74295272 </v>
   <v>       0.81231398       0.87218667       0.52125060 </v>
   <v>       0.18649543       0.28774351       0.74290168 </v>
   <v>       0.93758694       0.45696796       0.34599509 </v>
   <v>       0.93704032       0.28994452       0.38998756 </v>
   <v>       0.81062477       0.03990915       0.87420300 </v>
   <v>       0.18787473       0.78852094       0.60992687 </v>
   <v>       0.56246119       0.04031892       0.38997507 </v>
   <v>       0.93708690       0.95656044       0.83218504 </v>
   <v>       0.31206352       0.53898650       0.87424212 </v>
   <v>       0.68674530       0.28788334       0.74290817 </v>
   <v>       0.18795150       0.62093380       0.16808747 </v>
   <v>       0.81255142       0.20560369       0.47857391 </v>
   <v>       0.81311376       0.53852541       0.60998195 </v>
   <v>       0.31263825       0.87274324       0.43456029 </v>
   <v>       0.81343233       0.04013713       0.25714116 </v>
   <v>       0.68769453       0.95664402       0.34595760 </v>
   <v>       0.93739266       0.12051805       0.16793015 </v>
   <v>       0.93772885       0.12276540       0.52127045 </v>
   <v>       0.56318666       0.54075381       0.25722493 </v>
   <v>       0.68676673       0.78804073       0.87410186 </v>
   <v>       0.56299522       0.37068561       0.16805941 </v>
   <v>       0.43666986       0.78769348       0.74292038 </v>
   <v>       0.81295565       0.70571654       0.56529994 </v>
   <v>       0.56209214       0.87013243       0.78712037 </v>
   <v>       0.68787846       0.12251159       0.52124506 </v>
   <v>       0.81230196       0.37210218       0.65399370 </v>
   <v>       0.93600972       0.45674495       0.83206061 </v>
   <v>       0.06229274       0.20506872       0.69854599 </v>
   <v>       0.43760884       0.95523705       0.69858395 </v>
   <v>       0.31065576       0.20596655       0.83233423 </v>
   <v>       0.43718737       0.62191391       0.65399802 </v>
   <v>       0.31305722       0.53840850       0.60995907 </v>
   <v>       0.93773590       0.45551991       0.56523790 </v>
   <v>       0.68680824       0.78814347       0.74290197 </v>
   <v>       0.93786141       0.78736692       0.12593899 </v>
   <v>       0.68741713       0.79003488       0.38994392 </v>
   <v>       0.93679528       0.78789940       0.74284482 </v>
   <v>       0.06278322       0.20686739       0.34598557 </v>
   <v>       0.81263221       0.04023800       0.38996327 </v>
   <v>       0.43691228       0.12005359       0.78710230 </v>
   <v>       0.06259499       0.20663342       0.21290915 </v>
   <v>       0.06286326       0.37089111       0.16801271 </v>
   <v>       0.93803507       0.79049548       0.25709525 </v>
   <v>       0.56240774       0.20498361       0.69856617 </v>
   <v>       0.68736654       0.95497659       0.69858022 </v>
   <v>       0.43739070       0.78704511       0.12595878 </v>
   <v>       0.43770496       0.95571608       0.56525103 </v>
   <v>       0.81199575       0.37001530       0.78701144 </v>
   <v>       0.68856437       0.29048647       0.25713833 </v>
   <v>       0.18770827       0.45553439       0.56523280 </v>
   <v>       0.06339888       0.87073444       0.16806966 </v>
   <v>       0.18808291       0.28825881       0.60993898 </v>
   <v>       0.56269736       0.70685677       0.34594920 </v>
   <v>       0.31239884       0.20530835       0.69855938 </v>
   <v>       0.56174648       0.53958494       0.87418728 </v>
   <v>       0.06263003       0.70525569       0.56523071 </v>
   <v>       0.68709751       0.62036005       0.78714662 </v>
   <v>       0.31252854       0.54007850       0.38997386 </v>
   <v>       0.18801933       0.62245009       0.52128360 </v>
   <v>       0.56241444       0.87296591       0.43464254 </v>
   <v>       0.43777993       0.45566717       0.56525743 </v>
   <v>       0.43691101       0.28786828       0.74293060 </v>
   <v>       0.81284531       0.87424397       0.30141214 </v>
   <v>       0.81270386       0.70683207       0.34596102 </v>
   <v>       0.43675377       0.45625798       0.83203731 </v>
   <v>       0.68767456       0.95549772       0.47859760 </v>
   <v>       0.68737415       0.45494882       0.69858460 </v>
   <v>       0.56278559       0.87255727       0.52122718 </v>
   <v>       0.56244343       0.37178867       0.65394114 </v>
   <v>       0.81222623       0.87189256       0.65402425 </v>
   <v>       0.81243641       0.37290593       0.43463690 </v>
   <v>       0.81345562       0.54059003       0.25723956 </v>
   <v>       0.68644913       0.45601842       0.83195919 </v>
   <v>       0.18758399       0.78683238       0.12598374 </v>
   <v>       0.68748209       0.29000399       0.38993519 </v>
   <v>       0.31231904       0.37204590       0.65398997 </v>
   <v>       0.31264899       0.20691148       0.34596915 </v>
   <v>       0.81157978       0.53746660       0.74292479 </v>
   <v>       0.68624960       0.95655775       0.83200510 </v>
   <v>       0.56218672       0.87187961       0.65399010 </v>
   <v>       0.31255613       0.70567084       0.56527678 </v>
   <v>       0.31235844       0.53765714       0.12591835 </v>
   <v>       0.68776492       0.95681890       0.21293431 </v>
   <v>       0.31282651       0.20565652       0.56522524 </v>
   <v>       0.18797299       0.95567634       0.47867370 </v>
   <v>       0.68773650       0.95579659       0.56523624 </v>
   <v>       0.43806793       0.78851575       0.60993388 </v>
   <v>       0.68790763       0.61996468       0.16808194 </v>
   <v>       0.31286217       0.87384523       0.30141898 </v>
   <v>       0.31254223       0.70563253       0.47862387 </v>
   <v>       0.93806078       0.28835972       0.60998348 </v>
   <v>       0.43805673       0.62366152       0.30135273 </v>
   <v>       0.81310751       0.87010546       0.16801170 </v>
   <v>       0.56311812       0.20650362       0.21290687 </v>
   <v>       0.93793752       0.61985070       0.16808556 </v>
   <v>       0.93682028       0.78759248       0.87420315 </v>
   <v>       0.56171236       0.36998402       0.78710145 </v>
   <v>       0.06272839       0.37243683       0.52123293 </v>
   <v>       0.56268949       0.37255080       0.52125864 </v>
   <v>       0.68776624       0.12396224       0.30144503 </v>
   <v>       0.43692103       0.95569531       0.83207886 </v>
   <v>       0.18815735       0.28715088       0.12592064 </v>
   <v>       0.81185414       0.86995221       0.78702092 </v>
   <v>       0.31248085       0.37277292       0.43463557 </v>
   <v>       0.56206302       0.03712221       0.12586303 </v>
   <v>       0.43811526       0.28846719       0.60992374 </v>
   <v>       0.18772578       0.45680381       0.34597438 </v>
   <v>       0.43689143       0.28719029       0.12592278 </v>
   <v>       0.68849589       0.79057766       0.25712281 </v>
   <v>       0.43763571       0.12258467       0.52123596 </v>
   <v>       0.18776301       0.28815308       0.87433664 </v>
   <v>       0.18726660       0.12204922       0.65402175 </v>
   <v>       0.93719519       0.12181369       0.65401391 </v>
   <v>       0.31290392       0.20657065       0.21294129 </v>
   <v>       0.06240544       0.03978140       0.38998767 </v>
   <v>       0.18793331       0.12017328       0.16807808 </v>
   <v>       0.06309258       0.53820799       0.60998533 </v>
   <v>       0.93814871       0.29052635       0.25714115 </v>
   <v>       0.56317189       0.53849728       0.60993350 </v>
   <v>       0.93763106       0.95572621       0.56525779 </v>
   <v>       0.68770649       0.62400544       0.30145431 </v>
   <v>       0.93751785       0.62284765       0.43454045 </v>
   <v>       0.93696369       0.62055014       0.78714861 </v>
   <v>       0.56231207       0.70495625       0.69856202 </v>
   <v>       0.06115453       0.70765786       0.83223096 </v>
   <v>       0.93803091       0.12406364       0.30144557 </v>
   <v>       0.93818023       0.78853297       0.60991637 </v>
   <v>       0.43883467       0.79049051       0.25714564 </v>
   <v>       0.31195522       0.36992725       0.78712185 </v>
   <v>       0.43771150       0.45662673       0.21303505 </v>
   <v>       0.18758784       0.12276815       0.52126493 </v>
   <v>       0.81265706       0.70519060       0.69862498 </v>
   <v>       0.06304978       0.03820715       0.60990585 </v>
   <v>       0.56146825       0.20648028       0.83203107 </v>
   <v>       0.31303878       0.87212374       0.52128302 </v>
   <v>       0.68778027       0.28723016       0.12566054 </v>
   <v>       0.18780874       0.95701115       0.21307161 </v>
   <v>       0.68799263       0.28859097       0.60996270 </v>
   <v>       0.31321277       0.03836779       0.61003602 </v>
   <v>       0.93717028       0.12029414       0.78718989 </v>
   <v>       0.43670620       0.78847881       0.87420936 </v>
   <v>       0.81181990       0.03787696       0.74290994 </v>
   <v>       0.93753696       0.45483912       0.69857234 </v>
   <v>       0.18744213       0.62192828       0.65401483 </v>
   <v>       0.31259301       0.70514453       0.69856392 </v>
   <v>       0.93706440       0.28729613       0.12562437 </v>
   <v>       0.43765978       0.45549571       0.47860313 </v>
   <v>       0.06252964       0.70498961       0.47868896 </v>
   <v>       0.93743741       0.12297354       0.43454701 </v>
   <v>       0.43770612       0.12402160       0.30145949 </v>
   <v>       0.18749338       0.12286976       0.43451528 </v>
   <v>       0.56242881       0.03903351       0.87426143 </v>
   <v>       0.18782847       0.95578208       0.56525051 </v>
   <v>       0.68710991       0.78729119       0.12596966 </v>
   <v>       0.56245319       0.53754708       0.12587087 </v>
   <v>       0.31255860       0.03996781       0.38999372 </v>
   <v>       0.68839945       0.12075419       0.16802792 </v>
   <v>       0.81284710       0.20622604       0.21287111 </v>
   <v>       0.06333256       0.54037420       0.25714690 </v>
   <v>       0.56273231       0.70564169       0.47860265 </v>
   <v>       0.06277190       0.20531559       0.56527573 </v>
   <v>       0.56286350       0.37399631       0.30142381 </v>
   <v>       0.43765068       0.95656767       0.34596211 </v>
   <v>       0.18735429       0.95508851       0.69860658 </v>
   <v>       0.43790333       0.62074663       0.16819604 </v>
   <v>       0.93829905       0.45680938       0.21302836 </v>
   <v>       0.06228433       0.53752850       0.12583164 </v>
   <v>       0.81249293       0.37240167       0.52125018 </v>
   <v>       0.93753369       0.62387904       0.30138039 </v>
   <v>       0.31340065       0.04031094       0.25715128 </v>
   <v>       0.68801997       0.78847783       0.60994542 </v>
   <v>       0.18635076       0.45675378       0.83212317 </v>
   <v>       0.43802526       0.12011991       0.16800968 </v>
   <v>       0.31299336       0.37248153       0.52123203 </v>
   <v>       0.43698905       0.62027008       0.78715110 </v>
   <v>       0.06322195       0.04044531       0.25712092 </v>
   <v>       0.56265419       0.70563391       0.56521695 </v>
   <v>       0.93698337       0.28746509       0.74292925 </v>
   <v>       0.68704087       0.12032532       0.78711720 </v>
   <v>       0.18760774       0.45682070       0.21299500 </v>
   <v>       0.93735756       0.79016122       0.38997132 </v>
   <v>       0.68712441       0.28889367       0.87432238 </v>
   <v>       0.31313245       0.87096179       0.16817239 </v>
   <v>       0.43749319       0.45504537       0.69854209 </v>
   <v>       0.93784867       0.95673350       0.34595011 </v>
   <v>       0.68777181       0.62242587       0.52125878 </v>
   <v>       0.06225534       0.87190894       0.65400906 </v>
   <v>       0.06166216       0.86987017       0.78712381 </v>
   <v>       0.06210250       0.37210305       0.65394008 </v>
   <v>       0.68760227       0.45559040       0.47856797 </v>
   <v>       0.18839453       0.79039576       0.25719740 </v>
   <v>       0.43754444       0.12267086       0.43463778 </v>
   <v>       0.81252467       0.03824919       0.12580280 </v>
   <v>       0.93751732       0.62240213       0.52126364 </v>
   <v>       0.06242529       0.87265423       0.43488564 </v>
   <v>       0.81229111       0.53734929       0.12561422 </v>
   <v>       0.43788021       0.45680121       0.34598895 </v>
   <v>       0.81272285       0.20686499       0.34592565 </v>
   <v>       0.31277976       0.70682339       0.34600180 </v>
   <v>       0.68735864       0.12185996       0.65396715 </v>
   <v>       0.56282148       0.87409159       0.30143081 </v>
   <v>       0.06139457       0.53749391       0.74294975 </v>
   <v>       0.93781061       0.95684564       0.21291712 </v>
   <v>       0.81279051       0.70634535       0.21287399 </v>
   <v>       0.06277899       0.87388386       0.30139561 </v>
   <v>       0.18779885       0.12432170       0.30142463 </v>
   <v>       0.06254590       0.70660351       0.34592307 </v>
   <v>       0.81287418       0.03856826       0.61001089 </v>
   <v>       0.06248070       0.37271628       0.43463514 </v>
   <v>       0.56268527       0.20680176       0.34594033 </v>
   <v>       0.81269994       0.37399976       0.30140035 </v>
   <v>       0.43758891       0.95551667       0.47863694 </v>
   <v>       0.56237197       0.53962940       0.38989782 </v>
   <v>       0.06263266       0.20521479       0.47863928 </v>
   <v>       0.31263501       0.86958020       0.78701244 </v>
   <v>       0.93740219       0.95489843       0.69856631 </v>
   <v>       0.06270887       0.37405645       0.30146235 </v>
   <v>       0.68735988       0.62190325       0.65398306 </v>
   <v>       0.68777639       0.45563429       0.56526674 </v>
   <v>       0.43795516       0.95686102       0.21302800 </v>
   <v>       0.31274149       0.20554882       0.47857456 </v>
   <v>       0.43716278       0.12197660       0.65397614 </v>
   <v>       0.68741602       0.62287431       0.43465985 </v>
   <v>       0.81242684       0.20502392       0.69850555 </v>
   <v>       0.81269137       0.70572487       0.47856902 </v>
   <v>       0.81239548       0.87283780       0.43454757 </v>
   <v>       0.93723014       0.95561666       0.47868910 </v>
   <v>       0.56263446       0.20554861       0.47859857 </v>
   <v>       0.18755284       0.62260892       0.43458869 </v>
   <v>       0.31161765       0.03778519       0.74289499 </v>
   <v>       0.93725795       0.62174395       0.65403545 </v>
   <v>       0.56171517       0.70606511       0.83206630 </v>
   <v>       0.31289314       0.37410294       0.30147157 </v>
   <v>       0.56298337       0.70645966       0.21296192 </v>
   <v>       0.18766879       0.45544192       0.47863397 </v>
   <v>       0.31216773       0.04016934       0.87441232 </v>
   <v>       0.18747340       0.45491265       0.69860218 </v>
   <v>       0.81158502       0.53901383       0.87422870 </v>
   <v>       0.18750447       0.28991435       0.38999677 </v>
   <v>       0.43737805       0.62286174       0.43463046 </v>
   <v>       0.06278552       0.70668186       0.21294188 </v>
   <v>       0.56252633       0.37292245       0.43462339 </v>
   <v>       0.43752559       0.62236123       0.52125002 </v>
   <v>       0.81128738       0.70602186       0.83187158 </v>
   <v>       0.06200430       0.37074329       0.78708769 </v>
   <v>       0.43679829       0.28925347       0.87431195 </v>
   <v>       0.31247617       0.03745435       0.12580186 </v>
   <v>       0.68749314       0.12280706       0.43463319 </v>
   <v>       0.18774294       0.95652786       0.34598591 </v>
   <v>       0.06183476       0.20566072       0.83221301 </v>
   <v>       0.56307812       0.03844139       0.60992459 </v>
   <v>       0.68749508       0.45699575       0.21299569 </v>
   <v>       0.18670998       0.78772960       0.74286958 </v>
   <v>       0.18756514       0.62379487       0.30138287 </v>
   <v>       0.43766674       0.79003335       0.38994745 </v>
   <v>       0.43867308       0.29027179       0.25713574 </v>
   <v>       0.06141948       0.53919489       0.87422932 </v>
   <v>       0.56196706       0.03795851       0.74297073 </v>
   <v>       0.18670316       0.78800271       0.87445701 </v>
   <v>       0.93761019       0.45549484       0.47858288 </v>
   <v>       0.81263373       0.53970283       0.38987996 </v>
   <v>       0.81265163       0.20550210       0.56521167 </v>
   <v>       0.18715900       0.62057834       0.78718868 </v>
   <v>       0.06243996       0.54001642       0.38998163 </v>
   <v>       0.06267409       0.70509984       0.69857905 </v>
   <v>       0.31352527       0.54034205       0.25717494 </v>
   <v>       0.31277450       0.70667463       0.21295763 </v>
   <v>       0.56253736       0.87042850       0.16805490 </v>
   <v>       0.56217122       0.53763936       0.74284238 </v>
   <v>       0.68768868       0.45674929       0.34594576 </v>
   <v>       0.93595944       0.28909893       0.87431773 </v>
   <v>       0.56346153       0.04019604       0.25712583 </v>
   <v>       0.06237018       0.03833998       0.87433684 </v>
   <v>       0.18738564       0.79016219       0.38978457 </v>
   <v>       0.81301378       0.37014249       0.16737118 </v>
   <v>       0.18553521       0.95708484       0.83272409 </v>
   <v>       0.06274664       0.87255331       0.52114768 </v>
   <v>       0.18860654       0.29015369       0.25708753 </v>
   <v>       0.31162265       0.53762957       0.74305139 </v>
  </varray>
 </structure>
</modeling>
