unknown system                          
           1
     9.726678    0.000000    0.000000
     0.000000    8.423550    0.000000
     0.000000    0.000000   45.000000
   Fe   Mn
 281   7
Direct configuration=     1
   0.06221800  0.03339070  0.12548619
   0.31096913  0.87174883  0.65405140
   0.18724555  0.11725672  0.78732402
   0.43763127  0.29046337  0.38980323
   0.31087059  0.71008872  0.83205951
   0.81210694  0.20911755  0.83241571
   0.31285560  0.36872881  0.16834040
   0.56246794  0.20710791  0.56498441
   0.05974580  0.03621136  0.74255321
   0.81245505  0.87084976  0.52109725
   0.18711732  0.28733774  0.74280308
   0.93717970  0.45564393  0.34601206
   0.93731116  0.29043484  0.38976299
   0.81102029  0.03622072  0.87436480
   0.18911509  0.78756173  0.61006271
   0.56236660  0.04054334  0.38976493
   0.93693031  0.95932971  0.83238978
   0.31315209  0.53433430  0.87456593
   0.68546559  0.28633208  0.74247983
   0.18891858  0.61973174  0.16835080
   0.81252374  0.20582983  0.47866064
   0.81420190  0.53751126  0.61012137
   0.31243759  0.87204505  0.43460279
   0.81477939  0.04161203  0.25731612
   0.68772135  0.95666748  0.34611139
   0.93771940  0.11762319  0.16764324
   0.93845177  0.12135360  0.52111734
   0.56449577  0.54158707  0.25727073
   0.68651013  0.79057431  0.87451587
   0.56371882  0.36987081  0.16805083
   0.43698584  0.78743050  0.74290994
   0.81262394  0.70713560  0.56498512
   0.56260900  0.86752292  0.78727519
   0.68804276  0.12086223  0.52112268
   0.81112237  0.37186123  0.65402283
   0.93495680  0.45940148  0.83201547
   0.06303611  0.20624714  0.69855891
   0.43759989  0.95616925  0.69855913
   0.31022993  0.20778282  0.83232192
   0.43670169  0.62198305  0.65402403
   0.31401305  0.53738999  0.61015099
   0.93749963  0.45723903  0.56499319
   0.68707358  0.78811016  0.74296930
   0.93803441  0.79106262  0.12558095
   0.68746850  0.79034234  0.38985797
   0.93732908  0.78756970  0.74295348
   0.06254545  0.20679181  0.34619239
   0.81245956  0.04048921  0.38983073
   0.43761471  0.11720604  0.78726490
   0.06212798  0.20791283  0.21282595
   0.06366405  0.36898030  0.16798636
   0.93969677  0.79174145  0.25730258
   0.56355205  0.20679247  0.69874541
   0.68806340  0.95661655  0.69851710
   0.43622010  0.78968168  0.12556687
   0.43742921  0.95707416  0.56495925
   0.81256351  0.36784942  0.78721941
   0.69000911  0.29131732  0.25716911
   0.18756562  0.45716576  0.56497664
   0.06321551  0.86946151  0.16825496
   0.18919435  0.28761749  0.61015809
   0.56268369  0.70536943  0.34602833
   0.31281474  0.20623733  0.69862340
   0.56305047  0.53555816  0.87445907
   0.06232091  0.70711309  0.56488872
   0.68772316  0.61716360  0.78726825
   0.31204412  0.54052452  0.38979445
   0.18801465  0.62054996  0.52108742
   0.56243424  0.87281605  0.43456896
   0.43732596  0.45750273  0.56501966
   0.43429577  0.28761282  0.74262694
   0.81239499  0.87349877  0.30144222
   0.81206644  0.70607590  0.34621162
   0.43526508  0.45868062  0.83205825
   0.68761500  0.95570005  0.47864953
   0.68849594  0.45652908  0.69859592
   0.56291621  0.87087834  0.52110001
   0.56102797  0.37168106  0.65400038
   0.81087743  0.87171437  0.65397260
   0.81255148  0.37287253  0.43462292
   0.81425067  0.54168689  0.25722426
   0.68502659  0.45829045  0.83186127
   0.18835998  0.78960357  0.12562198
   0.68747598  0.29078278  0.38976392
   0.31104569  0.37190527  0.65396038
   0.31272407  0.20681569  0.34623387
   0.81193985  0.53738929  0.74277321
   0.68514735  0.95850133  0.83191461
   0.56103780  0.87200431  0.65397075
   0.31219153  0.70736350  0.56499745
   0.31163668  0.53519606  0.12554858
   0.68746725  0.95809631  0.21281846
   0.31252939  0.20701576  0.56496442
   0.18779435  0.95577797  0.47869529
   0.68785134  0.95717773  0.56493338
   0.43927750  0.78759718  0.61007850
   0.68853929  0.61635240  0.16787339
   0.31209163  0.87333021  0.30148633
   0.31240857  0.70574246  0.47870766
   0.93945671  0.28780575  0.61021055
   0.43735581  0.62437171  0.30154756
   0.81296514  0.86917157  0.16821763
   0.56257305  0.20815440  0.21287313
   0.93882028  0.61618258  0.16789462
   0.93816701  0.78929444  0.87454703
   0.56269249  0.36740459  0.78723788
   0.06309228  0.37077046  0.52112893
   0.56265564  0.37107886  0.52111237
   0.68739287  0.12413520  0.30148113
   0.43697121  0.95826510  0.83227353
   0.18844159  0.29011305  0.12563738
   0.81190764  0.86759715  0.78710255
   0.31236525  0.37292429  0.43464654
   0.56089262  0.03389173  0.12554564
   0.43918990  0.28755031  0.61011613
   0.18779819  0.45655321  0.34632913
   0.43615004  0.29055360  0.12563386
   0.68995675  0.79135031  0.25738764
   0.43783224  0.12081109  0.52109324
   0.18803810  0.29139783  0.87469360
   0.18580807  0.12204279  0.65396512
   0.93628002  0.12248131  0.65403434
   0.31243650  0.20787304  0.21275068
   0.06244268  0.03978726  0.38977559
   0.18885611  0.11806505  0.16799399
   0.06409379  0.53695320  0.61019709
   0.93976863  0.29146237  0.25729169
   0.56416022  0.53757309  0.61014782
   0.93706332  0.95730049  0.56497647
   0.68703342  0.62485856  0.30144691
   0.93697243  0.62254726  0.43457027
   0.93703295  0.61745713  0.78713461
   0.56313021  0.70630993  0.69853833
   0.06084433  0.71137358  0.83255643
   0.93731158  0.12400277  0.30150562
   0.93929756  0.78769508  0.61009609
   0.44047707  0.79140232  0.25735463
   0.31207729  0.36814874  0.78713390
   0.43738985  0.45804173  0.21293720
   0.18760865  0.12124203  0.52110758
   0.81309832  0.70599272  0.69855235
   0.06423028  0.03722836  0.61009069
   0.56042364  0.20962135  0.83198852
   0.31307865  0.87056875  0.52109700
   0.68732373  0.29136117  0.12547394
   0.18754682  0.95811322  0.21295982
   0.68924880  0.28766118  0.61017026
   0.31432241  0.03764490  0.61023574
   0.93777468  0.11714732  0.78729518
   0.43828583  0.79104885  0.87453843
   0.81040371  0.03780937  0.74264351
   0.93774661  0.45746734  0.69874524
   0.18630530  0.62214196  0.65402531
   0.31317618  0.70632217  0.69857541
   0.93699809  0.29118050  0.12548053
   0.43761901  0.45592690  0.47863989
   0.06244916  0.70561474  0.47870519
   0.93741546  0.12308328  0.43461398
   0.43669272  0.12423168  0.30146094
   0.18735755  0.12337966  0.43464439
   0.56326898  0.03460080  0.87459806
   0.18782648  0.95722232  0.56495150
   0.68655821  0.79082789  0.12557874
   0.56124384  0.53490866  0.12548878
   0.31247385  0.03962679  0.38974820
   0.68924979  0.11816444  0.16793868
   0.81214610  0.20766075  0.21286590
   0.06404852  0.54053559  0.25722765
   0.56254734  0.70609092  0.47866405
   0.06252125  0.20698937  0.56499820
   0.56231134  0.37372600  0.30141888
   0.43755974  0.95678483  0.34614712
   0.18824816  0.95684281  0.69854603
   0.43787214  0.61902010  0.16844854
   0.93763294  0.45818748  0.21306937
   0.06228385  0.53492179  0.12544377
   0.81255569  0.37074823  0.52113824
   0.93688000  0.62444682  0.30147416
   0.31488747  0.04134962  0.25747772
   0.68923695  0.78757396  0.61013162
   0.18571386  0.45966922  0.83216334
   0.43876335  0.11779834  0.16776469
   0.31329258  0.37078130  0.52108468
   0.43755230  0.61711048  0.78728494
   0.06490066  0.04178617  0.25734597
   0.56232161  0.70710641  0.56502064
   0.93469902  0.28655143  0.74271728
   0.68724761  0.11725047  0.78730840
   0.18717459  0.45802138  0.21287888
   0.93754576  0.79057685  0.38973499
   0.68742630  0.29210102  0.87479510
   0.31319849  0.86946956  0.16841668
   0.43863087  0.45669788  0.69852296
   0.93839419  0.95648019  0.34623313
   0.68778945  0.62087019  0.52108367
   0.06112830  0.87184577  0.65395206
   0.06199260  0.86817405  0.78702007
   0.06119488  0.37142550  0.65380486
   0.68753967  0.45579075  0.47865976
   0.18963230  0.79137781  0.25734493
   0.43738812  0.12354417  0.43482447
   0.81175106  0.03420575  0.12540519
   0.93773210  0.62067724  0.52112223
   0.06187469  0.87381599  0.43497087
   0.81134865  0.53450901  0.12542508
   0.43847511  0.45616386  0.34614488
   0.81264832  0.20593486  0.34615794
   0.31237593  0.70534921  0.34601924
   0.68607056  0.12169589  0.65386158
   0.56223738  0.87363746  0.30146333
   0.06187838  0.53650595  0.74288677
   0.93729454  0.95797377  0.21281018
   0.81238751  0.70784837  0.21270745
   0.06252218  0.87349278  0.30147681
   0.18698045  0.12431231  0.30137361
   0.06218758  0.70667082  0.34621969
   0.81425059  0.03752417  0.61013260
   0.06251735  0.37273073  0.43466792
   0.56285864  0.20590825  0.34618077
   0.81249540  0.37408757  0.30147123
   0.43759070  0.95571092  0.47865310
   0.56229813  0.54034296  0.38973885
   0.06260407  0.20593714  0.47863037
   0.31322518  0.86775520  0.78704479
   0.93799914  0.95713276  0.69855609
   0.06209092  0.37407025  0.30146750
   0.68630184  0.62227734  0.65403061
   0.68746419  0.45740863  0.56508907
   0.43747622  0.95810642  0.21291643
   0.31258035  0.20596333  0.47866642
   0.43630143  0.12151531  0.65379837
   0.68739566  0.62309241  0.43468241
   0.81321725  0.20616503  0.69867635
   0.81269648  0.70598958  0.47866574
   0.81167829  0.87200543  0.43454409
   0.93727437  0.95576577  0.47876311
   0.56267305  0.20578599  0.47864195
   0.18758579  0.62274643  0.43448695
   0.31087123  0.03715912  0.74273781
   0.93683559  0.62266763  0.65410263
   0.56040210  0.70900668  0.83183462
   0.31236068  0.37364417  0.30143125
   0.56219720  0.70786081  0.21277260
   0.18770973  0.45573721  0.47869715
   0.31309196  0.03646167  0.87446515
   0.18796106  0.45743819  0.69870029
   0.81090733  0.53525587  0.87465009
   0.18763611  0.29037430  0.38976149
   0.43747561  0.62326344  0.43466523
   0.06227774  0.70795914  0.21273230
   0.56238487  0.37235924  0.43461477
   0.43755607  0.62082983  0.52112385
   0.80981570  0.70850838  0.83160264
   0.06278988  0.36808162  0.78711648
   0.43756145  0.29222393  0.87478447
   0.31174066  0.03399652  0.12543621
   0.68739577  0.12323788  0.43466431
   0.18773888  0.95623155  0.34632017
   0.06177647  0.20897485  0.83259115
   0.56421467  0.03759668  0.61022330
   0.68686084  0.45790950  0.21307754
   0.18723227  0.78702133  0.74296972
   0.18743309  0.62380873  0.30157967
   0.43764104  0.79065224  0.38979914
   0.43968272  0.29133845  0.25739238
   0.06142191  0.53550211  0.87451598
   0.56200825  0.03742660  0.74276584
   0.18610414  0.79047642  0.87454065
   0.93758221  0.45569930  0.47868206
   0.81256113  0.54036397  0.38981816
   0.81236297  0.20706557  0.56488999
   0.18759023  0.61698703  0.78721738
   0.06278110  0.54091780  0.38982372
   0.06313714  0.70609473  0.69861952
   0.31296993  0.54006395  0.25734457
   0.31234494  0.70809287  0.21270704
   0.56306955  0.86934607  0.16836459
   0.55952459  0.53854384  0.74254306
   0.68797191  0.45632698  0.34603477
   0.93610135  0.29140479  0.87456955
   0.56435290  0.04110044  0.25735416
   0.06229642  0.03365905  0.87448277
   0.18729062  0.79064023  0.38961002
   0.81297413  0.36882582  0.16711029
   0.18539373  0.96016865  0.83295814
   0.06293391  0.87042337  0.52107641
   0.18989565  0.29094422  0.25721308
   0.31060133  0.53618568  0.74308506
Direct configuration=     2
   0.06221813  0.03395731  0.12554697
   0.31113965  0.87179587  0.65403963
   0.18720899  0.11771952  0.78729289
   0.43768535  0.29040207  0.38987321
   0.31099827  0.70961578  0.83206686
   0.81200701  0.20880838  0.83241521
   0.31291219  0.36890385  0.16824422
   0.56250476  0.20689123  0.56503491
   0.06007532  0.03644753  0.74262566
   0.81247245  0.87104396  0.52117842
   0.18690956  0.28728027  0.74282088
   0.93725645  0.45588388  0.34598589
   0.93725712  0.29036312  0.38983941
   0.81093898  0.03681434  0.87432070
   0.18895660  0.78768621  0.61000905
   0.56237728  0.04051574  0.38983653
   0.93688154  0.95896094  0.83238115
   0.31297583  0.53510127  0.87449970
   0.68565454  0.28668683  0.74256734
   0.18878837  0.61983643  0.16825892
   0.81256703  0.20570832  0.47857969
   0.81407116  0.53763589  0.61007063
   0.31245935  0.87219814  0.43460181
   0.81462023  0.04140713  0.25729957
   0.68770638  0.95661678  0.34606708
   0.93774800  0.11803130  0.16765074
   0.93827311  0.12160002  0.52118681
   0.56431949  0.54148004  0.25727592
   0.68655212  0.79010160  0.87443706
   0.56356510  0.36992442  0.16800460
   0.43691487  0.78749687  0.74291651
   0.81268032  0.70692493  0.56503697
   0.56251919  0.86785159  0.78723331
   0.68799209  0.12117192  0.52119005
   0.81129076  0.37191851  0.65402637
   0.93506143  0.45911064  0.83206004
   0.06294951  0.20614655  0.69856031
   0.43763001  0.95609106  0.69857045
   0.31033036  0.20765641  0.83234609
   0.43673653  0.62196987  0.65402341
   0.31389871  0.53754273  0.61009210
   0.93752067  0.45698320  0.56503795
   0.68700770  0.78807020  0.74295785
   0.93799740  0.79042938  0.12567709
   0.68744004  0.79033510  0.38990582
   0.93725508  0.78759541  0.74294115
   0.06260416  0.20677591  0.34613427
   0.81247030  0.04048081  0.38989209
   0.43751683  0.11760218  0.78723259
   0.06216532  0.20772335  0.21283369
   0.06357216  0.36920804  0.16793697
   0.93948658  0.79162187  0.25727777
   0.56334139  0.20651541  0.69871282
   0.68795866  0.95637517  0.69852658
   0.43640117  0.78922523  0.12567229
   0.43745881  0.95687333  0.56500968
   0.81246312  0.36807660  0.78716944
   0.68981075  0.29123400  0.25717242
   0.18759824  0.45692981  0.56502505
   0.06323928  0.86958357  0.16817180
   0.18906644  0.28769331  0.61009378
   0.56267770  0.70561797  0.34599270
   0.31277513  0.20613949  0.69861215
   0.56283911  0.53620988  0.87438951
   0.06237135  0.70682902  0.56495203
   0.68764147  0.61753461  0.78723762
   0.31213954  0.54045321  0.38986382
   0.18804022  0.62090780  0.52117345
   0.56238650  0.87287978  0.43458301
   0.43739501  0.45721986  0.56506622
   0.43473509  0.28759143  0.74267885
   0.81246269  0.87364322  0.30143749
   0.81217058  0.70618648  0.34614737
   0.43548912  0.45836164  0.83209974
   0.68762415  0.95566787  0.47856739
   0.68830641  0.45632723  0.69860202
   0.56287083  0.87118342  0.52117293
   0.56121568  0.37168786  0.65400279
   0.81105889  0.87175356  0.65397926
   0.81252028  0.37290907  0.43463458
   0.81414283  0.54154941  0.25724212
   0.68523063  0.45798880  0.83192083
   0.18823457  0.78910012  0.12571851
   0.68747488  0.29067658  0.38982888
   0.31122316  0.37192014  0.65397228
   0.31270861  0.20679227  0.34616715
   0.81181056  0.53733862  0.74280728
   0.68531507  0.95830426  0.83197620
   0.56118257  0.87199401  0.65397663
   0.31222709  0.70711779  0.56504870
   0.31170740  0.53562726  0.12562895
   0.68749351  0.95794014  0.21284781
   0.31257411  0.20680355  0.56500773
   0.18783063  0.95575780  0.47862207
   0.68782534  0.95698703  0.56498915
   0.43910653  0.78770282  0.61002246
   0.68843185  0.61692882  0.16786705
   0.31220490  0.87341463  0.30147304
   0.31242518  0.70565028  0.47861973
   0.93924716  0.28785913  0.61014356
   0.43743687  0.62424390  0.30151200
   0.81300129  0.86919317  0.16812665
   0.56263782  0.20791872  0.21287749
   0.93871524  0.61674986  0.16788631
   0.93792874  0.78896973  0.87449221
   0.56257350  0.36771766  0.78719688
   0.06300221  0.37106091  0.52119534
   0.56270617  0.37133141  0.52118404
   0.68742800  0.12412140  0.30147666
   0.43701969  0.95797037  0.83227854
   0.18841486  0.28963835  0.12571860
   0.81196239  0.86784682  0.78708583
   0.31240196  0.37294561  0.43464776
   0.56104248  0.03439412  0.12560649
   0.43905973  0.28766931  0.61005679
   0.18776731  0.45658452  0.34624258
   0.43623002  0.29001995  0.12572016
   0.68978560  0.79130794  0.25735117
   0.43779678  0.12109994  0.52116645
   0.18804532  0.29085407  0.87464136
   0.18601727  0.12206076  0.65397857
   0.93639045  0.12238805  0.65403677
   0.31251587  0.20767230  0.21278240
   0.06241329  0.03983888  0.38985671
   0.18874012  0.11834932  0.16796650
   0.06397360  0.53714837  0.61013276
   0.93952675  0.29133175  0.25727804
   0.56403515  0.53768491  0.61008456
   0.93714997  0.95708813  0.56502846
   0.68712009  0.62469975  0.30144679
   0.93708382  0.62261808  0.43457556
   0.93703046  0.61787481  0.78713602
   0.56303503  0.70612747  0.69855487
   0.06081033  0.71081696  0.83251350
   0.93740463  0.12400848  0.30149418
   0.93916585  0.78779610  0.61003510
   0.44025614  0.79129455  0.25733010
   0.31208491  0.36826429  0.78713330
   0.43741583  0.45787047  0.21296859
   0.18766129  0.12148572  0.52117896
   0.81304571  0.70595520  0.69857248
   0.06407313  0.03733747  0.61002845
   0.56058847  0.20922008  0.83202136
   0.31307820  0.87086598  0.52117996
   0.68730929  0.29064034  0.12550523
   0.18756501  0.95800757  0.21299359
   0.68909661  0.28778775  0.61010496
   0.31418784  0.03771305  0.61017206
   0.93771373  0.11757332  0.78727112
   0.43808785  0.79058954  0.87448136
   0.81064603  0.03781346  0.74269353
   0.93777295  0.45706095  0.69872176
   0.18645581  0.62212147  0.65403117
   0.31311778  0.70619588  0.69857785
   0.93707141  0.29050851  0.12551301
   0.43765727  0.45581795  0.47855984
   0.06248867  0.70542940  0.47862919
   0.93740050  0.12309287  0.43461255
   0.43684668  0.12422957  0.30146483
   0.18737963  0.12329621  0.43463401
   0.56317398  0.03527766  0.87453014
   0.18783323  0.95703411  0.56500543
   0.68660275  0.79023171  0.12568704
   0.56139197  0.53534527  0.12556477
   0.31251094  0.03971845  0.38983092
   0.68908725  0.11849920  0.16791998
   0.81226954  0.20746113  0.21286674
   0.06395872  0.54058699  0.25722420
   0.56254985  0.70590429  0.47858564
   0.06256579  0.20674367  0.56505322
   0.56239726  0.37378788  0.30141717
   0.43758032  0.95673478  0.34609631
   0.18813736  0.95662276  0.69856494
   0.43790360  0.61925149  0.16836142
   0.93774864  0.45802172  0.21307035
   0.06227612  0.53534022  0.12552191
   0.81254527  0.37108102  0.52120303
   0.93698478  0.62435259  0.30145977
   0.31469921  0.04116788  0.25743669
   0.68908961  0.78768148  0.61007081
   0.18577777  0.45930377  0.83219871
   0.43864236  0.11816059  0.16775867
   0.31322797  0.37107405  0.52116598
   0.43748926  0.61753390  0.78726341
   0.06463761  0.04156440  0.25732146
   0.56235509  0.70690374  0.56505988
   0.93505215  0.28669625  0.74276205
   0.68721264  0.11770845  0.78727321
   0.18721657  0.45791663  0.21290686
   0.93748655  0.79054079  0.38981529
   0.68740177  0.29152987  0.87470740
   0.31322223  0.86963085  0.16832185
   0.43845955  0.45646202  0.69852268
   0.93829210  0.95651028  0.34616120
   0.68781289  0.62111053  0.52116103
   0.06126815  0.87184292  0.65396404
   0.06196012  0.86833259  0.78702681
   0.06130121  0.37156324  0.65383953
   0.68754679  0.45568804  0.47857946
   0.18946868  0.79125436  0.25733430
   0.43739969  0.12340243  0.43480222
   0.81183367  0.03485440  0.12547242
   0.93759852  0.62098525  0.52119361
   0.06197794  0.87362312  0.43495981
   0.81146905  0.53506889  0.12543495
   0.43837656  0.45623851  0.34609464
   0.81265868  0.20606278  0.34609862
   0.31244654  0.70558751  0.34599524
   0.68624165  0.12174926  0.65388547
   0.56231649  0.87373545  0.30145704
   0.06169862  0.53660726  0.74289878
   0.93737317  0.95782810  0.21283746
   0.81244212  0.70764754  0.21273309
   0.06254308  0.87355051  0.30146025
   0.18711063  0.12435229  0.30138941
   0.06222156  0.70661723  0.34614440
   0.81406835  0.03765853  0.61008329
   0.06248688  0.37273125  0.43467106
   0.56281824  0.20601943  0.34611865
   0.81249364  0.37409382  0.30145702
   0.43758454  0.95563728  0.47858112
   0.56230769  0.54021070  0.38979956
   0.06260700  0.20573651  0.47855913
   0.31314491  0.86790815  0.78702891
   0.93789942  0.95680559  0.69855815
   0.06217983  0.37408871  0.30147110
   0.68645316  0.62223255  0.65402580
   0.68750629  0.45714064  0.56512240
   0.43754678  0.95797173  0.21295099
   0.31260702  0.20578008  0.47858311
   0.43639273  0.12160790  0.65383250
   0.68740115  0.62305674  0.43469057
   0.81312750  0.20604383  0.69864218
   0.81270772  0.70582955  0.47858847
   0.81179289  0.87218720  0.43455090
   0.93725753  0.95574673  0.47868217
   0.56268145  0.20569722  0.47857100
   0.18754959  0.62275674  0.43451235
   0.31094039  0.03722580  0.74276734
   0.93688558  0.62251698  0.65409658
   0.56060638  0.70858634  0.83190507
   0.31243103  0.37373352  0.30144253
   0.56231101  0.70767910  0.21280967
   0.18768027  0.45565737  0.47860930
   0.31301459  0.03715090  0.87446474
   0.18790565  0.45706711  0.69868400
   0.81104269  0.53586402  0.87455815
   0.18760978  0.29028656  0.38984323
   0.43743380  0.62322294  0.43467058
   0.06232596  0.70779252  0.21277080
   0.56240189  0.37245319  0.43462526
   0.43759403  0.62110617  0.52119327
   0.81004596  0.70818216  0.83166615
   0.06265588  0.36836850  0.78711017
   0.43746418  0.29171436  0.87469942
   0.31183559  0.03457454  0.12550556
   0.68741344  0.12316974  0.43466826
   0.18776387  0.95627095  0.34623652
   0.06173525  0.20857970  0.83253813
   0.56407642  0.03769806  0.61014256
   0.68692918  0.45784611  0.21307386
   0.18713731  0.78716235  0.74296072
   0.18741889  0.62380455  0.30154403
   0.43765701  0.79059005  0.38985831
   0.43958824  0.29119255  0.25736083
   0.06142618  0.53609225  0.87445050
   0.56189608  0.03749184  0.74280230
   0.18625008  0.78997491  0.87455611
   0.93760327  0.45559540  0.47859686
   0.81256817  0.54024343  0.38986280
   0.81240536  0.20682106  0.56494541
   0.18753959  0.61754984  0.78721852
   0.06270099  0.54075357  0.38988955
   0.06309608  0.70597978  0.69861985
   0.31310670  0.54017430  0.25732945
   0.31240652  0.70790250  0.21275911
   0.56301114  0.86942903  0.16825398
   0.56001635  0.53836870  0.74259164
   0.68794059  0.45637329  0.34599699
   0.93606432  0.29101963  0.87453960
   0.56425685  0.04097859  0.25732991
   0.06227029  0.03438982  0.87448638
   0.18731549  0.79058604  0.38968056
   0.81300820  0.36894681  0.16713696
   0.18536847  0.95978814  0.83291549
   0.06290700  0.87078180  0.52113289
   0.18975662  0.29083393  0.25720404
   0.31075748  0.53640079  0.74307934
Direct configuration=     3
   0.06221854  0.03560719  0.12572397
   0.31163616  0.87193283  0.65400534
   0.18710252  0.11906710  0.78720226
   0.43784284  0.29022358  0.39007696
   0.31137007  0.70823868  0.83208829
   0.81171603  0.20790814  0.83241376
   0.31307700  0.36941355  0.16796416
   0.56261196  0.20626029  0.56518197
   0.06103483  0.03713522  0.74283662
   0.81252312  0.87160946  0.52141480
   0.18630460  0.28711292  0.74287269
   0.93747994  0.45658258  0.34590970
   0.93709979  0.29015429  0.39006193
   0.81070221  0.03854286  0.87419226
   0.18849509  0.78804868  0.60985278
   0.56240837  0.04043539  0.39004501
   0.93673953  0.95788714  0.83235604
   0.31246258  0.53733453  0.87430684
   0.68620471  0.28771980  0.74282215
   0.18840923  0.62014130  0.16799138
   0.81269309  0.20535451  0.47834399
   0.81369046  0.53799877  0.60992289
   0.31252271  0.87264392  0.43459895
   0.81415679  0.04081050  0.25725138
   0.68766281  0.95646915  0.34593808
   0.93783126  0.11921966  0.16767260
   0.93775289  0.12231754  0.52138911
   0.56380617  0.54116839  0.25729103
   0.68667440  0.78872515  0.87420755
   0.56311750  0.37008054  0.16786998
   0.43670822  0.78769010  0.74293566
   0.81284450  0.70631147  0.56518796
   0.56225766  0.86880862  0.78711137
   0.68784454  0.12207368  0.52138622
   0.81178107  0.37208529  0.65403667
   0.93536609  0.45826377  0.83218984
   0.06269735  0.20585367  0.69856441
   0.43771773  0.95586339  0.69860340
   0.31062277  0.20728833  0.83241645
   0.43683795  0.62193150  0.65402160
   0.31356577  0.53798749  0.60992060
   0.93758195  0.45623826  0.56516827
   0.68681588  0.78795385  0.74292452
   0.93788964  0.78858550  0.12595705
   0.68735716  0.79031399  0.39004517
   0.93703960  0.78767029  0.74290523
   0.06277512  0.20672961  0.34596504
   0.81250159  0.04045635  0.39007076
   0.43723184  0.11875567  0.78713851
   0.06227405  0.20717162  0.21285623
   0.06330461  0.36987116  0.16779314
   0.93887452  0.79127370  0.25720552
   0.56272799  0.20570868  0.69861793
   0.68765368  0.95567230  0.69855416
   0.43692840  0.78789613  0.12597926
   0.43754501  0.95628855  0.56515651
   0.81217082  0.36873811  0.78702393
   0.68923318  0.29099136  0.25718207
   0.18769324  0.45624277  0.56516601
   0.06330851  0.86993895  0.16792963
   0.18869398  0.28791408  0.60990651
   0.56266023  0.70634165  0.34588894
   0.31265979  0.20585460  0.69857941
   0.56222369  0.53810756  0.87418695
   0.06251822  0.70600186  0.56513637
   0.68740362  0.61861493  0.78714841
   0.31241740  0.54024557  0.39006581
   0.18811469  0.62194976  0.52142397
   0.56224751  0.87306533  0.43462392
   0.43759607  0.45639618  0.56520180
   0.43601432  0.28752914  0.74283002
   0.81265983  0.87406384  0.30142372
   0.81247380  0.70650846  0.34596030
   0.43614147  0.45743283  0.83222054
   0.68765080  0.95557417  0.47832822
   0.68775451  0.45573949  0.69861976
   0.56273871  0.87207176  0.52138526
   0.56176228  0.37170765  0.65400983
   0.81158725  0.87186767  0.65399864
   0.81242942  0.37301547  0.43466850
   0.81382879  0.54114908  0.25729413
   0.68582476  0.45711045  0.83209424
   0.18786939  0.78763419  0.12599961
   0.68747170  0.29036736  0.39001801
   0.31173994  0.37196344  0.65400694
   0.31266359  0.20672406  0.34597287
   0.81143411  0.53719107  0.74290648
   0.68580344  0.95773043  0.83215552
   0.56160411  0.87196402  0.65399376
   0.31233063  0.70640233  0.56519795
   0.31191332  0.53688281  0.12586298
   0.68756999  0.95748539  0.21293325
   0.31270436  0.20618564  0.56513386
   0.18793627  0.95569905  0.47840887
   0.68774963  0.95643174  0.56515152
   0.43860870  0.78801042  0.60985926
   0.68811902  0.61860724  0.16784857
   0.31253471  0.87366046  0.30143436
   0.31247355  0.70538189  0.47836369
   0.93863699  0.28801453  0.60994848
   0.43767292  0.62387177  0.30140847
   0.81310654  0.86925607  0.16786176
   0.56282642  0.20723248  0.21289019
   0.93840935  0.61840167  0.16786211
   0.93723496  0.78802425  0.87433257
   0.56222702  0.36862927  0.78707748
   0.06273992  0.37190663  0.52138871
   0.56285330  0.37206678  0.52139274
   0.68753028  0.12408122  0.30146364
   0.43716085  0.95711217  0.83229312
   0.18833705  0.28825611  0.12595510
   0.81212178  0.86857380  0.78703715
   0.31250885  0.37300766  0.43465133
   0.56147882  0.03585701  0.12578367
   0.43868068  0.28801582  0.60988400
   0.18767740  0.45667568  0.34599057
   0.43646292  0.28846606  0.12597145
   0.68928727  0.79118458  0.25724495
   0.43769353  0.12194102  0.52137963
   0.18806635  0.28927074  0.87448922
   0.18662643  0.12211308  0.65401776
   0.93671202  0.12211650  0.65404384
   0.31274695  0.20708776  0.21287477
   0.06232768  0.03998919  0.39009290
   0.18840235  0.11917707  0.16788644
   0.06362364  0.53771668  0.60994544
   0.93882241  0.29095141  0.25723828
   0.56367096  0.53801052  0.60990037
   0.93740229  0.95646977  0.56517986
   0.68737245  0.62423731  0.30144646
   0.93740816  0.62282432  0.43459094
   0.93702322  0.61909099  0.78714014
   0.56275787  0.70559621  0.69860303
   0.06071134  0.70919619  0.83238850
   0.93767556  0.12402512  0.30146085
   0.93878236  0.78809024  0.60985751
   0.43961284  0.79098074  0.25725865
   0.31210708  0.36860074  0.78713155
   0.43749148  0.45737179  0.21306000
   0.18781455  0.12219530  0.52138682
   0.81289252  0.70584595  0.69863108
   0.06361555  0.03765520  0.60984722
   0.56106845  0.20805166  0.83211697
   0.31307688  0.87173144  0.52142152
   0.68726727  0.28854144  0.12559632
   0.18761797  0.95769993  0.21309192
   0.68865347  0.28815631  0.60991483
   0.31379597  0.03791150  0.60998662
   0.93753626  0.11881377  0.78720105
   0.43751137  0.78925211  0.87431518
   0.81135162  0.03782536  0.74283917
   0.93784966  0.45587762  0.69865341
   0.18689408  0.62206183  0.65404825
   0.31294776  0.70582816  0.69858498
   0.93728489  0.28855182  0.12560758
   0.43776868  0.45550070  0.47832674
   0.06260373  0.70488973  0.47840788
   0.93735696  0.12312079  0.43460838
   0.43729499  0.12422341  0.30147615
   0.18744393  0.12305321  0.43460379
   0.56289735  0.03724857  0.87433235
   0.18785290  0.95648608  0.56516247
   0.68673242  0.78849575  0.12600239
   0.56182331  0.53661659  0.12578602
   0.31261893  0.03998534  0.39007178
   0.68861395  0.11947396  0.16786554
   0.81262900  0.20687988  0.21286918
   0.06369723  0.54073666  0.25721418
   0.56255717  0.70536084  0.47835731
   0.06269548  0.20602825  0.56521345
   0.56264743  0.37396803  0.30141218
   0.43764023  0.95658903  0.34594839
   0.18781474  0.95598199  0.69862002
   0.43799520  0.61992525  0.16810773
   0.93808555  0.45753906  0.21307320
   0.06225362  0.53655861  0.12574943
   0.81251491  0.37205002  0.52139168
   0.93728987  0.62407822  0.30141789
   0.31415105  0.04063870  0.25731724
   0.68866058  0.78799454  0.60989373
   0.18596389  0.45823965  0.83230167
   0.43829005  0.11921540  0.16774116
   0.31303984  0.37192649  0.52140270
   0.43730568  0.61876682  0.78720074
   0.06387167  0.04091864  0.25725006
   0.56245256  0.70631358  0.56517413
   0.93608042  0.28711792  0.74289242
   0.68711082  0.11904198  0.78717076
   0.18733881  0.45761161  0.21298832
   0.93731412  0.79043578  0.39004911
   0.68733035  0.28986679  0.87445205
   0.31329135  0.87010049  0.16804573
   0.43796069  0.45577523  0.69852188
   0.93799484  0.95659789  0.34595176
   0.68788114  0.62181035  0.52138629
   0.06167537  0.87183461  0.65399894
   0.06186556  0.86879426  0.78704645
   0.06161084  0.37196430  0.65394046
   0.68756752  0.45538898  0.47834565
   0.18899224  0.79089488  0.25730335
   0.43743339  0.12298972  0.43473743
   0.81207419  0.03674314  0.12566821
   0.93720958  0.62188211  0.52140148
   0.06227857  0.87306153  0.43492760
   0.81181963  0.53669916  0.12546369
   0.43808959  0.45645590  0.34594835