 288 288   0   0
  0.1280206E+02  0.9726678E-09  0.8423550E-09  0.4500000E-08  0.2500000E-15
  1.000000000000000E-004
  CAR 
 unknown system                          
      6.78111332     -6.02874792  301      4.29157608      1.00000000
     -6.029  0.0000E+00  0.0000E+00
     -5.986  0.0000E+00  0.0000E+00
     -5.943  0.0000E+00  0.0000E+00
     -5.901  0.0000E+00  0.0000E+00
     -5.858  0.0000E+00  0.0000E+00
     -5.815  0.0000E+00  0.0000E+00
     -5.773  0.0000E+00  0.0000E+00
     -5.730  0.0000E+00  0.0000E+00
     -5.687  0.0000E+00  0.0000E+00
     -5.644  0.0000E+00  0.0000E+00
     -5.602  0.0000E+00  0.0000E+00
     -5.559  0.0000E+00  0.0000E+00
     -5.516  0.0000E+00  0.0000E+00
     -5.474  0.0000E+00  0.0000E+00
     -5.431  0.0000E+00  0.0000E+00
     -5.388  0.1625E-15  0.6939E-17
     -5.346  0.3803E-14  0.1693E-15
     -5.303  0.8158E-13  0.3653E-14
     -5.260  0.1489E-11  0.6722E-13
     -5.217  0.2316E-10  0.1056E-11
     -5.175  0.3070E-09  0.1417E-10
     -5.132  0.3470E-08  0.1623E-09
     -5.089  0.3345E-07  0.1591E-08
     -5.047  0.2752E-06  0.1334E-07
     -5.004  0.1934E-05  0.9590E-07
     -4.961  0.1162E-04  0.5920E-06
     -4.919  0.5981E-04  0.3146E-05
     -4.876  0.2644E-03  0.1443E-04
     -4.833  0.1007E-02  0.5742E-04
     -4.790  0.3318E-02  0.1991E-03
     -4.748  0.9524E-02  0.6057E-03
     -4.705  0.2400E-01  0.1631E-02
     -4.662  0.5365E-01  0.3921E-02
     -4.620  0.1075E+00  0.8512E-02
     -4.577  0.1954E+00  0.1685E-01
     -4.534  0.3253E+00  0.3074E-01
     -4.492  0.5003E+00  0.5211E-01
     -4.449  0.7153E+00  0.8265E-01
     -4.406  0.9552E+00  0.1234E+00
     -4.363  0.1197E+01  0.1745E+00
     -4.321  0.1414E+01  0.2349E+00
     -4.278  0.1586E+01  0.3026E+00
     -4.235  0.1702E+01  0.3753E+00
     -4.193  0.1773E+01  0.4510E+00
     -4.150  0.1824E+01  0.5289E+00
     -4.107  0.1895E+01  0.6098E+00
     -4.065  0.2019E+01  0.6960E+00
     -4.022  0.2211E+01  0.7904E+00
     -3.979  0.2460E+01  0.8954E+00
     -3.936  0.2729E+01  0.1012E+01
     -3.894  0.2967E+01  0.1139E+01
     -3.851  0.3127E+01  0.1272E+01
     -3.808  0.3185E+01  0.1408E+01
     -3.766  0.3153E+01  0.1543E+01
     -3.723  0.3078E+01  0.1674E+01
     -3.680  0.3021E+01  0.1803E+01
     -3.638  0.3036E+01  0.1933E+01
     -3.595  0.3149E+01  0.2067E+01
     -3.552  0.3348E+01  0.2210E+01
     -3.509  0.3588E+01  0.2364E+01
     -3.467  0.3814E+01  0.2526E+01
     -3.424  0.3985E+01  0.2697E+01
     -3.381  0.4085E+01  0.2871E+01
     -3.339  0.4127E+01  0.3047E+01
     -3.296  0.4138E+01  0.3224E+01
     -3.253  0.4151E+01  0.3401E+01
     -3.211  0.4192E+01  0.3580E+01
     -3.168  0.4277E+01  0.3763E+01
     -3.125  0.4410E+01  0.3951E+01
     -3.082  0.4583E+01  0.4147E+01
     -3.040  0.4779E+01  0.4351E+01
     -2.997  0.4974E+01  0.4563E+01
     -2.954  0.5141E+01  0.4783E+01
     -2.912  0.5263E+01  0.5007E+01
     -2.869  0.5339E+01  0.5235E+01
     -2.826  0.5387E+01  0.5465E+01
     -2.784  0.5441E+01  0.5698E+01
     -2.741  0.5523E+01  0.5934E+01
     -2.698  0.5628E+01  0.6174E+01
     -2.655  0.5708E+01  0.6418E+01
     -2.613  0.5702E+01  0.6661E+01
     -2.570  0.5592E+01  0.6900E+01
     -2.527  0.5441E+01  0.7132E+01
     -2.485  0.5374E+01  0.7362E+01
     -2.442  0.5522E+01  0.7597E+01
     -2.399  0.5935E+01  0.7851E+01
     -2.357  0.6538E+01  0.8130E+01
     -2.314  0.7149E+01  0.8435E+01
     -2.271  0.7560E+01  0.8758E+01
     -2.228  0.7643E+01  0.9084E+01
     -2.186  0.7418E+01  0.9401E+01
     -2.143  0.7055E+01  0.9702E+01
     -2.100  0.6785E+01  0.9992E+01
     -2.058  0.6790E+01  0.1028E+02
     -2.015  0.7114E+01  0.1059E+02
     -1.972  0.7657E+01  0.1091E+02
     -1.930  0.8236E+01  0.1126E+02
     -1.887  0.8670E+01  0.1163E+02
     -1.844  0.8864E+01  0.1201E+02
     -1.801  0.8846E+01  0.1239E+02
     -1.759  0.8738E+01  0.1276E+02
     -1.716  0.8676E+01  0.1313E+02
     -1.673  0.8737E+01  0.1351E+02
     -1.631  0.8914E+01  0.1389E+02
     -1.588  0.9157E+01  0.1428E+02
     -1.545  0.9425E+01  0.1468E+02
     -1.503  0.9704E+01  0.1510E+02
     -1.460  0.9988E+01  0.1552E+02
     -1.417  0.1025E+02  0.1596E+02
     -1.374  0.1042E+02  0.1641E+02
     -1.332  0.1052E+02  0.1685E+02
     -1.289  0.1062E+02  0.1731E+02
     -1.246  0.1095E+02  0.1778E+02
     -1.204  0.1167E+02  0.1827E+02
     -1.161  0.1278E+02  0.1882E+02
     -1.118  0.1403E+02  0.1942E+02
     -1.076  0.1504E+02  0.2006E+02
     -1.033  0.1554E+02  0.2072E+02
     -0.990  0.1556E+02  0.2139E+02
     -0.948  0.1545E+02  0.2205E+02
     -0.905  0.1564E+02  0.2272E+02
     -0.862  0.1642E+02  0.2342E+02
     -0.819  0.1784E+02  0.2418E+02
     -0.777  0.1976E+02  0.2502E+02
     -0.734  0.2213E+02  0.2597E+02
     -0.691  0.2509E+02  0.2704E+02
     -0.649  0.2885E+02  0.2827E+02
     -0.606  0.3342E+02  0.2970E+02
     -0.563  0.3839E+02  0.3134E+02
     -0.521  0.4309E+02  0.3318E+02
     -0.478  0.4693E+02  0.3518E+02
     -0.435  0.4974E+02  0.3731E+02
     -0.392  0.5176E+02  0.3952E+02
     -0.350  0.5337E+02  0.4179E+02
     -0.307  0.5476E+02  0.4413E+02
     -0.264  0.5591E+02  0.4652E+02
     -0.222  0.5665E+02  0.4894E+02
     -0.179  0.5692E+02  0.5137E+02
     -0.136  0.5683E+02  0.5380E+02
     -0.094  0.5666E+02  0.5622E+02
     -0.051  0.5671E+02  0.5864E+02
     -0.008  0.5726E+02  0.6108E+02
      0.035  0.5849E+02  0.6358E+02
      0.077  0.6046E+02  0.6616E+02
      0.120  0.6312E+02  0.6886E+02
      0.163  0.6634E+02  0.7169E+02
      0.205  0.6995E+02  0.7468E+02
      0.248  0.7369E+02  0.7782E+02
      0.291  0.7728E+02  0.8112E+02
      0.333  0.8042E+02  0.8456E+02
      0.376  0.8292E+02  0.8810E+02
      0.419  0.8481E+02  0.9172E+02
      0.462  0.8618E+02  0.9540E+02
      0.504  0.8709E+02  0.9912E+02
      0.547  0.8752E+02  0.1029E+03
      0.590  0.8742E+02  0.1066E+03
      0.632  0.8683E+02  0.1103E+03
      0.675  0.8585E+02  0.1140E+03
      0.718  0.8451E+02  0.1176E+03
      0.760  0.8282E+02  0.1211E+03
      0.803  0.8083E+02  0.1246E+03
      0.846  0.7878E+02  0.1279E+03
      0.889  0.7705E+02  0.1312E+03
      0.931  0.7598E+02  0.1345E+03
      0.974  0.7568E+02  0.1377E+03
      1.017  0.7591E+02  0.1409E+03
      1.059  0.7623E+02  0.1442E+03
      1.102  0.7625E+02  0.1474E+03
      1.145  0.7582E+02  0.1507E+03
      1.187  0.7504E+02  0.1539E+03
      1.230  0.7414E+02  0.1570E+03
      1.273  0.7335E+02  0.1602E+03
      1.316  0.7274E+02  0.1633E+03
      1.358  0.7218E+02  0.1664E+03
      1.401  0.7137E+02  0.1694E+03
      1.444  0.7012E+02  0.1724E+03
      1.486  0.6849E+02  0.1753E+03
      1.529  0.6692E+02  0.1782E+03
      1.572  0.6604E+02  0.1810E+03
      1.614  0.6636E+02  0.1838E+03
      1.657  0.6797E+02  0.1867E+03
      1.700  0.7057E+02  0.1898E+03
      1.743  0.7367E+02  0.1929E+03
      1.785  0.7684E+02  0.1962E+03
      1.828  0.7985E+02  0.1996E+03
      1.871  0.8259E+02  0.2031E+03
      1.913  0.8501E+02  0.2068E+03
      1.956  0.8710E+02  0.2105E+03
      1.999  0.8895E+02  0.2143E+03
      2.041  0.9063E+02  0.2181E+03
      2.084  0.9216E+02  0.2221E+03
      2.127  0.9347E+02  0.2261E+03
      2.170  0.9458E+02  0.2301E+03
      2.212  0.9567E+02  0.2342E+03
      2.255  0.9713E+02  0.2383E+03
      2.298  0.9936E+02  0.2426E+03
      2.340  0.1026E+03  0.2470E+03
      2.383  0.1067E+03  0.2515E+03
      2.426  0.1113E+03  0.2563E+03
      2.468  0.1156E+03  0.2612E+03
      2.511  0.1193E+03  0.2663E+03
      2.554  0.1221E+03  0.2715E+03
      2.597  0.1243E+03  0.2768E+03
      2.639  0.1262E+03  0.2822E+03
      2.682  0.1279E+03  0.2877E+03
      2.725  0.1298E+03  0.2932E+03
      2.767  0.1320E+03  0.2988E+03
      2.810  0.1347E+03  0.3046E+03
      2.853  0.1378E+03  0.3105E+03
      2.895  0.1407E+03  0.3165E+03
      2.938  0.1423E+03  0.3226E+03
      2.981  0.1417E+03  0.3286E+03
      3.024  0.1382E+03  0.3345E+03
      3.066  0.1319E+03  0.3402E+03
      3.109  0.1235E+03  0.3454E+03
      3.152  0.1143E+03  0.3503E+03
      3.194  0.1055E+03  0.3548E+03
      3.237  0.9816E+02  0.3590E+03
      3.280  0.9263E+02  0.3630E+03
      3.322  0.8894E+02  0.3668E+03
      3.365  0.8673E+02  0.3705E+03
      3.408  0.8555E+02  0.3741E+03
      3.451  0.8497E+02  0.3777E+03
      3.493  0.8459E+02  0.3814E+03
      3.536  0.8408E+02  0.3849E+03
      3.579  0.8340E+02  0.3885E+03
      3.621  0.8284E+02  0.3920E+03
      3.664  0.8300E+02  0.3956E+03
      3.707  0.8443E+02  0.3992E+03
      3.749  0.8732E+02  0.4029E+03
      3.792  0.9131E+02  0.4068E+03
      3.835  0.9573E+02  0.4109E+03
      3.878  0.9990E+02  0.4152E+03
      3.920  0.1034E+03  0.4196E+03
      3.963  0.1061E+03  0.4241E+03
      4.006  0.1079E+03  0.4287E+03
      4.048  0.1089E+03  0.4334E+03
      4.091  0.1091E+03  0.4380E+03
      4.134  0.1086E+03  0.4427E+03
      4.176  0.1077E+03  0.4473E+03
      4.219  0.1065E+03  0.4518E+03
      4.262  0.1052E+03  0.4563E+03
      4.305  0.1039E+03  0.4607E+03
      4.347  0.1027E+03  0.4651E+03
      4.390  0.1019E+03  0.4695E+03
      4.433  0.1012E+03  0.4738E+03
      4.475  0.1006E+03  0.4781E+03
      4.518  0.9970E+02  0.4824E+03
      4.561  0.9856E+02  0.4866E+03
      4.603  0.9748E+02  0.4907E+03
      4.646  0.9691E+02  0.4949E+03
      4.689  0.9723E+02  0.4990E+03
      4.732  0.9859E+02  0.5032E+03
      4.774  0.1008E+03  0.5075E+03
      4.817  0.1036E+03  0.5120E+03
      4.860  0.1063E+03  0.5165E+03
      4.902  0.1084E+03  0.5211E+03
      4.945  0.1097E+03  0.5258E+03
      4.988  0.1096E+03  0.5305E+03
      5.030  0.1075E+03  0.5351E+03
      5.073  0.1025E+03  0.5395E+03
      5.116  0.9363E+02  0.5434E+03
      5.159  0.8052E+02  0.5469E+03
      5.201  0.6415E+02  0.5496E+03
      5.244  0.4668E+02  0.5516E+03
      5.287  0.3067E+02  0.5529E+03
      5.329  0.1803E+02  0.5537E+03
      5.372  0.9412E+01  0.5541E+03
      5.415  0.4342E+01  0.5543E+03
      5.457  0.1763E+01  0.5544E+03
      5.500  0.6278E+00  0.5544E+03
      5.543  0.1956E+00  0.5544E+03
      5.586  0.5322E-01  0.5544E+03
      5.628  0.1263E-01  0.5544E+03
      5.671  0.2608E-02  0.5544E+03
      5.714  0.4689E-03  0.5544E+03
      5.756  0.7327E-04  0.5544E+03
      5.799  0.9947E-05  0.5544E+03
      5.842  0.1172E-05  0.5544E+03
      5.884  0.1199E-06  0.5544E+03
      5.927  0.1063E-07  0.5544E+03
      5.970  0.8159E-09  0.5544E+03
      6.013  0.5421E-10  0.5544E+03
      6.055  0.3112E-11  0.5544E+03
      6.098  0.1537E-12  0.5544E+03
      6.141  0.5850E-14  0.5544E+03
      6.183  0.1300E-15  0.5544E+03
      6.226  0.0000E+00  0.5544E+03
      6.269  0.0000E+00  0.5544E+03
      6.311  0.0000E+00  0.5544E+03
      6.354  0.0000E+00  0.5544E+03
      6.397  0.0000E+00  0.5544E+03
      6.440  0.0000E+00  0.5544E+03
      6.482  0.0000E+00  0.5544E+03
      6.525  0.0000E+00  0.5544E+03
      6.568  0.0000E+00  0.5544E+03
      6.610  0.0000E+00  0.5544E+03
      6.653  0.0000E+00  0.5544E+03
      6.696  0.0000E+00  0.5544E+03
      6.738  0.0000E+00  0.5544E+03
      6.781  0.0000E+00  0.5544E+03
