unknown system                          
           1
     9.726678    0.000000    0.000000
     0.000000    8.423550    0.000000
     0.000000    0.000000   45.000000
   Fe   Mn
 281   7
Direct configuration=     1
   0.05804402  0.70756584  0.21150506
   0.31394885  0.71866955  0.87598627
   0.68787358  0.95826415  0.61110830
   0.43935885  0.45760427  0.61143780
   0.44087561  0.28904100  0.25562996
   0.06034114  0.38522557  0.83315157
   0.30855258  0.88567493  0.83317516
   0.44812337  0.62571999  0.70001502
   0.06112622  0.21113390  0.74464478
   0.18336364  0.45624618  0.21133305
   0.56736950  0.20994064  0.47751070
   0.06398603  0.87504476  0.56672155
   0.56385092  0.21882616  0.87581174
   0.81101357  0.53853066  0.12428305
   0.43298102  0.95643727  0.21130640
   0.56555153  0.37491002  0.56686633
   0.81227763  0.04147334  0.38873410
   0.68359161  0.79113919  0.52208705
   0.44259760  0.45954304  0.47752074
   0.43514272  0.96084305  0.74413958
   0.43891620  0.62503995  0.56671176
   0.06111443  0.53850621  0.12433026
   0.31092385  0.03778219  0.12431016
   0.68924853  0.95599197  0.34444400
   0.68570798  0.78298473  0.12422331
   0.05367093  0.37247207  0.30008227
   0.68845363  0.45997048  0.87583922
   0.43349114  0.45634941  0.21125159
   0.80697582  0.37514329  0.43321386
   0.82362193  0.37602657  0.69996411
   0.55978346  0.54031587  0.65578088
   0.93201269  0.12487113  0.43322903
   0.56593680  0.53903449  0.25579809
   0.68978021  0.45603725  0.34453926
   0.18802687  0.61687209  0.16657722
   0.19351108  0.79417930  0.78848277
   0.44866292  0.12604586  0.70004763
   0.92889785  0.62253758  0.29991085
   0.31484024  0.21795189  0.87598056
   0.31382637  0.87472121  0.56670588
   0.81458990  0.21889259  0.87588493
   0.80978343  0.54166064  0.65560886
   0.56139550  0.53848191  0.12429851
   0.56290873  0.86708688  0.16671440
   0.19070910  0.28908103  0.25580941
   0.80767568  0.87471145  0.43318340
   0.57374481  0.37567822  0.69993708
   0.06091167  0.03815916  0.12425704
   0.30972921  0.54094743  0.65576134
   0.56537386  0.20579411  0.34447603
   0.18806820  0.95760382  0.61113746
   0.30309500  0.37320885  0.29997950
   0.43390345  0.79116029  0.65557762
   0.68558135  0.46086176  0.74428278
   0.06329289  0.36725790  0.16650643
   0.69864814  0.62563798  0.70003086
   0.31233269  0.54188205  0.38877782
   0.06749687  0.71996436  0.87570098
   0.93444116  0.63728307  0.83375134
   0.31821857  0.54418126  0.78850435
   0.30811746  0.20750865  0.21147519
   0.06728841  0.70921418  0.47760475
   0.55792957  0.20765450  0.21153957
   0.31175898  0.21061187  0.74433621
   0.07386225  0.37571458  0.70004538
   0.18595440  0.63436392  0.83300753
   0.06819832  0.04414639  0.78839820
   0.44010902  0.12498375  0.56678032
   0.93447974  0.29167399  0.65551479
   0.80814256  0.20755447  0.21142870
   0.93346325  0.95656264  0.21125544
   0.93820066  0.62529737  0.56670646
   0.80881405  0.38639143  0.83355825
   0.19895928  0.62629290  0.69998481
   0.57316141  0.87550108  0.70014206
   0.68510771  0.29117361  0.65568065
   0.31339370  0.20778302  0.61125488
   0.43587716  0.46044674  0.74435022
   0.43776001  0.79166883  0.38898710
   0.68521638  0.96010523  0.74414083
   0.80783557  0.70739329  0.21145822
   0.81328504  0.70806258  0.61127385
   0.43583273  0.78352415  0.12415702
   0.31005876  0.71079958  0.74403561
   0.31835529  0.04313200  0.78857411
   0.81232663  0.54135482  0.38875054
   0.68331758  0.29089568  0.52234539
   0.69272165  0.79552298  0.78842628
   0.19076404  0.78913557  0.25563054
   0.68807126  0.11721616  0.16673226
   0.69276352  0.96023166  0.47772364
   0.93924338  0.95533278  0.34442678
   0.80760066  0.04045872  0.52220729
   0.68210033  0.62529084  0.43321946
   0.43977687  0.45633108  0.34448430
   0.81088022  0.21120698  0.74463091
   0.43672612  0.96160517  0.87583254
   0.56427225  0.87505618  0.56679194
   0.81081196  0.03796859  0.12437815
   0.42954809  0.62260006  0.29977716
   0.56145158  0.20982913  0.74482137
   0.68819697  0.45821658  0.61139647
   0.55881114  0.38430581  0.83311934
   0.80417611  0.37184138  0.29993899
   0.18728314  0.29120265  0.38873241
   0.81911990  0.54614026  0.78853829
   0.18322535  0.79070623  0.52224782
   0.30298533  0.87258429  0.29999866
   0.18354092  0.95645182  0.21123713
   0.18499256  0.46083983  0.74432116
   0.43275664  0.29083203  0.52225219
   0.06472246  0.70558476  0.34445025
   0.18410476  0.79130549  0.65570114
   0.44294194  0.79475352  0.78853347
   0.68190542  0.12540547  0.43314587
   0.93281956  0.79067460  0.52225221
   0.68803785  0.61735040  0.16665112
   0.81463386  0.70488091  0.34437913
   0.93533764  0.46029235  0.74414294
   0.18942098  0.45536272  0.34448766
   0.56681891  0.54418853  0.78873095
   0.56318537  0.36722810  0.16657406
   0.56473345  0.70523769  0.34438739
   0.55425390  0.37173415  0.29985323
   0.18975095  0.46249632  0.87593096
   0.18840130  0.11681789  0.16681709
   0.44308790  0.29464662  0.78842610
   0.69079453  0.78862719  0.25549219
   0.93334127  0.13619318  0.83338876
   0.44269836  0.96005845  0.47765264
   0.56280220  0.71779691  0.87581162
   0.19254155  0.46015650  0.47748891
   0.93578498  0.28281695  0.12420943
   0.31236641  0.04199461  0.38876829
   0.05947651  0.04133856  0.65576264
   0.55692394  0.37481757  0.43321751
   0.93191532  0.62507389  0.43320760
   0.31309755  0.36714265  0.16660996
   0.94832577  0.12602365  0.69993474
   0.55943485  0.04129019  0.65558723
   0.55803177  0.54097882  0.52244563
   0.17879730  0.12244077  0.29995409
   0.43817055  0.11736148  0.16680602
   0.67884282  0.62275812  0.29991649
   0.92871706  0.12248567  0.29994303
   0.81361927  0.37445483  0.56669370
   0.05355588  0.87273463  0.30001402
   0.18806178  0.62475966  0.56664497
   0.94315338  0.79442806  0.78852472
   0.30924849  0.38424787  0.83363126
   0.93769533  0.46084572  0.87574976
   0.43524322  0.63431196  0.83293791
   0.06487885  0.20578682  0.34458880
   0.18982713  0.96140721  0.87590372
   0.93559664  0.78315713  0.12421226
   0.68733487  0.79180329  0.38894809
   0.93397336  0.79131421  0.65571074
   0.93791767  0.11711152  0.16675034
   0.43444145  0.29143233  0.65578157
   0.05820943  0.20726420  0.21143935
   0.68344041  0.95650437  0.21125359
   0.56305951  0.70795372  0.61128713
   0.82337066  0.87569474  0.69995388
   0.94843666  0.62611501  0.70007393
   0.19885658  0.12592378  0.70001075
   0.94265897  0.46035218  0.47746202
   0.81329265  0.20768236  0.61128679
   0.18149996  0.62515315  0.43310775
   0.42865361  0.12280125  0.30003805
   0.67880214  0.12279239  0.29992953
   0.56255759  0.54122960  0.38866153
   0.81474960  0.20592646  0.34453724
   0.43833130  0.46063495  0.87588157
   0.56120363  0.88395953  0.83353395
   0.31787731  0.20991679  0.47762357
   0.19290554  0.96018284  0.47767627
   0.05934008  0.88358573  0.83328644
   0.05827904  0.54106748  0.52244037
   0.94249823  0.96037573  0.47767732
   0.06313693  0.70765710  0.61116756
   0.55777331  0.04075949  0.52227583
   0.69343971  0.29488653  0.78839322
   0.81318438  0.36727190  0.16663561
   0.43215509  0.12544745  0.43312756
   0.06754607  0.20994736  0.47770106
   0.30903044  0.04110466  0.65573834
   0.43262755  0.79023542  0.52203438
   0.18387857  0.13680041  0.83325066
   0.18561214  0.28325658  0.12421400
   0.93982188  0.45593762  0.34449438
   0.31304892  0.86706142  0.16661402
   0.30800325  0.70743915  0.21148050
   0.93811479  0.61682717  0.16665365
   0.18878382  0.45881435  0.61136217
   0.07301537  0.87610545  0.69987791
   0.05959701  0.54110003  0.65566356
   0.31051516  0.53829031  0.12436373
   0.93727221  0.79194848  0.38891842
   0.94414965  0.29618021  0.78829241
   0.18489878  0.29092554  0.65569707
   0.93816966  0.95744483  0.61124248
   0.81105575  0.71006902  0.74425452
   0.69046788  0.28902996  0.25566372
   0.06024640  0.71145458  0.74458759
   0.68342013  0.45638184  0.21129821
   0.81777673  0.20970287  0.47746860
   0.56740207  0.70994522  0.47766177
   0.06342278  0.86683346  0.16647743
   0.93306372  0.29153447  0.52229025
   0.68415025  0.79099955  0.65564893
   0.05784717  0.87509027  0.43319929
   0.06583419  0.21860215  0.87587458
   0.80921503  0.04119523  0.65572687
   0.56047536  0.03839965  0.12437890
   0.30764554  0.37506120  0.43329414
   0.31460692  0.37469691  0.56671425
   0.31729756  0.70971834  0.47755645
   0.05755570  0.04027523  0.52227679
   0.32335638  0.87626488  0.69988126
   0.06681044  0.53862499  0.25552782
   0.68512786  0.13552445  0.83369334
   0.81653062  0.03861909  0.25558196
   0.18205226  0.12508267  0.43311181
   0.69887363  0.12607889  0.70002437
   0.18330878  0.29093122  0.52232358
   0.44035800  0.78885105  0.25549568
   0.81640485  0.53867365  0.25572597
   0.06295497  0.20760239  0.61112016
   0.18765570  0.79139181  0.38874292
   0.30863612  0.54092116  0.52246792
   0.81321767  0.86696987  0.16659179
   0.68768379  0.29148677  0.38874558
   0.18989936  0.12541961  0.56691017
   0.68688424  0.96166357  0.87597629
   0.68937316  0.12519997  0.56671728
   0.43956303  0.95544031  0.34450032
   0.18491592  0.96135335  0.74449677
   0.94031011  0.78832385  0.25559026
   0.55791707  0.87489254  0.43312076
   0.30794517  0.87496378  0.43325143
   0.80857030  0.54101443  0.52241143
   0.93322673  0.45659681  0.21133929
   0.31685470  0.53866354  0.25551937
   0.56229018  0.04145462  0.38872849
   0.93892915  0.45949235  0.61144920
   0.06244607  0.04178439  0.38892690
   0.06228496  0.54225630  0.38881368
   0.43745865  0.29183640  0.38869865
   0.69275758  0.45990573  0.47751513
   0.06487352  0.37420782  0.56671634
   0.55795720  0.70790806  0.21151329
   0.94068544  0.28888192  0.25568126
   0.81831796  0.04655877  0.78839594
   0.18936137  0.95502043  0.34435915
   0.55317104  0.87296080  0.30002707
   0.05717922  0.37488779  0.43327927
   0.31482817  0.70535648  0.34447691
   0.31532635  0.20621108  0.34448448
   0.94045665  0.12572649  0.56688302
   0.43861940  0.95753380  0.61118159
   0.56627559  0.03872055  0.25560685
   0.18559849  0.78353047  0.12415461
   0.06626004  0.03872479  0.25576180
   0.68841937  0.62495804  0.56664607
   0.43828783  0.61728496  0.16667979
   0.30732065  0.04033220  0.52224114
   0.68578062  0.28297595  0.12415596
   0.81704763  0.70949822  0.47746606
   0.43389461  0.13517606  0.83345595
   0.32351112  0.37477089  0.70003025
   0.68517305  0.63704643  0.83370475
   0.56068105  0.71172551  0.74425152
   0.93746117  0.29149996  0.38872856
   0.94016866  0.96189927  0.87586667
   0.93538700  0.96085194  0.74428300
   0.81392260  0.87452683  0.56671260
   0.80347842  0.87294942  0.30002322
   0.31603461  0.03896839  0.25583759
   0.43572103  0.28295560  0.12424844
   0.31307645  0.70789985  0.61141929
   0.43179989  0.62533739  0.43310846
   0.19317964  0.29371253  0.78820379
   0.56941074  0.04500650  0.78834313
   0.06834320  0.54379207  0.78826972
   0.80898525  0.88400834  0.83437388
   0.81504548  0.71986219  0.87560799
   0.56379894  0.20686946  0.61120617
   0.17861700  0.62302487  0.29990865
Direct configuration=     2
   0.05830025  0.70725424  0.21150419
   0.31403171  0.71803095  0.87590100
   0.68794015  0.95820162  0.61113059
   0.43914232  0.45762164  0.61140687
   0.44033224  0.28894826  0.25565391
   0.06054287  0.38506533  0.83327368
   0.30898903  0.88527822  0.83326624
   0.44740746  0.62574006  0.70002766
   0.06153943  0.21113189  0.74460139
   0.18360390  0.45612916  0.21133924
   0.56684778  0.20979556  0.47756125
   0.06383071  0.87497334  0.56670377
   0.56376819  0.21822533  0.87579162
   0.81102919  0.53801697  0.12433338
   0.43323884  0.95631232  0.21132966
   0.56514078  0.37490100  0.56683777
   0.81221569  0.04143747  0.38873717
   0.68387728  0.79122211  0.52209551
   0.44203811  0.45950807  0.47757163
   0.43571475  0.96087037  0.74417262
   0.43873377  0.62504104  0.56671228
   0.06114015  0.53797606  0.12436094
   0.31096503  0.03743544  0.12436536
   0.68891322  0.95604011  0.34445133
   0.68571967  0.78348128  0.12425984
   0.05441409  0.37251080  0.30007456
   0.68822553  0.46092691  0.87576364
   0.43371208  0.45618631  0.21126343
   0.80751247  0.37511007  0.43322967
   0.82275847  0.37599963  0.69995923
   0.56025449  0.54044605  0.65573112
   0.93250814  0.12488543  0.43323897
   0.56548122  0.53895179  0.25577978
   0.68936997  0.45609563  0.34451835
   0.18795820  0.61711558  0.16656013
   0.19323341  0.79426335  0.78843884
   0.44795757  0.12596542  0.70004048
   0.92955796  0.62259190  0.29991964
   0.31458019  0.21749282  0.87593196
   0.31369789  0.87469354  0.56669460
   0.81457465  0.21818414  0.87584234
   0.81030074  0.54160506  0.65558814
   0.56134540  0.53797609  0.12434694
   0.56285874  0.86730036  0.16667518
   0.19018170  0.28899323  0.25580586
   0.80808304  0.87474168  0.43319805
   0.57291999  0.37572445  0.69995657
   0.06094664  0.03774878  0.12432029
   0.31016885  0.54097808  0.65570741
   0.56484996  0.20588238  0.34447093
   0.18810884  0.95766094  0.61115552
   0.30395494  0.37321287  0.29998409
   0.43448083  0.79110698  0.65554620
   0.68602217  0.46092819  0.74429470
   0.06317700  0.36739428  0.16649903
   0.69783972  0.62571491  0.70003423
   0.31225260  0.54174158  0.38877665
   0.06704224  0.71921113  0.87566266
   0.93476589  0.63672233  0.83374746
   0.31800163  0.54447008  0.78849365
   0.30834601  0.20722113  0.21149647
   0.06676064  0.70923537  0.47763848
   0.55820689  0.20731427  0.21153888
   0.31211367  0.21075196  0.74432625
   0.07299180  0.37576811  0.70004224
   0.18601885  0.63405925  0.83307735
   0.06787907  0.04438363  0.78842039
   0.43976488  0.12496419  0.56675910
   0.93502164  0.29161344  0.65549445
   0.80839690  0.20724896  0.21144905
   0.93367272  0.95637518  0.21128606
   0.93820254  0.62522808  0.56670376
   0.80925053  0.38604384  0.83360299
   0.19804198  0.62629243  0.69997925
   0.57241402  0.87547969  0.70012711
   0.68553700  0.29120797  0.65564794
   0.31331732  0.20779055  0.61126181
   0.43634146  0.46055114  0.74434253
   0.43764655  0.79161197  0.38895132
   0.68580267  0.96021483  0.74417308
   0.80813358  0.70706016  0.21147285
   0.81327779  0.70802476  0.61126970
   0.43585755  0.78388554  0.12420466
   0.31065227  0.71089926  0.74409136
   0.31804907  0.04351028  0.78857610
   0.81223212  0.54135254  0.38875195
   0.68370924  0.29099135  0.52230704
   0.69248218  0.79545728  0.78842898
   0.19022547  0.78903304  0.25564448
   0.68800369  0.11743459  0.16667981
   0.69218178  0.96009430  0.47773981
   0.93886551  0.95551731  0.34444369
   0.80816003  0.04063981  0.52218416
   0.68253053  0.62520101  0.43323100
   0.43933528  0.45635798  0.34447111
   0.81131057  0.21113691  0.74456918
   0.43692624  0.96231342  0.87574941
   0.56404477  0.87499838  0.56676799
   0.81086223  0.03757602  0.12441532
   0.43016734  0.62265368  0.29980689
   0.56181907  0.21000903  0.74475046
   0.68823653  0.45819816  0.61136992
   0.55905467  0.38420190  0.83320408
   0.80479702  0.37197588  0.29994961
   0.18723574  0.29118882  0.38875274
   0.81869401  0.54621618  0.78855448
   0.18359003  0.79084197  0.52222660
   0.30385570  0.87257985  0.30000791
   0.18370402  0.95634941  0.21125965
   0.18556517  0.46089501  0.74431249
   0.43328210  0.29094075  0.52223297
   0.06435228  0.70571570  0.34445342
   0.18465094  0.79129527  0.65565821
   0.44277965  0.79480976  0.78850631
   0.68242519  0.12533101  0.43317045
   0.93326296  0.79081153  0.52223283
   0.68795850  0.61751784  0.16660860
   0.81425821  0.70521323  0.34439663
   0.93585434  0.46044132  0.74416979
   0.18906730  0.45552123  0.34448835
   0.56676631  0.54450936  0.78867762
   0.56309973  0.36741735  0.16655466
   0.56435690  0.70551532  0.34439762
   0.55481880  0.37190499  0.29987861
   0.18937846  0.46303574  0.87584347
   0.18823873  0.11704439  0.16675757
   0.44284251  0.29466322  0.78843452
   0.69026304  0.78862129  0.25554764
   0.93376588  0.13579722  0.83341807
   0.44210626  0.95991942  0.47767137
   0.56284385  0.71728725  0.87578049
   0.19197977  0.45998671  0.47755066
   0.93580873  0.28331318  0.12424602
   0.31225752  0.04184841  0.38876188
   0.05996466  0.04133489  0.65570084
   0.55747596  0.37487367  0.43322867
   0.93241238  0.62506403  0.43321724
   0.31302377  0.36733467  0.16658469
   0.94750453  0.12600874  0.69993847
   0.55991841  0.04130827  0.65557491
   0.55844377  0.54109880  0.52238469
   0.17950850  0.12251358  0.29996171
   0.43808229  0.11754126  0.16674344
   0.67954080  0.62278159  0.29992777
   0.92934844  0.12251831  0.29994391
   0.81358840  0.37454512  0.56669875
   0.05423558  0.87274029  0.30000640
   0.18808350  0.62478392  0.56666173
   0.94275428  0.79448891  0.78850512
   0.30943784  0.38402891  0.83365776
   0.93789449  0.46167522  0.87568419
   0.43534391  0.63407481  0.83303845
   0.06447118  0.20581874  0.34457197
   0.18955090  0.96215151  0.87581768
   0.93563739  0.78362226  0.12424016
   0.68726694  0.79171321  0.38890764
   0.93452989  0.79130799  0.65566728
   0.93789037  0.11733090  0.16669476
   0.43494820  0.29139041  0.65573144
   0.05842153  0.20700131  0.21145349
   0.68363438  0.95636162  0.21128917
   0.56304406  0.70794234  0.61128136
   0.82260930  0.87570245  0.69995253
   0.94773363  0.62611094  0.70006335
   0.19801776  0.12592511  0.70001783
   0.94207081  0.46013401  0.47752954
   0.81336852  0.20771614  0.61128027
   0.18208942  0.62510559  0.43313583
   0.42947274  0.12281146  0.30002918
   0.67951935  0.12274041  0.29993046
   0.56242750  0.54122892  0.38867428
   0.81438426  0.20596818  0.34452889
   0.43835308  0.46152788  0.87579074
   0.56112448  0.88385411  0.83360180
   0.31724221  0.20978787  0.47765627
   0.19228046  0.96001145  0.47770626
   0.05957862  0.88352270  0.83336279
   0.05862243  0.54110168  0.52238999
   0.94198396  0.96017882  0.47770673
   0.06311930  0.70770657  0.61117452
   0.55825177  0.04090016  0.52225136
   0.69311025  0.29499800  0.78841777
   0.81309184  0.36746087  0.16661707
   0.43261793  0.12535374  0.43315330
   0.06697879  0.20981712  0.47771744
   0.30966297  0.04115195  0.65566557
   0.43311456  0.79046531  0.52205567
   0.18429090  0.13636705  0.83329169
   0.18567138  0.28368512  0.12424565
   0.93940205  0.45599345  0.34449555
   0.31297454  0.86727050  0.16658295
   0.30824640  0.70711114  0.21148269
   0.93804239  0.61709899  0.16661568
   0.18869130  0.45868017  0.61134652
   0.07228095  0.87613467  0.69990648
   0.06010781  0.54109631  0.65562784
   0.31065528  0.53783824  0.12439297
   0.93717733  0.79186868  0.38890080
   0.94364495  0.29608929  0.78833267
   0.18532718  0.29102150  0.65565095
   0.93817368  0.95753051  0.61124511
   0.81148067  0.71028868  0.74426953
   0.69000942  0.28893045  0.25567502
   0.06079374  0.71145786  0.74453584
   0.68362955  0.45624414  0.21131864
   0.81715534  0.20961836  0.47752816
   0.56684951  0.70975401  0.47769058
   0.06327175  0.86710226  0.16647295
   0.93349218  0.29151688  0.52226959
   0.68465504  0.79105605  0.65561352
   0.05820026  0.87506463  0.43322201
   0.06556862  0.21816215  0.87583158
   0.80974188  0.04122918  0.65568437
   0.56058182  0.03794241  0.12441939
   0.30801824  0.37506863  0.43329855
   0.31442250  0.37474542  0.56672187
   0.31674293  0.70960981  0.47758941
   0.05806618  0.04051415  0.52225820
   0.32254240  0.87617358  0.69988392
   0.06614430  0.53867263  0.25556573
   0.68528852  0.13527427  0.83365889
   0.81589877  0.03863772  0.25560395
   0.18252528  0.12507139  0.43314370
   0.69804286  0.12605886  0.70003215
   0.18370297  0.29099869  0.52229673
   0.43985313  0.78881260  0.25554568
   0.81580146  0.53864215  0.25571367
   0.06302882  0.20771599  0.61114503
   0.18754855  0.79139377  0.38874375
   0.30895267  0.54098233  0.52241389
   0.81312644  0.86718542  0.16657553
   0.68755609  0.29145375  0.38874903
   0.18961011  0.12529204  0.56686790
   0.68687651  0.96238264  0.87596169
   0.68921815  0.12515651  0.56670254
   0.43915797  0.95560495  0.34449858
   0.18547452  0.96131846  0.74445437
   0.93987645  0.78837482  0.25561763
   0.55824670  0.87492167  0.43314782
   0.30827075  0.87497854  0.43326608
   0.80887212  0.54104774  0.52236209
   0.93343221  0.45636499  0.21134197
   0.31617737  0.53866497  0.25554102
   0.56219293  0.04140835  0.38873019
   0.93881413  0.45924422  0.61141117
   0.06231340  0.04162784  0.38889706
   0.06220683  0.54204291  0.38880761
   0.43735800  0.29173410  0.38870400
   0.69212374  0.45977729  0.47757052
   0.06460922  0.37433083  0.56672169
   0.55823418  0.70750768  0.21151408
   0.94014998  0.28881761  0.25569270
   0.81802779  0.04649498  0.78840640
   0.18899500  0.95526845  0.34438008
   0.55393864  0.87297712  0.30001925
   0.05767461  0.37488540  0.43328485
   0.31445172  0.70555582  0.34447891
   0.31482274  0.20621588  0.34448093
   0.94004267  0.12555405  0.56684492
   0.43849128  0.95760043  0.61119124
   0.56570628  0.03871926  0.25562622
   0.18566962  0.78392522  0.12418940
   0.06566747  0.03875922  0.25574848
   0.68835092  0.62498593  0.56665838
   0.43818971  0.61746873  0.16662860
   0.30787122  0.04052428  0.52222913
   0.68579250  0.28343660  0.12419803
   0.81655818  0.70944619  0.47752302
   0.43429584  0.13484622  0.83348613
   0.32274609  0.37497638  0.70003113
   0.68544186  0.63656570  0.83369912
   0.56118251  0.71162570  0.74427304
   0.93739102  0.29144673  0.38873481
   0.94002201  0.96271348  0.87581723
   0.93586279  0.96088267  0.74427331
   0.81382793  0.87462492  0.56669292
   0.80418762  0.87294702  0.30001602
   0.31549583  0.03898660  0.25582409
   0.43574721  0.28341541  0.12428484
   0.31300316  0.70783162  0.61139309
   0.43231129  0.62524888  0.43314509
   0.19305754  0.29369472  0.78821362
   0.56900764  0.04505302  0.78833537
   0.06804016  0.54419491  0.78826400
   0.80915076  0.88399565  0.83432721
   0.81486187  0.71915673  0.87566546
   0.56367688  0.20703401  0.61121075
   0.17926007  0.62298549  0.29991378
Direct configuration=     3
   0.05906894  0.70631945  0.21150155
   0.31428032  0.71611513  0.87564517
   0.68813985  0.95801403  0.61119743
   0.43849272  0.45767374  0.61131409
   0.43870212  0.28867004  0.25572576
   0.06114804  0.38458461  0.83363999
   0.31029839  0.88408810  0.83353947
   0.44525973  0.62580026  0.70006561
   0.06277906  0.21112589  0.74447124
   0.18432468  0.45577811  0.21135780
   0.56528263  0.20936031  0.47771289
   0.06336477  0.87475907  0.56665044
   0.56351999  0.21642283  0.87573128
   0.81107603  0.53647590  0.12448439
   0.43401233  0.95593748  0.21139944
   0.56390854  0.37487395  0.56675208
   0.81202986  0.04132986  0.38874637
   0.68473431  0.79147087  0.52212089
   0.44035963  0.45940318  0.47772431
   0.43743084  0.96095235  0.74427172
   0.43818646  0.62504431  0.56671387
   0.06121730  0.53638561  0.12445298
   0.31108856  0.03639519  0.12453096
   0.68790728  0.95618454  0.34447330
   0.68575473  0.78497095  0.12436945
   0.05664356  0.37262699  0.30005143
   0.68754125  0.46379620  0.87553690
   0.43437488  0.45569702  0.21129896
   0.80912242  0.37501041  0.43327707
   0.82016808  0.37591882  0.69994458
   0.56166757  0.54083659  0.65558183
   0.93399449  0.12492834  0.43326879
   0.56411451  0.53870369  0.25572485
   0.68813926  0.45627078  0.34445561
   0.18775221  0.61784602  0.16650885
   0.19240038  0.79451550  0.78830707
   0.44584149  0.12572409  0.70001903
   0.93153829  0.62275487  0.29994602
   0.31380006  0.21611562  0.87578615
   0.31331244  0.87461054  0.56666075
   0.81452890  0.21605879  0.87571458
   0.81185264  0.54143831  0.65552599
   0.56119513  0.53645861  0.12449223
   0.56270878  0.86794080  0.16655751
   0.18859953  0.28872983  0.25579521
   0.80930513  0.87483236  0.43324199
   0.57044555  0.37586311  0.70001506
   0.06105154  0.03651764  0.12451005
   0.31148778  0.54107003  0.65554562
   0.56327825  0.20614718  0.34445566
   0.18823075  0.95783229  0.61120971
   0.30653476  0.37322495  0.29999786
   0.43621298  0.79094703  0.65545196
   0.68734462  0.46112749  0.74433045
   0.06282933  0.36780342  0.16647682
   0.69541449  0.62594572  0.70004437
   0.31201233  0.54132018  0.38877317
   0.06567835  0.71695143  0.87554771
   0.93574007  0.63504009  0.83373579
   0.31735080  0.54533655  0.78846156
   0.30903163  0.20635857  0.21156032
   0.06517734  0.70929897  0.47773970
   0.55903887  0.20629357  0.21153682
   0.31317774  0.21117222  0.74429636
   0.07038044  0.37592869  0.70003281
   0.18621221  0.63314523  0.83328681
   0.06692129  0.04509535  0.78848697
   0.43873245  0.12490550  0.56669544
   0.93664734  0.29143178  0.65543345
   0.80915994  0.20633243  0.21151009
   0.93430113  0.95581279  0.21137792
   0.93820820  0.62502021  0.56669566
   0.81055996  0.38500110  0.83373722
   0.19529010  0.62629102  0.69996257
   0.57017187  0.87541551  0.70008228
   0.68682487  0.29131106  0.65554983
   0.31308815  0.20781312  0.61128257
   0.43773434  0.46086434  0.74431945
   0.43730616  0.79144142  0.38884398
   0.68756154  0.96054364  0.74426984
   0.80902760  0.70606080  0.21151676
   0.81325603  0.70791133  0.61125725
   0.43593200  0.78496973  0.12434759
   0.31243280  0.71119830  0.74425862
   0.31713040  0.04464514  0.78858207
   0.81194861  0.54134569  0.38875617
   0.68488424  0.29127836  0.52219199
   0.69176377  0.79526019  0.78843708
   0.18860976  0.78872546  0.25568629
   0.68780096  0.11808989  0.16652246
   0.69043654  0.95968221  0.47778832
   0.93773191  0.95607091  0.34449443
   0.80983817  0.04118309  0.52211476
   0.68382111  0.62493151  0.43326563
   0.43801052  0.45643866  0.34443151
   0.81260161  0.21092670  0.74438398
   0.43752660  0.96443817  0.87550002
   0.56336234  0.87482496  0.56669613
   0.81101304  0.03639832  0.12452683
   0.43202508  0.62281454  0.29989610
   0.56292152  0.21054873  0.74453774
   0.68835520  0.45814289  0.61129028
   0.55978527  0.38389015  0.83345830
   0.80665974  0.37237937  0.29998148
   0.18709354  0.29114734  0.38881370
   0.81741633  0.54644393  0.78860303
   0.18468408  0.79124920  0.52216295
   0.30646680  0.87256652  0.30003565
   0.18419332  0.95604217  0.21132723
   0.18728297  0.46106055  0.74428650
   0.43485846  0.29126691  0.52217530
   0.06324173  0.70610850  0.34446292
   0.18628951  0.79126459  0.65552942
   0.44229279  0.79497849  0.78842483
   0.68398452  0.12510763  0.43324418
   0.93459316  0.79122232  0.52217469
   0.68772046  0.61802016  0.16648104
   0.81313126  0.70621017  0.34444911
   0.93740445  0.46088823  0.74425035
   0.18800627  0.45599675  0.34449040
   0.56660850  0.54547185  0.78851762
   0.56284280  0.36798510  0.16649644
   0.56322724  0.70634822  0.34442833
   0.55651351  0.37241752  0.29995474
   0.18826099  0.46465400  0.87558099
   0.18775102  0.11772389  0.16657903
   0.44210633  0.29471302  0.78845980
   0.68866856  0.78860361  0.25571401
   0.93503970  0.13460936  0.83350599
   0.44032996  0.95950234  0.47772754
   0.56296879  0.71575829  0.87568709
   0.19029440  0.45947734  0.47773591
   0.93587995  0.28480190  0.12435578
   0.31193086  0.04140982  0.38874265
   0.06142912  0.04132388  0.65551546
   0.55913201  0.37504198  0.43326218
   0.93390359  0.62503444  0.43324617
   0.31280242  0.36791074  0.16650888
   0.94504079  0.12596399  0.69994967
   0.56136909  0.04136252  0.65553794
   0.55967974  0.54145874  0.52220189
   0.18164209  0.12273201  0.29998456
   0.43781751  0.11808061  0.16655571
   0.68163476  0.62285198  0.29996162
   0.93124256  0.12261623  0.29994653
   0.81349579  0.37481600  0.56671390
   0.05627469  0.87275727  0.29998356
   0.18814868  0.62485669  0.56671200
   0.94155698  0.79467147  0.78844631
   0.31000588  0.38337200  0.83373723
   0.93849197  0.46416371  0.87548746
   0.43564598  0.63336337  0.83334006
   0.06324819  0.20591449  0.34452147
   0.18872222  0.96438443  0.87555958
   0.93575962  0.78501764  0.12432383
   0.68706315  0.79144295  0.38878628
   0.93619950  0.79128933  0.65553689
   0.93780849  0.11798904  0.16652802
   0.43646843  0.29126467  0.65558104
   0.05905781  0.20621267  0.21149590
   0.68421629  0.95593335  0.21139589
   0.56299770  0.70790817  0.61126406
   0.82032519  0.87572558  0.69994845
   0.94562455  0.62609871  0.70003162
   0.19550131  0.12592910  0.70003908
   0.94030635  0.45947948  0.47773209
   0.81359613  0.20781750  0.61126072
   0.18385777  0.62496289  0.43322009
   0.43193011  0.12284211  0.30000255
   0.68167098  0.12258444  0.29993324
   0.56203724  0.54122688  0.38871254
   0.81328824  0.20609334  0.34450384
   0.43841844  0.46420668  0.87551823
   0.56088704  0.88353782  0.83380532
   0.31533690  0.20940112  0.47775436
   0.19040521  0.95949731  0.47779622
   0.06029424  0.88333360  0.83359184
   0.05965257  0.54120428  0.52223884
   0.94044114  0.95958810  0.47779498
   0.06306640  0.70785499  0.61119538
   0.55968714  0.04132215  0.52217794
   0.69212185  0.29533241  0.78849141
   0.81281424  0.36802777  0.16656147
   0.43400644  0.12507261  0.43323053
   0.06527695  0.20942641  0.47776657
   0.31156057  0.04129383  0.65544729
   0.43457560  0.79115496  0.52211956
   0.18552789  0.13506694  0.83341476
   0.18584911  0.28497076  0.12434058
   0.93814256  0.45616094  0.34449906
   0.31275138  0.86789776  0.16648971
   0.30897582  0.70612709  0.21148928
   0.93782518  0.61791442  0.16650177
   0.18841375  0.45827762  0.61129958
   0.07007772  0.87622233  0.69999216
   0.06164020  0.54108513  0.65552070
   0.31107562  0.53648203  0.12448069
   0.93689270  0.79162930  0.38884797
   0.94213082  0.29581652  0.78845346
   0.18661237  0.29130937  0.65551258
   0.93818574  0.95778755  0.61125302
   0.81275544  0.71094766  0.74431456
   0.68863403  0.28863191  0.25570892
   0.06243577  0.71146768  0.74438058
   0.68425781  0.45583103  0.21137995
   0.81529114  0.20936484  0.47770682