 288 288   0   0
  0.1280206E+02  0.9726678E-09  0.8423550E-09  0.4500000E-08  0.2500000E-15
  1.000000000000000E-004
  CAR 
 unknown system                          
      6.79696556     -6.03506378  301      4.31522414      1.00000000
     -6.035  0.0000E+00  0.0000E+00
     -5.992  0.0000E+00  0.0000E+00
     -5.950  0.0000E+00  0.0000E+00
     -5.907  0.0000E+00  0.0000E+00
     -5.864  0.0000E+00  0.0000E+00
     -5.821  0.0000E+00  0.0000E+00
     -5.778  0.0000E+00  0.0000E+00
     -5.736  0.0000E+00  0.0000E+00
     -5.693  0.0000E+00  0.0000E+00
     -5.650  0.0000E+00  0.0000E+00
     -5.607  0.0000E+00  0.0000E+00
     -5.565  0.0000E+00  0.0000E+00
     -5.522  0.0000E+00  0.0000E+00
     -5.479  0.0000E+00  0.0000E+00
     -5.436  0.0000E+00  0.0000E+00
     -5.393  0.1622E-15  0.6939E-17
     -5.351  0.4153E-14  0.1846E-15
     -5.308  0.8870E-13  0.3979E-14
     -5.265  0.1618E-11  0.7320E-13
     -5.222  0.2514E-10  0.1148E-11
     -5.180  0.3324E-09  0.1537E-10
     -5.137  0.3744E-08  0.1755E-09
     -5.094  0.3593E-07  0.1712E-08
     -5.051  0.2938E-06  0.1428E-07
     -5.009  0.2049E-05  0.1019E-06
     -4.966  0.1220E-04  0.6237E-06
     -4.923  0.6207E-04  0.3279E-05
     -4.880  0.2706E-03  0.1485E-04
     -4.837  0.1013E-02  0.5820E-04
     -4.795  0.3277E-02  0.1984E-03
     -4.752  0.9214E-02  0.5925E-03
     -4.709  0.2272E-01  0.1564E-02
     -4.666  0.4973E-01  0.3692E-02
     -4.624  0.9789E-01  0.7879E-02
     -4.581  0.1755E+00  0.1539E-01
     -4.538  0.2899E+00  0.2779E-01
     -4.495  0.4446E+00  0.4681E-01
     -4.452  0.6370E+00  0.7405E-01
     -4.410  0.8565E+00  0.1107E+00
     -4.367  0.1086E+01  0.1571E+00
     -4.324  0.1304E+01  0.2129E+00
     -4.281  0.1491E+01  0.2767E+00
     -4.239  0.1633E+01  0.3465E+00
     -4.196  0.1733E+01  0.4207E+00
     -4.153  0.1806E+01  0.4979E+00
     -4.110  0.1877E+01  0.5782E+00
     -4.067  0.1977E+01  0.6628E+00
     -4.025  0.2124E+01  0.7536E+00
     -3.982  0.2325E+01  0.8531E+00
     -3.939  0.2561E+01  0.9626E+00
     -3.896  0.2800E+01  0.1082E+01
     -3.854  0.3000E+01  0.1211E+01
     -3.811  0.3129E+01  0.1345E+01
     -3.768  0.3174E+01  0.1480E+01
     -3.725  0.3151E+01  0.1615E+01
     -3.683  0.3097E+01  0.1748E+01
     -3.640  0.3062E+01  0.1878E+01
     -3.597  0.3090E+01  0.2011E+01
     -3.554  0.3201E+01  0.2148E+01
     -3.511  0.3387E+01  0.2292E+01
     -3.469  0.3619E+01  0.2447E+01
     -3.426  0.3851E+01  0.2612E+01
     -3.383  0.4041E+01  0.2785E+01
     -3.340  0.4161E+01  0.2963E+01
     -3.298  0.4206E+01  0.3143E+01
     -3.255  0.4197E+01  0.3322E+01
     -3.212  0.4171E+01  0.3501E+01
     -3.169  0.4176E+01  0.3679E+01
     -3.126  0.4251E+01  0.3861E+01
     -3.084  0.4408E+01  0.4050E+01
     -3.041  0.4633E+01  0.4248E+01
     -2.998  0.4887E+01  0.4457E+01
     -2.955  0.5119E+01  0.4676E+01
     -2.913  0.5286E+01  0.4902E+01
     -2.870  0.5366E+01  0.5131E+01
     -2.827  0.5375E+01  0.5361E+01
     -2.784  0.5361E+01  0.5591E+01
     -2.742  0.5381E+01  0.5821E+01
     -2.699  0.5462E+01  0.6054E+01
     -2.656  0.5579E+01  0.6293E+01
     -2.613  0.5668E+01  0.6535E+01
     -2.570  0.5674E+01  0.6778E+01
     -2.528  0.5597E+01  0.7018E+01
     -2.485  0.5514E+01  0.7253E+01
     -2.442  0.5542E+01  0.7490E+01
     -2.399  0.5778E+01  0.7738E+01
     -2.357  0.6235E+01  0.8004E+01
     -2.314  0.6815E+01  0.8296E+01
     -2.271  0.7331E+01  0.8609E+01
     -2.228  0.7597E+01  0.8934E+01
     -2.185  0.7533E+01  0.9256E+01
     -2.143  0.7226E+01  0.9566E+01
     -2.100  0.6889E+01  0.9860E+01
     -2.057  0.6751E+01  0.1015E+02
     -2.014  0.6936E+01  0.1045E+02
     -1.972  0.7414E+01  0.1076E+02
     -1.929  0.8025E+01  0.1111E+02
     -1.886  0.8558E+01  0.1147E+02
     -1.843  0.8855E+01  0.1185E+02
     -1.800  0.8888E+01  0.1223E+02
     -1.758  0.8763E+01  0.1261E+02
     -1.715  0.8644E+01  0.1298E+02
     -1.672  0.8652E+01  0.1335E+02
     -1.629  0.8809E+01  0.1372E+02
     -1.587  0.9064E+01  0.1411E+02
     -1.544  0.9351E+01  0.1451E+02
     -1.501  0.9631E+01  0.1492E+02
     -1.458  0.9901E+01  0.1535E+02
     -1.416  0.1016E+02  0.1578E+02
     -1.373  0.1038E+02  0.1622E+02
     -1.330  0.1054E+02  0.1667E+02
     -1.287  0.1069E+02  0.1713E+02
     -1.244  0.1097E+02  0.1760E+02
     -1.202  0.1152E+02  0.1809E+02
     -1.159  0.1244E+02  0.1863E+02
     -1.116  0.1357E+02  0.1921E+02
     -1.073  0.1462E+02  0.1983E+02
     -1.031  0.1529E+02  0.2049E+02
     -0.988  0.1552E+02  0.2115E+02
     -0.945  0.1551E+02  0.2181E+02
     -0.902  0.1568E+02  0.2248E+02
     -0.859  0.1639E+02  0.2319E+02
     -0.817  0.1776E+02  0.2395E+02
     -0.774  0.1969E+02  0.2479E+02
     -0.731  0.2207E+02  0.2573E+02
     -0.688  0.2490E+02  0.2680E+02
     -0.646  0.2835E+02  0.2801E+02
     -0.603  0.3248E+02  0.2940E+02
     -0.560  0.3707E+02  0.3098E+02
     -0.517  0.4159E+02  0.3276E+02
     -0.475  0.4551E+02  0.3471E+02
     -0.432  0.4855E+02  0.3679E+02
     -0.389  0.5082E+02  0.3896E+02
     -0.346  0.5260E+02  0.4121E+02
     -0.303  0.5413E+02  0.4353E+02
     -0.261  0.5548E+02  0.4590E+02
     -0.218  0.5655E+02  0.4832E+02
     -0.175  0.5722E+02  0.5076E+02
     -0.132  0.5750E+02  0.5322E+02
     -0.090  0.5755E+02  0.5569E+02
     -0.047  0.5764E+02  0.5815E+02
     -0.004  0.5800E+02  0.6063E+02
      0.039  0.5879E+02  0.6315E+02
      0.082  0.6019E+02  0.6572E+02
      0.124  0.6233E+02  0.6839E+02
      0.167  0.6522E+02  0.7118E+02
      0.210  0.6866E+02  0.7411E+02
      0.253  0.7228E+02  0.7720E+02
      0.295  0.7571E+02  0.8044E+02
      0.338  0.7872E+02  0.8381E+02
      0.381  0.8122E+02  0.8728E+02
      0.424  0.8324E+02  0.9084E+02
      0.466  0.8481E+02  0.9447E+02
      0.509  0.8589E+02  0.9815E+02
      0.552  0.8647E+02  0.1018E+03
      0.595  0.8654E+02  0.1055E+03
      0.638  0.8620E+02  0.1092E+03
      0.680  0.8554E+02  0.1129E+03
      0.723  0.8455E+02  0.1165E+03
      0.766  0.8315E+02  0.1201E+03
      0.809  0.8139E+02  0.1235E+03
      0.851  0.7951E+02  0.1269E+03
      0.894  0.7792E+02  0.1303E+03
      0.937  0.7688E+02  0.1336E+03
      0.980  0.7640E+02  0.1368E+03
      1.023  0.7619E+02  0.1401E+03
      1.065  0.7588E+02  0.1433E+03
      1.108  0.7524E+02  0.1466E+03
      1.151  0.7433E+02  0.1497E+03
      1.194  0.7345E+02  0.1529E+03
      1.236  0.7303E+02  0.1560E+03
      1.279  0.7321E+02  0.1591E+03
      1.322  0.7370E+02  0.1623E+03
      1.365  0.7389E+02  0.1654E+03
      1.408  0.7327E+02  0.1686E+03
      1.450  0.7179E+02  0.1717E+03
      1.493  0.6990E+02  0.1746E+03
      1.536  0.6833E+02  0.1776E+03
      1.579  0.6764E+02  0.1805E+03
      1.621  0.6803E+02  0.1834E+03
      1.664  0.6939E+02  0.1863E+03
      1.707  0.7145E+02  0.1894E+03
      1.750  0.7386E+02  0.1926E+03
      1.792  0.7637E+02  0.1958E+03
      1.835  0.7877E+02  0.1992E+03
      1.878  0.8095E+02  0.2027E+03
      1.921  0.8288E+02  0.2062E+03
      1.964  0.8460E+02  0.2098E+03
      2.006  0.8619E+02  0.2135E+03
      2.049  0.8772E+02  0.2173E+03
      2.092  0.8926E+02  0.2211E+03
      2.135  0.9083E+02  0.2250E+03
      2.177  0.9241E+02  0.2289E+03
      2.220  0.9403E+02  0.2329E+03
      2.263  0.9578E+02  0.2370E+03
      2.306  0.9788E+02  0.2412E+03
      2.349  0.1006E+03  0.2455E+03
      2.391  0.1041E+03  0.2500E+03
      2.434  0.1083E+03  0.2546E+03
      2.477  0.1129E+03  0.2594E+03
      2.520  0.1174E+03  0.2645E+03
      2.562  0.1214E+03  0.2697E+03
      2.605  0.1246E+03  0.2750E+03
      2.648  0.1268E+03  0.2804E+03
      2.691  0.1281E+03  0.2859E+03
      2.733  0.1289E+03  0.2914E+03
      2.776  0.1297E+03  0.2969E+03
      2.819  0.1310E+03  0.3025E+03
      2.862  0.1333E+03  0.3082E+03
      2.905  0.1365E+03  0.3141E+03
      2.947  0.1399E+03  0.3201E+03
      2.990  0.1419E+03  0.3261E+03
      3.033  0.1411E+03  0.3322E+03
      3.076  0.1366E+03  0.3380E+03
      3.118  0.1289E+03  0.3435E+03
      3.161  0.1194E+03  0.3486E+03
      3.204  0.1100E+03  0.3533E+03
      3.247  0.1021E+03  0.3577E+03
      3.290  0.9636E+02  0.3618E+03
      3.332  0.9286E+02  0.3658E+03
      3.375  0.9118E+02  0.3697E+03
      3.418  0.9062E+02  0.3736E+03
      3.461  0.9038E+02  0.3774E+03
      3.503  0.8975E+02  0.3813E+03
      3.546  0.8834E+02  0.3851E+03
      3.589  0.8634E+02  0.3888E+03
      3.632  0.8445E+02  0.3924E+03
      3.675  0.8352E+02  0.3959E+03
      3.717  0.8408E+02  0.3995E+03
      3.760  0.8608E+02  0.4032E+03
      3.803  0.8892E+02  0.4070E+03
      3.846  0.9188E+02  0.4110E+03
      3.888  0.9447E+02  0.4150E+03
      3.931  0.9660E+02  0.4191E+03
      3.974  0.9841E+02  0.4233E+03
      4.017  0.1001E+03  0.4276E+03
      4.059  0.1016E+03  0.4320E+03
      4.102  0.1027E+03  0.4364E+03
      4.145  0.1031E+03  0.4408E+03
      4.188  0.1028E+03  0.4452E+03
      4.231  0.1019E+03  0.4495E+03
      4.273  0.1007E+03  0.4538E+03
      4.316  0.9963E+02  0.4581E+03
      4.359  0.9906E+02  0.4623E+03
      4.402  0.9910E+02  0.4666E+03
      4.444  0.9955E+02  0.4708E+03
      4.487  0.1001E+03  0.4751E+03
      4.530  0.1003E+03  0.4794E+03
      4.573  0.9994E+02  0.4837E+03
      4.616  0.9919E+02  0.4879E+03
      4.658  0.9841E+02  0.4921E+03
      4.701  0.9810E+02  0.4963E+03
      4.744  0.9872E+02  0.5005E+03
      4.787  0.1004E+03  0.5048E+03
      4.829  0.1031E+03  0.5092E+03
      4.872  0.1062E+03  0.5138E+03
      4.915  0.1093E+03  0.5185E+03
      4.958  0.1117E+03  0.5232E+03
      5.000  0.1130E+03  0.5281E+03
      5.043  0.1123E+03  0.5329E+03
      5.086  0.1084E+03  0.5375E+03
      5.129  0.1005E+03  0.5418E+03
      5.172  0.8800E+02  0.5456E+03
      5.214  0.7180E+02  0.5486E+03
      5.257  0.5380E+02  0.5509E+03
      5.300  0.3658E+02  0.5525E+03
      5.343  0.2235E+02  0.5535E+03
      5.385  0.1217E+02  0.5540E+03
      5.428  0.5870E+01  0.5542E+03
      5.471  0.2496E+01  0.5543E+03
      5.514  0.9317E+00  0.5544E+03
      5.557  0.3045E+00  0.5544E+03
      5.599  0.8692E-01  0.5544E+03
      5.642  0.2162E-01  0.5544E+03
      5.685  0.4679E-02  0.5544E+03
      5.728  0.8794E-03  0.5544E+03
      5.770  0.1433E-03  0.5544E+03
      5.813  0.2023E-04  0.5544E+03
      5.856  0.2470E-05  0.5544E+03
      5.899  0.2604E-06  0.5544E+03
      5.941  0.2368E-07  0.5544E+03
      5.984  0.1855E-08  0.5544E+03
      6.027  0.1251E-09  0.5544E+03
      6.070  0.7249E-11  0.5544E+03
      6.113  0.3599E-12  0.5544E+03
      6.155  0.1467E-13  0.5544E+03
      6.198  0.2596E-15  0.5544E+03
      6.241  0.0000E+00  0.5544E+03
      6.284  0.0000E+00  0.5544E+03
      6.326  0.0000E+00  0.5544E+03
      6.369  0.0000E+00  0.5544E+03
      6.412  0.0000E+00  0.5544E+03
      6.455  0.0000E+00  0.5544E+03
      6.498  0.0000E+00  0.5544E+03
      6.540  0.0000E+00  0.5544E+03
      6.583  0.0000E+00  0.5544E+03
      6.626  0.0000E+00  0.5544E+03
      6.669  0.0000E+00  0.5544E+03
      6.711  0.0000E+00  0.5544E+03
      6.754  0.0000E+00  0.5544E+03
      6.797  0.0000E+00  0.5544E+03
