  288  288    5    1
  0.1280206E+02  0.9726678E-09  0.8423550E-09  0.4500000E-08  0.2500000E-15
  1.000000000000000E-004
  CAR 
 unknown system                          
   2290     10   1386
 
  0.0000000E+00  0.0000000E+00  0.0000000E+00  0.6250000E-01
    1       -4.535064   1.000000
    2       -4.410460   1.000000
    3       -4.297835   1.000000
    4       -4.066568   1.000000
    5       -3.831188   1.000000
    6       -3.507336   1.000000
    7       -3.161036   1.000000
    8       -2.871695   1.000000
    9       -2.859591   1.000000
   10       -2.769638   1.000000
   11       -2.759448   1.000000
   12       -2.740504   1.000000
   13       -2.671341   1.000000
   14       -2.653419   1.000000
   15       -2.473625   1.000000
   16       -2.457978   1.000000
   17       -2.400297   1.000000
   18       -2.388243   1.000000
   19       -2.343618   1.000000
   20       -2.292706   1.000000
   21       -2.288973   1.000000
   22       -2.277080   1.000000
   23       -2.257359   1.000000
   24       -2.213782   1.000000
   25       -2.208727   1.000000
   26       -2.039217   1.000000
   27       -2.033957   1.000000
   28       -2.001166   1.000000
   29       -1.991837   1.000000
   30       -1.930058   1.000000
   31       -1.866673   1.000000
   32       -1.862892   1.000000
   33       -1.713602   1.000000
   34       -1.697798   1.000000
   35       -1.629477   1.000000
   36       -1.625630   1.000000
   37       -1.546566   1.000000
   38       -1.380325   1.000000
   39       -1.378061   1.000000
   40       -1.372852   1.000000
   41       -1.365609   1.000000
   42       -1.228244   1.000000
   43       -1.138173   1.000000
   44       -1.132164   1.000000
   45       -1.127690   1.000000
   46       -1.116278   1.000000
   47       -1.097163   1.000000
   48       -1.085534   1.000000
   49       -1.055517   1.000000
   50       -1.048057   1.000000
   51       -1.040820   1.000000
   52       -1.031687   1.000000
   53       -1.027479   1.000000
   54       -1.017627   1.000000
   55       -1.012131   1.000000
   56       -1.008044   1.000000
   57       -1.000091   1.000000
   58       -0.986460   1.000000
   59       -0.972720   1.000000
   60       -0.909785   1.000000
   61       -0.901464   1.000000
   62       -0.895716   1.000000
   63       -0.883965   1.000000
   64       -0.827803   1.000000
   65       -0.812493   1.000000
   66       -0.809550   1.000000
   67       -0.807458   1.000000
   68       -0.806735   1.000000
   69       -0.789294   1.000000
   70       -0.771543   1.000000
   71       -0.696236   1.000000
   72       -0.680610   1.000000
   73       -0.677938   1.000000
   74       -0.674698   1.000000
   75       -0.671098   1.000000
   76       -0.668307   1.000000
   77       -0.664163   1.000000
   78       -0.652178   1.000000
   79       -0.633622   1.000000
   80       -0.629292   1.000000
   81       -0.628524   1.000000
   82       -0.617644   1.000000
   83       -0.615460   1.000000
   84       -0.610308   1.000000
   85       -0.575181   1.000000
   86       -0.571825   1.000000
   87       -0.569466   1.000000
   88       -0.565267   1.000000
   89       -0.559821   1.000000
   90       -0.557321   1.000000
   91       -0.553554   1.000000
   92       -0.550640   1.000000
   93       -0.545132   1.000000
   94       -0.539538   1.000000
   95       -0.531430   1.000000
   96       -0.524525   1.000000
   97       -0.506730   1.000000
   98       -0.500572   1.000000
   99       -0.477476   1.000000
  100       -0.461796   1.000000
  101       -0.460736   1.000000
  102       -0.458396   1.000000
  103       -0.453714   1.000000
  104       -0.446163   1.000000
  105       -0.400769   1.000000
  106       -0.397626   1.000000
  107       -0.393334   1.000000
  108       -0.390060   1.000000
  109       -0.385974   1.000000
  110       -0.383259   1.000000
  111       -0.379428   1.000000
  112       -0.375789   1.000000
  113       -0.370762   1.000000
  114       -0.362379   1.000000
  115       -0.343013   1.000000
  116       -0.330567   1.000000
  117       -0.251006   1.000000
  118       -0.248817   1.000000
  119       -0.245697   1.000000
  120       -0.240603   1.000000
  121       -0.237910   1.000000
  122       -0.234494   1.000000
  123       -0.233282   1.000000
  124       -0.233052   1.000000
  125       -0.227971   1.000000
  126       -0.224859   1.000000
  127       -0.215465   1.000000
  128       -0.210674   1.000000
  129       -0.178299   1.000000
  130       -0.173972   1.000000
  131       -0.170908   1.000000
  132       -0.118774   1.000000
  133       -0.097989   1.000000
  134       -0.095455   1.000000
  135       -0.090448   1.000000
  136       -0.088647   1.000000
  137       -0.081960   1.000000
  138       -0.078329   1.000000
  139       -0.055440   1.000000
  140       -0.042745   1.000000
  141        0.000383   1.000000
  142        0.007479   1.000000
  143        0.020307   1.000000
  144        0.024191   1.000000
  145        0.044828   1.000000
  146        0.052271   1.000000
  147        0.054297   1.000000
  148        0.059514   1.000000
  149        0.064202   1.000000
  150        0.066410   1.000000
  151        0.072363   1.000000
  152        0.074649   1.000000
  153        0.092196   1.000000
  154        0.100253   1.000000
  155        0.105861   1.000000
  156        0.154896   1.000000
  157        0.159308   1.000000
  158        0.160255   1.000000
  159        0.161829   1.000000
  160        0.165195   1.000000
  161        0.169532   1.000000
  162        0.169886   1.000000
  163        0.180220   1.000000
  164        0.183204   1.000000
  165        0.185422   1.000000
  166        0.191629   1.000000
  167        0.201329   1.000000
  168        0.203885   1.000000
  169        0.205880   1.000000
  170        0.206739   1.000000
  171        0.206902   1.000000
  172        0.211616   1.000000
  173        0.216201   1.000000
  174        0.222365   1.000000
  175        0.248442   1.000000
  176        0.249749   1.000000
  177        0.252815   1.000000
  178        0.257308   1.000000
  179        0.276846   1.000000
  180        0.278886   1.000000
  181        0.279899   1.000000
  182        0.282496   1.000000
  183        0.284216   1.000000
  184        0.286020   1.000000
  185        0.289872   1.000000
  186        0.291360   1.000000
  187        0.293614   1.000000
  188        0.295610   1.000000
  189        0.298808   1.000000
  190        0.301463   1.000000
  191        0.304538   1.000000
  192        0.306002   1.000000
  193        0.306747   1.000000
  194        0.308305   1.000000
  195        0.310665   1.000000
  196        0.313594   1.000000
  197        0.315081   1.000000
  198        0.317199   1.000000
  199        0.321371   1.000000
  200        0.324601   1.000000
  201        0.326839   1.000000
  202        0.332083   1.000000
  203        0.336516   1.000000
  204        0.337518   1.000000
  205        0.340347   1.000000
  206        0.341241   1.000000
  207        0.344681   1.000000
  208        0.346242   1.000000
  209        0.349132   1.000000
  210        0.350997   1.000000
  211        0.359457   1.000000
  212        0.361815   1.000000
  213        0.363363   1.000000
  214        0.366144   1.000000
  215        0.368074   1.000000
  216        0.369823   1.000000
  217        0.380061   1.000000
  218        0.385553   1.000000
  219        0.393148   1.000000
  220        0.394609   1.000000
  221        0.400923   1.000000
  222        0.402980   1.000000
  223        0.404544   1.000000
  224        0.407752   1.000000
  225        0.419532   1.000000
  226        0.422331   1.000000
  227        0.428452   1.000000
  228        0.431182   1.000000
  229        0.442477   1.000000
  230        0.449177   1.000000
  231        0.453648   1.000000
  232        0.458432   1.000000
  233        0.474523   1.000000
  234        0.479121   1.000000
  235        0.479749   1.000000
  236        0.481857   1.000000
  237        0.483950   1.000000
  238        0.486219   1.000000
  239        0.489325   1.000000
  240        0.489725   1.000000
  241        0.491641   1.000000
  242        0.492471   1.000000
  243        0.493422   1.000000
  244        0.497603   1.000000
  245        0.501227   1.000000
  246        0.503546   1.000000
  247        0.506663   1.000000
  248        0.519002   1.000000
  249        0.524668   1.000000
  250        0.527608   1.000000
  251        0.528285   1.000000
  252        0.529135   1.000000
  253        0.530587   1.000000
  254        0.532120   1.000000
  255        0.532642   1.000000
  256        0.533840   1.000000
  257        0.534337   1.000000
  258        0.537598   1.000000
  259        0.540332   1.000000
  260        0.544456   1.000000
  261        0.584635   1.000000
  262        0.588625   1.000000
  263        0.591509   1.000000
  264        0.596898   1.000000
  265        0.607587   1.000000
  266        0.610037   1.000000
  267        0.614518   1.000000
  268        0.618755   1.000000
  269        0.622712   1.000000
  270        0.627853   1.000000
  271        0.634991   1.000000
  272        0.639890   1.000000
  273        0.672737   1.000000
  274        0.676607   1.000000
  275        0.678439   1.000000
  276        0.682753   1.000000
  277        0.692273   1.000000
  278        0.695025   1.000000
  279        0.700705   1.000000
  280        0.705310   1.000000
  281        0.710726   1.000000
  282        0.716923   1.000000
  283        0.718583   1.000000
  284        0.721053   1.000000
  285        0.726677   1.000000
  286        0.728234   1.000000
  287        0.732142   1.000000
  288        0.734404   1.000000
  289        0.735733   1.000000
  290        0.786180   1.000000
  291        0.788389   1.000000
  292        0.790729   1.000000
  293        0.793816   1.000000
  294        0.811023   1.000000
  295        0.814868   1.000000
  296        0.817740   1.000000
  297        0.819944   1.000000
  298        0.820599   1.000000
  299        0.822122   1.000000
  300        0.823114   1.000000
  301        0.826695   1.000000
  302        0.827819   1.000000
  303        0.828358   1.000000
  304        0.831257   1.000000
  305        0.831950   1.000000
  306        0.841046   1.000000
  307        0.843772   1.000000
  308        0.859681   1.000000
  309        0.860527   1.000000
  310        0.862647   1.000000
  311        0.863026   1.000000
  312        0.865481   1.000000
  313        0.866239   1.000000
  314        0.867896   1.000000
  315        0.868767   1.000000
  316        0.881505   1.000000
  317        0.916581   1.000000
  318        0.918117   1.000000
  319        0.918267   1.000000
  320        0.919846   1.000000
  321        0.923210   1.000000
  322        0.923455   1.000000
  323        0.933064   1.000000
  324        0.935016   1.000000
  325        0.935404   1.000000
  326        0.938899   1.000000
  327        0.941694   1.000000
  328        0.945270   1.000000
  329        0.962090   1.000000
  330        0.962923   1.000000
  331        0.964631   1.000000
  332        0.965922   1.000000
  333        0.967788   1.000000
  334        0.971298   1.000000
  335        0.973163   1.000000
  336        0.976601   1.000000
  337        0.977283   1.000000
  338        0.980262   1.000000
  339        0.981765   1.000000
  340        0.991755   1.000000
  341        0.998008   1.000000
  342        1.004364   1.000000
  343        1.004550   1.000000
  344        1.007554   1.000000
  345        1.009267   1.000000
  346        1.015489   1.000000
  347        1.021422   1.000000
  348        1.045533   1.000000
  349        1.048526   1.000000
  350        1.050794   1.000000
  351        1.055512   1.000000
  352        1.063754   1.000000
  353        1.066369   1.000000
  354        1.067859   1.000000
  355        1.071880   1.000000
  356        1.073968   1.000000
  357        1.075383   1.000000
  358        1.077490   1.000000
  359        1.079353   1.000000
  360        1.080896   1.000000
  361        1.082859   1.000000
  362        1.122057   1.000000
  363        1.126130   1.000000
  364        1.140289   1.000000
  365        1.145724   1.000000
  366        1.149356   1.000000
  367        1.150839   1.000000
  368        1.153683   1.000000
  369        1.155005   1.000000
  370        1.158971   1.000000
  371        1.161782   1.000000
  372        1.172351   1.000000
  373        1.176057   1.000000
  374        1.177285   1.000000
  375        1.180541   1.000000
  376        1.190132   1.000000
  377        1.192047   1.000000
  378        1.230834   1.000000
  379        1.233577   1.000000
  380        1.242663   1.000000
  381        1.243060   1.000000
  382        1.260314   1.000000
  383        1.262729   1.000000
  384        1.263578   1.000000
  385        1.266254   1.000000
  386        1.266737   1.000000
  387        1.269045   1.000000
  388        1.269378   1.000000
  389        1.271377   1.000000
  390        1.274181   1.000000
  391        1.274818   1.000000
  392        1.277830   1.000000
  393        1.278459   1.000000
  394        1.280522   1.000000
  395        1.309305   1.000000
  396        1.312608   1.000000
  397        1.312840   1.000000
  398        1.313173   1.000000
  399        1.316608   1.000000
  400        1.318004   1.000000
  401        1.331061   1.000000
  402        1.331872   1.000000
  403        1.334093   1.000000
  404        1.350076   1.000000
  405        1.354707   1.000000
  406        1.359657   1.000000
  407        1.360529   1.000000
  408        1.362467   1.000000
  409        1.364599   1.000000
  410        1.366197   1.000000
  411        1.367614   1.000000
  412        1.373603   1.000000
  413        1.375053   1.000000
  414        1.377124   1.000000
  415        1.379714   1.000000
  416        1.382009   1.000000
  417        1.383391   1.000000
  418        1.386035   1.000000
  419        1.390406   1.000000
  420        1.392821   1.000000
  421        1.395816   1.000000
  422        1.397218   1.000000
  423        1.398642   1.000000
  424        1.401990   1.000000
  425        1.406530   1.000000
  426        1.408092   1.000000
  427        1.409974   1.000000
  428        1.411064   1.000000
  429        1.412589   1.000000
  430        1.414569   1.000000
  431        1.415423   1.000000
  432        1.425634   1.000000
  433        1.428924   1.000000
  434        1.441892   1.000000
  435        1.443782   1.000000
  436        1.446984   1.000000
  437        1.449617   1.000000
  438        1.450072   1.000000
  439        1.451641   1.000000
  440        1.454127   1.000000
  441        1.456735   1.000000
  442        1.464632   1.000000
  443        1.468155   1.000000
  444        1.470616   1.000000
  445        1.472476   1.000000
  446        1.474878   1.000000
  447        1.477498   1.000000
  448        1.489975   1.000000
  449        1.491657   1.000000
  450        1.498884   1.000000
  451        1.501253   1.000000
  452        1.507266   1.000000
  453        1.508802   1.000000
  454        1.514408   1.000000
  455        1.515222   1.000000
  456        1.518262   1.000000
  457        1.523267   1.000000
  458        1.525894   1.000000
  459        1.527358   1.000000
  460        1.528440   1.000000
  461        1.531079   1.000000
  462        1.536334   1.000000
  463        1.538503   1.000000
  464        1.569071   1.000000
  465        1.570471   1.000000
  466        1.582047   1.000000
  467        1.584684   1.000000
  468        1.588019   1.000000
  469        1.593799   1.000000
  470        1.616344   1.000000
  471        1.619134   1.000000
  472        1.634247   1.000000
  473        1.635526   1.000000
  474        1.647014   1.000000
  475        1.652379   1.000000
  476        1.660626   1.000000
  477        1.665734   1.000000
  478        1.689819   1.000000
  479        1.694051   1.000000
  480        1.703694   1.000000
  481        1.704528   1.000000
  482        1.706440   1.000000
  483        1.709105   1.000000
  484        1.712604   1.000000
  485        1.717169   1.000000
  486        1.717840   1.000000
  487        1.719374   1.000000
  488        1.721609   1.000000
  489        1.739553   1.000000
  490        1.743840   1.000000
  491        1.753933   1.000000
  492        1.755515   1.000000
  493        1.756989   1.000000
  494        1.758764   1.000000
  495        1.761478   1.000000
  496        1.763846   1.000000
  497        1.768660   1.000000
  498        1.775009   1.000000
  499        1.779845   1.000000
  500        1.782596   1.000000
  501        1.810155   1.000000
  502        1.810694   1.000000
  503        1.812729   1.000000
  504        1.817324   1.000000
  505        1.818308   1.000000
  506        1.822240   1.000000
  507        1.823581   1.000000
  508        1.826665   1.000000
  509        1.827974   1.000000
  510        1.830000   1.000000
  511        1.834428   1.000000
  512        1.840747   1.000000
  513        1.856058   1.000000
  514        1.860344   1.000000
  515        1.865825   1.000000
  516        1.870836   1.000000
  517        1.873868   1.000000
  518        1.874696   1.000000
  519        1.879607   1.000000
  520        1.882201   1.000000
  521        1.883935   1.000000
  522        1.886801   1.000000
  523        1.888910   1.000000
  524        1.891215   1.000000
  525        1.893561   1.000000
  526        1.905586   1.000000
  527        1.910768   1.000000
  528        1.914065   1.000000
  529        1.915057   1.000000
  530        1.915960   1.000000
  531        1.918437   1.000000
  532        1.922048   1.000000
  533        1.926033   1.000000
  534        1.932508   1.000000
  535        1.933931   1.000000
  536        1.936923   1.000000
  537        1.941052   1.000000
  538        1.944310   1.000000
  539        1.950983   1.000000
  540        1.951611   1.000000
  541        1.952737   1.000000
  542        1.957403   1.000000
  543        1.958120   1.000000
  544        1.962443   1.000000
  545        1.969826   1.000000
  546        1.975915   1.000000
  547        1.987829   1.000000
  548        2.013106   1.000000
  549        2.016379   1.000000
  550        2.023081   1.000000
  551        2.024728   1.000000
  552        2.030863   1.000000
  553        2.042048   1.000000
  554        2.055633   1.000000
  555        2.056417   1.000000
  556        2.061822   1.000000
  557        2.069422   1.000000
  558        2.075675   1.000000
  559        2.076376   1.000000
  560        2.078855   1.000000
  561        2.079448   1.000000
  562        2.081847   1.000000
  563        2.083557   1.000000
  564        2.085100   1.000000
  565        2.086940   1.000000
  566        2.089943   1.000000
  567        2.091161   1.000000
  568        2.092445   1.000000
  569        2.093995   1.000000
  570        2.099018   1.000000
  571        2.102436   1.000000
  572        2.105864   1.000000
  573        2.107054   1.000000
  574        2.110391   1.000000
  575        2.114140   1.000000
  576        2.116171   1.000000
  577        2.135020   1.000000
  578        2.140242   1.000000
  579        2.145601   1.000000
  580        2.148232   1.000000
  581        2.154683   1.000000
  582        2.158009   1.000000
  583        2.164751   1.000000
  584        2.167826   1.000000
  585        2.172748   1.000000
  586        2.178162   1.000000
  587        2.182926   1.000000
  588        2.198767   1.000000
  589        2.200647   1.000000
  590        2.209979   1.000000
  591        2.217112   1.000000
  592        2.218444   1.000000
  593        2.239189   1.000000
  594        2.241001   1.000000
  595        2.243467   1.000000
  596        2.248961   1.000000
  597        2.255166   1.000000
  598        2.256274   1.000000
  599        2.260990   1.000000
  600        2.262727   1.000000
  601        2.265229   1.000000
  602        2.266519   1.000000
  603        2.267143   1.000000
  604        2.277829   1.000000
  605        2.287099   1.000000
  606        2.304926   1.000000
  607        2.320723   1.000000
  608        2.322006   1.000000
  609        2.326057   1.000000
  610        2.327927   1.000000
  611        2.331230   1.000000
  612        2.331634   1.000000
  613        2.334257   1.000000
  614        2.335186   1.000000
  615        2.340982   1.000000
  616        2.342465   1.000000
  617        2.344192   1.000000
  618        2.349630   1.000000
  619        2.350217   1.000000
  620        2.359649   1.000000
  621        2.365355   1.000000
  622        2.368052   1.000000
  623        2.372845   1.000000
  624        2.374369   1.000000
  625        2.379573   1.000000
  626        2.383456   1.000000
  627        2.385960   1.000000
  628        2.387938   1.000000
  629        2.390511   1.000000
  630        2.393108   1.000000
  631        2.395219   1.000000
  632        2.403511   1.000000
  633        2.404176   1.000000
  634        2.451205   1.000000
  635        2.453690   1.000000
  636        2.455041   1.000000
  637        2.456842   1.000000
  638        2.457826   1.000000
  639        2.464348   1.000000
  640        2.470093   1.000000
  641        2.472940   1.000000
  642        2.474838   1.000000
  643        2.480598   1.000000
  644        2.482124   1.000000
  645        2.483852   1.000000
  646        2.485735   1.000000
  647        2.487245   1.000000
  648        2.488526   1.000000
  649        2.490617   1.000000
  650        2.492624   1.000000
  651        2.494247   1.000000
  652        2.494456   1.000000
  653        2.495945   1.000000
  654        2.500373   1.000000
  655        2.501751   1.000000
  656        2.504395   1.000000
  657        2.509046   1.000000
  658        2.512246   1.000000
  659        2.514454   1.000000
  660        2.517332   1.000000
  661        2.518243   1.000000
  662        2.520508   1.000000
  663        2.526183   1.000000
  664        2.531256   1.000000
  665        2.539442   1.000000
  666        2.544294   1.000000
  667        2.545193   1.000000
  668        2.547221   1.000000
  669        2.551316   1.000000
  670        2.556069   1.000000
  671        2.558578   1.000000
  672        2.559174   1.000000
  673        2.565259   1.000000
  674        2.567852   1.000000
  675        2.573363   1.000000
  676        2.576177   1.000000
  677        2.576960   1.000000
  678        2.580461   1.000000
  679        2.582252   1.000000
  680        2.584087   1.000000
  681        2.585600   1.000000
  682        2.587515   1.000000
  683        2.589371   1.000000
  684        2.590179   1.000000
  685        2.593001   1.000000
  686        2.593894   1.000000
  687        2.596243   1.000000
  688        2.598624   1.000000
  689        2.600076   1.000000
  690        2.602355   1.000000
  691        2.603096   1.000000
  692        2.604544   1.000000
  693        2.607816   1.000000
  694        2.609736   1.000000
  695        2.613271   1.000000
  696        2.615239   1.000000
  697        2.615773   1.000000
  698        2.620410   1.000000
  699        2.624076   1.000000
  700        2.628763   1.000000
  701        2.633326   1.000000
  702        2.645480   1.000000
  703        2.647794   1.000000
  704        2.652129   1.000000
  705        2.655037   1.000000
  706        2.657479   1.000000
  707        2.659103   1.000000
  708        2.659860   1.000000
  709        2.662374   1.000000
  710        2.664037   1.000000
  711        2.665249   1.000000
  712        2.667228   1.000000
  713        2.668987   1.000000
  714        2.674639   1.000000
  715        2.676173   1.000000
  716        2.677274   1.000000
  717        2.679469   1.000000
  718        2.680527   1.000000
  719        2.681876   1.000000
  720        2.682875   1.000000
  721        2.684183   1.000000
  722        2.685503   1.000000
  723        2.686449   1.000000
  724        2.687463   1.000000
  725        2.689732   1.000000
  726        2.692315   1.000000
  727        2.693695   1.000000
  728        2.695912   1.000000
  729        2.697746   1.000000
  730        2.702124   1.000000
  731        2.705689   1.000000
  732        2.706154   1.000000
  733        2.706901   1.000000
  734        2.709553   1.000000
  735        2.712533   1.000000
  736        2.714016   1.000000
  737        2.716994   1.000000
  738        2.721068   1.000000
  739        2.724074   1.000000
  740        2.730551   1.000000
  741        2.735119   1.000000
  742        2.736655   1.000000
  743        2.742142   1.000000
  744        2.744789   1.000000
  745        2.746091   1.000000
  746        2.747685   1.000000
  747        2.749007   1.000000
  748        2.751769   1.000000
  749        2.754991   1.000000
  750        2.757576   1.000000
  751        2.759847   1.000000
  752        2.761184   1.000000
  753        2.763177   1.000000
  754        2.765658   1.000000
  755        2.772115   1.000000
  756        2.773641   1.000000
  757        2.776178   1.000000
  758        2.779455   1.000000
  759        2.783031   1.000000
  760        2.785562   1.000000
  761        2.789893   1.000000
  762        2.799534   1.000000
  763        2.801341   1.000000
  764        2.802860   1.000000
  765        2.807069   1.000000
  766        2.809651   1.000000
  767        2.812630   1.000000
  768        2.817094   1.000000
  769        2.817352   1.000000
  770        2.819689   1.000000
  771        2.822131   1.000000
  772        2.825999   1.000000
  773        2.827877   1.000000
  774        2.838746   1.000000
  775        2.839570   1.000000
  776        2.842085   1.000000
  777        2.842670   1.000000
  778        2.847560   1.000000
  779        2.848528   1.000000
  780        2.850804   1.000000
  781        2.852603   1.000000
  782        2.867328   1.000000
  783        2.878931   1.000000
  784        2.881845   1.000000
  785        2.884321   1.000000
  786        2.889255   1.000000
  787        2.894616   1.000000
  788        2.896028   1.000000
  789        2.899060   1.000000
  790        2.901612   1.000000
  791        2.903846   1.000000
  792        2.907629   1.000000
  793        2.908496   1.000000
  794        2.915656   1.000000
  795        2.918465   1.000000
  796        2.924523   1.000000
  797        2.927163   1.000000
  798        2.932114   1.000000
  799        2.935701   1.000000
  800        2.936528   1.000000
  801        2.938301   1.000000
  802        2.942623   1.000000
  803        2.943990   1.000000
  804        2.950135   1.000000
  805        2.954437   1.000000
  806        2.956782   1.000000
  807        2.957871   1.000000
  808        2.960770   1.000000
  809        2.965775   1.000000
  810        2.968238   1.000000
  811        2.971613   1.000000
  812        2.973483   1.000000
  813        2.974117   1.000000
  814        2.978210   1.000000
  815        2.980181   1.000000
  816        2.980472   1.000000
  817        2.982556   1.000000
  818        2.985365   1.000000
  819        2.987382   1.000000
  820        2.989349   1.000000
  821        2.993329   1.000000
  822        2.996762   1.000000
  823        2.998432   1.000000
  824        3.000950   1.000000
  825        3.003346   1.000000
  826        3.006794   1.000000
  827        3.009447   1.000000
  828        3.011125   1.000000
  829        3.011553   1.000000
  830        3.015202   1.000000
  831        3.020363   1.000000
  832        3.023325   1.000000
  833        3.025905   1.000000
  834        3.026045   1.000000
  835        3.031783   1.000000
  836        3.033497   1.000000
  837        3.034529   1.000000
  838        3.035745   1.000000
  839        3.037918   1.000000
  840        3.038952   1.000000
  841        3.040682   1.000000
  842        3.041302   1.000000
  843        3.043756   1.000000
  844        3.044716   1.000000
  845        3.046185   1.000000
  846        3.050047   1.000000
  847        3.050549   1.000000
  848        3.052699   1.000000
  849        3.053286   1.000000
  850        3.056699   1.000000
  851        3.058457   1.000000
  852        3.060211   1.000000
  853        3.062802   1.000000
  854        3.065465   1.000000
  855        3.067606   1.000000
  856        3.069505   1.000000
  857        3.071056   1.000000
  858        3.072605   1.000000
  859        3.076077   1.000000
  860        3.078681   1.000000
  861        3.082497   1.000000
  862        3.085269   1.000000
  863        3.088760   1.000000
  864        3.096327   1.000000
  865        3.106203   1.000000
  866        3.112446   1.000000
  867        3.115768   1.000000
  868        3.118675   1.000000
  869        3.123244   1.000000
  870        3.124234   1.000000
  871        3.130307   1.000000
  872        3.131533   1.000000
  873        3.138942   1.000000
  874        3.141797   1.000000
  875        3.145165   1.000000
  876        3.151178   1.000000
  877        3.152703   1.000000
  878        3.156582   1.000000
  879        3.159663   1.000000
  880        3.160939   1.000000
  881        3.163955   1.000000
  882        3.165879   1.000000
  883        3.167357   1.000000
  884        3.170581   1.000000
  885        3.174236   1.000000
  886        3.176021   1.000000
  887        3.187957   1.000000
  888        3.210242   1.000000
  889        3.213430   1.000000
  890        3.214748   1.000000
  891        3.217581   1.000000
  892        3.220495   1.000000
  893        3.222141   1.000000
  894        3.231554   1.000000
  895        3.235614   1.000000
  896        3.240194   1.000000
  897        3.242146   1.000000
  898        3.244582   1.000000
  899        3.248120   1.000000
  900        3.259125   1.000000
  901        3.269742   1.000000