<?xml version="1.0" encoding="ISO-8859-1"?>
<modeling>
 <generator>
  <i name="program" type="string">vasp </i>
  <i name="version" type="string">5.4.4.18Apr17-6-g9f103f2a35  </i>
  <i name="subversion" type="string">(build Sep 27 2018 12:46:37) complex + VL-xray_ parallel </i>
  <i name="platform" type="string">LLNL_Quartz_ifc </i>
  <i name="date" type="string">2021 09 26 </i>
  <i name="time" type="string">22:04:54 </i>
 </generator>
 <incar>
  <i type="int" name="ISTART">     2</i>
  <i type="string" name="PREC">accurate</i>
  <i type="string" name="ALGO"> Fast</i>
  <i type="int" name="ICHARG">     2</i>
  <i type="int" name="INIWAV">     1</i>
  <i type="int" name="NELM">   100</i>
  <i type="int" name="NELMIN">     4</i>
  <i type="int" name="IBRION">     2</i>
  <i name="EDIFF">      0.00000100</i>
  <i type="int" name="NSW">     5</i>
  <i type="int" name="ISIF">     2</i>
  <i type="int" name="ISYM">     2</i>
  <i name="ENCUT">    450.00000000</i>
  <i name="POTIM">      0.25000000</i>
  <i type="string" name="LREAL"> Auto</i>
  <i type="int" name="ISMEAR">     0</i>
  <i name="SIGMA">      0.15000000</i>
  <i type="logical" name="LWAVE"> F  </i>
  <i type="logical" name="LCHARG"> F  </i>
  <i type="int" name="ICORELEVEL">     0</i>
  <i type="int" name="CLNT">     1</i>
  <i type="int" name="CLN">     1</i>
  <i type="int" name="INCAR     ">     0</i>
  <i name="CLZ">      0.00000000</i>
  <v type="int" name="KPOINT_BSE">    -1     0     0     0</v>
  <i type="int" name="NELM">   100</i>
 </incar>
 <structure name="primitive_cell" >
  <crystal>
   <varray name="basis" >
    <v>       9.72667804       0.00000000       0.00000000 </v>
    <v>       0.00000000       8.42355028       0.00000000 </v>
    <v>       0.00000000       0.00000000      45.00000000 </v>
   </varray>
   <i name="volume">   3686.99226691 </i>
   <varray name="rec_basis" >
    <v>       0.10281002       0.00000000       0.00000000 </v>
    <v>       0.00000000       0.11871479       0.00000000 </v>
    <v>       0.00000000       0.00000000       0.02222222 </v>
   </varray>
  </crystal>
  <varray name="positions" >
   <v>       0.06220361       0.03065816       0.12432321 </v>
   <v>       0.18228360       0.11352207       0.16663722 </v>
   <v>       0.05573490      -0.13435118       0.16678658 </v>
   <v>       0.18596051      -0.21174652       0.12432871 </v>
   <v>      -0.06563721      -0.21158858       0.12457980 </v>
   <v>      -0.06857085       0.11457882       0.16720850 </v>
   <v>      -0.18661895       0.03077340       0.12433781 </v>
   <v>       0.31129239       0.03204168       0.12431879 </v>
   <v>       0.18506131       0.28684605       0.12442453 </v>
   <v>      -0.06508190       0.28775949       0.12443801 </v>
   <v>       0.30652783      -0.13588987       0.16713760 </v>
   <v>       0.05542697       0.36548675       0.16679231 </v>
   <v>      -0.19281918      -0.13540039       0.16718682 </v>
   <v>       0.43186869       0.11377506       0.16663605 </v>
   <v>       0.30691763       0.36360301       0.16687296 </v>
   <v>      -0.05976767      -0.04456543       0.21163662 </v>
   <v>       0.43476616      -0.21203427       0.12445983 </v>
   <v>       0.18196756      -0.38597302       0.16670841 </v>
   <v>       0.18991938      -0.04364517       0.21182250 </v>
   <v>      -0.06754336      -0.38649644       0.16688660 </v>
   <v>       0.06515884       0.20569622       0.21166396 </v>
   <v>      -0.31616981      -0.21126838       0.12464541 </v>
   <v>       0.06192369      -0.46884267       0.12424604 </v>
   <v>       0.43393866       0.28713614       0.12452033 </v>
   <v>      -0.31777234       0.11422819       0.16707514 </v>
   <v>      -0.19484753       0.36650732       0.16653744 </v>
   <v>      -0.31414681       0.28830670       0.12436616 </v>
   <v>       0.06634382      -0.29430994       0.21170576 </v>
   <v>      -0.18489367       0.20474429       0.21160445 </v>
   <v>       0.31208655      -0.46797721       0.12433662 </v>
   <v>      -0.18710438      -0.46993806       0.12441642 </v>
   <v>      -0.43746803       0.03236371       0.12445870 </v>
   <v>       0.31589483       0.20623897       0.21208265 </v>
   <v>      -0.44395249      -0.13540253       0.16667968 </v>
   <v>      -0.18359340      -0.29484600       0.21172028 </v>
   <v>       0.43195661      -0.38635558       0.16665515 </v>
   <v>      -0.31034131      -0.04408517       0.21197324 </v>
   <v>       0.31504549      -0.29440060       0.21209893 </v>
   <v>       0.43913431      -0.04348386       0.21214070 </v>
   <v>      -0.31791481      -0.38730870       0.16679275 </v>
   <v>      -0.05974191       0.45634660       0.21200498 </v>
   <v>       0.18912680       0.45599487       0.21175763 </v>
   <v>      -0.44404741       0.36526497       0.16671491 </v>
   <v>       0.05909182       0.03860931       0.25614623 </v>
   <v>       0.18422671      -0.21079167       0.25595958 </v>
   <v>       0.30962526       0.03920428       0.25577486 </v>
   <v>      -0.06599812      -0.21150254       0.25611253 </v>
   <v>      -0.43408725       0.20360372       0.21190243 </v>
   <v>      -0.19074948       0.03846440       0.25612414 </v>
   <v>       0.18424495       0.28944329       0.25601978 </v>
   <v>      -0.43715491      -0.46973014       0.12487729 </v>
   <v>      -0.06579112       0.28928902       0.25601712 </v>
   <v>      -0.31127935       0.45640720       0.21212050 </v>
   <v>       0.43997250       0.45646131       0.21185228 </v>
   <v>      -0.43435922      -0.29553919       0.21161840 </v>
   <v>       0.06013312      -0.46146021       0.25604633 </v>
   <v>       0.43406161      -0.21061052       0.25608163 </v>
   <v>      -0.31607399      -0.21062245       0.25617377 </v>
   <v>       0.43379705       0.28971426       0.25610457 </v>
   <v>      -0.31575742       0.28950326       0.25606135 </v>
   <v>       0.30883820      -0.46235964       0.25572547 </v>
   <v>      -0.19081716      -0.46170854       0.25612558 </v>
   <v>      -0.44074213       0.03890424       0.25590195 </v>
   <v>       0.06910946      -0.12511461       0.30042866 </v>
   <v>      -0.05529143       0.12418615       0.30039060 </v>
   <v>       0.19467827       0.12393851       0.30042697 </v>
   <v>      -0.18104554      -0.12494110       0.30025256 </v>
   <v>       0.31897241      -0.12527806       0.30042356 </v>
   <v>       0.06865510       0.37491493       0.30042799 </v>
   <v>      -0.05559608      -0.37527165       0.30018163 </v>
   <v>      -0.44083215      -0.46093216       0.25611066 </v>
   <v>       0.19390828      -0.37520279       0.30049532 </v>
   <v>      -0.30555854       0.12432420       0.30042598 </v>
   <v>      -0.18066960       0.37498097       0.30036044 </v>
   <v>       0.44413049       0.12472616       0.30047716 </v>
   <v>       0.31887116       0.37457253       0.30038517 </v>
   <v>      -0.30609276      -0.37503141       0.30040463 </v>
   <v>      -0.43073660      -0.12518839       0.30049970 </v>
   <v>       0.44447605      -0.37535615       0.30055400 </v>
   <v>      -0.43073119       0.37486185       0.30050480 </v>
   <v>       0.18381624      -0.04732084       0.34506911 </v>
   <v>      -0.06594506      -0.04732781       0.34502460 </v>
   <v>       0.05853137       0.20222464       0.34496385 </v>
   <v>       0.05865098      -0.29733445       0.34504704 </v>
   <v>       0.30938372       0.20274012       0.34510697 </v>
   <v>      -0.19132748       0.20251775       0.34495800 </v>
   <v>       0.30906411      -0.29744035       0.34498475 </v>
   <v>       0.43365613      -0.04736884       0.34510395 </v>
   <v>      -0.19092975      -0.29701496       0.34514310 </v>
   <v>      -0.31669650      -0.04812437       0.34491960 </v>
   <v>       0.18377710       0.45273311       0.34510332 </v>
   <v>      -0.06658881       0.45239959       0.34505627 </v>
   <v>      -0.44131776       0.20266585       0.34510020 </v>
   <v>       0.43353963       0.45252199       0.34504439 </v>
   <v>      -0.31620242       0.45230913       0.34508135 </v>
   <v>       0.06558634       0.03751602      -0.12465465 </v>
   <v>      -0.44111613      -0.29742656       0.34498938 </v>
   <v>       0.18761599      -0.20564558      -0.12439737 </v>
   <v>      -0.06252100      -0.20658439      -0.12480301 </v>
   <v>      -0.18685022       0.03963987      -0.12455565 </v>
   <v>       0.31459259       0.03980784      -0.12441834 </v>
   <v>       0.18856169       0.29394497      -0.12424008 </v>
   <v>      -0.06460737       0.29593507      -0.12470777 </v>
   <v>       0.06626845       0.03780579       0.38904900 </v>
   <v>       0.43690446      -0.20511781      -0.12429752 </v>
   <v>       0.06495724      -0.46162442      -0.12447397 </v>
   <v>      -0.31530651      -0.20481855      -0.12454724 </v>
   <v>       0.43669979       0.29568862      -0.12402643 </v>
   <v>      -0.31353895       0.29696027      -0.12421907 </v>
   <v>      -0.05881861      -0.21251028       0.38901707 </v>
   <v>      -0.18307819       0.03832066       0.38911544 </v>
   <v>       0.19131798      -0.21231878       0.38909819 </v>
   <v>      -0.05805381       0.28723977       0.38894745 </v>
   <v>       0.31632104       0.03751363       0.38906771 </v>
   <v>       0.31464884      -0.46133760      -0.12418803 </v>
   <v>       0.19126810       0.28804885       0.38914622 </v>
   <v>      -0.18659723      -0.46156129      -0.12442913 </v>
   <v>      -0.43660734       0.03893837      -0.12420182 </v>
   <v>      -0.30848330      -0.21213580       0.38905536 </v>
   <v>       0.06637084      -0.46288008       0.38904914 </v>
   <v>      -0.30847552       0.28735593       0.38907215 </v>
   <v>       0.44129173      -0.21234926       0.38907068 </v>
   <v>       0.44133222       0.28762910       0.38908856 </v>
   <v>      -0.18361033      -0.46285671       0.38914365 </v>
   <v>      -0.43351247       0.03768662       0.38905989 </v>
   <v>       0.31629833      -0.46217635       0.38906568 </v>
   <v>      -0.43637895      -0.46089718      -0.12431619 </v>
   <v>      -0.05832124      -0.03684169      -0.16644699 </v>
   <v>       0.19137991      -0.03731085      -0.16667597 </v>
   <v>       0.06645562       0.21349983      -0.16635426 </v>
   <v>       0.06591952      -0.28490872      -0.16636796 </v>
   <v>      -0.18221579       0.21396489      -0.16664665 </v>
   <v>       0.31674236       0.21181103      -0.16667425 </v>
   <v>      -0.43369048      -0.46229114       0.38911474 </v>
   <v>      -0.18307381      -0.28571339      -0.16695515 </v>
   <v>      -0.30845651      -0.03826909      -0.16687292 </v>
   <v>       0.31765465      -0.28762229      -0.16719415 </v>
   <v>       0.44267959      -0.03825117      -0.16690800 </v>
   <v>      -0.05837515       0.46276803      -0.16645934 </v>
   <v>       0.19174346       0.46266434      -0.16682167 </v>
   <v>       0.06251750      -0.12953232       0.43444289 </v>
   <v>       0.18787805       0.12019637       0.43443352 </v>
   <v>      -0.06294176       0.12033178       0.43463164 </v>
   <v>      -0.43407306       0.21289205      -0.16699572 </v>
   <v>      -0.30799880       0.46124178      -0.16694024 </v>
   <v>       0.44172267       0.46238734      -0.16685736 </v>
   <v>      -0.43368758      -0.28729756      -0.16689429 </v>
   <v>      -0.18816247      -0.12913931       0.43433978 </v>
   <v>       0.31202477      -0.12968663       0.43445390 </v>
   <v>       0.06224973       0.37041975       0.43441965 </v>
   <v>      -0.06315568      -0.37938802       0.43438519 </v>
   <v>       0.18750376      -0.37954725       0.43447463 </v>
   <v>       0.43693488       0.12076425       0.43436311 </v>
   <v>      -0.31260491       0.12035587       0.43443027 </v>
   <v>      -0.18758462       0.37163362       0.43436194 </v>
   <v>       0.31222006       0.37044363       0.43443100 </v>
   <v>      -0.31217827      -0.37946167       0.43445062 </v>
   <v>       0.43703225      -0.37963527       0.43443991 </v>
   <v>      -0.43808886      -0.12931603       0.43443051 </v>
   <v>      -0.43782914       0.37107615       0.43442129 </v>
   <v>       0.06012935      -0.12743613      -0.21175271 </v>
   <v>       0.18496477       0.12146631      -0.21163693 </v>
   <v>      -0.06469433       0.12272813      -0.21168038 </v>
   <v>      -0.19002725      -0.12788400      -0.21176673 </v>
   <v>       0.31123036      -0.12871440      -0.21193445 </v>
   <v>       0.06083576       0.37300460      -0.21190243 </v>
   <v>       0.43529234       0.12121445      -0.21131698 </v>
   <v>       0.18536983      -0.37930949      -0.21192922 </v>
   <v>      -0.06576851      -0.37741629      -0.21201239 </v>
   <v>      -0.31655465       0.12203527      -0.21160648 </v>
   <v>       0.31066412       0.37208153      -0.21180213 </v>
   <v>      -0.18937688       0.37267577      -0.21185055 </v>
   <v>       0.43447174      -0.37896745      -0.21153346 </v>
   <v>      -0.43968709      -0.12799601      -0.21170153 </v>
   <v>      -0.31488645      -0.37850988      -0.21181778 </v>
   <v>       0.18700309      -0.04445903       0.47859635 </v>
   <v>      -0.06276494      -0.04492625       0.47871542 </v>
   <v>       0.06249953       0.20557686       0.47867814 </v>
   <v>      -0.43970970       0.37156999      -0.21162456 </v>
   <v>       0.06218233      -0.29436905       0.47859746 </v>
   <v>       0.31231121       0.20578320       0.47861113 </v>
   <v>      -0.18795042       0.20566782       0.47866322 </v>
   <v>       0.31225034      -0.29415259       0.47861650 </v>
   <v>      -0.18777015      -0.29430771       0.47864496 </v>
   <v>       0.43719937      -0.04426570       0.47863463 </v>
   <v>      -0.31275169      -0.04415015       0.47864252 </v>
   <v>      -0.06290406       0.45564656       0.47861105 </v>
   <v>       0.18723180       0.45562812       0.47863408 </v>
   <v>      -0.43775273       0.20579737       0.47862838 </v>
   <v>       0.43726939       0.45567087       0.47863827 </v>
   <v>      -0.31295669       0.45546936       0.47870531 </v>
   <v>      -0.43789128      -0.29410492       0.47861828 </v>
   <v>       0.06570433       0.03964737      -0.25601033 </v>
   <v>      -0.05943354      -0.20986669      -0.25583715 </v>
   <v>       0.19042279      -0.20961610      -0.25598666 </v>
   <v>      -0.18457303       0.04031261      -0.25612539 </v>
   <v>      -0.05998551       0.28945563      -0.25600040 </v>
   <v>       0.31536176       0.04068173      -0.25612789 </v>
   <v>       0.19091403       0.29013916      -0.25602948 </v>
   <v>       0.06572144      -0.46017961      -0.25600075 </v>
   <v>      -0.30989504      -0.20903163      -0.25598545 </v>
   <v>       0.43966985      -0.20973350      -0.25589576 </v>
   <v>      -0.30921085       0.29044451      -0.25608189 </v>
   <v>       0.43992133       0.29099237      -0.25601639 </v>
   <v>       0.31548298      -0.45988269      -0.25579520 </v>
   <v>      -0.18442918      -0.46015232      -0.25606176 </v>
   <v>      -0.43418442       0.04030807      -0.25604329 </v>
   <v>       0.06155360      -0.12869877      -0.47860827 </v>
   <v>       0.18667850       0.12086544      -0.47874486 </v>
   <v>      -0.06364517       0.12138851      -0.47866089 </v>
   <v>       0.31134895      -0.12852629      -0.47870212 </v>
   <v>      -0.18845679      -0.12863600      -0.47863153 </v>
   <v>       0.06123829       0.37158424      -0.47860877 </v>
   <v>       0.18661215      -0.37879123      -0.47870180 </v>
   <v>      -0.06350048      -0.37886046      -0.47869467 </v>
   <v>       0.43659777       0.12150235      -0.47865792 </v>
   <v>      -0.31340904       0.12147180      -0.47866535 </v>
   <v>       0.31134004       0.37132323      -0.47871342 </v>
   <v>      -0.18803289       0.37130539      -0.47869445 </v>
   <v>      -0.43422856      -0.45942023      -0.25606261 </v>
   <v>      -0.31369360      -0.37851879      -0.47873264 </v>
   <v>       0.43656893      -0.37842856      -0.47862600 </v>
   <v>      -0.43833661      -0.12822488      -0.47861085 </v>
   <v>      -0.43842676       0.37142771      -0.47869089 </v>
   <v>       0.18523730      -0.04171962      -0.30029927 </v>
   <v>      -0.06492818      -0.04162655      -0.30038712 </v>
   <v>       0.06011037       0.20792955      -0.30047095 </v>
   <v>       0.06049302      -0.29211553      -0.30045676 </v>
   <v>       0.31030426       0.20813175      -0.30031771 </v>
   <v>      -0.18942063       0.20755268      -0.30034568 </v>
   <v>       0.31040147      -0.29222246      -0.30041210 </v>
   <v>      -0.18995248      -0.29201568      -0.30042944 </v>
   <v>       0.43503212      -0.04184852      -0.30046661 </v>
   <v>      -0.31493559      -0.04191297      -0.30036829 </v>
   <v>       0.18478346       0.45816844      -0.30040092 </v>
   <v>      -0.06499157       0.45808033      -0.30037842 </v>
   <v>      -0.43980411       0.20786667      -0.30037144 </v>
   <v>       0.43500549       0.45768418      -0.30047742 </v>
   <v>      -0.31486268       0.45794135      -0.30038518 </v>
   <v>       0.18681084      -0.04263532      -0.43457787 </v>
   <v>      -0.06301977      -0.04278719      -0.43458001 </v>
   <v>      -0.43961855      -0.29237567      -0.30041703 </v>
   <v>       0.06333607       0.20653656      -0.43438906 </v>
   <v>       0.06174091      -0.29367214      -0.43449657 </v>
   <v>       0.31131168       0.20650021      -0.43459987 </v>
   <v>      -0.18882389       0.20675536      -0.43462127 </v>
   <v>       0.31187554      -0.29297596      -0.43460982 </v>
   <v>      -0.18849377      -0.29332631      -0.43453299 </v>
   <v>      -0.31217612      -0.04260008      -0.43462267 </v>
   <v>       0.43679310      -0.04266438      -0.43456773 </v>
   <v>       0.18687229       0.45731433      -0.43458233 </v>
   <v>      -0.06290509       0.45704053      -0.43445119 </v>
   <v>      -0.43752579       0.20724194      -0.43453453 </v>
   <v>       0.43678870       0.45785754      -0.43462092 </v>
   <v>      -0.31300857       0.45734983      -0.43456270 </v>
   <v>      -0.43793349      -0.29276250      -0.43457098 </v>
   <v>       0.06621746      -0.12583789      -0.34509919 </v>
   <v>      -0.05837794       0.12502756      -0.34510400 </v>
   <v>       0.19143044       0.12504940      -0.34510833 </v>
   <v>      -0.18364417      -0.12554064      -0.34505507 </v>
   <v>       0.31667463      -0.12498377      -0.34514032 </v>
   <v>       0.06646875       0.37487056      -0.34508845 </v>
   <v>      -0.05853937      -0.37478650      -0.34508892 </v>
   <v>       0.19128632      -0.37492818      -0.34502908 </v>
   <v>      -0.30873992       0.12488386      -0.34507547 </v>
   <v>      -0.18370046       0.37493060      -0.34504496 </v>
   <v>       0.31658398       0.37478241      -0.34507999 </v>
   <v>       0.44237200       0.12470446      -0.34532624 </v>
   <v>      -0.30868907      -0.37504275      -0.34507092 </v>
   <v>      -0.43381967      -0.12558313      -0.34510717 </v>
   <v>       0.44137231      -0.37525157      -0.34511260 </v>
   <v>      -0.43342316       0.37433946      -0.34515127 </v>
   <v>       0.05847422       0.03768099      -0.38908343 </v>
   <v>       0.18350381      -0.21195187      -0.38915042 </v>
   <v>      -0.06617361      -0.21237809      -0.38909818 </v>
   <v>       0.30855471       0.03785853      -0.38908747 </v>
   <v>       0.18399830       0.28799423      -0.38921441 </v>
   <v>      -0.06635603       0.28776929      -0.38921217 </v>
   <v>      -0.19101508       0.03808411      -0.38906186 </v>
   <v>       0.05860409      -0.46202476      -0.38910924 </v>
   <v>       0.43381144      -0.21188672      -0.38910287 </v>
   <v>      -0.31639386      -0.21202827      -0.38913597 </v>
   <v>       0.43367985       0.28789294      -0.38912016 </v>
   <v>      -0.31644485       0.28812705      -0.38913053 </v>
   <v>       0.30872819      -0.46204817      -0.38911693 </v>
   <v>      -0.19132618      -0.46225072      -0.38909894 </v>
   <v>      -0.44147072       0.03806988      -0.38908682 </v>
   <v>      -0.44134390      -0.46170703      -0.38920725 </v>
  </varray>
 </structure>
 <varray name="primitive_index" >
  <v type="int" >        1 </v>
  <v type="int" >      125 </v>
  <v type="int" >       60 </v>
  <v type="int" >       83 </v>
  <v type="int" >       44 </v>
  <v type="int" >       26 </v>
  <v type="int" >      202 </v>
  <v type="int" >      256 </v>
  <v type="int" >      111 </v>
  <v type="int" >      155 </v>
  <v type="int" >       13 </v>
  <v type="int" >       51 </v>
  <v type="int" >      102 </v>
  <v type="int" >      182 </v>
  <v type="int" >      108 </v>
  <v type="int" >      212 </v>
  <v type="int" >      170 </v>
  <v type="int" >       20 </v>
  <v type="int" >      146 </v>
  <v type="int" >      104 </v>
  <v type="int" >       50 </v>
  <v type="int" >      163 </v>
  <v type="int" >      176 </v>
  <v type="int" >      117 </v>
  <v type="int" >      166 </v>
  <v type="int" >      284 </v>
  <v type="int" >      145 </v>
  <v type="int" >      250 </v>
  <v type="int" >      167 </v>
  <v type="int" >       91 </v>
  <v type="int" >      205 </v>
  <v type="int" >      114 </v>
  <v type="int" >      278 </v>
  <v type="int" >      192 </v>
  <v type="int" >      213 </v>
  <v type="int" >      174 </v>
  <v type="int" >       92 </v>
  <v type="int" >      276 </v>
  <v type="int" >      229 </v>
  <v type="int" >       97 </v>
  <v type="int" >      175 </v>
  <v type="int" >      189 </v>
  <v type="int" >       30 </v>
  <v type="int" >      185 </v>
  <v type="int" >      200 </v>
  <v type="int" >      179 </v>
  <v type="int" >       52 </v>
  <v type="int" >      103 </v>
  <v type="int" >       24 </v>
  <v type="int" >      112 </v>
  <v type="int" >      283 </v>
  <v type="int" >      127 </v>
  <v type="int" >      261 </v>
  <v type="int" >      139 </v>
  <v type="int" >      243 </v>
  <v type="int" >      168 </v>
  <v type="int" >      137 </v>
  <v type="int" >      118 </v>
  <v type="int" >      265 </v>
  <v type="int" >       58 </v>
  <v type="int" >      275 </v>
  <v type="int" >       81 </v>
  <v type="int" >      221 </v>
  <v type="int" >      214 </v>
  <v type="int" >      135 </v>
  <v type="int" >      215 </v>
  <v type="int" >       72 </v>
  <v type="int" >       98 </v>
  <v type="int" >      226 </v>
  <v type="int" >      178 </v>
  <v type="int" >       28 </v>
  <v type="int" >      263 </v>
  <v type="int" >      109 </v>
  <v type="int" >      220 </v>
  <v type="int" >      159 </v>
  <v type="int" >      242 </v>
  <v type="int" >      130 </v>
  <v type="int" >      210 </v>
  <v type="int" >      101 </v>
  <v type="int" >      171 </v>
  <v type="int" >      258 </v>
  <v type="int" >      194 </v>
  <v type="int" >       47 </v>
  <v type="int" >      216 </v>
  <v type="int" >       86 </v>
  <v type="int" >      207 </v>
  <v type="int" >      208 </v>
  <v type="int" >      172 </v>
  <v type="int" >       73 </v>
  <v type="int" >       25 </v>
  <v type="int" >      116 </v>
  <v type="int" >       12 </v>
  <v type="int" >      219 </v>
  <v type="int" >      206 </v>
  <v type="int" >       48 </v>
  <v type="int" >      282 </v>
  <v type="int" >      164 </v>
  <v type="int" >      268 </v>
  <v type="int" >      281 </v>
  <v type="int" >       14 </v>
  <v type="int" >      245 </v>
  <v type="int" >      120 </v>
  <v type="int" >      280 </v>
  <v type="int" >      124 </v>
  <v type="int" >      150 </v>
  <v type="int" >      266 </v>
  <v type="int" >       29 </v>
  <v type="int" >      255 </v>
  <v type="int" >      191 </v>
  <v type="int" >      190 </v>
  <v type="int" >      279 </v>
  <v type="int" >       62 </v>
  <v type="int" >      277 </v>
  <v type="int" >      165 </v>
  <v type="int" >       18 </v>
  <v type="int" >      248 </v>
  <v type="int" >      231 </v>
  <v type="int" >      161 </v>
  <v type="int" >       45 </v>
  <v type="int" >      273 </v>
  <v type="int" >       84 </v>
  <v type="int" >      264 </v>
  <v type="int" >        4 </v>
  <v type="int" >      123 </v>
  <v type="int" >       16 </v>
  <v type="int" >       67 </v>
  <v type="int" >       64 </v>
  <v type="int" >       17 </v>
  <v type="int" >        7 </v>
  <v type="int" >      259 </v>
  <v type="int" >      134 </v>
  <v type="int" >        6 </v>
  <v type="int" >       39 </v>
  <v type="int" >      222 </v>
  <v type="int" >      253 </v>
  <v type="int" >       88 </v>
  <v type="int" >        5 </v>
  <v type="int" >      110 </v>
  <v type="int" >       36 </v>
  <v type="int" >      181 </v>
  <v type="int" >      204 </v>
  <v type="int" >      160 </v>
  <v type="int" >      158 </v>
  <v type="int" >      143 </v>
  <v type="int" >       82 </v>
  <v type="int" >       74 </v>
  <v type="int" >      241 </v>
  <v type="int" >      235 </v>
  <v type="int" >       23 </v>
  <v type="int" >      218 </v>
  <v type="int" >      131 </v>
  <v type="int" >      238 </v>
  <v type="int" >      201 </v>
  <v type="int" >      257 </v>
  <v type="int" >       80 </v>
  <v type="int" >      113 </v>
  <v type="int" >      232 </v>
  <v type="int" >      249 </v>
  <v type="int" >       69 </v>
  <v type="int" >      251 </v>
  <v type="int" >      197 </v>
  <v type="int" >        3 </v>
  <v type="int" >      149 </v>
  <v type="int" >       55 </v>
  <v type="int" >      224 </v>
  <v type="int" >      254 </v>
  <v type="int" >       49 </v>
  <v type="int" >      272 </v>
  <v type="int" >      132 </v>
  <v type="int" >      188 </v>
  <v type="int" >      138 </v>
  <v type="int" >       57 </v>
  <v type="int" >      184 </v>
  <v type="int" >       33 </v>
  <v type="int" >       66 </v>
  <v type="int" >       94 </v>
  <v type="int" >      236 </v>
  <v type="int" >      223 </v>
  <v type="int" >      106 </v>
  <v type="int" >      157 </v>
  <v type="int" >      230 </v>
  <v type="int" >       21 </v>
  <v type="int" >       99 </v>
  <v type="int" >      234 </v>
  <v type="int" >      105 </v>
  <v type="int" >       75 </v>
  <v type="int" >      269 </v>
  <v type="int" >      244 </v>
  <v type="int" >      237 </v>
  <v type="int" >      156 </v>
  <v type="int" >      199 </v>
  <v type="int" >      169 </v>
  <v type="int" >        9 </v>
  <v type="int" >       46 </v>
  <v type="int" >      262 </v>
  <v type="int" >      151 </v>
  <v type="int" >      187 </v>
  <v type="int" >      239 </v>
  <v type="int" >       11 </v>
  <v type="int" >      211 </v>
  <v type="int" >       43 </v>
  <v type="int" >       31 </v>
  <v type="int" >       19 </v>
  <v type="int" >       71 </v>
  <v type="int" >      288 </v>
  <v type="int" >       87 </v>
  <v type="int" >      267 </v>
  <v type="int" >       27 </v>
  <v type="int" >      140 </v>
  <v type="int" >      286 </v>
  <v type="int" >      144 </v>
  <v type="int" >       10 </v>
  <v type="int" >      107 </v>
  <v type="int" >       68 </v>
  <v type="int" >      203 </v>
  <v type="int" >      119 </v>
  <v type="int" >       34 </v>
  <v type="int" >      183 </v>
  <v type="int" >      177 </v>
  <v type="int" >      270 </v>
  <v type="int" >      195 </v>
  <v type="int" >      252 </v>
  <v type="int" >       77 </v>
  <v type="int" >      247 </v>
  <v type="int" >      173 </v>
  <v type="int" >      225 </v>
  <v type="int" >       37 </v>
  <v type="int" >      274 </v>
  <v type="int" >       63 </v>
  <v type="int" >      233 </v>
  <v type="int" >      154 </v>
  <v type="int" >      141 </v>
  <v type="int" >       38 </v>
  <v type="int" >       54 </v>
  <v type="int" >      246 </v>
  <v type="int" >      152 </v>
  <v type="int" >       53 </v>
  <v type="int" >      193 </v>
  <v type="int" >       76 </v>
  <v type="int" >      162 </v>
  <v type="int" >      129 </v>
  <v type="int" >      133 </v>
  <v type="int" >      287 </v>
  <v type="int" >       65 </v>
  <v type="int" >       93 </v>
  <v type="int" >      271 </v>
  <v type="int" >       90 </v>
  <v type="int" >       32 </v>
  <v type="int" >       95 </v>
  <v type="int" >       56 </v>
  <v type="int" >       59 </v>
  <v type="int" >       42 </v>
  <v type="int" >        8 </v>
  <v type="int" >       70 </v>
  <v type="int" >      228 </v>
  <v type="int" >      186 </v>
  <v type="int" >      196 </v>
  <v type="int" >      122 </v>
  <v type="int" >      121 </v>
  <v type="int" >       79 </v>
  <v type="int" >        2 </v>
  <v type="int" >      198 </v>
  <v type="int" >      240 </v>
  <v type="int" >      153 </v>
  <v type="int" >      209 </v>
  <v type="int" >       35 </v>
  <v type="int" >       85 </v>
  <v type="int" >      285 </v>
  <v type="int" >      227 </v>
  <v type="int" >       89 </v>
  <v type="int" >       40 </v>
  <v type="int" >       78 </v>
  <v type="int" >      142 </v>
  <v type="int" >       15 </v>
  <v type="int" >      136 </v>
  <v type="int" >      148 </v>
  <v type="int" >       61 </v>
  <v type="int" >      100 </v>
  <v type="int" >      217 </v>
  <v type="int" >      126 </v>
  <v type="int" >       96 </v>
  <v type="int" >      180 </v>
  <v type="int" >      115 </v>
  <v type="int" >      147 </v>
  <v type="int" >       41 </v>
  <v type="int" >       22 </v>
  <v type="int" >      260 </v>
  <v type="int" >      128 </v>
 </varray>
 <kpoints>
  <generation param="Gamma">
   <v type="int" name="divisions">       4        4        1 </v>
   <v name="usershift">      0.00000000       0.00000000       0.00000000 </v>
   <v name="genvec1">      0.25000000       0.00000000       0.00000000 </v>
   <v name="genvec2">      0.00000000       0.25000000       0.00000000 </v>
   <v name="genvec3">      0.00000000       0.00000000       1.00000000 </v>
   <v name="shift">      0.00000000       0.00000000       0.00000000 </v>
  </generation>
  <varray name="kpointlist" >
   <v>       0.00000000       0.00000000       0.00000000 </v>
   <v>       0.25000000       0.00000000       0.00000000 </v>
   <v>       0.50000000       0.00000000       0.00000000 </v>
   <v>       0.00000000       0.25000000       0.00000000 </v>
   <v>       0.25000000       0.25000000       0.00000000 </v>
   <v>       0.50000000       0.25000000       0.00000000 </v>
   <v>      -0.25000000       0.25000000       0.00000000 </v>
   <v>       0.00000000       0.50000000       0.00000000 </v>
   <v>       0.25000000       0.50000000       0.00000000 </v>
   <v>       0.50000000       0.50000000       0.00000000 </v>
  </varray>
  <varray name="weights" >
   <v>       0.06250000 </v>
   <v>       0.12500000 </v>
   <v>       0.06250000 </v>
   <v>       0.12500000 </v>
   <v>       0.12500000 </v>
   <v>       0.12500000 </v>
   <v>       0.12500000 </v>
   <v>       0.06250000 </v>
   <v>       0.12500000 </v>
   <v>       0.06250000 </v>
  </varray>
 </kpoints>
 <parameters>
  <separator name="general" >
   <i type="string" name="SYSTEM">unknown system</i>
   <i type="logical" name="LCOMPAT"> F  </i>
  </separator>
  <separator name="electronic" >
   <i type="string" name="PREC">accura</i>
   <i name="ENMAX">    450.00000000</i>
   <i name="ENAUG">    838.43500000</i>
   <i name="EDIFF">      0.00000100</i>
   <i type="int" name="IALGO">    68</i>
   <i type="int" name="IWAVPR">    11</i>
   <i type="int" name="NBANDS">  1386</i>
   <i name="NELECT">   2290.00000000</i>
   <i type="int" name="TURBO">     0</i>
   <i type="int" name="IRESTART">     0</i>
   <i type="int" name="NREBOOT">     0</i>
   <i type="int" name="NMIN">     0</i>
   <i name="EREF">      0.00000000</i>
   <separator name="electronic smearing" >
    <i type="int" name="ISMEAR">     0</i>
    <i name="SIGMA">      0.15000000</i>
    <i name="KSPACING">      0.50000000</i>
    <i type="logical" name="KGAMMA"> T  </i>
   </separator>
   <separator name="electronic projectors" >
    <i type="logical" name="LREAL"> T  </i>
    <v name="ROPT">     -0.00025000     -0.00025000</v>
    <i type="int" name="LMAXPAW">  -100</i>
    <i type="int" name="LMAXMIX">     2</i>
    <i type="logical" name="NLSPLINE"> F  </i>
   </separator>
   <separator name="electronic startup" >
    <i type="int" name="ISTART">     0</i>
    <i type="int" name="ICHARG">     2</i>
    <i type="int" name="INIWAV">     1</i>
   </separator>
   <separator name="electronic spin" >
    <i type="int" name="ISPIN">     1</i>
    <i type="logical" name="LNONCOLLINEAR"> F  </i>
    <v name="MAGMOM">      1.00000000      1.00000000      1.00000000      1.00000000      1.00000000      1.00000000      1.00000000      1.00000000      1.00000000      1.00000000      1.00000000      1.00000000      1.00000000      1.00000000      1.00000000      1.00000000      1.00000000      1.00000000      1.00000000      1.00000000
      1.00000000      1.00000000      1.00000000      1.00000000      1.00000000      1.00000000      1.00000000      1.00000000      1.00000000      1.00000000      1.00000000      1.00000000      1.00000000      1.00000000      1.00000000      1.00000000      1.00000000      1.00000000      1.00000000      1.00000000
      1.00000000      1.00000000      1.00000000      1.00000000      1.00000000      1.00000000      1.00000000      1.00000000      1.00000000      1.00000000      1.00000000      1.00000000      1.00000000      1.00000000      1.00000000      1.00000000      1.00000000      1.00000000      1.00000000      1.00000000
      1.00000000      1.00000000      1.00000000      1.00000000      1.00000000      1.00000000      1.00000000      1.00000000      1.00000000      1.00000000      1.00000000      1.00000000      1.00000000      1.00000000      1.00000000      1.00000000      1.00000000      1.00000000      1.00000000      1.00000000
      1.00000000      1.00000000      1.00000000      1.00000000      1.00000000      1.00000000      1.00000000      1.00000000      1.00000000      1.00000000      1.00000000      1.00000000      1.00000000      1.00000000      1.00000000      1.00000000      1.00000000      1.00000000      1.00000000      1.00000000
      1.00000000      1.00000000      1.00000000      1.00000000      1.00000000      1.00000000      1.00000000      1.00000000      1.00000000      1.00000000      1.00000000      1.00000000      1.00000000      1.00000000      1.00000000      1.00000000      1.00000000      1.00000000      1.00000000      1.00000000
      1.00000000      1.00000000      1.00000000      1.00000000      1.00000000      1.00000000      1.00000000      1.00000000      1.00000000      1.00000000      1.00000000      1.00000000      1.00000000      1.00000000      1.00000000      1.00000000      1.00000000      1.00000000      1.00000000      1.00000000
      1.00000000      1.00000000      1.00000000      1.00000000      1.00000000      1.00000000      1.00000000      1.00000000      1.00000000      1.00000000      1.00000000      1.00000000      1.00000000      1.00000000      1.00000000      1.00000000      1.00000000      1.00000000      1.00000000      1.00000000
      1.00000000      1.00000000      1.00000000      1.00000000      1.00000000      1.00000000      1.00000000      1.00000000      1.00000000      1.00000000      1.00000000      1.00000000      1.00000000      1.00000000      1.00000000      1.00000000      1.00000000      1.00000000      1.00000000      1.00000000
      1.00000000      1.00000000      1.00000000      1.00000000      1.00000000      1.00000000      1.00000000      1.00000000      1.00000000      1.00000000      1.00000000      1.00000000      1.00000000      1.00000000      1.00000000      1.00000000      1.00000000      1.00000000      1.00000000      1.00000000
      1.00000000      1.00000000      1.00000000      1.00000000      1.00000000      1.00000000      1.00000000      1.00000000      1.00000000      1.00000000      1.00000000      1.00000000      1.00000000      1.00000000      1.00000000      1.00000000      1.00000000      1.00000000      1.00000000      1.00000000
      1.00000000      1.00000000      1.00000000      1.00000000      1.00000000      1.00000000      1.00000000      1.00000000      1.00000000      1.00000000      1.00000000      1.00000000      1.00000000      1.00000000      1.00000000      1.00000000      1.00000000      1.00000000      1.00000000      1.00000000
      1.00000000      1.00000000      1.00000000      1.00000000      1.00000000      1.00000000      1.00000000      1.00000000      1.00000000      1.00000000      1.00000000      1.00000000      1.00000000      1.00000000      1.00000000      1.00000000      1.00000000      1.00000000      1.00000000      1.00000000
      1.00000000      1.00000000      1.00000000      1.00000000      1.00000000      1.00000000      1.00000000      1.00000000      1.00000000      1.00000000      1.00000000      1.00000000      1.00000000      1.00000000      1.00000000      1.00000000      1.00000000      1.00000000      1.00000000      1.00000000
      1.00000000      1.00000000      1.00000000      1.00000000      1.00000000      1.00000000      1.00000000      1.00000000</v>
    <i name="NUPDOWN">     -1.00000000</i>
    <i type="logical" name="LSORBIT"> F  </i>
    <v name="SAXIS">      0.00000000      0.00000000      1.00000000</v>
    <i type="logical" name="LSPIRAL"> F  </i>
    <v name="QSPIRAL">      0.00000000      0.00000000      0.00000000</v>
    <i type="logical" name="LZEROZ"> F  </i>
   </separator>
   <separator name="electronic exchange-correlation" >
    <i type="logical" name="LASPH"> F  </i>
    <i type="logical" name="LMETAGGA"> F  </i>
   </separator>
   <separator name="electronic convergence" >
    <i type="int" name="NELM">   100</i>
    <i type="int" name="NELMDL">     0</i>
    <i type="int" name="NELMIN">     4</i>
    <i name="ENINI">    450.00000000</i>
    <separator name="electronic convergence detail" >
     <i type="logical" name="LDIAG"> T  </i>
     <i type="logical" name="LSUBROT"> F  </i>
     <i name="WEIMIN">      0.00100000</i>
     <i name="EBREAK">      0.00000000</i>
     <i name="DEPER">      0.30000000</i>
     <i type="int" name="NRMM">     4</i>
     <i name="TIME">      0.40000000</i>
    </separator>
   </separator>
   <separator name="electronic mixer" >
    <i name="AMIX">      0.40000000</i>
    <i name="BMIX">      1.00000000</i>
    <i name="AMIN">      0.10000000</i>
    <i name="AMIX_MAG">      1.60000000</i>
    <i name="BMIX_MAG">      1.00000000</i>
    <separator name="electronic mixer details" >
     <i type="int" name="IMIX">     4</i>
     <i type="logical" name="MIXFIRST"> F  </i>
     <i type="int" name="MAXMIX">   -45</i>
     <i name="WC">    100.00000000</i>
     <i type="int" name="INIMIX">     1</i>
     <i type="int" name="MIXPRE">     1</i>
     <i type="int" name="MREMOVE">     5</i>
    </separator>
   </separator>
   <separator name="electronic dipolcorrection" >
    <i type="logical" name="LDIPOL"> F  </i>
    <i type="logical" name="LMONO"> F  </i>
    <i type="int" name="IDIPOL">     0</i>
    <i name="EPSILON">      1.00000000</i>
    <v name="DIPOL">   -100.00000000   -100.00000000   -100.00000000</v>
    <i name="EFIELD">      0.00000000</i>
   </separator>
  </separator>
  <separator name="grids" >
   <i type="int" name="NGX">    70</i>
   <i type="int" name="NGY">    60</i>
   <i type="int" name="NGZ">   320</i>
   <i type="int" name="NGXF">   140</i>
   <i type="int" name="NGYF">   120</i>
   <i type="int" name="NGZF">   640</i>
   <i type="logical" name="ADDGRID"> F  </i>
  </separator>
  <separator name="ionic" >
   <i type="int" name="NSW">     5</i>
   <i type="int" name="IBRION">     2</i>
   <i type="int" name="MDALGO">     0</i>
   <i type="int" name="ISIF">     2</i>
   <i name="PSTRESS">      0.00000000</i>
   <i name="EDIFFG">      0.00001000</i>
   <i type="int" name="NFREE">     1</i>
   <i name="POTIM">      0.25000000</i>
   <i name="SMASS">     -3.00000000</i>
   <i name="SCALEE">      1.00000000</i>
  </separator>
  <separator name="ionic md" >
   <i name="TEBEG">      0.00010000</i>
   <i name="TEEND">      0.00010000</i>
   <i type="int" name="NBLOCK">     1</i>
   <i type="int" name="KBLOCK">     5</i>
   <i type="int" name="NPACO">   256</i>
   <i name="APACO">     16.00000000</i>
  </separator>
  <separator name="symmetry" >
   <i type="int" name="ISYM">     2</i>
   <i name="SYMPREC">      0.00001000</i>
  </separator>
  <separator name="dos" >
   <i type="int" name="LORBIT">     0</i>
   <v name="RWIGS">     -1.00000000     -1.00000000</v>
   <i type="int" name="NEDOS">   301</i>
   <i name="EMIN">     10.00000000</i>
   <i name="EMAX">    -10.00000000</i>
   <i name="EFERMI">      0.00000000</i>
  </separator>
  <separator name="writing" >
   <i type="int" name="NWRITE">     2</i>
   <i type="logical" name="LWAVE"> F  </i>
   <i type="logical" name="LDOWNSAMPLE"> F  </i>
   <i type="logical" name="LCHARG"> F  </i>
   <i type="logical" name="LPARD"> F  </i>
   <i type="logical" name="LVTOT"> F  </i>
   <i type="logical" name="LVHAR"> F  </i>
   <i type="logical" name="LELF"> F  </i>
   <i type="logical" name="LOPTICS"> F  </i>
   <v name="STM">      0.00000000      0.00000000      0.00000000      0.00000000      0.00000000      0.00000000      0.00000000</v>
  </separator>
  <separator name="performance" >
   <i type="int" name="NPAR">    14</i>
   <i type="int" name="NSIM">     4</i>
   <i type="int" name="NBLK">    -1</i>
   <i type="logical" name="LPLANE"> T  </i>
   <i type="logical" name="LSCALAPACK"> T  </i>
   <i type="logical" name="LSCAAWARE"> T  </i>
   <i type="logical" name="LSCALU"> F  </i>
   <i type="logical" name="LASYNC"> F  </i>
   <i type="logical" name="LORBITALREAL"> F  </i>
  </separator>
  <separator name="miscellaneous" >
   <i type="int" name="IDIOT">     3</i>
   <i type="int" name="ISPECIAL">     0</i>
   <i type="logical" name="LMUSIC"> F  </i>
   <v name="POMASS">     55.84700000     54.93800000</v>
   <v name="DARWINR">      0.00000000      0.00000000</v>
   <v name="DARWINV">      1.00000000      1.00000000</v>
   <i type="logical" name="LCORR"> T  </i>
  </separator>
  <i type="logical" name="GGA_COMPAT"> T  </i>
  <i type="logical" name="LBERRY"> F  </i>
  <i type="int" name="ICORELEVEL">     0</i>
  <i type="logical" name="LDAU"> F  </i>
  <i type="int" name="I_CONSTRAINED_M">     0</i>
  <separator name="electronic exchange-correlation" >
   <i type="string" name="GGA">--</i>
   <i type="int" name="VOSKOWN">     0</i>
   <i type="logical" name="LHFCALC"> F  </i>
   <i type="string" name="PRECFOCK"></i>
   <i type="logical" name="LSYMGRAD"> F  </i>
   <i type="logical" name="LHFONE"> F  </i>
   <i type="logical" name="LRHFCALC"> F  </i>
   <i type="logical" name="LTHOMAS"> F  </i>
   <i type="logical" name="LMODELHF"> F  </i>
   <i name="ENCUT4O">     -1.00000000</i>
   <i type="int" name="EXXOEP">     0</i>
   <i type="int" name="FOURORBIT">     0</i>
   <i name="AEXX">      0.00000000</i>
   <i name="HFALPHA">      0.00000000</i>
   <i name="MCALPHA">      0.00000000</i>
   <i name="ALDAX">      1.00000000</i>
   <i name="AGGAX">      1.00000000</i>
   <i name="ALDAC">      1.00000000</i>
   <i name="AGGAC">      1.00000000</i>
   <i type="int" name="NKREDX">     1</i>
   <i type="int" name="NKREDY">     1</i>
   <i type="int" name="NKREDZ">     1</i>
   <i type="logical" name="SHIFTRED"> F  </i>
   <i type="logical" name="ODDONLY"> F  </i>
   <i type="logical" name="EVENONLY"> F  </i>
   <i type="int" name="LMAXFOCK">     0</i>
   <i type="int" name="NMAXFOCKAE">     0</i>
   <i type="logical" name="LFOCKAEDFT"> F  </i>
   <i name="HFSCREEN">      0.00000000</i>
   <i name="HFSCREENC">      0.00000000</i>
   <i type="int" name="NBANDSGWLOW">     0</i>
  </separator>
  <separator name="vdW DFT" >
   <i type="logical" name="LUSE_VDW"> F  </i>
   <i name="Zab_VDW">     -0.84910000</i>
   <i name="PARAM1">      0.12340000</i>
   <i name="PARAM2">      1.00000000</i>
   <i name="PARAM3">      0.00000000</i>
  </separator>
  <separator name="model GW" >
   <i type="int" name="MODEL_GW">     0</i>
   <i name="MODEL_EPS0">      7.68123389</i>
   <i name="MODEL_ALPHA">      1.00000000</i>
  </separator>
  <separator name="linear response parameters" >
   <i type="logical" name="LEPSILON"> F  </i>
   <i type="logical" name="LRPA"> F  </i>
   <i type="logical" name="LNABLA"> F  </i>
   <i type="logical" name="LVEL"> F  </i>
   <i type="int" name="KINTER">     0</i>
   <i name="CSHIFT">      0.10000000</i>
   <i name="OMEGAMAX">     -1.00000000</i>
   <i name="DEG_THRESHOLD">      0.00200000</i>
   <i name="RTIME">     -0.10000000</i>
   <i name="WPLASMAI">      0.00000000</i>
   <v name="DFIELD">      0.00000000      0.00000000      0.00000000</v>
   <v name="WPLASMA">      0.00000000      0.00000000      0.00000000      0.00000000      0.00000000      0.00000000      0.00000000      0.00000000      0.00000000</v>
  </separator>
  <separator name="orbital magnetization" >
   <i type="logical" name="NUCIND"> F  </i>
   <v name="MAGPOS">      0.00000000      0.00000000      0.00000000</v>
   <i type="logical" name="LNICSALL"> T  </i>
   <i type="logical" name="ORBITALMAG"> F  </i>
   <i type="logical" name="LMAGBLOCH"> F  </i>
   <i type="logical" name="LCHIMAG"> F  </i>
   <i type="logical" name="LGAUGE"> T  </i>
   <i type="int" name="MAGATOM">     0</i>
   <v name="MAGDIPOL">      0.00000000      0.00000000      0.00000000</v>
   <v name="AVECCONST">      0.00000000      0.00000000      0.00000000</v>
  </separator>
  <separator name="response functions" >
   <i type="logical" name="LADDER"> F  </i>
   <i type="logical" name="LRPAFORCE"> F  </i>
   <i type="logical" name="LFXC"> F  </i>
   <i type="logical" name="LHARTREE"> T  </i>
   <i type="int" name="IBSE">     0</i>
   <v type="int" name="KPOINT">    -1     0     0     0</v>
   <i type="logical" name="LTCTE"> F  </i>
   <i type="logical" name="LTETE"> F  </i>
   <i type="logical" name="LTRIPLET"> F  </i>
   <i type="logical" name="LFXCEPS"> F  </i>
   <i type="logical" name="LFXHEG"> F  </i>
   <i type="int" name="NATURALO">     2</i>
   <i type="logical" name="L2ORDER"> F  </i>
   <i type="logical" name="LMP2LT"> F  </i>
   <i type="logical" name="LUSEW"> F  </i>
   <i name="ENCUTGW">     -2.00000000</i>
   <i name="ENCUTGWSOFT">     -2.00000000</i>
   <i name="ENCUTLF">     -1.00000000</i>
   <i type="int" name="LMAXMP2">    -1</i>
   <i name="SCISSOR">      0.00000000</i>
   <i type="int" name="NOMEGA">     0</i>
   <i type="int" name="NOMEGAR">     0</i>
   <i type="int" name="NBANDSGW">    -1</i>
   <i type="int" name="NBANDSO">    -1</i>
   <i type="int" name="NBANDSV">    -1</i>
   <i type="int" name="NELM">   100</i>
   <i type="int" name="NELMHF">     1</i>
   <i type="int" name="DIM">     3</i>
   <i type="int" name="ANTIRES">     0</i>
   <i name="OMEGAMAX">    -30.00000000</i>
   <i name="OMEGAMIN">    -30.00000000</i>
   <i name="OMEGATL">   -200.00000000</i>
   <i type="int" name="OMEGAGRID">   140</i>
   <i name="CSHIFT">     -0.10000000</i>
   <i type="logical" name="SELFENERGY"> F  </i>
   <i type="logical" name="LSPECTRAL"> F  </i>
   <i type="logical" name="LSPECTRALGW"> F  </i>
   <i type="logical" name="LSINGLES"> F  </i>
   <i type="logical" name="LFERMIGW"> F  </i>
   <i type="logical" name="ODDONLYGW"> F  </i>
   <i type="logical" name="EVENONLYGW"> F  </i>
   <i type="int" name="NKREDLFX">     1</i>
   <i type="int" name="NKREDLFY">     1</i>
   <i type="int" name="NKREDLFZ">     1</i>
   <i type="int" name="MAXMEM">  2800</i>
   <i type="int" name="TELESCOPE">     0</i>
   <i type="int" name="TAUPAR">     1</i>
   <i type="int" name="OMEGAPAR">    -1</i>
   <i name="LAMBDA">      1.00000000</i>
  </separator>
  <separator name="External order field" >
   <i name="OFIELD_KAPPA">      0.00000000</i>
   <v name="OFIELD_K">      0.00000000      0.00000000      0.00000000</v>
   <i name="OFIELD_Q6_NEAR">      0.00000000</i>
   <i name="OFIELD_Q6_FAR">      0.00000000</i>
   <i name="OFIELD_A">      0.00000000</i>
  </separator>
 </parameters>
 <atominfo>
  <atoms>     288 </atoms>
  <types>       2 </types>
  <array name="atoms" >
   <dimension dim="1">ion</dimension>
   <field type="string">element</field>
   <field type="int">atomtype</field>
   <set>
    <rc><c>Fe</c><c>   1</c></rc>
    <rc><c>Fe</c><c>   1</c></rc>
    <rc><c>Fe</c><c>   1</c></rc>
    <rc><c>Fe</c><c>   1</c></rc>
    <rc><c>Fe</c><c>   1</c></rc>
    <rc><c>Fe</c><c>   1</c></rc>
    <rc><c>Fe</c><c>   1</c></rc>
    <rc><c>Fe</c><c>   1</c></rc>
    <rc><c>Fe</c><c>   1</c></rc>
    <rc><c>Fe</c><c>   1</c></rc>
    <rc><c>Fe</c><c>   1</c></rc>
    <rc><c>Fe</c><c>   1</c></rc>
    <rc><c>Fe</c><c>   1</c></rc>
    <rc><c>Fe</c><c>   1</c></rc>
    <rc><c>Fe</c><c>   1</c></rc>
    <rc><c>Fe</c><c>   1</c></rc>
    <rc><c>Fe</c><c>   1</c></rc>
    <rc><c>Fe</c><c>   1</c></rc>
    <rc><c>Fe</c><c>   1</c></rc>
    <rc><c>Fe</c><c>   1</c></rc>
    <rc><c>Fe</c><c>   1</c></rc>
    <rc><c>Fe</c><c>   1</c></rc>
    <rc><c>Fe</c><c>   1</c></rc>
    <rc><c>Fe</c><c>   1</c></rc>
    <rc><c>Fe</c><c>   1</c></rc>
    <rc><c>Fe</c><c>   1</c></rc>
    <rc><c>Fe</c><c>   1</c></rc>
    <rc><c>Fe</c><c>   1</c></rc>
    <rc><c>Fe</c><c>   1</c></rc>
    <rc><c>Fe</c><c>   1</c></rc>
    <rc><c>Fe</c><c>   1</c></rc>
    <rc><c>Fe</c><c>   1</c></rc>
    <rc><c>Fe</c><c>   1</c></rc>
    <rc><c>Fe</c><c>   1</c></rc>
    <rc><c>Fe</c><c>   1</c></rc>
    <rc><c>Fe</c><c>   1</c></rc>
    <rc><c>Fe</c><c>   1</c></rc>
    <rc><c>Fe</c><c>   1</c></rc>
    <rc><c>Fe</c><c>   1</c></rc>
    <rc><c>Fe</c><c>   1</c></rc>
    <rc><c>Fe</c><c>   1</c></rc>
    <rc><c>Fe</c><c>   1</c></rc>
    <rc><c>Fe</c><c>   1</c></rc>
    <rc><c>Fe</c><c>   1</c></rc>
    <rc><c>Fe</c><c>   1</c></rc>
    <rc><c>Fe</c><c>   1</c></rc>
    <rc><c>Fe</c><c>   1</c></rc>
    <rc><c>Fe</c><c>   1</c></rc>
    <rc><c>Fe</c><c>   1</c></rc>
    <rc><c>Fe</c><c>   1</c></rc>
    <rc><c>Fe</c><c>   1</c></rc>
    <rc><c>Fe</c><c>   1</c></rc>
    <rc><c>Fe</c><c>   1</c></rc>
    <rc><c>Fe</c><c>   1</c></rc>
    <rc><c>Fe</c><c>   1</c></rc>
    <rc><c>Fe</c><c>   1</c></rc>
    <rc><c>Fe</c><c>   1</c></rc>
    <rc><c>Fe</c><c>   1</c></rc>
    <rc><c>Fe</c><c>   1</c></rc>
    <rc><c>Fe</c><c>   1</c></rc>
    <rc><c>Fe</c><c>   1</c></rc>
    <rc><c>Fe</c><c>   1</c></rc>
    <rc><c>Fe</c><c>   1</c></rc>
    <rc><c>Fe</c><c>   1</c></rc>
    <rc><c>Fe</c><c>   1</c></rc>
    <rc><c>Fe</c><c>   1</c></rc>
    <rc><c>Fe</c><c>   1</c></rc>
    <rc><c>Fe</c><c>   1</c></rc>
    <rc><c>Fe</c><c>   1</c></rc>
    <rc><c>Fe</c><c>   1</c></rc>
    <rc><c>Fe</c><c>   1</c></rc>
    <rc><c>Fe</c><c>   1</c></rc>
    <rc><c>Fe</c><c>   1</c></rc>
    <rc><c>Fe</c><c>   1</c></rc>
    <rc><c>Fe</c><c>   1</c></rc>
    <rc><c>Fe</c><c>   1</c></rc>
    <rc><c>Fe</c><c>   1</c></rc>
    <rc><c>Fe</c><c>   1</c></rc>
    <rc><c>Fe</c><c>   1</c></rc>
    <rc><c>Fe</c><c>   1</c></rc>
    <rc><c>Fe</c><c>   1</c></rc>
    <rc><c>Fe</c><c>   1</c></rc>
    <rc><c>Fe</c><c>   1</c></rc>
    <rc><c>Fe</c><c>   1</c></rc>
    <rc><c>Fe</c><c>   1</c></rc>
    <rc><c>Fe</c><c>   1</c></rc>
    <rc><c>Fe</c><c>   1</c></rc>
    <rc><c>Fe</c><c>   1</c></rc>
    <rc><c>Fe</c><c>   1</c></rc>
    <rc><c>Fe</c><c>   1</c></rc>
    <rc><c>Fe</c><c>   1</c></rc>
    <rc><c>Fe</c><c>   1</c></rc>
    <rc><c>Fe</c><c>   1</c></rc>
    <rc><c>Fe</c><c>   1</c></rc>
    <rc><c>Fe</c><c>   1</c></rc>
    <rc><c>Fe</c><c>   1</c></rc>
    <rc><c>Fe</c><c>   1</c></rc>
    <rc><c>Fe</c><c>   1</c></rc>
    <rc><c>Fe</c><c>   1</c></rc>
    <rc><c>Fe</c><c>   1</c></rc>
    <rc><c>Fe</c><c>   1</c></rc>
    <rc><c>Fe</c><c>   1</c></rc>
    <rc><c>Fe</c><c>   1</c></rc>
    <rc><c>Fe</c><c>   1</c></rc>
    <rc><c>Fe</c><c>   1</c></rc>
    <rc><c>Fe</c><c>   1</c></rc>
    <rc><c>Fe</c><c>   1</c></rc>
    <rc><c>Fe</c><c>   1</c></rc>
    <rc><c>Fe</c><c>   1</c></rc>
    <rc><c>Fe</c><c>   1</c></rc>
    <rc><c>Fe</c><c>   1</c></rc>
    <rc><c>Fe</c><c>   1</c></rc>
    <rc><c>Fe</c><c>   1</c></rc>
    <rc><c>Fe</c><c>   1</c></rc>
    <rc><c>Fe</c><c>   1</c></rc>
    <rc><c>Fe</c><c>   1</c></rc>
    <rc><c>Fe</c><c>   1</c></rc>
    <rc><c>Fe</c><c>   1</c></rc>
    <rc><c>Fe</c><c>   1</c></rc>
    <rc><c>Fe</c><c>   1</c></rc>
    <rc><c>Fe</c><c>   1</c></rc>
    <rc><c>Fe</c><c>   1</c></rc>
    <rc><c>Fe</c><c>   1</c></rc>
    <rc><c>Fe</c><c>   1</c></rc>
    <rc><c>Fe</c><c>   1</c></rc>
    <rc><c>Fe</c><c>   1</c></rc>
    <rc><c>Fe</c><c>   1</c></rc>
    <rc><c>Fe</c><c>   1</c></rc>
    <rc><c>Fe</c><c>   1</c></rc>
    <rc><c>Fe</c><c>   1</c></rc>
    <rc><c>Fe</c><c>   1</c></rc>
    <rc><c>Fe</c><c>   1</c></rc>
    <rc><c>Fe</c><c>   1</c></rc>
    <rc><c>Fe</c><c>   1</c></rc>
    <rc><c>Fe</c><c>   1</c></rc>
    <rc><c>Fe</c><c>   1</c></rc>
    <rc><c>Fe</c><c>   1</c></rc>
    <rc><c>Fe</c><c>   1</c></rc>
    <rc><c>Fe</c><c>   1</c></rc>
    <rc><c>Fe</c><c>   1</c></rc>
    <rc><c>Fe</c><c>   1</c></rc>
    <rc><c>Fe</c><c>   1</c></rc>
    <rc><c>Fe</c><c>   1</c></rc>
    <rc><c>Fe</c><c>   1</c></rc>
    <rc><c>Fe</c><c>   1</c></rc>
    <rc><c>Fe</c><c>   1</c></rc>
    <rc><c>Fe</c><c>   1</c></rc>
    <rc><c>Fe</c><c>   1</c></rc>
    <rc><c>Fe</c><c>   1</c></rc>
    <rc><c>Fe</c><c>   1</c></rc>
    <rc><c>Fe</c><c>   1</c></rc>
    <rc><c>Fe</c><c>   1</c></rc>
    <rc><c>Fe</c><c>   1</c></rc>
    <rc><c>Fe</c><c>   1</c></rc>
    <rc><c>Fe</c><c>   1</c></rc>
    <rc><c>Fe</c><c>   1</c></rc>
    <rc><c>Fe</c><c>   1</c></rc>
    <rc><c>Fe</c><c>   1</c></rc>
    <rc><c>Fe</c><c>   1</c></rc>
    <rc><c>Fe</c><c>   1</c></rc>
    <rc><c>Fe</c><c>   1</c></rc>
    <rc><c>Fe</c><c>   1</c></rc>
    <rc><c>Fe</c><c>   1</c></rc>
    <rc><c>Fe</c><c>   1</c></rc>
    <rc><c>Fe</c><c>   1</c></rc>
    <rc><c>Fe</c><c>   1</c></rc>
    <rc><c>Fe</c><c>   1</c></rc>
    <rc><c>Fe</c><c>   1</c></rc>
    <rc><c>Fe</c><c>   1</c></rc>
    <rc><c>Fe</c><c>   1</c></rc>
    <rc><c>Fe</c><c>   1</c></rc>
    <rc><c>Fe</c><c>   1</c></rc>
    <rc><c>Fe</c><c>   1</c></rc>
    <rc><c>Fe</c><c>   1</c></rc>
    <rc><c>Fe</c><c>   1</c></rc>
    <rc><c>Fe</c><c>   1</c></rc>
    <rc><c>Fe</c><c>   1</c></rc>
    <rc><c>Fe</c><c>   1</c></rc>
    <rc><c>Fe</c><c>   1</c></rc>
    <rc><c>Fe</c><c>   1</c></rc>
    <rc><c>Fe</c><c>   1</c></rc>
    <rc><c>Fe</c><c>   1</c></rc>
    <rc><c>Fe</c><c>   1</c></rc>
    <rc><c>Fe</c><c>   1</c></rc>
    <rc><c>Fe</c><c>   1</c></rc>
    <rc><c>Fe</c><c>   1</c></rc>
    <rc><c>Fe</c><c>   1</c></rc>
    <rc><c>Fe</c><c>   1</c></rc>
    <rc><c>Fe</c><c>   1</c></rc>
    <rc><c>Fe</c><c>   1</c></rc>
    <rc><c>Fe</c><c>   1</c></rc>
    <rc><c>Fe</c><c>   1</c></rc>
    <rc><c>Fe</c><c>   1</c></rc>
    <rc><c>Fe</c><c>   1</c></rc>
    <rc><c>Fe</c><c>   1</c></rc>
    <rc><c>Fe</c><c>   1</c></rc>
    <rc><c>Fe</c><c>   1</c></rc>
    <rc><c>Fe</c><c>   1</c></rc>
    <rc><c>Fe</c><c>   1</c></rc>
    <rc><c>Fe</c><c>   1</c></rc>
    <rc><c>Fe</c><c>   1</c></rc>
    <rc><c>Fe</c><c>   1</c></rc>
    <rc><c>Fe</c><c>   1</c></rc>
    <rc><c>Fe</c><c>   1</c></rc>
    <rc><c>Fe</c><c>   1</c></rc>
    <rc><c>Fe</c><c>   1</c></rc>
    <rc><c>Fe</c><c>   1</c></rc>
    <rc><c>Fe</c><c>   1</c></rc>
    <rc><c>Fe</c><c>   1</c></rc>
    <rc><c>Fe</c><c>   1</c></rc>
    <rc><c>Fe</c><c>   1</c></rc>
    <rc><c>Fe</c><c>   1</c></rc>
    <rc><c>Fe</c><c>   1</c></rc>
    <rc><c>Fe</c><c>   1</c></rc>
    <rc><c>Fe</c><c>   1</c></rc>
    <rc><c>Fe</c><c>   1</c></rc>
    <rc><c>Fe</c><c>   1</c></rc>
    <rc><c>Fe</c><c>   1</c></rc>
    <rc><c>Fe</c><c>   1</c></rc>
    <rc><c>Fe</c><c>   1</c></rc>
    <rc><c>Fe</c><c>   1</c></rc>
    <rc><c>Fe</c><c>   1</c></rc>
    <rc><c>Fe</c><c>   1</c></rc>
    <rc><c>Fe</c><c>   1</c></rc>
    <rc><c>Fe</c><c>   1</c></rc>
    <rc><c>Fe</c><c>   1</c></rc>
    <rc><c>Fe</c><c>   1</c></rc>
    <rc><c>Fe</c><c>   1</c></rc>
    <rc><c>Fe</c><c>   1</c></rc>
    <rc><c>Fe</c><c>   1</c></rc>
    <rc><c>Fe</c><c>   1</c></rc>
    <rc><c>Fe</c><c>   1</c></rc>
    <rc><c>Fe</c><c>   1</c></rc>
    <rc><c>Fe</c><c>   1</c></rc>
    <rc><c>Fe</c><c>   1</c></rc>
    <rc><c>Fe</c><c>   1</c></rc>
    <rc><c>Fe</c><c>   1</c></rc>
    <rc><c>Fe</c><c>   1</c></rc>
    <rc><c>Fe</c><c>   1</c></rc>
    <rc><c>Fe</c><c>   1</c></rc>
    <rc><c>Fe</c><c>   1</c></rc>
    <rc><c>Fe</c><c>   1</c></rc>
    <rc><c>Fe</c><c>   1</c></rc>
    <rc><c>Fe</c><c>   1</c></rc>
    <rc><c>Fe</c><c>   1</c></rc>
    <rc><c>Fe</c><c>   1</c></rc>
    <rc><c>Fe</c><c>   1</c></rc>
    <rc><c>Fe</c><c>   1</c></rc>
    <rc><c>Fe</c><c>   1</c></rc>
    <rc><c>Fe</c><c>   1</c></rc>
    <rc><c>Fe</c><c>   1</c></rc>
    <rc><c>Fe</c><c>   1</c></rc>
    <rc><c>Fe</c><c>   1</c></rc>
    <rc><c>Fe</c><c>   1</c></rc>
    <rc><c>Fe</c><c>   1</c></rc>
    <rc><c>Fe</c><c>   1</c></rc>
    <rc><c>Fe</c><c>   1</c></rc>
    <rc><c>Fe</c><c>   1</c></rc>
    <rc><c>Fe</c><c>   1</c></rc>
    <rc><c>Fe</c><c>   1</c></rc>
    <rc><c>Fe</c><c>   1</c></rc>
    <rc><c>Fe</c><c>   1</c></rc>
    <rc><c>Fe</c><c>   1</c></rc>
    <rc><c>Fe</c><c>   1</c></rc>
    <rc><c>Fe</c><c>   1</c></rc>
    <rc><c>Fe</c><c>   1</c></rc>
    <rc><c>Fe</c><c>   1</c></rc>
    <rc><c>Fe</c><c>   1</c></rc>
    <rc><c>Fe</c><c>   1</c></rc>
    <rc><c>Fe</c><c>   1</c></rc>
    <rc><c>Fe</c><c>   1</c></rc>
    <rc><c>Fe</c><c>   1</c></rc>
    <rc><c>Fe</c><c>   1</c></rc>
    <rc><c>Fe</c><c>   1</c></rc>
    <rc><c>Mn</c><c>   2</c></rc>
    <rc><c>Mn</c><c>   2</c></rc>
    <rc><c>Mn</c><c>   2</c></rc>
    <rc><c>Mn</c><c>   2</c></rc>
    <rc><c>Mn</c><c>   2</c></rc>
    <rc><c>Mn</c><c>   2</c></rc>
    <rc><c>Mn</c><c>   2</c></rc>
    <rc><c>Mn</c><c>   2</c></rc>
    <rc><c>Mn</c><c>   2</c></rc>
    <rc><c>Mn</c><c>   2</c></rc>
    <rc><c>Mn</c><c>   2</c></rc>
    <rc><c>Mn</c><c>   2</c></rc>
    <rc><c>Mn</c><c>   2</c></rc>
    <rc><c>Mn</c><c>   2</c></rc>
   </set>
  </array>
  <array name="atomtypes" >
   <dimension dim="1">type</dimension>
   <field type="int">atomspertype</field>
   <field type="string">element</field>
   <field>mass</field>
   <field>valence</field>
   <field type="string">pseudopotential</field>
   <set>
    <rc><c> 274</c><c>Fe</c><c>     55.84700000</c><c>      8.00000000</c><c>  PAW_PBE Fe_GW 31Mar2010               </c></rc>
    <rc><c>  14</c><c>Mn</c><c>     54.93800000</c><c>      7.00000000</c><c>  PAW_PBE Mn_GW 31Mar2010               </c></rc>
   </set>
  </array>
 </atominfo>
 <structure name="initialpos" >
  <crystal>
   <varray name="basis" >
    <v>       9.72667804       0.00000000       0.00000000 </v>
    <v>       0.00000000       8.42355028       0.00000000 </v>
    <v>       0.00000000       0.00000000      45.00000000 </v>
   </varray>
   <i name="volume">   3686.99226691 </i>
   <varray name="rec_basis" >
    <v>       0.10281002       0.00000000       0.00000000 </v>
    <v>       0.00000000       0.11871479       0.00000000 </v>
    <v>       0.00000000       0.00000000       0.02222222 </v>
   </varray>
  </crystal>
  <varray name="positions" >
   <v>       0.06220361       0.03065816       0.12432321 </v>
   <v>       0.31667463       0.87501623       0.65485968 </v>
   <v>       0.18496477       0.12146631       0.78836307 </v>
   <v>       0.44133222       0.28762910       0.38908856 </v>
   <v>       0.31765465       0.71237771       0.83280585 </v>
   <v>       0.81778421       0.21396489       0.83335335 </v>
   <v>       0.19137991       0.96268915       0.83332403 </v>
   <v>       0.56247421       0.20724194       0.56546547 </v>
   <v>       0.06570433       0.03964737       0.74398967 </v>
   <v>       0.81154321       0.87136400       0.52136847 </v>
   <v>       0.19091403       0.29013916       0.74397052 </v>
   <v>       0.93341119       0.45239959       0.34505627 </v>
   <v>       0.30652783       0.86411013       0.16713760 </v>
   <v>       0.81314978       0.03963987       0.87544435 </v>
   <v>       0.18350381       0.78804813       0.61084958 </v>
   <v>       0.56648753       0.03768662       0.38905989 </v>
   <v>       0.94167876       0.96315831       0.83355301 </v>
   <v>       0.31464884       0.53866240       0.87581197 </v>
   <v>       0.69078915       0.29044451       0.74391811 </v>
   <v>       0.18196756       0.61402698       0.16670841 </v>
   <v>       0.81204958       0.20566782       0.47866322 </v>
   <v>       0.80867382       0.53774928       0.61090106 </v>
   <v>       0.31202477       0.87031337       0.43445390 </v>
   <v>       0.80925052       0.03846440       0.25612414 </v>
   <v>       0.68330350       0.95187563       0.34491960 </v>
   <v>       0.93142915       0.11457882       0.16720850 </v>
   <v>       0.06155360       0.87130123       0.52139173 </v>
   <v>       0.55916785       0.53906784       0.25611066 </v>
   <v>       0.68469349       0.79518145       0.87545276 </v>
   <v>       0.55595259       0.36526497       0.16671491 </v>
   <v>       0.43966985       0.79026650       0.74410424 </v>
   <v>       0.81150623       0.70667369       0.56546701 </v>
   <v>       0.56031291       0.87200399       0.78829847 </v>
   <v>       0.68659096       0.12147180       0.52133465 </v>
   <v>       0.81629954       0.37493060       0.65495504 </v>
   <v>       0.94162485       0.46276803       0.83354066 </v>
   <v>       0.06011037       0.20792955       0.69952905 </v>
   <v>       0.43503212       0.95815148       0.69953339 </v>
   <v>       0.31674236       0.21181103       0.83332575 </v>
   <v>       0.44137231       0.62474843       0.65488740 </v>
   <v>       0.30872819       0.53795183       0.61088307 </v>
   <v>       0.93709491       0.45704053       0.56554881 </v>
   <v>       0.69010496       0.79096837       0.74401455 </v>
   <v>       0.93436279       0.78841142       0.12457980 </v>
   <v>       0.69151670       0.78786420       0.38905536 </v>
   <v>       0.94056646       0.79013331       0.74416285 </v>
   <v>       0.05853137       0.20222464       0.34496385 </v>
   <v>       0.68379758       0.45230913       0.34508135 </v>
   <v>       0.43529234       0.12121445       0.78868302 </v>
   <v>       0.06515884       0.20569622       0.21166396 </v>
   <v>       0.05542697       0.36548675       0.16679231 </v>
   <v>       0.93400188       0.78849746       0.25611253 </v>
   <v>       0.56019589       0.20786667       0.69962856 </v>
   <v>       0.68506441       0.95808703       0.69963171 </v>
   <v>       0.80997275       0.87211600       0.78823327 </v>
   <v>       0.43679310       0.95733562       0.56543227 </v>
   <v>       0.81062312       0.37267577       0.78814945 </v>
   <v>       0.68424258       0.28950326       0.25606135 </v>
   <v>       0.18687229       0.45731433       0.56541767 </v>
   <v>       0.05573490       0.86564882       0.16678658 </v>
   <v>       0.18399830       0.28799423       0.61078559 </v>
   <v>       0.19131798       0.78768122       0.38909819 </v>
   <v>       0.31030426       0.20813175       0.69968229 </v>
   <v>       0.56362105       0.53910282       0.87568381 </v>
   <v>       0.06174091       0.70632786       0.56550343 </v>
   <v>       0.68511355       0.62149012       0.78818222 </v>
   <v>       0.31629833       0.53782365       0.38906568 </v>
   <v>       0.18661215       0.62120877       0.52129820 </v>
   <v>       0.56191114       0.87068397       0.43443051 </v>
   <v>       0.43678870       0.45785754       0.56537908 </v>
   <v>       0.43992133       0.29099237       0.74398361 </v>
   <v>       0.81895446       0.87505890       0.30025256 </v>
   <v>       0.80907025       0.70298504       0.34514310 </v>
   <v>       0.44172267       0.46238734       0.83314264 </v>
   <v>       0.68724831       0.95584985       0.47864252 </v>
   <v>       0.68513732       0.45794135       0.69961482 </v>
   <v>       0.56166339       0.87177512       0.52138915 </v>
   <v>       0.56657684       0.37433946       0.65484873 </v>
   <v>       0.81635583       0.87445936       0.65494493 </v>
   <v>       0.81241538       0.37163362       0.43436194 </v>
   <v>       0.80918284       0.53829146       0.25612558 </v>
   <v>       0.69200120       0.46124178       0.83305976 </v>
   <v>       0.18596051       0.78825348       0.12432871 </v>
   <v>       0.69152448       0.28735593       0.38907215 </v>
   <v>       0.31658398       0.37478241       0.65492001 </v>
   <v>       0.30938372       0.20274012       0.34510697 </v>
   <v>       0.81557082       0.53984768       0.74393824 </v>
   <v>       0.69154349       0.96173091       0.83312708 </v>
   <v>       0.56618033       0.87441687       0.65489283 </v>
   <v>       0.31187554       0.70702404       0.56539018 </v>
   <v>       0.31208655       0.53202279       0.12433662 </v>
   <v>       0.68965869       0.95591483       0.21197324 </v>
   <v>       0.31131168       0.20650021       0.56540013 </v>
   <v>       0.18700309       0.95554097       0.47859635 </v>
   <v>       0.68782388       0.95739992       0.56537733 </v>
   <v>       0.43381144       0.78811328       0.61089713 </v>
   <v>       0.68208519       0.61269130       0.16679275 </v>
   <v>       0.31897241       0.87472194       0.30042356 </v>
   <v>       0.31225034       0.70584741       0.47861650 </v>
   <v>       0.93364397       0.28776929       0.61078783 </v>
   <v>       0.44447605       0.62464385       0.30055400 </v>
   <v>       0.80718082       0.86459961       0.16718682 </v>
   <v>       0.56591275       0.20360372       0.21190243 </v>
   <v>       0.93245664       0.61350356       0.16688660 </v>
   <v>       0.43719937       0.95573430       0.47863463 </v>
   <v>       0.56029030       0.37156999       0.78837544 </v>
   <v>       0.06123829       0.37158424       0.52139123 </v>
   <v>       0.30691763       0.36360301       0.16687296 </v>
   <v>       0.69444146       0.12432420       0.30042598 </v>
   <v>       0.44267959       0.96174883       0.83309200 </v>
   <v>       0.18506131       0.28684605       0.12442453 </v>
   <v>       0.18424495       0.28944329       0.25601978 </v>
   <v>       0.31222006       0.37044363       0.43443100 </v>
   <v>       0.56253197       0.03236371       0.12445870 </v>
   <v>       0.43367985       0.28789294       0.61087984 </v>
   <v>       0.18377710       0.45273311       0.34510332 </v>
   <v>       0.43393866       0.28713614       0.12452033 </v>
   <v>       0.68392601       0.78937755       0.25617377 </v>
   <v>       0.43659777       0.12150235       0.52134208 </v>
   <v>       0.18856169       0.29394497       0.87575992 </v>
   <v>       0.19143044       0.12504940       0.65489167 </v>
   <v>       0.94162206       0.12502756       0.65489600 </v>
   <v>       0.81638967       0.53714329       0.38914365 </v>
   <v>       0.06626845       0.03780579       0.38904900 </v>
   <v>       0.18228360       0.11352207       0.16663722 </v>
   <v>       0.05860409       0.53797524       0.61089076 </v>
   <v>       0.93420888       0.28928902       0.25601712 </v>
   <v>       0.55865610       0.53829297       0.61079275 </v>
   <v>       0.93698023       0.95721281       0.56541999 </v>
   <v>       0.69390724       0.62496859       0.30040463 </v>
   <v>       0.93684432       0.62061198       0.43438519 </v>
   <v>       0.93423149       0.62258371       0.78798761 </v>
   <v>       0.56038145       0.70762433       0.69958297 </v>
   <v>       0.06591952       0.71509128       0.83363204 </v>
   <v>       0.94470857       0.12418615       0.30039060 </v>
   <v>       0.93382639       0.78762191       0.61090182 </v>
   <v>       0.43406161       0.78938948       0.25608163 </v>
   <v>       0.31066412       0.37208153       0.78819787 </v>
   <v>       0.43997250       0.45646131       0.21185228 </v>
   <v>       0.18667850       0.12086544       0.52125514 </v>
   <v>       0.81004752       0.70798432       0.69957056 </v>
   <v>       0.05847422       0.03768099       0.61091657 </v>
   <v>       0.56592694       0.21289205       0.83300428 </v>
   <v>       0.31134895       0.87147371       0.52129788 </v>
   <v>       0.68585319       0.28830670       0.12436616 </v>
   <v>       0.18991938       0.95635483       0.21182250 </v>
   <v>       0.68355515       0.28812705       0.61086947 </v>
   <v>       0.30855471       0.03785853       0.61091253 </v>
   <v>       0.93530567       0.12272813       0.78831962 </v>
   <v>       0.43690446       0.79488219       0.87570248 </v>
   <v>       0.81542697       0.04031261       0.74387461 </v>
   <v>       0.93500843       0.45808033       0.69962158 </v>
   <v>       0.19128632       0.62507182       0.65497092 </v>
   <v>       0.31040147       0.70777754       0.69958790 </v>
   <v>       0.93491810       0.28775949       0.12443801 </v>
   <v>       0.43726939       0.45567087       0.47863827 </v>
   <v>       0.06218233       0.70563095       0.47859746 </v>
   <v>       0.93705824       0.12033178       0.43463164 </v>
   <v>       0.44413049       0.12472616       0.30047716 </v>
   <v>       0.18787805       0.12019637       0.43443352 </v>
   <v>       0.56339266       0.03893837       0.87579818 </v>
   <v>       0.18681084       0.95736468       0.56542213 </v>
   <v>       0.68383019       0.78873162       0.12464541 </v>
   <v>       0.55888387       0.70257344       0.34498938 </v>
   <v>       0.31632104       0.03751363       0.38906771 </v>
   <v>       0.68222766       0.11422819       0.16707514 </v>
   <v>       0.81510633       0.20474429       0.21160445 </v>
   <v>       0.06013312       0.53853979       0.25604633 </v>
   <v>       0.56210872       0.70589508       0.47861828 </v>
   <v>       0.43476616       0.78796573       0.12445983 </v>
   <v>       0.56926881       0.37486185       0.30050480 </v>
   <v>       0.43365613       0.95263116       0.34510395 </v>
   <v>       0.18523730       0.95828038       0.69970073 </v>
   <v>       0.43195661       0.61364442       0.16665515 </v>
   <v>       0.94025809       0.45634660       0.21200498 </v>
   <v>       0.06192369       0.53115733       0.12424604 </v>
   <v>       0.81196711       0.37130539       0.52130555 </v>
   <v>       0.94440392       0.62472835       0.30018163 </v>
   <v>       0.30962526       0.03920428       0.25577486 </v>
   <v>       0.68360614       0.78797173       0.61086403 </v>
   <v>       0.19174346       0.46266434       0.83317833 </v>
   <v>       0.43186869       0.11377506       0.16663605 </v>
   <v>       0.31134004       0.37132323       0.52128658 </v>
   <v>       0.43447174       0.62103255       0.78846654 </v>
   <v>       0.05909182       0.03860931       0.25614623 </v>
   <v>       0.56206651       0.70723750       0.56542902 </v>
   <v>       0.94001449       0.28945563       0.74399960 </v>
   <v>       0.68344535       0.12203527       0.78839352 </v>
   <v>       0.18912680       0.45599487       0.21175763 </v>
   <v>       0.94118139       0.78748972       0.38901707 </v>
   <v>       0.68646105       0.29696027       0.87578093 </v>
   <v>       0.55604751       0.86459747       0.16667968 </v>
   <v>       0.43500549       0.45768418       0.69952258 </v>
   <v>       0.93405494       0.95267219       0.34502460 </v>
   <v>       0.68630640       0.62148121       0.52126736 </v>
   <v>       0.06621746       0.87416211       0.65490081 </v>
   <v>       0.06012935       0.87256387       0.78824729 </v>
   <v>       0.06646875       0.37487056       0.65491155 </v>
   <v>       0.68704331       0.45546936       0.47870531 </v>
   <v>       0.18422671       0.78920833       0.25595958 </v>
   <v>       0.43693488       0.12076425       0.43436311 </v>
   <v>       0.81338105       0.03077340       0.12433781 </v>
   <v>       0.93649952       0.62113954       0.52130533 </v>
   <v>       0.06251750       0.87046768       0.43444289 </v>
   <v>       0.81289562       0.53006194       0.12441642 </v>
   <v>       0.43353963       0.45252199       0.34504439 </v>
   <v>       0.80867252       0.20251775       0.34495800 </v>
   <v>       0.30906411       0.70255965       0.34498475 </v>
   <v>       0.69126008       0.12488386       0.65492453 </v>
   <v>       0.56926340       0.87481161       0.30049970 </v>
   <v>       0.06572144       0.53982039       0.74399925 </v>
   <v>       0.94023233       0.95543457       0.21163662 </v>
   <v>       0.81640660       0.70515400       0.21172028 </v>
   <v>       0.06910946       0.87488539       0.30042866 </v>
   <v>       0.19467827       0.12393851       0.30042697 </v>
   <v>       0.05865098       0.70266555       0.34504704 </v>
   <v>       0.80898492       0.03808411       0.61093814 </v>
   <v>       0.06224973       0.37041975       0.43441965 </v>
   <v>       0.55868224       0.20266585       0.34510020 </v>
   <v>       0.81933040       0.37498097       0.30036044 </v>
   <v>       0.55925787       0.03890424       0.25590195 </v>
   <v>       0.56630952       0.53770886       0.38911474 </v>
   <v>       0.06249953       0.20557686       0.47867814 </v>
   <v>       0.31123036       0.87128560       0.78806555 </v>
   <v>       0.93507182       0.95837345       0.69961288 </v>
   <v>       0.06865510       0.37491493       0.30042799 </v>
   <v>       0.69131093       0.62495725       0.65492908 </v>
   <v>       0.68699143       0.45734983       0.56543730 </v>
   <v>       0.43913431       0.95651614       0.21214070 </v>
   <v>       0.31231121       0.20578320       0.47861113 </v>
   <v>       0.81340277       0.53843871       0.87557087 </v>
   <v>       0.68782173       0.62053833       0.43445062 </v>
   <v>       0.81057937       0.20755268       0.69965432 </v>
   <v>       0.81222985       0.70569229       0.47864496 </v>
   <v>       0.81183753       0.87086069       0.43433978 </v>
   <v>       0.93723506       0.95507375       0.47871542 </v>
   <v>       0.56224727       0.20579737       0.47862838 </v>
   <v>       0.18750376       0.62045275       0.43447463 </v>
   <v>       0.31536176       0.04068173       0.74387211 </v>
   <v>       0.94146063       0.62521350       0.65491108 </v>
   <v>       0.56631242       0.71270244       0.83310571 </v>
   <v>       0.31887116       0.37457253       0.30038517 </v>
   <v>       0.56564078       0.70446081       0.21161840 </v>
   <v>       0.18723180       0.45562812       0.47863408 </v>
   <v>       0.31459259       0.03980784       0.87558166 </v>
   <v>       0.18478346       0.45816844       0.69959908 </v>
   <v>       0.56157324       0.37142771       0.52130911 </v>
   <v>       0.19126810       0.28804885       0.38914622 </v>
   <v>       0.43703225       0.62036473       0.43443991 </v>
   <v>       0.06634382       0.70569006       0.21170576 </v>
   <v>       0.56217086       0.37107615       0.43442129 </v>
   <v>       0.43656893       0.62157144       0.52137400 </v>
   <v>       0.81692619       0.71428661       0.83304485 </v>
   <v>       0.06083576       0.37300460       0.78809757 </v>
   <v>       0.43669979       0.29568862       0.87597357 </v>
   <v>       0.31129239       0.03204168       0.12431879 </v>
   <v>       0.68739509       0.12035587       0.43443027 </v>
   <v>       0.18381624       0.95267916       0.34506911 </v>
   <v>       0.06645562       0.21349983       0.83364574 </v>
   <v>       0.55852928       0.03806988       0.61091318 </v>
   <v>       0.68872065       0.45640720       0.21212050 </v>
   <v>       0.19042279       0.79038390       0.74401334 </v>
   <v>       0.19390828       0.62479721       0.30049532 </v>
   <v>       0.44129173       0.78765074       0.38907068 </v>
   <v>       0.43379705       0.28971426       0.25610457 </v>
   <v>       0.06495724       0.53837558       0.87552603 </v>
   <v>       0.56581558       0.04030807       0.74395671 </v>
   <v>       0.18761599       0.79435442       0.87560263 </v>
   <v>       0.93709594       0.45564656       0.47861105 </v>
   <v>       0.56577144       0.54057977       0.74393739 </v>
   <v>       0.81117611       0.20675536       0.56537873 </v>
   <v>       0.18536983       0.62069051       0.78807078 </v>
   <v>       0.06637084       0.53711992       0.38904914 </v>
   <v>       0.06049302       0.70788447       0.69954324 </v>
   <v>       0.30883820       0.53764036       0.25572547 </v>
   <v>       0.31504549       0.70559940       0.21209893 </v>
   <v>       0.94194619       0.28723977       0.38894745 </v>
   <v>       0.31589483       0.20623897       0.21208265 </v>
   <v>       0.81692181       0.03832066       0.38911544 </v>
   <v>       0.93539263       0.29593507       0.87529223 </v>
   <v>       0.93747900       0.79341561       0.87519699 </v>
   <v>       0.06558634       0.03751602       0.87534535 </v>
   <v>       0.56284509       0.53026986       0.12487729 </v>
   <v>       0.80515247       0.36650732       0.16653744 </v>
   <v>       0.44237200       0.12470446       0.65467376 </v>
   <v>       0.93635483       0.12138851       0.52133911 </v>
   <v>       0.06333607       0.20653656       0.56561094 </v>
   <v>       0.31548298       0.54011731       0.74420480 </v>
  </varray>
 </structure>
 <calculation>
  <scstep>
   <time name="dav">   54.33   54.34</time>
   <time name="total">   54.48   54.51</time>
   <energy>
    <i name="alphaZ">  16293.21160653 </i>
    <i name="ewald"> 734646.39171129 </i>
    <i name="hartreedc">-925147.48121211 </i>
    <i name="XCdc">  -6511.95853095 </i>
    <i name="pawpsdc"> 162273.92519768 </i>
    <i name="pawaedc">-159623.75899949 </i>
    <i name="eentropy">     -1.06876648 </i>
    <i name="bandstr">  38484.70362071 </i>
    <i name="atom"> 168671.76673737 </i>
    <i name="e_fr_energy">  29085.73136455 </i>
    <i name="e_wo_entrp">  29086.80013103 </i>
    <i name="e_0_energy">  29086.26574779 </i>
   </energy>
  </scstep>
  <scstep>
   <time name="dav">   53.78   53.81</time>
   <time name="total">   53.78   53.82</time>
   <energy>
    <i name="e_fr_energy">   1189.91297578 </i>
    <i name="e_wo_entrp">   1191.40528264 </i>
    <i name="e_0_energy">   1190.65912921 </i>
   </energy>
  </scstep>
  <scstep>
   <time name="dav">   70.57   70.61</time>
   <time name="total">   70.58   70.61</time>
   <energy>
    <i name="e_fr_energy">  -1949.82664849 </i>
    <i name="e_wo_entrp">  -1946.26718642 </i>
    <i name="e_0_energy">  -1948.04691746 </i>
   </energy>
  </scstep>
  <scstep>
   <time name="dav">   88.62   88.65</time>
   <time name="total">   88.62   88.66</time>
   <energy>
    <i name="e_fr_energy">  -2619.20814506 </i>
    <i name="e_wo_entrp">  -2615.68961608 </i>
    <i name="e_0_energy">  -2617.44888057 </i>
   </energy>
  </scstep>
  <scstep>
   <time name="dav">   84.98   85.02</time>
   <time name="total">   87.11   87.15</time>
   <energy>
    <i name="e_fr_energy">  -2738.80263013 </i>
    <i name="e_wo_entrp">  -2735.15331831 </i>
    <i name="e_0_energy">  -2736.97797422 </i>
   </energy>
  </scstep>
  <scstep>
   <time name="diag">    8.28    8.28</time>
   <time name="diis">   37.47   37.47</time>
   <time name="orth">    2.28    2.28</time>
   <time name="total">   50.21   50.25</time>
   <energy>
    <i name="e_fr_energy">  -5266.59711183 </i>
    <i name="e_wo_entrp">  -5262.97406017 </i>
    <i name="e_0_energy">  -5264.78558600 </i>
   </energy>
  </scstep>
  <scstep>
   <time name="diag">    8.25    8.25</time>
   <time name="diis">   22.10   22.10</time>
   <time name="orth">    2.30    2.30</time>
   <time name="total">   34.83   34.87</time>
[...]
       <r>     5.8560     0.0000  2772.0000 </r>
       <r>     5.8987     0.0000  2772.0000 </r>
       <r>     5.9415     0.0000  2772.0000 </r>
       <r>     5.9843     0.0000  2772.0000 </r>
       <r>     6.0270     0.0000  2772.0000 </r>
       <r>     6.0698     0.0000  2772.0000 </r>
       <r>     6.1126     0.0000  2772.0000 </r>
       <r>     6.1554     0.0000  2772.0000 </r>
       <r>     6.1981     0.0000  2772.0000 </r>
       <r>     6.2409     0.0000  2772.0000 </r>
       <r>     6.2837     0.0000  2772.0000 </r>
       <r>     6.3265     0.0000  2772.0000 </r>
       <r>     6.3692     0.0000  2772.0000 </r>
       <r>     6.4120     0.0000  2772.0000 </r>
       <r>     6.4548     0.0000  2772.0000 </r>
       <r>     6.4976     0.0000  2772.0000 </r>
       <r>     6.5403     0.0000  2772.0000 </r>
       <r>     6.5831     0.0000  2772.0000 </r>
       <r>     6.6259     0.0000  2772.0000 </r>
       <r>     6.6686     0.0000  2772.0000 </r>
       <r>     6.7114     0.0000  2772.0000 </r>
       <r>     6.7542     0.0000  2772.0000 </r>
       <r>     6.7970     0.0000  2772.0000 </r>
      </set>
     </set>
    </array>
   </total>
  </dos>
 </calculation>
 <structure name="finalpos" >
  <crystal>
   <varray name="basis" >
    <v>       9.72667804       0.00000000       0.00000000 </v>
    <v>       0.00000000       8.42355028       0.00000000 </v>
    <v>       0.00000000       0.00000000      45.00000000 </v>
   </varray>
   <i name="volume">   3686.99226691 </i>
   <varray name="rec_basis" >
    <v>       0.10281002       0.00000000       0.00000000 </v>
    <v>       0.00000000       0.11871479       0.00000000 </v>
    <v>       0.00000000       0.00000000       0.02222222 </v>
   </varray>
  </crystal>
  <varray name="positions" >
   <v>       0.06048590       0.03355265       0.12468636 </v>
   <v>       0.31353613       0.87426057       0.65481332 </v>
   <v>       0.18721259       0.12338553       0.78808701 </v>
   <v>       0.43958616       0.28817571       0.38947564 </v>
   <v>       0.31481395       0.70997026       0.83309470 </v>
   <v>       0.81594396       0.21111833       0.83334832 </v>
   <v>       0.18907341       0.96060500       0.83341444 </v>
   <v>       0.56184237       0.20616382       0.56568091 </v>
   <v>       0.06330008       0.04052273       0.74391277 </v>
   <v>       0.81130542       0.87244793       0.52164008 </v>
   <v>       0.18845974       0.29081369       0.74400528 </v>
   <v>       0.93727950       0.45420183       0.34507238 </v>
   <v>       0.30800291       0.86638962       0.16686495 </v>
   <v>       0.81271720       0.04353591       0.87525283 </v>
   <v>       0.18571278       0.78894304       0.61048226 </v>
   <v>       0.56424554       0.03760006       0.38941246 </v>
   <v>       0.94117945       0.96113085       0.83344700 </v>
   <v>       0.31396587       0.54295378       0.87533512 </v>
   <v>       0.68877147       0.29053627       0.74400255 </v>
   <v>       0.18405816       0.61740122       0.16673001 </v>
   <v>       0.81170501       0.20517894       0.47836594 </v>
   <v>       0.81076811       0.53885033       0.61055875 </v>
   <v>       0.31252925       0.87109752       0.43426821 </v>
   <v>       0.81187197       0.03840354       0.25603304 </v>
   <v>       0.68709340       0.95426999       0.34505540 </v>
   <v>       0.93353488       0.11644439       0.16687814 </v>
   <v>       0.06212192       0.87252864       0.52170553 </v>
   <v>       0.56176731       0.53871181       0.25614605 </v>
   <v>       0.68714672       0.79275266       0.87530423 </v>
   <v>       0.55841936       0.36722276       0.16656064 </v>
   <v>       0.43876464       0.79075894       0.74401823 </v>
   <v>       0.81152542       0.70606085       0.56565752 </v>
   <v>       0.56213008       0.87319473       0.78810258 </v>
   <v>       0.68633696       0.12217637       0.52158953 </v>
   <v>       0.81339736       0.37438343       0.65495679 </v>
   <v>       0.94059725       0.46102030       0.83341835 </v>
   <v>       0.06180972       0.20748983       0.69949663 </v>
   <v>       0.43690610       0.95719262       0.69951755 </v>
   <v>       0.31453800       0.20962430       0.83350552 </v>
   <v>       0.43851966       0.62397502       0.65482742 </v>
   <v>       0.31104401       0.53927553       0.61051804 </v>
   <v>       0.93661399       0.45567818       0.56572678 </v>
   <v>       0.68877130       0.79110525       0.74396140 </v>
   <v>       0.93464153       0.78380729       0.12488573 </v>
   <v>       0.68918237       0.78812856       0.38942480 </v>
   <v>       0.93880713       0.79075665       0.74394032 </v>
   <v>       0.06244981       0.20419919       0.34516710 </v>
   <v>       0.68742515       0.45423240       0.34514580 </v>
   <v>       0.43687812       0.12344474       0.78821056 </v>
   <v>       0.06248046       0.20440677       0.21171065 </v>
   <v>       0.05822471       0.36695591       0.16664104 </v>
   <v>       0.93663953       0.78854237       0.25605285 </v>
   <v>       0.56191094       0.20715257       0.69952479 </v>
   <v>       0.68669301       0.95725093       0.69959857 </v>
   <v>       0.81160829       0.87370189       0.78801822 </v>
   <v>       0.43666889       0.95594042       0.56563213 </v>
   <v>       0.81190352       0.37363400       0.78798318 </v>
   <v>       0.68687372       0.28825099       0.25617458 </v>
   <v>       0.18701136       0.45612346       0.56565142 </v>
   <v>       0.05905566       0.86687363       0.16670277 </v>
   <v>       0.18615606       0.28898791       0.61053306 </v>
   <v>       0.18969131       0.78733277       0.38946140 </v>
   <v>       0.31200998       0.20736329       0.69959142 </v>
   <v>       0.56460787       0.54356050       0.87526504 </v>
   <v>       0.06172960       0.70598188       0.56563098 </v>
   <v>       0.68662924       0.62364425       0.78803567 </v>
   <v>       0.31424509       0.53814203       0.38949438 </v>
   <v>       0.18711653       0.62248387       0.52157426 </v>
   <v>       0.56264260       0.87132995       0.43430425 </v>
   <v>       0.43661226       0.45673132       0.56562149 </v>
   <v>       0.43882572       0.29105301       0.74395604 </v>
   <v>       0.81519943       0.87330042       0.30039964 </v>
   <v>       0.81240037       0.70411084       0.34520014 </v>
   <v>       0.44023043       0.45978111       0.83338052 </v>
   <v>       0.68733628       0.95470955       0.47834856 </v>
   <v>       0.68703457       0.45710315       0.69952643 </v>
   <v>       0.56186579       0.87237585       0.52156985 </v>
   <v>       0.56384330       0.37386120       0.65473477 </v>
   <v>       0.81356300       0.87363680       0.65486182 </v>
   <v>       0.81241812       0.37095222       0.43427296 </v>
   <v>       0.81161812       0.53804486       0.25617611 </v>
   <v>       0.69056243       0.46036662       0.83330542 </v>
   <v>       0.18532985       0.78391600       0.12475825 </v>
   <v>       0.68898201       0.28762680       0.38942782 </v>
   <v>       0.31348207       0.37412942       0.65489882 </v>
   <v>       0.31234179       0.20373818       0.34516537 </v>
   <v>       0.81387907       0.54071553       0.74384337 </v>
   <v>       0.69036306       0.96040278       0.83337354 </v>
   <v>       0.56354794       0.87382063       0.65487393 </v>
   <v>       0.31214190       0.70629480       0.56568279 </v>
   <v>       0.31013197       0.53474262       0.12453546 </v>
   <v>       0.68814456       0.95414167       0.21191303 </v>
   <v>       0.31224785       0.20633576       0.56559501 </v>
   <v>       0.18695371       0.95456110       0.47825528 </v>
   <v>       0.68732948       0.95574164       0.56560487 </v>
   <v>       0.43589164       0.78950439       0.61048792 </v>
   <v>       0.68317328       0.61566060       0.16682707 </v>
   <v>       0.31532460       0.87215038       0.30046140 </v>
   <v>       0.31229236       0.70465594       0.47831703 </v>
   <v>       0.93574309       0.28889465       0.61057097 </v>
   <v>       0.44042027       0.62285353       0.30056590 </v>
   <v>       0.80843476       0.86631051       0.16687915 </v>
   <v>       0.56411403       0.20376046       0.21203257 </v>
   <v>       0.93446181       0.61623905       0.16693153 </v>
   <v>       0.43712824       0.95481065       0.47830741 </v>
   <v>       0.56198401       0.37322924       0.78815544 </v>
   <v>       0.06162676       0.37286347       0.52163553 </v>
   <v>       0.30834540       0.36644972       0.16659324 </v>
   <v>       0.69015879       0.12303478       0.30038327 </v>
   <v>       0.44062341       0.95976925       0.83332385 </v>
   <v>       0.18566837       0.28371451       0.12470275 </v>
   <v>       0.18672278       0.28782310       0.25607566 </v>
   <v>       0.31251699       0.37129993       0.43431631 </v>
   <v>       0.56128657       0.03385800       0.12468046 </v>
   <v>       0.43578221       0.28927262       0.61048715 </v>
   <v>       0.18720615       0.45416037       0.34515359 </v>
   <v>       0.43282675       0.28354273       0.12472997 </v>
   <v>       0.68663297       0.78857474       0.25617547 </v>
   <v>       0.43678507       0.12261921       0.52156194 </v>
   <v>       0.18958686       0.29219288       0.87554465 </v>
   <v>       0.18833970       0.12412114       0.65491387 </v>
   <v>       0.93883821       0.12381223       0.65487564 </v>
   <v>       0.81396641       0.53775491       0.38948405 </v>
   <v>       0.06433676       0.03778281       0.38943931 </v>
   <v>       0.18402653       0.11663747       0.16669158 </v>
   <v>       0.06090591       0.53884360       0.61048724 </v>
   <v>       0.93663976       0.28814756       0.25610225 </v>
   <v>       0.56086425       0.53937435       0.61047097 </v>
   <v>       0.93665820       0.95564068       0.56571491 </v>
   <v>       0.69044505       0.62348161       0.30053160 </v>
   <v>       0.93752561       0.62097819       0.43425453 </v>
   <v>       0.93669540       0.62482698       0.78803910 </v>
   <v>       0.56164928       0.70683268       0.69950700 </v>
   <v>       0.06416430       0.71183563       0.83340172 </v>
   <v>       0.94011525       0.12344527       0.30042751 </v>
   <v>       0.93586831       0.78883101       0.61054803 </v>
   <v>       0.43685841       0.78826613       0.25621491 </v>
   <v>       0.31196987       0.37284135       0.78810853 </v>
   <v>       0.43855322       0.45475447       0.21194231 </v>
   <v>       0.18727901       0.12210236       0.52158595 </v>
   <v>       0.81189346       0.70739087       0.69958119 </v>
   <v>       0.06054287       0.03892389       0.61048678 </v>
   <v>       0.56458701       0.20998747       0.83316071 </v>
   <v>       0.31167892       0.87236901       0.52157251 </v>
   <v>       0.68590134       0.28350513       0.12468891 </v>
   <v>       0.18767619       0.95551126       0.21192877 </v>
   <v>       0.68567651       0.28941098       0.61058627 </v>
   <v>       0.31074656       0.03909014       0.61049657 </v>
   <v>       0.93695675       0.12452063       0.78811950 </v>
   <v>       0.43804849       0.79181479       0.87532780 </v>
   <v>       0.81379745       0.04086936       0.74386786 </v>
   <v>       0.93685588       0.45724226       0.69954023 </v>
   <v>       0.18836267       0.62380546       0.65484458 </v>
   <v>       0.31187748       0.70723251       0.69952479 </v>
   <v>       0.93403032       0.28356312       0.12468372 </v>
   <v>       0.43716007       0.45474994       0.47830843 </v>
   <v>       0.06218829       0.70448567       0.47831835 </v>
   <v>       0.93740568       0.12091719       0.43459005 </v>
   <v>       0.44042584       0.12286817       0.30049249 </v>
   <v>       0.18755229       0.12101299       0.43416540 </v>
   <v>       0.56460730       0.04309491       0.87538078 </v>
   <v>       0.18644080       0.95578540       0.56565758 </v>
   <v>       0.68473859       0.78453339       0.12493603 </v>
   <v>       0.56240683       0.70414728       0.34520631 </v>
   <v>       0.31418522       0.03755064       0.38944039 </v>
   <v>       0.68419040       0.11612811       0.16690995 </v>
   <v>       0.81359914       0.20407253       0.21190114 </v>
   <v>       0.06165352       0.53849866       0.25605252 </v>
   <v>       0.56210926       0.70476945       0.47832775 </v>
   <v>       0.43427555       0.78450405       0.12474895 </v>
   <v>       0.56526269       0.37320402       0.30053568 </v>
   <v>       0.43729106       0.95395963       0.34516020 </v>
   <v>       0.18710750       0.95755799       0.69957985 </v>
   <v>       0.43414619       0.61669406       0.16672111 </v>
   <v>       0.93853393       0.45473685       0.21202409 </v>
   <v>       0.06046045       0.53395155       0.12462382 </v>
   <v>       0.81193553       0.37268147       0.52167752 </v>
   <v>       0.94036004       0.62394122       0.30042928 </v>
   <v>       0.31159334       0.03857520       0.25605441 </v>
   <v>       0.68611820       0.78910110       0.61048864 </v>
   <v>       0.18997966       0.46055624       0.83339595 </v>
   <v>       0.43378699       0.11610888       0.16681228 </v>
   <v>       0.31152284       0.37243852       0.52163927 </v>
   <v>       0.43709536       0.62351355       0.78817301 </v>
   <v>       0.06142028       0.03816905       0.25605318 </v>
   <v>       0.56170686       0.70634097       0.56568016 </v>
   <v>       0.93886958       0.29026611       0.74393446 </v>
   <v>       0.68671727       0.12358367       0.78800016 </v>
   <v>       0.18744939       0.45505375       0.21189344 </v>
   <v>       0.93924212       0.78756386       0.38942965 </v>
   <v>       0.68747879       0.29281153       0.87543339 </v>
   <v>       0.55786488       0.86646890       0.16667409 </v>
   <v>       0.43688475       0.45698949       0.69948150 </v>
   <v>       0.93727819       0.95425885       0.34512435 </v>
   <v>       0.68644813       0.62245700       0.52157740 </v>
   <v>       0.06373493       0.87336101       0.65495294 </v>
   <v>       0.06219005       0.87366870       0.78815663 </v>
   <v>       0.06354979       0.37403370       0.65486196 </v>
   <v>       0.68715074       0.45466588       0.47835239 </v>
   <v>       0.18664068       0.78858959       0.25611162 </v>
   <v>       0.43758307       0.12115655       0.43422721 </v>
   <v>       0.81086579       0.03437481       0.12478982 </v>
   <v>       0.93667456       0.62229409       0.52158679 </v>
   <v>       0.06244692       0.87097138       0.43418024 </v>
   <v>       0.81170850       0.53391590       0.12449977 </v>
   <v>       0.43718592       0.45413307       0.34520673 </v>
   <v>       0.81218866       0.20401260       0.34509782 </v>
   <v>       0.31231116       0.70417418       0.34512313 </v>
   <v>       0.68884018       0.12397826       0.65486822 </v>
   <v>       0.56516746       0.87268723       0.30047141 </v>
   <v>       0.06337280       0.54026859       0.74388169 </v>
   <v>       0.93828421       0.95483739       0.21186327 </v>
   <v>       0.81377623       0.70435292       0.21197077 </v>
   <v>       0.06525522       0.87327369       0.30050417 </v>
   <v>       0.19042110       0.12284563       0.30038366 </v>
   <v>       0.06235593       0.70428384       0.34516510 </v>
   <v>       0.81138586       0.03913253       0.61046824 </v>
   <v>       0.06251083       0.37123276       0.43421922 </v>
   <v>       0.56243527       0.20380751       0.34521272 </v>
   <v>       0.81518677       0.37342350       0.30034624 </v>
   <v>       0.56222787       0.03871296       0.25613027 </v>
   <v>       0.56389852       0.53804155       0.38949063 </v>
   <v>       0.06268261       0.20491495       0.47855012 </v>
   <v>       0.31238473       0.87268247       0.78795521 </v>
   <v>       0.93682695       0.95744116       0.69950545 </v>
   <v>       0.06515730       0.37327825       0.30053857 </v>
   <v>       0.68899820       0.62402929       0.65486508 </v>
   <v>       0.68679181       0.45622951       0.56570401 </v>
   <v>       0.43837999       0.95482085       0.21192158 </v>
   <v>       0.31228558       0.20487154       0.47826397 </v>
   <v>       0.81341370       0.54309200       0.87528049 </v>
   <v>       0.68731744       0.62107785       0.43424435 </v>
   <v>       0.81197796       0.20734686       0.69956386 </v>
   <v>       0.81211078       0.70458568       0.47835806 </v>
   <v>       0.81241456       0.87089669       0.43424476 </v>
   <v>       0.93727519       0.95393189       0.47840506 </v>
   <v>       0.56213322       0.20480919       0.47832692 </v>
   <v>       0.18747837       0.62103653       0.43424766 </v>
   <v>       0.31355851       0.04113220       0.74395500 </v>
   <v>       0.93858319       0.62389443       0.65484021 </v>
   <v>       0.56493029       0.71007180       0.83316888 </v>
   <v>       0.31520184       0.37267386       0.30049585 </v>
   <v>       0.56398009       0.70463269       0.21185286 </v>
   <v>       0.18739136       0.45460164       0.47833171 </v>
   <v>       0.31516683       0.04419571       0.87532488 </v>
   <v>       0.18667787       0.45730913       0.69954013 </v>
   <v>       0.56187824       0.37253051       0.52159857 </v>
   <v>       0.18942840       0.28786337       0.38950641 </v>
   <v>       0.43758291       0.62111028       0.43427972 </v>
   <v>       0.06294868       0.70426136       0.21174923 </v>
   <v>       0.56241722       0.37112157       0.43429740 </v>
   <v>       0.43679939       0.62248272       0.52161242 </v>
   <v>       0.81525553       0.71107803       0.83306004 </v>
   <v>       0.06243565       0.37416737       0.78802730 </v>
   <v>       0.43791036       0.29267134       0.87553177 </v>
   <v>       0.31080925       0.03481602       0.12453685 </v>
   <v>       0.68746241       0.12118861       0.43419565 </v>
   <v>       0.18735128       0.95386821       0.34517266 </v>
   <v>       0.06445738       0.21065681       0.83332090 </v>
   <v>       0.56083464       0.03924448       0.61047508 </v>
   <v>       0.68769949       0.45432512       0.21197581 </v>
   <v>       0.18852797       0.79061024       0.74389175 </v>
   <v>       0.19019805       0.62303739       0.30046820 </v>
   <v>       0.43939573       0.78749932       0.38944262 </v>
   <v>       0.43687616       0.28838487       0.25612201 </v>
   <v>       0.06553266       0.54281584       0.87536890 </v>
   <v>       0.56426950       0.04110950       0.74402406 </v>
   <v>       0.18879982       0.79215256       0.87548952 </v>
   <v>       0.93719642       0.45445054       0.47831251 </v>
   <v>       0.56416882       0.54089213       0.74391139 </v>
   <v>       0.81120446       0.20609993       0.56566614 </v>
   <v>       0.18726738       0.62377146       0.78806263 </v>
   <v>       0.06460059       0.53730741       0.38948126 </v>
   <v>       0.06199672       0.70753576       0.69951362 </v>
   <v>       0.31140565       0.53761946       0.25605018 </v>
   <v>       0.31354284       0.70520989       0.21194025 </v>
   <v>       0.93991284       0.28814781       0.38928673 </v>
   <v>       0.31379320       0.20536194       0.21205760 </v>
   <v>       0.81453922       0.03744132       0.38935504 </v>
   <v>       0.93679626       0.29344461       0.87535520 </v>
   <v>       0.93782903       0.79035372       0.87525006 </v>
   <v>       0.06564482       0.04220371       0.87520097 </v>
   <v>       0.56156062       0.53396291       0.12491301 </v>
   <v>       0.80751213       0.36685905       0.16618985 </v>
   <v>       0.43900367       0.12410488       0.65473288 </v>
   <v>       0.93678354       0.12244172       0.52138620 </v>
   <v>       0.06238018       0.20647220       0.56587671 </v>
   <v>       0.31388963       0.54061329       0.74405227 </v>
  </varray>
 </structure>
</modeling>
