       N       E                     dE             d eps       ncg     rms          rms(c)
DAV:   1     0.303596308284E+05    0.30360E+05   -0.91659E+05 27770   0.213E+03
DAV:   2     0.151690310668E+04   -0.28843E+05   -0.28249E+05 27600   0.616E+02
DAV:   3    -0.189882937191E+04   -0.34157E+04   -0.29692E+04 38520   0.298E+02
DAV:   4    -0.261083429640E+04   -0.71200E+03   -0.64849E+03 50730   0.103E+02
DAV:   5    -0.274032930188E+04   -0.12950E+03   -0.12108E+03 48210   0.421E+01    0.206E+02
RMM:   6    -0.659764036993E+04   -0.38573E+04   -0.14152E+04 48355   0.270E+02    0.735E+02
RMM:   7    -0.513298762889E+04    0.14647E+04   -0.54042E+03 49452   0.113E+02    0.492E+02
RMM:   8    -0.103978140486E+05   -0.52648E+04   -0.25546E+04 41569   0.408E+02    0.142E+03
RMM:   9    -0.125245355179E+05   -0.21267E+04   -0.24124E+04 47950   0.225E+02    0.132E+03
RMM:  10    -0.130703506169E+05   -0.54582E+03   -0.14369E+04 47435   0.236E+02    0.140E+03
RMM:  11    -0.151869365070E+05   -0.21166E+04   -0.16210E+04 50016   0.201E+02    0.136E+03
RMM:  12    -0.128827337549E+05    0.23042E+04   -0.11434E+04 45179   0.190E+02    0.914E+02
RMM:  13    -0.154265184336E+05   -0.25438E+04   -0.17050E+04 39154   0.278E+02    0.958E+02
RMM:  14    -0.688883929958E+04    0.85377E+04   -0.53651E+03 39654   0.122E+02    0.601E+02
RMM:  15    -0.262030139535E+04    0.42685E+04   -0.48007E+03 33591   0.164E+02    0.403E+02
RMM:  16    -0.210844747341E+04    0.51185E+03   -0.41822E+03 49281   0.902E+01    0.324E+02
RMM:  17    -0.258462388565E+04   -0.47618E+03   -0.23001E+03 36071   0.898E+01    0.309E+02
RMM:  18    -0.250823320372E+04    0.76391E+02   -0.28055E+03 48843   0.675E+01    0.267E+02
RMM:  19    -0.267202577862E+04   -0.16379E+03   -0.20185E+03 48949   0.615E+01    0.231E+02
RMM:  20    -0.245814157812E+04    0.21388E+03   -0.16310E+03 48645   0.475E+01    0.169E+02
RMM:  21    -0.251511314257E+04   -0.56972E+02   -0.16111E+03 49435   0.449E+01    0.147E+02
RMM:  22    -0.250041735960E+04    0.14696E+02   -0.13288E+03 47256   0.402E+01    0.139E+02
RMM:  23    -0.252340560111E+04   -0.22988E+02   -0.10698E+03 46817   0.308E+01    0.150E+02
RMM:  24    -0.251649721646E+04    0.69084E+01   -0.89430E+02 48223   0.217E+01    0.114E+02
RMM:  25    -0.252299514880E+04   -0.64979E+01   -0.69057E+02 44933   0.179E+01    0.112E+02
RMM:  26    -0.255400614337E+04   -0.31011E+02   -0.65392E+02 48072   0.109E+01    0.119E+02
RMM:  27    -0.262539594155E+04   -0.71390E+02   -0.65143E+02 44738   0.957E+00    0.143E+02
RMM:  28    -0.260818733755E+04    0.17209E+02   -0.49196E+02 36907   0.168E+01    0.158E+02
RMM:  29    -0.255745819553E+04    0.50729E+02   -0.30337E+02 43358   0.988E+00    0.164E+02
RMM:  30    -0.250996842897E+04    0.47490E+02   -0.11474E+02 37464   0.716E+00    0.165E+02
RMM:  31    -0.250268976296E+04    0.72787E+01   -0.77297E+01 45469   0.294E+00    0.168E+02
RMM:  32    -0.252591659380E+04   -0.23227E+02   -0.39660E+01 43972   0.183E+00    0.179E+02
RMM:  33    -0.241067203626E+04    0.11524E+03   -0.46418E+01 33810   0.789E+00    0.127E+02
RMM:  34    -0.238504334279E+04    0.25629E+02   -0.59660E+01 43425   0.394E+00    0.103E+02
RMM:  35    -0.238982503864E+04   -0.47817E+01   -0.18972E+01 31988   0.523E+00    0.104E+02
RMM:  36    -0.237406845551E+04    0.15757E+02   -0.15652E+01 38657   0.367E+00    0.932E+01
RMM:  37    -0.236218869180E+04    0.11880E+02   -0.80030E+00 34496   0.292E+00    0.796E+01
RMM:  38    -0.234568622792E+04    0.16502E+02   -0.14278E+01 33862   0.481E+00    0.614E+01
RMM:  39    -0.233129694012E+04    0.14389E+02   -0.21272E+01 40936   0.399E+00    0.394E+01
RMM:  40    -0.233270565054E+04   -0.14087E+01   -0.13167E+01 37918   0.300E+00    0.424E+01
RMM:  41    -0.233282223783E+04   -0.11659E+00   -0.35489E+00 33140   0.232E+00    0.408E+01
RMM:  42    -0.233299967796E+04   -0.17744E+00   -0.27303E+00 38892   0.139E+00    0.404E+01
RMM:  43    -0.233312192160E+04   -0.12224E+00   -0.15529E+00 43500   0.637E-01    0.405E+01
RMM:  44    -0.233346881161E+04   -0.34689E+00   -0.64411E-01 30785   0.130E+00    0.405E+01
RMM:  45    -0.233254612123E+04    0.92269E+00   -0.66410E-01 41108   0.761E-01    0.383E+01
RMM:  46    -0.233411647423E+04   -0.15704E+01   -0.16750E+00 28943   0.250E+00    0.411E+01
RMM:  47    -0.233363764263E+04    0.47883E+00   -0.36002E+00 35272   0.248E+00    0.402E+01
RMM:  48    -0.233379635361E+04   -0.15871E+00   -0.18403E+00 29251   0.254E+00    0.421E+01
RMM:  49    -0.233324537695E+04    0.55098E+00   -0.28248E+00 35575   0.216E+00    0.416E+01
RMM:  50    -0.233161363113E+04    0.16317E+01   -0.27961E+00 37671   0.199E+00    0.390E+01
RMM:  51    -0.236828675501E+04   -0.36673E+02   -0.19463E+01 29474   0.789E+00    0.862E+01
RMM:  52    -0.233927102818E+04    0.29016E+02   -0.13107E+01 27614   0.895E+00    0.490E+01
RMM:  53    -0.233552681672E+04    0.37442E+01   -0.16968E+01 34235   0.546E+00    0.412E+01
RMM:  54    -0.235405905046E+04   -0.18532E+02   -0.45694E+01 37018   0.686E+00    0.602E+01
RMM:  55    -0.235593801624E+04   -0.18790E+01   -0.32807E+01 39547   0.459E+00    0.647E+01
RMM:  56    -0.241029684184E+04   -0.54359E+02   -0.53324E+01 29744   0.127E+01    0.112E+02
RMM:  57    -0.239325345497E+04    0.17043E+02   -0.50184E+01 34258   0.924E+00    0.101E+02
RMM:  58    -0.241718198960E+04   -0.23929E+02   -0.58722E+01 31470   0.117E+01    0.117E+02
RMM:  59    -0.239125856407E+04    0.25923E+02   -0.28223E+01 28479   0.107E+01    0.989E+01
RMM:  60    -0.236335264620E+04    0.27906E+02   -0.25870E+01 28336   0.103E+01    0.776E+01
RMM:  61    -0.238361223636E+04   -0.20260E+02   -0.36539E+01 28650   0.123E+01    0.920E+01
RMM:  62    -0.236117721780E+04    0.22435E+02   -0.38713E+01 31964   0.885E+00    0.726E+01
RMM:  63    -0.236000940478E+04    0.11678E+01   -0.27522E+01 36310   0.562E+00    0.726E+01
RMM:  64    -0.235770139502E+04    0.23080E+01   -0.13267E+01 36692   0.407E+00    0.719E+01
RMM:  65    -0.235398647734E+04    0.37149E+01   -0.54461E+00 28485   0.466E+00    0.680E+01
RMM:  66    -0.233433991062E+04    0.19647E+02   -0.16105E+01 28067   0.798E+00    0.403E+01
RMM:  67    -0.232964459445E+04    0.46953E+01   -0.10502E+01 27827   0.685E+00    0.297E+01
RMM:  68    -0.232812498922E+04    0.15196E+01   -0.86875E+00 30467   0.462E+00    0.248E+01
RMM:  69    -0.232862542769E+04   -0.50044E+00   -0.77170E+00 34423   0.354E+00    0.253E+01
RMM:  70    -0.232800596418E+04    0.61946E+00   -0.37820E+00 32783   0.279E+00    0.222E+01
RMM:  71    -0.233013913554E+04   -0.21332E+01   -0.66875E+00 29764   0.456E+00    0.292E+01
RMM:  72    -0.232753200007E+04    0.26071E+01   -0.28482E+00 27873   0.369E+00    0.184E+01
RMM:  73    -0.232790300103E+04   -0.37100E+00   -0.43728E+00 36094   0.249E+00    0.208E+01
RMM:  74    -0.232816352307E+04   -0.26052E+00   -0.20412E+00 34005   0.192E+00    0.215E+01
RMM:  75    -0.232778236959E+04    0.38115E+00   -0.10867E+00 33793   0.143E+00    0.194E+01
RMM:  76    -0.233061366268E+04   -0.28313E+01   -0.64018E+00 27948   0.513E+00    0.300E+01
RMM:  77    -0.233111807692E+04   -0.50441E+00   -0.41860E+00 27600   0.507E+00    0.308E+01
RMM:  78    -0.232731613296E+04    0.38019E+01   -0.26385E+00 27617   0.375E+00    0.164E+01
RMM:  79    -0.232749940167E+04   -0.18327E+00   -0.18355E+00 28481   0.279E+00    0.175E+01
RMM:  80    -0.232732668706E+04    0.17271E+00   -0.12076E+00 29297   0.201E+00    0.169E+01
RMM:  81    -0.233179984230E+04   -0.44732E+01   -0.81542E+00 29397   0.514E+00    0.322E+01
RMM:  82    -0.232802560088E+04    0.37742E+01   -0.30147E+00 27601   0.438E+00    0.196E+01
RMM:  83    -0.232690155614E+04    0.11240E+01   -0.14788E+00 27995   0.273E+00    0.136E+01
RMM:  84    -0.232629610538E+04    0.60545E+00   -0.72088E-01 27680   0.196E+00    0.924E+00
RMM:  85    -0.232610937598E+04    0.18673E+00   -0.40333E-01 27824   0.143E+00    0.741E+00
RMM:  86    -0.232641791674E+04   -0.30854E+00   -0.12175E+00 28106   0.226E+00    0.997E+00
RMM:  87    -0.232603469702E+04    0.38322E+00   -0.54119E-01 27600   0.193E+00    0.615E+00
RMM:  88    -0.232591198110E+04    0.12272E+00   -0.21800E-01 29022   0.916E-01    0.377E+00
RMM:  89    -0.232592682583E+04   -0.14845E-01   -0.21644E-01 29828   0.838E-01    0.391E+00
RMM:  90    -0.232596377882E+04   -0.36953E-01   -0.17269E-01 28457   0.845E-01    0.469E+00
RMM:  91    -0.232603916274E+04   -0.75384E-01   -0.22142E-01 28868   0.917E-01    0.574E+00
RMM:  92    -0.232594753217E+04    0.91631E-01   -0.10001E-01 28465   0.651E-01    0.418E+00
RMM:  93    -0.232591673353E+04    0.30799E-01   -0.73982E-02 32204   0.369E-01    0.340E+00
RMM:  94    -0.232589956034E+04    0.17173E-01   -0.37072E-02 33469   0.259E-01    0.292E+00
RMM:  95    -0.232588801801E+04    0.11542E-01   -0.18818E-02 30141   0.243E-01    0.247E+00
RMM:  96    -0.232600864964E+04   -0.12063E+00   -0.19134E-01 27955   0.887E-01    0.527E+00
RMM:  97    -0.232588474537E+04    0.12390E+00   -0.78926E-02 27600   0.787E-01    0.214E+00
RMM:  98    -0.232587210302E+04    0.12642E-01   -0.16539E-02 28761   0.259E-01    0.161E+00
RMM:  99    -0.232587137285E+04    0.73017E-03   -0.13829E-02 29688   0.208E-01    0.156E+00
RMM: 100    -0.232586922439E+04    0.21485E-02   -0.12136E-02 31204   0.175E-01
   1 F= -.23258692E+04 E0= -.23230866E+04  d E =-.232587E+04
       N       E                     dE             d eps       ncg     rms          rms(c)
DAV:   1    -0.232589537423E+04   -0.24001E-01   -0.27416E+00 31740   0.203E+00    0.217E+00
RMM:   2    -0.246280573135E+04   -0.13691E+03   -0.18889E+01 36397   0.507E+00    0.142E+02
RMM:   3    -0.233641939676E+04    0.12639E+03   -0.32143E+00 28164   0.352E+00    0.413E+01
RMM:   4    -0.233788265534E+04   -0.14633E+01   -0.31730E+00 34407   0.237E+00    0.463E+01
RMM:   5    -0.232744238839E+04    0.10440E+02   -0.21117E+00 27613   0.317E+00    0.164E+01
RMM:   6    -0.233297480456E+04   -0.55324E+01   -0.55182E+00 37151   0.275E+00    0.368E+01
RMM:   7    -0.233075976250E+04    0.22150E+01   -0.26441E+00 28144   0.303E+00    0.291E+01
RMM:   8    -0.232777539126E+04    0.29844E+01   -0.12522E+00 27610   0.245E+00    0.181E+01
RMM:   9    -0.232635216317E+04    0.14232E+01   -0.48080E-01 27652   0.162E+00    0.906E+00
RMM:  10    -0.232616750614E+04    0.18466E+00   -0.31714E-01 27892   0.113E+00    0.799E+00
RMM:  11    -0.232600605316E+04    0.16145E+00   -0.37136E-01 33610   0.865E-01    0.491E+00
RMM:  12    -0.232589945844E+04    0.10659E+00   -0.13655E-01 29068   0.669E-01    0.255E+00
RMM:  13    -0.232589084449E+04    0.86140E-02   -0.11796E-01 33739   0.446E-01    0.209E+00
RMM:  14    -0.232589837688E+04   -0.75324E-02   -0.72341E-02 35290   0.348E-01    0.242E+00
RMM:  15    -0.232589693690E+04    0.14400E-02   -0.27132E-02 30852   0.265E-01    0.231E+00
RMM:  16    -0.232589297323E+04    0.39637E-02   -0.20050E-02 36828   0.163E-01    0.206E+00
RMM:  17    -0.232588498562E+04    0.79876E-02   -0.10429E-02 35756   0.126E-01    0.159E+00
RMM:  18    -0.232587527215E+04    0.97135E-02   -0.30499E-03 29020   0.105E-01    0.680E-01
RMM:  19    -0.232587396682E+04    0.13053E-02   -0.23507E-03 30925   0.784E-02    0.495E-01
RMM:  20    -0.232587437891E+04   -0.41209E-03   -0.34545E-03 33284   0.835E-02    0.514E-01
RMM:  21    -0.232587392205E+04    0.45687E-03   -0.13229E-03 28673   0.742E-02    0.428E-01
RMM:  22    -0.232587411395E+04   -0.19190E-03   -0.18279E-03 32959   0.613E-02    0.446E-01
RMM:  23    -0.232587396252E+04    0.15143E-03   -0.15221E-03 28725   0.765E-02    0.368E-01
RMM:  24    -0.232587348618E+04    0.47634E-03   -0.76859E-04 28061   0.617E-02    0.205E-01
RMM:  25    -0.232587350984E+04   -0.23663E-04   -0.99399E-04 36871   0.364E-02    0.178E-01
RMM:  26    -0.232587354524E+04   -0.35402E-04   -0.59520E-04 32700   0.354E-02    0.153E-01
RMM:  27    -0.232587349338E+04    0.51863E-04   -0.25823E-04 29706   0.279E-02    0.912E-02
RMM:  28    -0.232587350768E+04   -0.14296E-04   -0.26339E-04 33087   0.153E-02    0.804E-02
RMM:  29    -0.232587352800E+04   -0.20328E-04   -0.94115E-05 25660   0.147E-02    0.731E-02
RMM:  30    -0.232587353871E+04   -0.10708E-04   -0.41243E-05 19999   0.136E-02    0.471E-02
RMM:  31    -0.232587354295E+04   -0.42357E-05   -0.21107E-05 17577   0.902E-03
   2 F= -.23258735E+04 E0= -.23230901E+04  d E =-.431855E-02
       N       E                     dE             d eps       ncg     rms          rms(c)
DAV:   1    -0.232587889815E+04   -0.53594E-02   -0.11073E+01 27860   0.349E+00    0.771E-01
RMM:   2    -0.232729549316E+04   -0.14166E+01   -0.61407E-01 30881   0.135E+00    0.170E+01
RMM:   3    -0.232713482110E+04    0.16067E+00   -0.26153E-01 33633   0.739E-01    0.146E+01
RMM:   4    -0.232616953134E+04    0.96529E+00   -0.97584E-02 27634   0.691E-01    0.685E+00
RMM:   5    -0.232620542607E+04   -0.35895E-01   -0.70233E-02 35299   0.335E-01    0.760E+00
RMM:   6    -0.232592851523E+04    0.27691E+00   -0.52742E-02 27723   0.468E-01    0.249E+00
RMM:   7    -0.232611957238E+04   -0.19106E+00   -0.17938E-01 32514   0.594E-01    0.657E+00
RMM:   8    -0.232598724983E+04    0.13232E+00   -0.62960E-02 30593   0.432E-01    0.429E+00
RMM:   9    -0.232590319093E+04    0.84059E-01   -0.32672E-02 27875   0.372E-01    0.166E+00
RMM:  10    -0.232589226681E+04    0.10924E-01   -0.28099E-02 32870   0.225E-01    0.962E-01
RMM:  11    -0.232589422468E+04   -0.19579E-02   -0.23956E-02 34676   0.202E-01    0.105E+00
RMM:  12    -0.232589140217E+04    0.28225E-02   -0.96165E-03 29515   0.171E-01    0.764E-01
RMM:  13    -0.232588822367E+04    0.31785E-02   -0.35714E-03 27896   0.133E-01    0.314E-01
RMM:  14    -0.232588836903E+04   -0.14535E-03   -0.39389E-03 36003   0.719E-02    0.319E-01
RMM:  15    -0.232588844388E+04   -0.74856E-04   -0.20507E-03 31769   0.702E-02    0.315E-01
RMM:  16    -0.232588803164E+04    0.41224E-03   -0.78380E-04 28117   0.582E-02    0.178E-01
RMM:  17    -0.232588803183E+04   -0.18801E-06   -0.89069E-04 37252   0.323E-02    0.157E-01
RMM:  18    -0.232588802224E+04    0.95908E-05   -0.33117E-04 29868   0.323E-02    0.146E-01
RMM:  19    -0.232588794143E+04    0.80809E-04   -0.15949E-04 28152   0.252E-02    0.763E-02
RMM:  20    -0.232588793957E+04    0.18595E-05   -0.13803E-04 27476   0.148E-02    0.631E-02
RMM:  21    -0.232588794890E+04   -0.93359E-05   -0.90601E-05 25767   0.150E-02
   3 F= -.23258879E+04 E0= -.23231061E+04  d E =-.187245E-01
       N       E                     dE             d eps       ncg     rms          rms(c)
DAV:   1    -0.232583838644E+04    0.49553E-01   -0.44268E+01 27600   0.698E+00    0.159E+00
RMM:   2    -0.233339032955E+04   -0.75519E+01   -0.29565E+00 31082   0.291E+00    0.388E+01
RMM:   3    -0.233113428549E+04    0.22560E+01   -0.11460E+00 34186   0.152E+00    0.301E+01
RMM:   4    -0.232877346511E+04    0.23608E+01   -0.45324E-01 27665   0.143E+00    0.226E+01
RMM:   5    -0.232659419567E+04    0.21793E+01   -0.30635E-01 32594   0.809E-01    0.108E+01
RMM:   6    -0.232608212436E+04    0.51207E+00   -0.29139E-01 27675   0.111E+00    0.604E+00
RMM:   7    -0.232773022994E+04   -0.16481E+01   -0.10279E+00 34712   0.129E+00    0.188E+01
RMM:   8    -0.232621128818E+04    0.15189E+01   -0.29889E-01 28659   0.103E+00    0.742E+00
RMM:   9    -0.232593778566E+04    0.27350E+00   -0.16040E-01 27857   0.846E-01    0.355E+00
RMM:  10    -0.232590207910E+04    0.35707E-01   -0.13790E-01 33485   0.484E-01    0.229E+00
RMM:  11    -0.232590735735E+04   -0.52782E-02   -0.11657E-01 34051   0.460E-01    0.230E+00
RMM:  12    -0.232589169580E+04    0.15662E-01   -0.42737E-02 29301   0.369E-01    0.163E+00
RMM:  13    -0.232588078920E+04    0.10907E-01   -0.19414E-02 29175   0.270E-01    0.979E-01
RMM:  14    -0.232588098371E+04   -0.19452E-03   -0.21728E-02 37501   0.157E-01    0.905E-01
RMM:  15    -0.232587912331E+04    0.18604E-02   -0.77977E-03 31879   0.136E-01    0.652E-01
RMM:  16    -0.232587759320E+04    0.15301E-02   -0.31904E-03 29412   0.109E-01    0.423E-01
RMM:  17    -0.232587748224E+04    0.11096E-03   -0.38006E-03 36996   0.703E-02    0.350E-01
RMM:  18    -0.232587743012E+04    0.52126E-04   -0.13947E-03 29441   0.683E-02    0.324E-01
RMM:  19    -0.232587727640E+04    0.15372E-03   -0.64089E-04 28400   0.533E-02    0.276E-01
RMM:  20    -0.232587719786E+04    0.78540E-04   -0.81982E-04 34616   0.370E-02    0.236E-01
RMM:  21    -0.232587705856E+04    0.13930E-03   -0.45728E-04 30774   0.348E-02    0.160E-01
RMM:  22    -0.232587702895E+04    0.29604E-04   -0.27920E-04 30244   0.286E-02    0.146E-01
RMM:  23    -0.232587700662E+04    0.22332E-04   -0.26145E-04 31761   0.223E-02    0.123E-01
RMM:  24    -0.232587696293E+04    0.43689E-04   -0.15727E-04 29159   0.190E-02    0.736E-02
RMM:  25    -0.232587694464E+04    0.18286E-04   -0.65789E-05 23099   0.130E-02    0.396E-02
RMM:  26    -0.232587694510E+04   -0.45775E-06   -0.44104E-05 20562   0.830E-03
   4 F= -.23258769E+04 E0= -.23230983E+04  d E =-.772071E-02
       N       E                     dE             d eps       ncg     rms          rms(c)
DAV:   1    -0.232587118953E+04    0.57551E-02   -0.22415E+01 27600   0.497E+00    0.111E+00
RMM:   2    -0.232877380723E+04   -0.29026E+01   -0.10699E+00 30091   0.189E+00    0.234E+01
RMM:   3    -0.232843079193E+04    0.34302E+00   -0.56428E-01 34243   0.106E+00    0.208E+01
RMM:   4    -0.232709791301E+04    0.13329E+01   -0.20322E-01 27628   0.974E-01    0.147E+01
RMM:   5    -0.232633215107E+04    0.76576E+00   -0.15045E-01 33181   0.550E-01    0.864E+00
RMM:   6    -0.232598786805E+04    0.34428E+00   -0.12756E-01 27743   0.732E-01    0.406E+00
RMM:   7    -0.232674070801E+04   -0.75284E+00   -0.44228E-01 34423   0.858E-01    0.128E+01
RMM:   8    -0.232608832254E+04    0.65239E+00   -0.15600E-01 29011   0.738E-01    0.582E+00
RMM:   9    -0.232591204718E+04    0.17628E+00   -0.73453E-02 27722   0.594E-01    0.198E+00
RMM:  10    -0.232589665143E+04    0.15396E-01   -0.54005E-02 33032   0.311E-01    0.127E+00
RMM:  11    -0.232590377492E+04   -0.71235E-02   -0.49986E-02 34044   0.296E-01    0.158E+00
RMM:  12    -0.232589739708E+04    0.63778E-02   -0.21216E-02 29531   0.254E-01    0.115E+00
RMM:  13    -0.232589153337E+04    0.58637E-02   -0.84941E-03 28587   0.191E-01    0.607E-01
RMM:  14    -0.232589163338E+04   -0.10001E-03   -0.98200E-03 36811   0.109E-01    0.568E-01
RMM:  15    -0.232589140994E+04    0.22344E-03   -0.48740E-03 31262   0.109E-01    0.480E-01
RMM:  16    -0.232589065411E+04    0.75583E-03   -0.17346E-03 27784   0.906E-02    0.341E-01
RMM:  17    -0.232589057388E+04    0.80239E-04   -0.17882E-03 36318   0.486E-02    0.300E-01
RMM:  18    -0.232589035619E+04    0.21768E-03   -0.76208E-04 30620   0.460E-02    0.213E-01
RMM:  19    -0.232589017874E+04    0.17745E-03   -0.38219E-04 29515   0.366E-02    0.108E-01
RMM:  20    -0.232589019971E+04   -0.20972E-04   -0.41039E-04 35816   0.216E-02    0.109E-01
RMM:  21    -0.232589022252E+04   -0.22801E-04   -0.21247E-04 30723   0.226E-02    0.118E-01
RMM:  22    -0.232589018079E+04    0.41727E-04   -0.99180E-05 26461   0.191E-02    0.810E-02
RMM:  23    -0.232589017155E+04    0.92423E-05   -0.64709E-05 22241   0.120E-02
   5 F= -.23258902E+04 E0= -.23231091E+04  d E =-.209472E-01
       N       E                     dE             d eps       ncg     rms          rms(c)
DAV:   1    -0.232589938219E+04   -0.92014E-02   -0.65371E+00 27760   0.266E+00    0.490E-01
RMM:   2    -0.232651336642E+04   -0.61398E+00   -0.19027E-01 28823   0.903E-01    0.112E+01
RMM:   3    -0.232630055883E+04    0.21281E+00   -0.80659E-02 33074   0.441E-01    0.814E+00
RMM:   4    -0.232607951620E+04    0.22104E+00   -0.32572E-02 27646   0.390E-01    0.550E+00
RMM:   5    -0.232597081099E+04    0.10871E+00   -0.21017E-02 32790   0.211E-01    0.338E+00
RMM:   6    -0.232593982471E+04    0.30986E-01   -0.24977E-02 27674   0.328E-01    0.254E+00
RMM:   7    -0.232601513995E+04   -0.75315E-01   -0.60224E-02 35618   0.312E-01    0.461E+00
RMM:   8    -0.232592685574E+04    0.88284E-01   -0.23422E-02 27627   0.326E-01    0.184E+00
RMM:   9    -0.232591124229E+04    0.15613E-01   -0.82837E-03 27630   0.216E-01    0.113E+00
RMM:  10    -0.232590950397E+04    0.17383E-02   -0.50007E-03 30160   0.117E-01    0.964E-01
RMM:  11    -0.232590712489E+04    0.23791E-02   -0.60723E-03 33804   0.108E-01    0.691E-01
RMM:  12    -0.232590596137E+04    0.11635E-02   -0.27120E-03 28958   0.962E-02    0.532E-01
RMM:  13    -0.232590564853E+04    0.31284E-03   -0.18300E-03 30441   0.704E-02    0.485E-01
RMM:  14    -0.232590537445E+04    0.27408E-03   -0.16638E-03 34864   0.527E-02    0.413E-01
RMM:  15    -0.232590469946E+04    0.67499E-03   -0.55370E-04 29597   0.426E-02    0.184E-01
RMM:  16    -0.232590455267E+04    0.14679E-03   -0.24503E-04 29012   0.292E-02    0.987E-02
RMM:  17    -0.232590455158E+04    0.10942E-05   -0.23823E-04 32624   0.179E-02    0.838E-02
RMM:  18    -0.232590455366E+04   -0.20830E-05   -0.10529E-04 26836   0.170E-02    0.797E-02
RMM:  19    -0.232590453544E+04    0.18217E-04   -0.35836E-05 18800   0.140E-02    0.531E-02
RMM:  20    -0.232590453454E+04    0.89896E-06   -0.21206E-05 17210   0.878E-03
   6 F= -.23259045E+04 E0= -.23231244E+04  d E =-.143630E-01
       N       E                     dE             d eps       ncg     rms          rms(c)
DAV:   1    -0.232588522984E+04    0.19306E-01   -0.58790E+01 27600   0.799E+00    0.161E+00
RMM:   2    -0.233431681406E+04   -0.84316E+01   -0.24655E+00 29120   0.314E+00    0.409E+01
RMM:   3    -0.232972244978E+04    0.45944E+01   -0.87473E-01 31725   0.153E+00    0.251E+01
RMM:   4    -0.232652531147E+04    0.31971E+01   -0.36250E-01 27624   0.136E+00    0.950E+00
RMM:   5    -0.232823175990E+04   -0.17064E+01   -0.32499E-01 36980   0.645E-01    0.206E+01
RMM:   6    -0.232622893208E+04    0.20028E+01   -0.25241E-01 27715   0.102E+00    0.637E+00
RMM:   7    -0.232809192462E+04   -0.18630E+01   -0.79527E-01 32969   0.121E+00    0.206E+01
RMM:   8    -0.232628984444E+04    0.18021E+01   -0.22606E-01 27671   0.103E+00    0.736E+00
RMM:   9    -0.232610308688E+04    0.18676E+00   -0.11177E-01 27801   0.765E-01    0.554E+00
RMM:  10    -0.232603016212E+04    0.72925E-01   -0.86023E-02 28820   0.544E-01    0.406E+00
RMM:  11    -0.232597445700E+04    0.55705E-01   -0.88141E-02 32221   0.434E-01    0.266E+00
RMM:  12    -0.232595817543E+04    0.16282E-01   -0.35208E-02 28916   0.359E-01    0.205E+00
RMM:  13    -0.232595051460E+04    0.76608E-02   -0.32885E-02 32673   0.250E-01    0.169E+00
RMM:  14    -0.232594228387E+04    0.82307E-02   -0.14502E-02 30828   0.201E-01    0.104E+00
RMM:  15    -0.232593807828E+04    0.42056E-02   -0.54936E-03 28952   0.151E-01    0.547E-01
RMM:  16    -0.232593768886E+04    0.38942E-03   -0.49933E-03 34751   0.881E-02    0.445E-01
RMM:  17    -0.232593754644E+04    0.14242E-03   -0.29425E-03 33150   0.759E-02    0.358E-01
RMM:  18    -0.232593711014E+04    0.43629E-03   -0.10109E-03 29346   0.630E-02    0.218E-01
RMM:  19    -0.232593708056E+04    0.29584E-04   -0.89224E-04 32887   0.421E-02    0.187E-01
RMM:  20    -0.232593727487E+04   -0.19431E-03   -0.97554E-04 32258   0.467E-02    0.252E-01
RMM:  21    -0.232593708004E+04    0.19484E-03   -0.32754E-04 28011   0.398E-02    0.161E-01
RMM:  22    -0.232593705715E+04    0.22893E-04   -0.33012E-04 33814   0.218E-02    0.135E-01
RMM:  23    -0.232593702988E+04    0.27270E-04   -0.16991E-04 29733   0.167E-02    0.103E-01
RMM:  24    -0.232593700032E+04    0.29559E-04   -0.72228E-05 22999   0.144E-02    0.608E-02
RMM:  25    -0.232593699422E+04    0.60997E-05   -0.41242E-05 20109   0.941E-03
   7 F= -.23259370E+04 E0= -.23231594E+04  d E =-.468227E-01
       N       E                     dE             d eps       ncg     rms          rms(c)
DAV:   1    -0.232568336238E+04    0.25364E+00   -0.23482E+02 27600   0.160E+01    0.354E+00
RMM:   2    -0.236488647720E+04   -0.39203E+02   -0.14888E+01 29824   0.733E+00    0.854E+01
RMM:   3    -0.234323323512E+04    0.21653E+02   -0.45260E+00 32700   0.330E+00    0.544E+01
RMM:   4    -0.233022286763E+04    0.13010E+02   -0.18019E+00 27689   0.289E+00    0.262E+01
RMM:   5    -0.233391212716E+04   -0.36893E+01   -0.19694E+00 39213   0.135E+00    0.377E+01
RMM:   6    -0.232700181791E+04    0.69103E+01   -0.12820E+00 27612   0.237E+00    0.121E+01
RMM:   7    -0.233161656974E+04   -0.46148E+01   -0.22491E+00 29964   0.250E+00    0.331E+01
RMM:   8    -0.232810764988E+04    0.35089E+01   -0.79002E-01 28503   0.174E+00    0.196E+01
RMM:   9    -0.232700790174E+04    0.10997E+01   -0.51714E-01 27629   0.171E+00    0.139E+01
RMM:  10    -0.232635456621E+04    0.65334E+00   -0.33321E-01 28020   0.116E+00    0.828E+00
RMM:  11    -0.232607895941E+04    0.27561E+00   -0.23933E-01 29962   0.837E-01    0.495E+00
RMM:  12    -0.232605042458E+04    0.28535E-01   -0.19000E-01 29785   0.738E-01    0.439E+00
RMM:  13    -0.232600894411E+04    0.41480E-01   -0.13951E-01 30179   0.617E-01    0.327E+00
RMM:  14    -0.232597081540E+04    0.38129E-01   -0.44232E-02 28037   0.463E-01    0.193E+00
RMM:  15    -0.232596117812E+04    0.96373E-02   -0.32677E-02 31523   0.273E-01    0.131E+00
RMM:  16    -0.232595785880E+04    0.33193E-02   -0.20294E-02 33497   0.196E-01    0.101E+00
RMM:  17    -0.232595556115E+04    0.22976E-02   -0.71309E-03 29587   0.156E-01    0.735E-01
RMM:  18    -0.232595549187E+04    0.69279E-04   -0.67771E-03 32170   0.125E-01    0.682E-01
RMM:  19    -0.232595504075E+04    0.45113E-03   -0.73797E-03 32905   0.123E-01    0.596E-01
RMM:  20    -0.232595453460E+04    0.50615E-03   -0.32282E-03 29113   0.109E-01    0.509E-01
RMM:  21    -0.232595434136E+04    0.19325E-03   -0.28145E-03 33084   0.735E-02    0.450E-01
RMM:  22    -0.232595396851E+04    0.37285E-03   -0.24945E-03 35999   0.609E-02    0.335E-01
RMM:  23    -0.232595350828E+04    0.46023E-03   -0.64774E-04 29461   0.489E-02    0.181E-01
RMM:  24    -0.232595351392E+04   -0.56385E-05   -0.70922E-04 37826   0.267E-02    0.161E-01
RMM:  25    -0.232595349008E+04    0.23836E-04   -0.35740E-04 32966   0.250E-02    0.136E-01
RMM:  26    -0.232595343662E+04    0.53457E-04   -0.16261E-04 28969   0.215E-02    0.812E-02
RMM:  27    -0.232595343318E+04    0.34411E-05   -0.12763E-04 26779   0.140E-02    0.658E-02
RMM:  28    -0.232595343905E+04   -0.58651E-05   -0.72099E-05 23724   0.134E-02
   8 F= -.23259534E+04 E0= -.23231814E+04  d E =-.632675E-01
       N       E                     dE             d eps       ncg     rms          rms(c)
DAV:   1    -0.232594183387E+04    0.11599E-01   -0.17123E+01 27600   0.431E+00    0.812E-01
RMM:   2    -0.232806242468E+04   -0.21206E+01   -0.48256E-01 28580   0.143E+00    0.202E+01
RMM:   3    -0.232680549219E+04    0.12569E+01   -0.21041E-01 32910   0.732E-01    0.117E+01
RMM:   4    -0.232665126009E+04    0.15423E+00   -0.92146E-02 27619   0.663E-01    0.112E+01
RMM:   5    -0.232614741081E+04    0.50385E+00   -0.64881E-02 32357   0.383E-01    0.555E+00
RMM:   6    -0.232603885611E+04    0.10855E+00   -0.80204E-02 27677   0.590E-01    0.384E+00
RMM:   7    -0.232647550017E+04   -0.43664E+00   -0.20926E-01 34816   0.585E-01    0.100E+01
RMM:   8    -0.232601196403E+04    0.46354E+00   -0.70634E-02 27617   0.572E-01    0.272E+00
RMM:   9    -0.232595866214E+04    0.53302E-01   -0.26675E-02 27692   0.372E-01    0.849E-01
RMM:  10    -0.232596131133E+04   -0.26492E-02   -0.21126E-02 31968   0.214E-01    0.112E+00
RMM:  11    -0.232596322034E+04   -0.19090E-02   -0.22502E-02 33945   0.202E-01    0.121E+00
RMM:  12    -0.232595745208E+04    0.57683E-02   -0.69315E-03 27969   0.172E-01    0.637E-01
RMM:  13    -0.232595590994E+04    0.15421E-02   -0.50098E-03 30900   0.111E-01    0.372E-01
RMM:  14    -0.232595627381E+04   -0.36387E-03   -0.46952E-03 37920   0.737E-02    0.409E-01
RMM:  15    -0.232595605948E+04    0.21433E-03   -0.17482E-03 31511   0.656E-02    0.337E-01
RMM:  16    -0.232595579510E+04    0.26437E-03   -0.78300E-04 29986   0.502E-02    0.263E-01
RMM:  17    -0.232595569272E+04    0.10238E-03   -0.79617E-04 36850   0.328E-02    0.204E-01
RMM:  18    -0.232595558281E+04    0.10991E-03   -0.28973E-04 29270   0.311E-02    0.141E-01
RMM:  19    -0.232595553599E+04    0.46820E-04   -0.13157E-04 27226   0.237E-02    0.111E-01
RMM:  20    -0.232595554305E+04   -0.70598E-05   -0.14281E-04 28738   0.156E-02    0.113E-01
RMM:  21    -0.232595551822E+04    0.24836E-04   -0.83139E-05 25301   0.160E-02    0.781E-02
RMM:  22    -0.232595549370E+04    0.24521E-04   -0.32760E-05 18350   0.136E-02    0.421E-02
RMM:  23    -0.232595549457E+04   -0.87370E-06   -0.25159E-05 18093   0.940E-03
   9 F= -.23259555E+04 E0= -.23231820E+04  d E =-.653230E-01
       N       E                     dE             d eps       ncg     rms          rms(c)
DAV:   1    -0.232596035462E+04   -0.48609E-02   -0.19249E+01 27600   0.458E+00    0.890E-01
RMM:   2    -0.233062247734E+04   -0.46621E+01   -0.90171E-01 29763   0.175E+00    0.301E+01
RMM:   3    -0.232689418472E+04    0.37283E+01   -0.27178E-01 29711   0.957E-01    0.120E+01
RMM:   4    -0.232621088232E+04    0.68330E+00   -0.12689E-01 27644   0.827E-01    0.619E+00
RMM:   5    -0.232654327116E+04   -0.33239E+00   -0.10065E-01 37721   0.350E-01    0.102E+01
RMM:   6    -0.232610381840E+04    0.43945E+00   -0.10280E-01 27741   0.642E-01    0.443E+00
RMM:   7    -0.232670724673E+04   -0.60343E+00   -0.27725E-01 32848   0.721E-01    0.120E+01
RMM:   8    -0.232606640386E+04    0.64084E+00   -0.82784E-02 27651   0.621E-01    0.352E+00
RMM:   9    -0.232599525915E+04    0.71145E-01   -0.36929E-02 27649   0.465E-01    0.195E+00
RMM:  10    -0.232598767193E+04    0.75872E-02   -0.36048E-02 31053   0.304E-01    0.159E+00
RMM:  11    -0.232598484947E+04    0.28225E-02   -0.20898E-02 30776   0.231E-01    0.138E+00
RMM:  12    -0.232598181396E+04    0.30355E-02   -0.12749E-02 30042   0.182E-01    0.117E+00
RMM:  13    -0.232597878687E+04    0.30271E-02   -0.82275E-03 33265   0.123E-01    0.886E-01
RMM:  14    -0.232597731391E+04    0.14730E-02   -0.55051E-03 33270   0.101E-01    0.676E-01
RMM:  15    -0.232597538440E+04    0.19295E-02   -0.14142E-03 28668   0.761E-02    0.322E-01
RMM:  16    -0.232597516750E+04    0.21690E-03   -0.97265E-04 32039   0.453E-02    0.249E-01
RMM:  17    -0.232597511656E+04    0.50944E-04   -0.79728E-04 35739   0.344E-02    0.205E-01
RMM:  18    -0.232597498494E+04    0.13162E-03   -0.25286E-04 29207   0.292E-02    0.117E-01
RMM:  19    -0.232597496444E+04    0.20497E-04   -0.17013E-04 28975   0.224E-02    0.939E-02
RMM:  20    -0.232597501515E+04   -0.50712E-04   -0.25769E-04 31628   0.246E-02    0.126E-01
RMM:  21    -0.232597497274E+04    0.42417E-04   -0.86790E-05 24863   0.208E-02    0.899E-02
RMM:  22    -0.232597495789E+04    0.14845E-04   -0.41141E-05 20484   0.114E-02    0.713E-02
RMM:  23    -0.232597494883E+04    0.90629E-05   -0.29775E-05 18555   0.976E-03
  10 F= -.23259749E+04 E0= -.23232018E+04  d E =-.194543E-01
       N       E                     dE             d eps       ncg     rms          rms(c)
DAV:   1    -0.232593984013E+04    0.35118E-01   -0.68327E+01 27600   0.863E+00    0.177E+00
RMM:   2    -0.234416499198E+04   -0.18225E+02   -0.42070E+00 30208   0.364E+00    0.593E+01
RMM:   3    -0.232951658988E+04    0.14648E+02   -0.10861E+00 29711   0.189E+00    0.238E+01
RMM:   4    -0.232642928413E+04    0.30873E+01   -0.48962E-01 27663   0.160E+00    0.781E+00
RMM:   5    -0.233174703043E+04   -0.53177E+01   -0.57258E-01 35101   0.910E-01    0.327E+01
RMM:   6    -0.232665261025E+04    0.50944E+01   -0.39002E-01 29084   0.112E+00    0.931E+00
RMM:   7    -0.232807902420E+04   -0.14264E+01   -0.77803E-01 29963   0.146E+00    0.202E+01
RMM:   8    -0.232644597551E+04    0.16330E+01   -0.23689E-01 27734   0.104E+00    0.838E+00
RMM:   9    -0.232615081263E+04    0.29516E+00   -0.14820E-01 27625   0.946E-01    0.518E+00
RMM:  10    -0.232607124436E+04    0.79568E-01   -0.15182E-01 29252   0.716E-01    0.370E+00
RMM:  11    -0.232604845301E+04    0.22791E-01   -0.71621E-02 28742   0.509E-01    0.313E+00
RMM:  12    -0.232603319493E+04    0.15258E-01   -0.50545E-02 29787   0.387E-01    0.268E+00
RMM:  13    -0.232601420188E+04    0.18993E-01   -0.32692E-02 31230   0.281E-01    0.185E+00
RMM:  14    -0.232600174878E+04    0.12453E-01   -0.14486E-02 29828   0.214E-01    0.957E-01
RMM:  15    -0.232599748952E+04    0.42593E-02   -0.55470E-03 28922   0.157E-01    0.468E-01
RMM:  16    -0.232599752463E+04   -0.35115E-04   -0.55768E-03 33544   0.951E-02    0.423E-01
RMM:  17    -0.232599739247E+04    0.13217E-03   -0.30922E-03 33079   0.760E-02    0.349E-01
RMM:  18    -0.232599702222E+04    0.37025E-03   -0.14018E-03 30915   0.620E-02    0.203E-01
RMM:  19    -0.232599713888E+04   -0.11667E-03   -0.15631E-03 35135   0.481E-02    0.218E-01
RMM:  20    -0.232599735925E+04   -0.22037E-03   -0.86126E-04 30483   0.496E-02    0.289E-01
RMM:  21    -0.232599723994E+04    0.11931E-03   -0.35364E-04 29037   0.390E-02    0.250E-01
RMM:  22    -0.232599720640E+04    0.33533E-04   -0.47009E-04 35985   0.219E-02    0.223E-01
RMM:  23    -0.232599706982E+04    0.13659E-03   -0.17904E-04 29744   0.189E-02    0.135E-01
RMM:  24    -0.232599702610E+04    0.43721E-04   -0.81826E-05 23994   0.151E-02    0.937E-02
RMM:  25    -0.232599701334E+04    0.12756E-04   -0.52870E-05 21345   0.968E-03    0.719E-02
RMM:  26    -0.232599700702E+04    0.63196E-05   -0.45691E-05 20864   0.109E-02
  11 F= -.23259970E+04 E0= -.23232246E+04  d E =-.415125E-01
       N       E                     dE             d eps       ncg     rms          rms(c)
DAV:   1    -0.232568639578E+04    0.31062E+00   -0.27288E+02 27600   0.173E+01    0.391E+00
RMM:   2    -0.240648273774E+04   -0.80796E+02   -0.31711E+01 31499   0.881E+00    0.114E+02
RMM:   3    -0.234198707200E+04    0.64496E+02   -0.57077E+00 30519   0.406E+00    0.521E+01
RMM:   4    -0.232802337791E+04    0.13964E+02   -0.24816E+00 27730   0.341E+00    0.174E+01
RMM:   5    -0.235332405350E+04   -0.25301E+02   -0.38177E+00 36535   0.200E+00    0.709E+01
RMM:   6    -0.232839228443E+04    0.24932E+02   -0.16080E+00 29042   0.229E+00    0.173E+01
RMM:   7    -0.232851116526E+04   -0.11888E+00   -0.15695E+00 27686   0.272E+00    0.215E+01
RMM:   8    -0.232747318135E+04    0.10380E+01   -0.79340E-01 27606   0.227E+00    0.162E+01
RMM:   9    -0.232884569999E+04   -0.13725E+01   -0.10338E+00 32020   0.138E+00    0.235E+01
RMM:  10    -0.232625931666E+04    0.25864E+01   -0.42228E-01 27788   0.134E+00    0.594E+00
RMM:  11    -0.232620537761E+04    0.53939E-01   -0.39333E-01 29750   0.111E+00    0.674E+00
RMM:  12    -0.232617366451E+04    0.31713E-01   -0.28913E-01 30359   0.845E-01    0.596E+00
RMM:  13    -0.232604637077E+04    0.12729E+00   -0.12456E-01 28975   0.639E-01    0.341E+00
RMM:  14    -0.232599984370E+04    0.46527E-01   -0.62956E-02 29831   0.431E-01    0.173E+00
RMM:  15    -0.232599330438E+04    0.65393E-02   -0.56864E-02 33402   0.306E-01    0.128E+00
RMM:  16    -0.232599136170E+04    0.19427E-02   -0.26011E-02 32774   0.225E-01    0.109E+00
RMM:  17    -0.232598965126E+04    0.17104E-02   -0.13095E-02 31778   0.170E-01    0.891E-01
RMM:  18    -0.232598945799E+04    0.19327E-03   -0.12718E-02 34791   0.142E-01    0.789E-01
RMM:  19    -0.232598869279E+04    0.76520E-03   -0.73714E-03 30959   0.142E-01    0.673E-01
RMM:  20    -0.232598740900E+04    0.12838E-02   -0.32039E-03 29130   0.117E-01    0.480E-01
RMM:  21    -0.232598770111E+04   -0.29212E-03   -0.38572E-03 35667   0.730E-02    0.503E-01
RMM:  22    -0.232598814445E+04   -0.44334E-03   -0.19246E-03 32514   0.635E-02    0.578E-01
RMM:  23    -0.232598783759E+04    0.30686E-03   -0.83970E-04 31017   0.472E-02    0.513E-01
RMM:  24    -0.232598740268E+04    0.43491E-03   -0.10424E-03 35256   0.405E-02    0.402E-01
RMM:  25    -0.232598671173E+04    0.69095E-03   -0.59516E-04 30968   0.382E-02    0.135E-01
RMM:  26    -0.232598667755E+04    0.34179E-04   -0.49663E-04 34172   0.271E-02    0.989E-02
RMM:  27    -0.232598670631E+04   -0.28760E-04   -0.33519E-04 34805   0.210E-02    0.108E-01
RMM:  28    -0.232598668282E+04    0.23488E-04   -0.10889E-04 26613   0.174E-02    0.737E-02
RMM:  29    -0.232598667413E+04    0.86923E-05   -0.47801E-05 20803   0.117E-02
  12 F= -.23259867E+04 E0= -.23232158E+04  d E =-.311796E-01
       N       E                     dE             d eps       ncg     rms          rms(c)
DAV:   1    -0.232588999048E+04    0.96692E-01   -0.11859E+02 27600   0.114E+01    0.225E+00
RMM:   2    -0.234752945504E+04   -0.21639E+02   -0.34997E+00 28426   0.386E+00    0.583E+01
RMM:   3    -0.233065757400E+04    0.16872E+02   -0.15440E+00 31271   0.213E+00    0.276E+01
RMM:   4    -0.232744948965E+04    0.32081E+01   -0.71131E-01 27610   0.195E+00    0.157E+01
RMM:   5    -0.232933137090E+04   -0.18819E+01   -0.55898E-01 38649   0.830E-01    0.246E+01
RMM:   6    -0.232676360260E+04    0.25678E+01   -0.58570E-01 27713   0.152E+00    0.107E+01
RMM:   7    -0.232960691563E+04   -0.28433E+01   -0.11597E+00 31507   0.159E+00    0.261E+01
RMM:   8    -0.232630223313E+04    0.33047E+01   -0.41322E-01 27624   0.143E+00    0.594E+00
RMM:   9    -0.232603898053E+04    0.26325E+00   -0.18452E-01 27663   0.102E+00    0.262E+00
RMM:  10    -0.232607084895E+04   -0.31868E-01   -0.18994E-01 29333   0.782E-01    0.372E+00
RMM:  11    -0.232605086439E+04    0.19985E-01   -0.10011E-01 28580   0.591E-01    0.308E+00
RMM:  12    -0.232601862993E+04    0.32234E-01   -0.55006E-02 29261   0.399E-01    0.193E+00
RMM:  13    -0.232600658722E+04    0.12043E-01   -0.39165E-02 33603   0.243E-01    0.111E+00
RMM:  14    -0.232600861378E+04   -0.20266E-02   -0.28601E-02 35566   0.200E-01    0.120E+00
RMM:  15    -0.232600739258E+04    0.12212E-02   -0.11761E-02 31337   0.172E-01    0.106E+00
RMM:  16    -0.232600462390E+04    0.27687E-02   -0.48454E-03 28912   0.141E-01    0.790E-01
RMM:  17    -0.232600328705E+04    0.13368E-02   -0.57708E-03 32714   0.110E-01    0.587E-01
RMM:  18    -0.232600303378E+04    0.25327E-03   -0.24163E-03 28932   0.931E-02    0.587E-01
RMM:  19    -0.232600294481E+04    0.88969E-04   -0.18838E-03 34137   0.553E-02    0.558E-01
RMM:  20    -0.232600270577E+04    0.23904E-03   -0.11329E-03 36947   0.367E-02    0.501E-01
RMM:  21    -0.232600202412E+04    0.68165E-03   -0.45968E-04 30692   0.355E-02    0.321E-01
RMM:  22    -0.232600180653E+04    0.21759E-03   -0.48298E-04 30112   0.375E-02    0.237E-01
RMM:  23    -0.232600174409E+04    0.62440E-04   -0.60231E-04 29115   0.452E-02    0.206E-01
RMM:  24    -0.232600177488E+04   -0.30798E-04   -0.37069E-04 29222   0.376E-02    0.230E-01
RMM:  25    -0.232600176084E+04    0.14048E-04   -0.37528E-04 34428   0.210E-02    0.214E-01
RMM:  26    -0.232600163719E+04    0.12364E-03   -0.17461E-04 30051   0.194E-02    0.140E-01
RMM:  27    -0.232600154682E+04    0.90371E-04   -0.53141E-05 21823   0.157E-02    0.541E-02
RMM:  28    -0.232600153900E+04    0.78194E-05   -0.27101E-05 18808   0.878E-03
  13 F= -.23260015E+04 E0= -.23232296E+04  d E =-.460444E-01
       N       E                     dE             d eps       ncg     rms          rms(c)
DAV:   1    -0.232598574026E+04    0.15807E-01   -0.48228E+01 27600   0.727E+00    0.138E+00
RMM:   2    -0.234306332081E+04   -0.17078E+02   -0.29629E+00 30551   0.292E+00    0.569E+01
RMM:   3    -0.232742578806E+04    0.15638E+02   -0.67002E-01 28590   0.163E+00    0.140E+01
RMM:   4    -0.232634797479E+04    0.10778E+01   -0.32319E-01 27794   0.129E+00    0.710E+00
RMM:   5    -0.233006549069E+04   -0.37175E+01   -0.41078E-01 37544   0.699E-01    0.274E+01
RMM:   6    -0.232667112747E+04    0.33944E+01   -0.38487E-01 29084   0.109E+00    0.966E+00
RMM:   7    -0.232680755808E+04   -0.13643E+00   -0.36913E-01 27748   0.126E+00    0.121E+01
RMM:   8    -0.232631591019E+04    0.49165E+00   -0.14332E-01 27885   0.773E-01    0.706E+00
RMM:   9    -0.232608098454E+04    0.23493E+00   -0.10445E-01 27615   0.785E-01    0.316E+00
RMM:  10    -0.232609290230E+04   -0.11918E-01   -0.86162E-02 28400   0.566E-01    0.352E+00
RMM:  11    -0.232606200718E+04    0.30895E-01   -0.76267E-02 29038   0.512E-01    0.252E+00
RMM:  12    -0.232603812937E+04    0.23878E-01   -0.29968E-02 28230   0.396E-01    0.162E+00
RMM:  13    -0.232603137976E+04    0.67496E-02   -0.21857E-02 31607   0.208E-01    0.118E+00
RMM:  14    -0.232602825091E+04    0.31288E-02   -0.12589E-02 33362   0.149E-01    0.800E-01
RMM:  15    -0.232602592626E+04    0.23247E-02   -0.43453E-03 30052   0.114E-01    0.459E-01
RMM:  16    -0.232602551369E+04    0.41257E-03   -0.28939E-03 33326   0.719E-02    0.349E-01
RMM:  17    -0.232602542701E+04    0.86678E-04   -0.22039E-03 38172   0.495E-02    0.282E-01
RMM:  18    -0.232602517974E+04    0.247