<?xml version="1.0" encoding="ISO-8859-1"?>
<modeling>
 <generator>
  <i name="program" type="string">vasp </i>
  <i name="version" type="string">5.4.4.18Apr17-6-g9f103f2a35  </i>
  <i name="subversion" type="string">(build May 29 2019 08:40:53) complex            parallel </i>
  <i name="platform" type="string">LinuxPGI </i>
  <i name="date" type="string">2021 11 22 </i>
  <i name="time" type="string">02:20:17 </i>
 </generator>
 <incar>
  <i type="int" name="ISTART">     2</i>
  <i type="string" name="PREC">accurate</i>
  <i type="string" name="ALGO"> Fast</i>
  <i type="int" name="ICHARG">     2</i>
  <i type="int" name="INIWAV">     1</i>
  <i type="int" name="NELM">   100</i>
  <i type="int" name="NELMIN">     4</i>
  <i type="int" name="IBRION">     2</i>
  <i name="EDIFF">      0.00001000</i>
  <i type="int" name="NSW">   500</i>
  <i type="int" name="ISIF">     2</i>
  <i type="int" name="ISYM">     2</i>
  <i name="ENCUT">    500.00000000</i>
  <i name="POTIM">      0.25000000</i>
  <i type="string" name="LREAL"> Auto</i>
  <i type="int" name="ISMEAR">     0</i>
  <i name="SIGMA">      0.15000000</i>
  <i type="logical" name="LWAVE"> F  </i>
  <i type="logical" name="LCHARG"> F  </i>
  <v type="int" name="KPOINT_BSE">    -1     0     0     0</v>
  <i type="int" name="NELM">   100</i>
 </incar>
 <structure name="primitive_cell" >
  <crystal>
   <varray name="basis" >
    <v>       9.72667800       0.00000000       0.00000000 </v>
    <v>       0.00000000       8.42355000       0.00000000 </v>
    <v>       0.00000000       0.00000000      45.00000000 </v>
   </varray>
   <i name="volume">   3686.99213101 </i>
   <varray name="rec_basis" >
    <v>       0.10281002       0.00000000       0.00000000 </v>
    <v>       0.00000000       0.11871479       0.00000000 </v>
    <v>       0.00000000       0.00000000       0.02222222 </v>
   </varray>
  </crystal>
  <varray name="positions" >
   <v>       0.43744822       0.11510637       0.16632811 </v>
   <v>      -0.43727677       0.03186972       0.12423956 </v>
   <v>       0.43765378       0.28295920       0.12429189 </v>
   <v>       0.31243626       0.03186135       0.12403736 </v>
   <v>      -0.43756089      -0.13357817       0.16639467 </v>
   <v>       0.31250553      -0.13444411       0.16575147 </v>
   <v>       0.31253184       0.36493122       0.16646903 </v>
   <v>       0.18750263       0.11508971       0.16633509 </v>
   <v>      -0.31233612       0.11611083       0.16653743 </v>
   <v>      -0.43714882       0.36630254       0.16627981 </v>
   <v>       0.43824776      -0.04596620       0.21172148 </v>
   <v>      -0.43761194       0.20362488       0.21159814 </v>
   <v>       0.31242199       0.20326193       0.21174400 </v>
   <v>       0.43662689      -0.21670369       0.12416367 </v>
   <v>       0.18725531       0.28293188       0.12428342 </v>
   <v>      -0.31207332       0.28287629       0.12430953 </v>
   <v>      -0.31267036      -0.04638631       0.21149344 </v>
   <v>       0.18668879      -0.04590110       0.21171119 </v>
   <v>       0.43755986       0.45385049       0.21149293 </v>
   <v>       0.18828830      -0.21667528       0.12415325 </v>
   <v>      -0.43769621      -0.46929869       0.12434247 </v>
   <v>      -0.31126643      -0.21682978       0.12435173 </v>
   <v>      -0.18752081       0.03267161       0.12428994 </v>
   <v>       0.06224078       0.03185272       0.12423523 </v>
   <v>       0.31247076      -0.46728448       0.12421324 </v>
   <v>      -0.43746989      -0.29625838       0.21154771 </v>
   <v>       0.31238568      -0.29641796       0.21153282 </v>
   <v>       0.06258873      -0.13360647       0.16638651 </v>
   <v>       0.43676698      -0.38425011       0.16644878 </v>
   <v>      -0.18748438      -0.13511105       0.16635801 </v>
   <v>      -0.18747165       0.36582577       0.16659833 </v>
   <v>       0.06219322       0.36625748       0.16628480 </v>
   <v>      -0.18755714       0.20361510       0.21148735 </v>
   <v>       0.06247804       0.20359838       0.21155768 </v>
   <v>      -0.43779889       0.03911404       0.25594469 </v>
   <v>       0.31251218       0.03839082       0.25596418 </v>
   <v>       0.18741652       0.45377845       0.21148310 </v>
   <v>      -0.31266634       0.45401860       0.21158281 </v>
   <v>       0.43759948       0.28861496       0.25599500 </v>
   <v>       0.18817103      -0.38425941       0.16645065 </v>
   <v>      -0.31216258      -0.38444895       0.16637601 </v>
   <v>      -0.06264597       0.11612582       0.16654036 </v>
   <v>       0.43732993      -0.21186752       0.25601092 </v>
   <v>      -0.31264212       0.28859475       0.25599197 </v>
   <v>       0.18735014       0.28863157       0.25598421 </v>
   <v>       0.06260860      -0.46931839       0.12434498 </v>
   <v>      -0.06287283       0.28281925       0.12430142 </v>
   <v>      -0.18747885      -0.46783606       0.12415353 </v>
   <v>       0.06244584      -0.29633085       0.21153484 </v>
   <v>      -0.18765962      -0.29633153       0.21175237 </v>
   <v>      -0.06231720      -0.04630652       0.21151449 </v>
   <v>       0.18767381      -0.21187344       0.25603574 </v>
   <v>      -0.31252129      -0.21186550       0.25601429 </v>
   <v>       0.06291681       0.03892045       0.25588176 </v>
   <v>      -0.18745132       0.03832277       0.25599190 </v>
   <v>       0.31260261      -0.46126769       0.25589406 </v>
   <v>      -0.43730585      -0.46142840       0.25605051 </v>
   <v>      -0.06370124      -0.21684856       0.12434532 </v>
   <v>      -0.06237494       0.45407352       0.21159004 </v>
   <v>       0.43758829       0.12335209       0.30035001 </v>
   <v>      -0.06278826      -0.38438820       0.16637340 </v>
   <v>       0.31260084      -0.12669421       0.30042326 </v>
   <v>      -0.06238943       0.28853229       0.25603004 </v>
   <v>      -0.43785051      -0.12658004       0.30050631 </v>
   <v>       0.06225441      -0.46151870       0.25599121 </v>
   <v>      -0.18745773      -0.46109769       0.25596302 </v>
   <v>       0.18764208       0.12349164       0.30044147 </v>
   <v>      -0.31232404       0.12334213       0.30044937 </v>
   <v>       0.31237925       0.37338574       0.30034690 </v>
   <v>      -0.43725770       0.37357385       0.30047116 </v>
   <v>      -0.06262291      -0.21194802       0.25603118 </v>
   <v>       0.43755012      -0.37689371       0.30030757 </v>
   <v>      -0.18749926      -0.12645440       0.30033516 </v>
   <v>       0.06248403      -0.12642217       0.30045581 </v>
   <v>       0.06213712       0.37343318       0.30040029 </v>
   <v>      -0.18751377       0.37326912       0.30052317 </v>
   <v>       0.18742972      -0.37681290       0.30037558 </v>
   <v>      -0.31253595      -0.37672461       0.30043595 </v>
   <v>      -0.06282568       0.12318747       0.30040428 </v>
   <v>       0.43771090      -0.04325400       0.34511983 </v>
   <v>      -0.43755218       0.20653506       0.34514062 </v>
   <v>       0.31261917       0.20716226       0.34513948 </v>
   <v>       0.18738327      -0.04276524       0.34503763 </v>
   <v>      -0.31264473      -0.04331194       0.34511850 </v>
   <v>       0.43744872       0.45636353       0.34511018 </v>
   <v>      -0.06240880      -0.37665093       0.30031013 </v>
   <v>       0.31229241      -0.29294238       0.34505652 </v>
   <v>      -0.43737188      -0.29355078       0.34518226 </v>
   <v>       0.06250044       0.20680140       0.34504949 </v>
   <v>      -0.18754493       0.20686060       0.34518651 </v>
   <v>       0.18766813       0.45671849       0.34511635 </v>
   <v>      -0.31258795       0.45652810       0.34511948 </v>
   <v>      -0.18754375      -0.29319627       0.34514923 </v>
   <v>       0.06264353      -0.29334765       0.34518162 </v>
   <v>      -0.06249945      -0.04326841       0.34515670 </v>
   <v>      -0.06255033       0.45628482       0.34507069 </v>
   <v>      -0.43754558       0.04041557       0.38936752 </v>
   <v>       0.31239849       0.04066559       0.38948709 </v>
   <v>       0.43764033       0.29117342       0.38933384 </v>
   <v>       0.43759796      -0.20909131       0.38945520 </v>
   <v>       0.18766159       0.29080887       0.38927618 </v>
   <v>      -0.31237938       0.29078401       0.38943343 </v>
   <v>       0.18765001      -0.20963671       0.38927311 </v>
   <v>      -0.31238720      -0.20947083       0.38935243 </v>
   <v>       0.06254704       0.04070464       0.38939163 </v>
   <v>      -0.18729906       0.04022640       0.38948104 </v>
   <v>       0.31260715      -0.45965071       0.38938612 </v>
   <v>      -0.43772955      -0.45902733       0.38935390 </v>
   <v>      -0.06261159       0.29102825       0.38930533 </v>
   <v>       0.06239727      -0.45949376       0.38932292 </v>
   <v>      -0.18718525      -0.45909808       0.38949807 </v>
   <v>      -0.06259242      -0.20941584       0.38944912 </v>
   <v>       0.43765140       0.12340695       0.43453006 </v>
   <v>       0.31248188      -0.12684068       0.43431671 </v>
   <v>      -0.43737819      -0.12675181       0.43445633 </v>
   <v>       0.18769702       0.12324498       0.43421500 </v>
   <v>      -0.31248198       0.12333121       0.43440516 </v>
   <v>       0.31283358       0.37307742       0.43434676 </v>
   <v>      -0.43750618       0.37314628       0.43446023 </v>
   <v>       0.43773150      -0.37638496       0.43446222 </v>
   <v>      -0.18789721      -0.12671590       0.43438472 </v>
   <v>       0.06256940      -0.12664762       0.43476791 </v>
   <v>      -0.18758688       0.37319391       0.43430662 </v>
   <v>       0.06226995       0.37324903       0.43481033 </v>
   <v>       0.18773416      -0.37727602       0.43412723 </v>
   <v>      -0.31238212      -0.37683354       0.43446411 </v>
   <v>      -0.06283002       0.12350478       0.43428347 </v>
   <v>       0.31224670       0.04505751      -0.12441628 </v>
   <v>      -0.43785733       0.04467642      -0.12446188 </v>
   <v>       0.43756020       0.29566512      -0.12433835 </v>
   <v>       0.43727380      -0.20350127      -0.12441999 </v>
   <v>      -0.31240451       0.29591588      -0.12417069 </v>
   <v>       0.18750824       0.29554827      -0.12436995 </v>
   <v>       0.18753669      -0.20432240      -0.12431546 </v>
   <v>      -0.31244178      -0.20464810      -0.12430845 </v>
   <v>       0.06288104       0.04498339      -0.12437943 </v>
   <v>      -0.18713882       0.04455580      -0.12440558 </v>
   <v>      -0.43690624      -0.45531928      -0.12418934 </v>
   <v>       0.31158501      -0.45540790      -0.12446810 </v>
   <v>      -0.06293378      -0.37644724       0.43421573 </v>
   <v>      -0.06245262       0.29576890      -0.12434550 </v>
   <v>      -0.18791414      -0.45517731      -0.12417768 </v>
   <v>       0.06331837      -0.45523799      -0.12445029 </v>
   <v>       0.43751921      -0.04397330       0.47856964 </v>
   <v>      -0.43699709       0.20631744       0.47840899 </v>
   <v>       0.31199135       0.20633706       0.47851953 </v>
   <v>      -0.06224038      -0.20322984      -0.12440117 </v>
   <v>      -0.31251737      -0.04329065       0.47839753 </v>
   <v>       0.18764909      -0.04314305       0.47842585 </v>
   <v>       0.43739460       0.45614494       0.47847157 </v>
   <v>      -0.43733523      -0.29444770       0.47847200 </v>
   <v>       0.31225242      -0.29436552       0.47852599 </v>
   <v>      -0.18782353       0.20634290       0.47844310 </v>
   <v>       0.06284395       0.20563272       0.47854535 </v>
   <v>      -0.31239383       0.45623099       0.47839369 </v>
   <v>       0.18757509       0.45640673       0.47851660 </v>
   <v>      -0.18736995      -0.29437482       0.47848007 </v>
   <v>       0.06272025      -0.29498859       0.47858199 </v>
   <v>      -0.06256897      -0.04381055       0.47854448 </v>
   <v>       0.43710855      -0.03787239      -0.16654482 </v>
   <v>      -0.43748738       0.21281612      -0.16651172 </v>
   <v>       0.31228902       0.21183869      -0.16658261 </v>
   <v>      -0.06253495       0.45635876       0.47853292 </v>
   <v>      -0.31236540      -0.03757322      -0.16649170 </v>
   <v>       0.18727661      -0.03801573      -0.16659147 </v>
   <v>       0.43745748       0.46161455      -0.16648069 </v>
   <v>      -0.43701160      -0.28782137      -0.16647556 </v>
   <v>       0.31240812      -0.28753644      -0.16650224 </v>
   <v>      -0.31260700       0.46252366      -0.16577088 </v>
   <v>      -0.18741062       0.21266774      -0.16648821 </v>
   <v>       0.06243641       0.21176605      -0.16657713 </v>
   <v>       0.18754368       0.46233167      -0.16643021 </v>
   <v>      -0.18819384      -0.28798521      -0.16650868 </v>
   <v>       0.06263367      -0.28778130      -0.16654871 </v>
   <v>      -0.06222644      -0.03828304      -0.16638894 </v>
   <v>       0.43735928       0.12228380      -0.47847657 </v>
   <v>      -0.06250865       0.46157780      -0.16644664 </v>
   <v>      -0.43712905      -0.12847170      -0.47844394 </v>
   <v>       0.31283018      -0.12873100      -0.47836844 </v>
   <v>      -0.31232983       0.12157391      -0.47846025 </v>
   <v>       0.18782618       0.12191812      -0.47842076 </v>
   <v>      -0.43759036       0.37163621      -0.47845818 </v>
   <v>       0.31342414       0.37127304      -0.47837252 </v>
   <v>       0.43747798      -0.37820117      -0.47845762 </v>
   <v>       0.06270943      -0.12826388      -0.47844722 </v>
   <v>      -0.18850170      -0.12895970      -0.47842530 </v>
   <v>      -0.18808970       0.37118114      -0.47842691 </v>
   <v>       0.06220494       0.37142061      -0.47842758 </v>
   <v>       0.18793508      -0.37789401      -0.47844296 </v>
   <v>      -0.31232722      -0.37814422      -0.47842214 </v>
   <v>      -0.06301605       0.12252216      -0.47840494 </v>
   <v>       0.43758243       0.12409348      -0.21153338 </v>
   <v>      -0.43723893      -0.12582118      -0.21149611 </v>
   <v>       0.31240840      -0.12589058      -0.21155379 </v>
   <v>      -0.31234057       0.12454600      -0.21146657 </v>
   <v>       0.18750631       0.12428450      -0.21148449 </v>
   <v>       0.31283263       0.37435822      -0.21155230 </v>
   <v>      -0.43800630       0.37401939      -0.21167709 </v>
   <v>      -0.06311177      -0.37778917      -0.47838685 </v>
   <v>       0.43775928      -0.37582906      -0.21151756 </v>
   <v>      -0.18748334      -0.12584595      -0.21151831 </v>
   <v>       0.06262946      -0.12599943      -0.21156702 </v>
   <v>       0.06254652       0.37426418      -0.21152994 </v>
   <v>      -0.18704584       0.37391118      -0.21166162 </v>
   <v>       0.18749363      -0.37576357      -0.21146906 </v>
   <v>      -0.31237366      -0.37544455      -0.21150785 </v>
   <v>      -0.06239185       0.12423560      -0.21160849 </v>
   <v>       0.43736791      -0.04569200      -0.43462558 </v>
   <v>      -0.43739554       0.20457818      -0.43434504 </v>
   <v>       0.31222733       0.20458587      -0.43430473 </v>
   <v>      -0.06266109      -0.37600942      -0.21156555 </v>
   <v>       0.18785635      -0.04515006      -0.43430073 </v>
   <v>      -0.31226519      -0.04511297      -0.43422695 </v>
   <v>       0.43747778       0.45434057      -0.43446423 </v>
   <v>       0.31241286      -0.29552742      -0.43435701 </v>
   <v>      -0.43759973      -0.29572603      -0.43433233 </v>
   <v>      -0.31233523       0.45433992      -0.43442295 </v>
   <v>       0.06247476       0.20419839      -0.43427825 </v>
   <v>       0.18766879       0.45444000      -0.43439993 </v>
   <v>      -0.18741654       0.20474127      -0.43427473 </v>
   <v>      -0.06254694      -0.04555480      -0.43470504 </v>
   <v>       0.06227210      -0.29637222      -0.43434987 </v>
   <v>      -0.18726048      -0.29571549      -0.43427400 </v>
   <v>      -0.06265746       0.45444369      -0.43452470 </v>
   <v>       0.31255012       0.03895878      -0.25600022 </v>
   <v>      -0.43755124       0.03889703      -0.25603884 </v>
   <v>       0.43759592       0.28938256      -0.25595857 </v>
   <v>       0.43756725      -0.21086237      -0.25598495 </v>
   <v>      -0.31278797       0.28959440      -0.25599642 </v>
   <v>       0.18762703       0.28972284      -0.25604817 </v>
   <v>       0.18764454      -0.21062394      -0.25595260 </v>
   <v>      -0.31272163      -0.21086620      -0.25595753 </v>
   <v>       0.06225072       0.03942112      -0.25598925 </v>
   <v>      -0.18737497       0.03924198      -0.25601047 </v>
   <v>       0.31234134      -0.46045657      -0.25589794 </v>
   <v>      -0.43721310      -0.46052433      -0.25593727 </v>
   <v>      -0.06268376       0.28932281      -0.25585751 </v>
   <v>       0.06233932      -0.46066805      -0.25598054 </v>
   <v>      -0.18755977      -0.46081497      -0.25602775 </v>
   <v>      -0.06261213      -0.21065595      -0.25590576 </v>
   <v>      -0.43763213       0.03774572      -0.38936651 </v>
   <v>       0.31241761       0.03749223      -0.38933025 </v>
   <v>       0.43775259       0.28744763      -0.38941229 </v>
   <v>       0.43754719      -0.21227492      -0.38946331 </v>
   <v>       0.18720212       0.28717444      -0.38952641 </v>
   <v>      -0.31244093       0.28721955      -0.38949288 </v>
   <v>      -0.31262455      -0.21248342      -0.38938544 </v>
   <v>       0.06261937       0.03657824      -0.38940627 </v>
   <v>       0.18730677      -0.21271291      -0.38924596 </v>
   <v>      -0.18741694       0.03750489      -0.38932576 </v>
   <v>      -0.43762490      -0.46287871      -0.38945561 </v>
   <v>       0.31266827      -0.46255246      -0.38938173 </v>
   <v>      -0.06269323       0.28705816      -0.38944809 </v>
   <v>       0.06249246      -0.46306864      -0.38945209 </v>
   <v>      -0.18750750      -0.46289537      -0.38936954 </v>
   <v>      -0.06243815      -0.21300401      -0.38935047 </v>
   <v>       0.43772605      -0.04544379      -0.30028530 </v>
   <v>      -0.43747310       0.20472954      -0.30029209 </v>
   <v>       0.31253699       0.20454960      -0.30032102 </v>
   <v>       0.18739021      -0.04551790      -0.30034708 </v>
   <v>      -0.31230973      -0.04547726      -0.30035941 </v>
   <v>       0.43751482       0.45443546      -0.30035972 </v>
   <v>      -0.43755229      -0.29535712      -0.30029019 </v>
   <v>       0.31259114      -0.29544302      -0.30032710 </v>
   <v>       0.18717826       0.45396760      -0.30023416 </v>
   <v>       0.06268046       0.20421663      -0.30037113 </v>
   <v>      -0.18758730       0.20441325      -0.30041857 </v>
   <v>      -0.31214770       0.45432202      -0.30036151 </v>
   <v>       0.06255237      -0.29513898      -0.30026393 </v>
   <v>      -0.06259988      -0.04517938      -0.30020929 </v>
   <v>      -0.18744211      -0.29495938      -0.30035086 </v>
   <v>      -0.06235919       0.45444549      -0.30037867 </v>
   <v>       0.43756206       0.12136232      -0.34510969 </v>
   <v>      -0.31250887       0.12112963      -0.34526178 </v>
   <v>      -0.43751333      -0.12876714      -0.34513913 </v>
   <v>       0.18749777       0.12111351      -0.34524286 </v>
   <v>       0.31258003      -0.12866492      -0.34506083 </v>
   <v>      -0.43746838       0.37114830      -0.34515762 </v>
   <v>       0.31241088       0.37111072      -0.34513181 </v>
   <v>       0.43724371      -0.37877378      -0.34518294 </v>
   <v>       0.06236339      -0.12844976      -0.34514188 </v>
   <v>      -0.18772674      -0.12864935      -0.34512244 </v>
   <v>       0.06240636       0.37116706      -0.34517716 </v>
   <v>      -0.18750374       0.37116215      -0.34507781 </v>
   <v>      -0.31245867      -0.37910644      -0.34516321 </v>
   <v>       0.18751464      -0.37892831      -0.34507377 </v>
   <v>      -0.06266494       0.12141415      -0.34508468 </v>
   <v>      -0.06242921      -0.37852682      -0.34515167 </v>
  </varray>
 </structure>
 <varray name="primitive_index" >
  <v type="int" >        1 </v>
  <v type="int" >      191 </v>
  <v type="int" >      212 </v>
  <v type="int" >        8 </v>
  <v type="int" >      183 </v>
  <v type="int" >      279 </v>
  <v type="int" >      199 </v>
  <v type="int" >       79 </v>
  <v type="int" >      138 </v>
  <v type="int" >      195 </v>
  <v type="int" >       64 </v>
  <v type="int" >       41 </v>
  <v type="int" >      275 </v>
  <v type="int" >      156 </v>
  <v type="int" >       80 </v>
  <v type="int" >      159 </v>
  <v type="int" >       88 </v>
  <v type="int" >       98 </v>
  <v type="int" >      200 </v>
  <v type="int" >      254 </v>
  <v type="int" >      241 </v>
  <v type="int" >      185 </v>
  <v type="int" >      206 </v>
  <v type="int" >      142 </v>
  <v type="int" >       87 </v>
  <v type="int" >      257 </v>
  <v type="int" >      157 </v>
  <v type="int" >      174 </v>
  <v type="int" >      132 </v>
  <v type="int" >       93 </v>
  <v type="int" >       42 </v>
  <v type="int" >      190 </v>
  <v type="int" >       95 </v>
  <v type="int" >      236 </v>
  <v type="int" >      284 </v>
  <v type="int" >       78 </v>
  <v type="int" >       86 </v>
  <v type="int" >      176 </v>
  <v type="int" >       55 </v>
  <v type="int" >      210 </v>
  <v type="int" >      242 </v>
  <v type="int" >      219 </v>
  <v type="int" >      214 </v>
  <v type="int" >       32 </v>
  <v type="int" >       11 </v>
  <v type="int" >      119 </v>
  <v type="int" >       56 </v>
  <v type="int" >       46 </v>
  <v type="int" >      240 </v>
  <v type="int" >      285 </v>
  <v type="int" >      151 </v>
  <v type="int" >      175 </v>
  <v type="int" >      160 </v>
  <v type="int" >      274 </v>
  <v type="int" >       99 </v>
  <v type="int" >       37 </v>
  <v type="int" >      226 </v>
  <v type="int" >       62 </v>
  <v type="int" >      207 </v>
  <v type="int" >      166 </v>
  <v type="int" >      168 </v>
  <v type="int" >      163 </v>
  <v type="int" >      161 </v>
  <v type="int" >      261 </v>
  <v type="int" >      109 </v>
  <v type="int" >       65 </v>
  <v type="int" >      224 </v>
  <v type="int" >      255 </v>
  <v type="int" >       50 </v>
  <v type="int" >       39 </v>
  <v type="int" >       28 </v>
  <v type="int" >      258 </v>
  <v type="int" >      113 </v>
  <v type="int" >      252 </v>
  <v type="int" >      118 </v>
  <v type="int" >       97 </v>
  <v type="int" >      111 </v>
  <v type="int" >      230 </v>
  <v type="int" >       15 </v>
  <v type="int" >      102 </v>
  <v type="int" >       91 </v>
  <v type="int" >      266 </v>
  <v type="int" >       54 </v>
  <v type="int" >       45 </v>
  <v type="int" >      262 </v>
  <v type="int" >      122 </v>
  <v type="int" >      152 </v>
  <v type="int" >      263 </v>
  <v type="int" >      270 </v>
  <v type="int" >       12 </v>
  <v type="int" >      169 </v>
  <v type="int" >      248 </v>
  <v type="int" >       83 </v>
  <v type="int" >      209 </v>
  <v type="int" >       61 </v>
  <v type="int" >      198 </v>
  <v type="int" >        6 </v>
  <v type="int" >       19 </v>
  <v type="int" >      154 </v>
  <v type="int" >      193 </v>
  <v type="int" >      282 </v>
  <v type="int" >      218 </v>
  <v type="int" >      146 </v>
  <v type="int" >       31 </v>
  <v type="int" >      189 </v>
  <v type="int" >       58 </v>
  <v type="int" >      167 </v>
  <v type="int" >      117 </v>
  <v type="int" >       66 </v>
  <v type="int" >       10 </v>
  <v type="int" >      256 </v>
  <v type="int" >      192 </v>
  <v type="int" >       48 </v>
  <v type="int" >       25 </v>
  <v type="int" >       85 </v>
  <v type="int" >      249 </v>
  <v type="int" >       77 </v>
  <v type="int" >      165 </v>
  <v type="int" >      245 </v>
  <v type="int" >       38 </v>
  <v type="int" >      233 </v>
  <v type="int" >      231 </v>
  <v type="int" >        9 </v>
  <v type="int" >      128 </v>
  <v type="int" >      277 </v>
  <v type="int" >      143 </v>
  <v type="int" >      105 </v>
  <v type="int" >      223 </v>
  <v type="int" >      247 </v>
  <v type="int" >      116 </v>
  <v type="int" >       75 </v>
  <v type="int" >      188 </v>
  <v type="int" >       82 </v>
  <v type="int" >      127 </v>
  <v type="int" >      162 </v>
  <v type="int" >       17 </v>
  <v type="int" >      108 </v>
  <v type="int" >      217 </v>
  <v type="int" >      158 </v>
  <v type="int" >       21 </v>
  <v type="int" >       20 </v>
  <v type="int" >       57 </v>
  <v type="int" >       69 </v>
  <v type="int" >      278 </v>
  <v type="int" >       94 </v>
  <v type="int" >      140 </v>
  <v type="int" >       90 </v>
  <v type="int" >      147 </v>
  <v type="int" >      182 </v>
  <v type="int" >      129 </v>
  <v type="int" >      123 </v>
  <v type="int" >       92 </v>
  <v type="int" >      112 </v>
  <v type="int" >      220 </v>
  <v type="int" >      232 </v>
  <v type="int" >      253 </v>
  <v type="int" >      260 </v>
  <v type="int" >      137 </v>
  <v type="int" >      287 </v>
  <v type="int" >       53 </v>
  <v type="int" >       72 </v>
  <v type="int" >      178 </v>
  <v type="int" >      196 </v>
  <v type="int" >      114 </v>
  <v type="int" >      149 </v>
  <v type="int" >       14 </v>
  <v type="int" >       18 </v>
  <v type="int" >      225 </v>
  <v type="int" >      286 </v>
  <v type="int" >      164 </v>
  <v type="int" >       51 </v>
  <v type="int" >      259 </v>
  <v type="int" >       44 </v>
  <v type="int" >       22 </v>
  <v type="int" >      213 </v>
  <v type="int" >      179 </v>
  <v type="int" >       89 </v>
  <v type="int" >       40 </v>
  <v type="int" >      144 </v>
  <v type="int" >       33 </v>
  <v type="int" >      265 </v>
  <v type="int" >       43 </v>
  <v type="int" >      139 </v>
  <v type="int" >      269 </v>
  <v type="int" >      283 </v>
  <v type="int" >      211 </v>
  <v type="int" >       49 </v>
  <v type="int" >      288 </v>
  <v type="int" >      208 </v>
  <v type="int" >       13 </v>
  <v type="int" >       70 </v>
  <v type="int" >      171 </v>
  <v type="int" >      131 </v>
  <v type="int" >      150 </v>
  <v type="int" >        5 </v>
  <v type="int" >      251 </v>
  <v type="int" >      106 </v>
  <v type="int" >      141 </v>
  <v type="int" >       24 </v>
  <v type="int" >       26 </v>
  <v type="int" >      234 </v>
  <v type="int" >       29 </v>
  <v type="int" >      205 </v>
  <v type="int" >      180 </v>
  <v type="int" >       52 </v>
  <v type="int" >        3 </v>
  <v type="int" >       59 </v>
  <v type="int" >      235 </v>
  <v type="int" >      227 </v>
  <v type="int" >       36 </v>
  <v type="int" >      184 </v>
  <v type="int" >      124 </v>
  <v type="int" >       34 </v>
  <v type="int" >       96 </v>
  <v type="int" >      250 </v>
  <v type="int" >      238 </v>
  <v type="int" >      202 </v>
  <v type="int" >      268 </v>
  <v type="int" >       76 </v>
  <v type="int" >       68 </v>
  <v type="int" >        2 </v>
  <v type="int" >      194 </v>
  <v type="int" >       35 </v>
  <v type="int" >      273 </v>
  <v type="int" >      101 </v>
  <v type="int" >      177 </v>
  <v type="int" >       81 </v>
  <v type="int" >       23 </v>
  <v type="int" >       30 </v>
  <v type="int" >      244 </v>
  <v type="int" >      267 </v>
  <v type="int" >      103 </v>
  <v type="int" >      246 </v>
  <v type="int" >      215 </v>
  <v type="int" >       73 </v>
  <v type="int" >      264 </v>
  <v type="int" >      280 </v>
  <v type="int" >      133 </v>
  <v type="int" >       71 </v>
  <v type="int" >       74 </v>
  <v type="int" >      121 </v>
  <v type="int" >        7 </v>
  <v type="int" >      228 </v>
  <v type="int" >       63 </v>
  <v type="int" >      130 </v>
  <v type="int" >       67 </v>
  <v type="int" >      155 </v>
  <v type="int" >       16 </v>
  <v type="int" >      281 </v>
  <v type="int" >      173 </v>
  <v type="int" >      222 </v>
  <v type="int" >      126 </v>
  <v type="int" >       84 </v>
  <v type="int" >      148 </v>
  <v type="int" >      104 </v>
  <v type="int" >      115 </v>
  <v type="int" >      136 </v>
  <v type="int" >      125 </v>
  <v type="int" >      172 </v>
  <v type="int" >      229 </v>
  <v type="int" >      271 </v>
  <v type="int" >      276 </v>
  <v type="int" >      153 </v>
  <v type="int" >      107 </v>
  <v type="int" >      203 </v>
  <v type="int" >      204 </v>
  <v type="int" >      187 </v>
  <v type="int" >      135 </v>
  <v type="int" >      145 </v>
  <v type="int" >      100 </v>
  <v type="int" >      110 </v>
  <v type="int" >      216 </v>
  <v type="int" >      201 </v>
  <v type="int" >        4 </v>
  <v type="int" >       27 </v>
  <v type="int" >      134 </v>
  <v type="int" >      237 </v>
  <v type="int" >      239 </v>
  <v type="int" >      272 </v>
  <v type="int" >       47 </v>
  <v type="int" >      170 </v>
  <v type="int" >      243 </v>
  <v type="int" >      120 </v>
  <v type="int" >      181 </v>
  <v type="int" >       60 </v>
  <v type="int" >      221 </v>
  <v type="int" >      186 </v>
  <v type="int" >      197 </v>
 </varray>
 <kpoints>
  <generation param="Gamma">
   <v type="int" name="divisions">       4        4        1 </v>
   <v name="usershift">      0.00000000       0.00000000       0.00000000 </v>
   <v name="genvec1">      0.25000000       0.00000000       0.00000000 </v>
   <v name="genvec2">      0.00000000       0.25000000       0.00000000 </v>
   <v name="genvec3">      0.00000000       0.00000000       1.00000000 </v>
   <v name="shift">      0.00000000       0.00000000       0.00000000 </v>
  </generation>
  <varray name="kpointlist" >
   <v>       0.00000000       0.00000000       0.00000000 </v>
   <v>       0.25000000       0.00000000       0.00000000 </v>
   <v>       0.50000000       0.00000000       0.00000000 </v>
   <v>       0.00000000       0.25000000       0.00000000 </v>
   <v>       0.25000000       0.25000000       0.00000000 </v>
   <v>       0.50000000       0.25000000       0.00000000 </v>
   <v>      -0.25000000       0.25000000       0.00000000 </v>
   <v>       0.00000000       0.50000000       0.00000000 </v>
   <v>       0.25000000       0.50000000       0.00000000 </v>
   <v>       0.50000000       0.50000000       0.00000000 </v>
  </varray>
  <varray name="weights" >
   <v>       0.06250000 </v>
   <v>       0.12500000 </v>
   <v>       0.06250000 </v>
   <v>       0.12500000 </v>
   <v>       0.12500000 </v>
   <v>       0.12500000 </v>
   <v>       0.12500000 </v>
   <v>       0.06250000 </v>
   <v>       0.12500000 </v>
   <v>       0.06250000 </v>
  </varray>
 </kpoints>
 <parameters>
  <separator name="general" >
   <i type="string" name="SYSTEM">unknown system</i>
   <i type="logical" name="LCOMPAT"> F  </i>
  </separator>
  <separator name="electronic" >
   <i type="string" name="PREC">accura</i>
   <i name="ENMAX">    500.00000000</i>
   <i name="ENAUG">    838.43500000</i>
   <i name="EDIFF">      0.00001000</i>
   <i type="int" name="IALGO">    68</i>
   <i type="int" name="IWAVPR">    11</i>
   <i type="int" name="NBANDS">  1380</i>
   <i name="NELECT">   2289.00000000</i>
   <i type="int" name="TURBO">     0</i>
   <i type="int" name="IRESTART">     0</i>
   <i type="int" name="NREBOOT">     0</i>
   <i type="int" name="NMIN">     0</i>
   <i name="EREF">      0.00000000</i>
   <separator name="electronic smearing" >
    <i type="int" name="ISMEAR">     0</i>
    <i name="SIGMA">      0.15000000</i>
    <i name="KSPACING">      0.50000000</i>
    <i type="logical" name="KGAMMA"> T  </i>
   </separator>
   <separator name="electronic projectors" >
    <i type="logical" name="LREAL"> T  </i>
    <v name="ROPT">     -0.00025000     -0.00025000</v>
    <i type="int" name="LMAXPAW">  -100</i>
    <i type="int" name="LMAXMIX">     2</i>
    <i type="logical" name="NLSPLINE"> F  </i>
   </separator>
   <separator name="electronic startup" >
    <i type="int" name="ISTART">     0</i>
    <i type="int" name="ICHARG">     2</i>
    <i type="int" name="INIWAV">     1</i>
   </separator>
   <separator name="electronic spin" >
    <i type="int" name="ISPIN">     1</i>
    <i type="logical" name="LNONCOLLINEAR"> F  </i>
    <v name="MAGMOM">      1.00000000      1.00000000      1.00000000      1.00000000      1.00000000      1.00000000      1.00000000      1.00000000      1.00000000      1.00000000      1.00000000      1.00000000      1.00000000      1.00000000      1.00000000      1.00000000      1.00000000      1.00000000      1.00000000      1.00000000
      1.00000000      1.00000000      1.00000000      1.00000000      1.00000000      1.00000000      1.00000000      1.00000000      1.00000000      1.00000000      1.00000000      1.00000000      1.00000000      1.00000000      1.00000000      1.00000000      1.00000000      1.00000000      1.00000000      1.00000000
      1.00000000      1.00000000      1.00000000      1.00000000      1.00000000      1.00000000      1.00000000      1.00000000      1.00000000      1.00000000      1.00000000      1.00000000      1.00000000      1.00000000      1.00000000      1.00000000      1.00000000      1.00000000      1.00000000      1.00000000
      1.00000000      1.00000000      1.00000000      1.00000000      1.00000000      1.00000000      1.00000000      1.00000000      1.00000000      1.00000000      1.00000000      1.00000000      1.00000000      1.00000000      1.00000000      1.00000000      1.00000000      1.00000000      1.00000000      1.00000000
      1.00000000      1.00000000      1.00000000      1.00000000      1.00000000      1.00000000      1.00000000      1.00000000      1.00000000      1.00000000      1.00000000      1.00000000      1.00000000      1.00000000      1.00000000      1.00000000      1.00000000      1.00000000      1.00000000      1.00000000
      1.00000000      1.00000000      1.00000000      1.00000000      1.00000000      1.00000000      1.00000000      1.00000000      1.00000000      1.00000000      1.00000000      1.00000000      1.00000000      1.00000000      1.00000000      1.00000000      1.00000000      1.00000000      1.00000000      1.00000000
      1.00000000      1.00000000      1.00000000      1.00000000      1.00000000      1.00000000      1.00000000      1.00000000      1.00000000      1.00000000      1.00000000      1.00000000      1.00000000      1.00000000      1.00000000      1.00000000      1.00000000      1.00000000      1.00000000      1.00000000
      1.00000000      1.00000000      1.00000000      1.00000000      1.00000000      1.00000000      1.00000000      1.00000000      1.00000000      1.00000000      1.00000000      1.00000000      1.00000000      1.00000000      1.00000000      1.00000000      1.00000000      1.00000000      1.00000000      1.00000000
      1.00000000      1.00000000      1.00000000      1.00000000      1.00000000      1.00000000      1.00000000      1.00000000      1.00000000      1.00000000      1.00000000      1.00000000      1.00000000      1.00000000      1.00000000      1.00000000      1.00000000      1.00000000      1.00000000      1.00000000
      1.00000000      1.00000000      1.00000000      1.00000000      1.00000000      1.00000000      1.00000000      1.00000000      1.00000000      1.00000000      1.00000000      1.00000000      1.00000000      1.00000000      1.00000000      1.00000000      1.00000000      1.00000000      1.00000000      1.00000000
      1.00000000      1.00000000      1.00000000      1.00000000      1.00000000      1.00000000      1.00000000      1.00000000      1.00000000      1.00000000      1.00000000      1.00000000      1.00000000      1.00000000      1.00000000      1.00000000      1.00000000      1.00000000      1.00000000      1.00000000
      1.00000000      1.00000000      1.00000000      1.00000000      1.00000000      1.00000000      1.00000000      1.00000000      1.00000000      1.00000000      1.00000000      1.00000000      1.00000000      1.00000000      1.00000000      1.00000000      1.00000000      1.00000000      1.00000000      1.00000000
      1.00000000      1.00000000      1.00000000      1.00000000      1.00000000      1.00000000      1.00000000      1.00000000      1.00000000      1.00000000      1.00000000      1.00000000      1.00000000      1.00000000      1.00000000      1.00000000      1.00000000      1.00000000      1.00000000      1.00000000
      1.00000000      1.00000000      1.00000000      1.00000000      1.00000000      1.00000000      1.00000000      1.00000000      1.00000000      1.00000000      1.00000000      1.00000000      1.00000000      1.00000000      1.00000000      1.00000000      1.00000000      1.00000000      1.00000000      1.00000000
      1.00000000      1.00000000      1.00000000      1.00000000      1.00000000      1.00000000      1.00000000      1.00000000</v>
    <i name="NUPDOWN">     -1.00000000</i>
    <i type="logical" name="LSORBIT"> F  </i>
    <v name="SAXIS">      0.00000000      0.00000000      1.00000000</v>
    <i type="logical" name="LSPIRAL"> F  </i>
    <v name="QSPIRAL">      0.00000000      0.00000000      0.00000000</v>
    <i type="logical" name="LZEROZ"> F  </i>
   </separator>
   <separator name="electronic exchange-correlation" >
    <i type="logical" name="LASPH"> F  </i>
    <i type="logical" name="LMETAGGA"> F  </i>
   </separator>
   <separator name="electronic convergence" >
    <i type="int" name="NELM">   100</i>
    <i type="int" name="NELMDL">     0</i>
    <i type="int" name="NELMIN">     4</i>
    <i name="ENINI">    500.00000000</i>
    <separator name="electronic convergence detail" >
     <i type="logical" name="LDIAG"> T  </i>
     <i type="logical" name="LSUBROT"> F  </i>
     <i name="WEIMIN">      0.00100000</i>
     <i name="EBREAK">      0.00000000</i>
     <i name="DEPER">      0.30000000</i>
     <i type="int" name="NRMM">     4</i>
     <i name="TIME">      0.40000000</i>
    </separator>
   </separator>
   <separator name="electronic mixer" >
    <i name="AMIX">      0.40000000</i>
    <i name="BMIX">      1.00000000</i>
    <i name="AMIN">      0.10000000</i>
    <i name="AMIX_MAG">      1.60000000</i>
    <i name="BMIX_MAG">      1.00000000</i>
    <separator name="electronic mixer details" >
     <i type="int" name="IMIX">     4</i>
     <i type="logical" name="MIXFIRST"> F  </i>
     <i type="int" name="MAXMIX">   -45</i>
     <i name="WC">    100.00000000</i>
     <i type="int" name="INIMIX">     1</i>
     <i type="int" name="MIXPRE">     1</i>
     <i type="int" name="MREMOVE">     5</i>
    </separator>
   </separator>
   <separator name="electronic dipolcorrection" >
    <i type="logical" name="LDIPOL"> F  </i>
    <i type="logical" name="LMONO"> F  </i>
    <i type="int" name="IDIPOL">     0</i>
    <i name="EPSILON">      1.00000000</i>
    <v name="DIPOL">   -100.00000000   -100.00000000   -100.00000000</v>
    <i name="EFIELD">      0.00000000</i>
   </separator>
  </separator>
  <separator name="grids" >
   <i type="int" name="NGX">    72</i>
   <i type="int" name="NGY">    64</i>
   <i type="int" name="NGZ">   336</i>
   <i type="int" name="NGXF">   144</i>
   <i type="int" name="NGYF">   128</i>
   <i type="int" name="NGZF">   672</i>
   <i type="logical" name="ADDGRID"> F  </i>
  </separator>
  <separator name="ionic" >
   <i type="int" name="NSW">   500</i>
   <i type="int" name="IBRION">     2</i>
   <i type="int" name="MDALGO">     0</i>
   <i type="int" name="ISIF">     2</i>
   <i name="PSTRESS">      0.00000000</i>
   <i name="EDIFFG">      0.00010000</i>
   <i type="int" name="NFREE">     1</i>
   <i name="POTIM">      0.25000000</i>
   <i name="SMASS">     -3.00000000</i>
   <i name="SCALEE">      1.00000000</i>
  </separator>
  <separator name="ionic md" >
   <i name="TEBEG">      0.00010000</i>
   <i name="TEEND">      0.00010000</i>
   <i type="int" name="NBLOCK">     1</i>
   <i type="int" name="KBLOCK">   500</i>
   <i type="int" name="NPACO">   256</i>
   <i name="APACO">     16.00000000</i>
  </separator>
  <separator name="symmetry" >
   <i type="int" name="ISYM">     2</i>
   <i name="SYMPREC">      0.00001000</i>
  </separator>
  <separator name="dos" >
   <i type="int" name="LORBIT">     0</i>
   <v name="RWIGS">     -1.00000000     -1.00000000</v>
   <i type="int" name="NEDOS">   301</i>
   <i name="EMIN">     10.00000000</i>
   <i name="EMAX">    -10.00000000</i>
   <i name="EFERMI">      0.00000000</i>
  </separator>
  <separator name="writing" >
   <i type="int" name="NWRITE">     2</i>
   <i type="logical" name="LWAVE"> F  </i>
   <i type="logical" name="LDOWNSAMPLE"> F  </i>
   <i type="logical" name="LCHARG"> F  </i>
   <i type="logical" name="LPARD"> F  </i>
   <i type="logical" name="LVTOT"> F  </i>
   <i type="logical" name="LVHAR"> F  </i>
   <i type="logical" name="LELF"> F  </i>
   <i type="logical" name="LOPTICS"> F  </i>
   <v name="STM">      0.00000000      0.00000000      0.00000000      0.00000000      0.00000000      0.00000000      0.00000000</v>
  </separator>
  <separator name="performance" >
   <i type="int" name="NPAR">    10</i>
   <i type="int" name="NSIM">     4</i>
   <i type="int" name="NBLK">    -1</i>
   <i type="logical" name="LPLANE"> T  </i>
   <i type="logical" name="LSCALAPACK"> F  </i>
   <i type="logical" name="LSCAAWARE"> F  </i>
   <i type="logical" name="LSCALU"> F  </i>
   <i type="logical" name="LASYNC"> F  </i>
   <i type="logical" name="LORBITALREAL"> F  </i>
  </separator>
  <separator name="miscellaneous" >
   <i type="int" name="IDIOT">     3</i>
   <i type="int" name="ISPECIAL">     0</i>
   <i type="logical" name="LMUSIC"> F  </i>
   <v name="POMASS">     55.84700000     54.93800000</v>
   <v name="DARWINR">      0.00000000      0.00000000</v>
   <v name="DARWINV">      1.00000000      1.00000000</v>
   <i type="logical" name="LCORR"> T  </i>
  </separator>
  <i type="logical" name="GGA_COMPAT"> T  </i>
  <i type="logical" name="LBERRY"> F  </i>
  <i type="int" name="ICORELEVEL">     0</i>
  <i type="logical" name="LDAU"> F  </i>
  <i type="int" name="I_CONSTRAINED_M">     0</i>
  <separator name="electronic exchange-correlation" >
   <i type="string" name="GGA">--</i>
   <i type="int" name="VOSKOWN">     0</i>
   <i type="logical" name="LHFCALC"> F  </i>
   <i type="string" name="PRECFOCK"></i>
   <i type="logical" name="LSYMGRAD"> F  </i>
   <i type="logical" name="LHFONE"> F  </i>
   <i type="logical" name="LRHFCALC"> F  </i>
   <i type="logical" name="LTHOMAS"> F  </i>
   <i type="logical" name="LMODELHF"> F  </i>
   <i name="ENCUT4O">     -1.00000000</i>
   <i type="int" name="EXXOEP">     0</i>
   <i type="int" name="FOURORBIT">     0</i>
   <i name="AEXX">      0.00000000</i>
   <i name="HFALPHA">      0.00000000</i>
   <i name="MCALPHA">      0.00000000</i>
   <i name="ALDAX">      1.00000000</i>
   <i name="AGGAX">      1.00000000</i>
   <i name="ALDAC">      1.00000000</i>
   <i name="AGGAC">      1.00000000</i>
   <i type="int" name="NKREDX">     1</i>
   <i type="int" name="NKREDY">     1</i>
   <i type="int" name="NKREDZ">     1</i>
   <i type="logical" name="SHIFTRED"> F  </i>
   <i type="logical" name="ODDONLY"> F  </i>
   <i type="logical" name="EVENONLY"> F  </i>
   <i type="int" name="LMAXFOCK">     0</i>
   <i type="int" name="NMAXFOCKAE">     0</i>
   <i type="logical" name="LFOCKAEDFT"> F  </i>
   <i name="HFSCREEN">      0.00000000</i>
   <i name="HFSCREENC">      0.00000000</i>
   <i type="int" name="NBANDSGWLOW">     0</i>
  </separator>
  <separator name="vdW DFT" >
   <i type="logical" name="LUSE_VDW"> F  </i>
   <i name="Zab_VDW">     -0.84910000</i>
   <i name="PARAM1">      0.12340000</i>
   <i name="PARAM2">      1.00000000</i>
   <i name="PARAM3">      0.00000000</i>
  </separator>
  <separator name="model GW" >
   <i type="int" name="MODEL_GW">     0</i>
   <i name="MODEL_EPS0">      7.68123361</i>
   <i name="MODEL_ALPHA">      1.00000000</i>
  </separator>
  <separator name="linear response parameters" >
   <i type="logical" name="LEPSILON"> F  </i>
   <i type="logical" name="LRPA"> F  </i>
   <i type="logical" name="LNABLA"> F  </i>
   <i type="logical" name="LVEL"> F  </i>
   <i type="int" name="KINTER">     0</i>
   <i name="CSHIFT">      0.10000000</i>
   <i name="OMEGAMAX">     -1.00000000</i>
   <i name="DEG_THRESHOLD">      0.00200000</i>
   <i name="RTIME">     -0.10000000</i>
   <i name="WPLASMAI">      0.00000000</i>
   <v name="DFIELD">      0.00000000      0.00000000      0.00000000</v>
   <v name="WPLASMA">      0.00000000      0.00000000      0.00000000      0.00000000      0.00000000      0.00000000      0.00000000      0.00000000      0.00000000</v>
  </separator>
  <separator name="orbital magnetization" >
   <i type="logical" name="NUCIND"> F  </i>
   <v name="MAGPOS">      0.00000000      0.00000000      0.00000000</v>
   <i type="logical" name="LNICSALL"> T  </i>
   <i type="logical" name="ORBITALMAG"> F  </i>
   <i type="logical" name="LMAGBLOCH"> F  </i>
   <i type="logical" name="LCHIMAG"> F  </i>
   <i type="logical" name="LGAUGE"> T  </i>
   <i type="int" name="MAGATOM">     0</i>
   <v name="MAGDIPOL">      0.00000000      0.00000000      0.00000000</v>
   <v name="AVECCONST">      0.00000000      0.00000000      0.00000000</v>
  </separator>
  <separator name="response functions" >
   <i type="logical" name="LADDER"> F  </i>
   <i type="logical" name="LRPAFORCE"> F  </i>
   <i type="logical" name="LFXC"> F  </i>
   <i type="logical" name="LHARTREE"> T  </i>
   <i type="int" name="IBSE">     0</i>
   <v type="int" name="KPOINT">    -1     0     0     0</v>
   <i type="logical" name="LTCTE"> F  </i>
   <i type="logical" name="LTETE"> F  </i>
   <i type="logical" name="LTRIPLET"> F  </i>
   <i type="logical" name="LFXCEPS"> F  </i>
   <i type="logical" name="LFXHEG"> F  </i>
   <i type="int" name="NATURALO">     2</i>
   <i type="logical" name="L2ORDER"> F  </i>
   <i type="logical" name="LMP2LT"> F  </i>
   <i type="logical" name="LUSEW"> F  </i>
   <i name="ENCUTGW">     -2.00000000</i>
   <i name="ENCUTGWSOFT">     -2.00000000</i>
   <i name="ENCUTLF">     -1.00000000</i>
   <i type="int" name="LMAXMP2">    -1</i>
   <i name="SCISSOR">      0.00000000</i>
   <i type="int" name="NOMEGA">     0</i>
   <i type="int" name="NOMEGAR">     0</i>
   <i type="int" name="NBANDSGW">    -1</i>
   <i type="int" name="NBANDSO">    -1</i>
   <i type="int" name="NBANDSV">    -1</i>
   <i type="int" name="NELM">   100</i>
   <i type="int" name="NELMHF">     1</i>
   <i type="int" name="DIM">     3</i>
   <i type="int" name="ANTIRES">     0</i>
   <i name="OMEGAMAX">    -30.00000000</i>
   <i name="OMEGAMIN">    -30.00000000</i>
   <i name="OMEGATL">   -200.00000000</i>
   <i type="int" name="OMEGAGRID">   140</i>
   <i name="CSHIFT">     -0.10000000</i>
   <i type="logical" name="SELFENERGY"> F  </i>
   <i type="logical" name="LSPECTRAL"> F  </i>
   <i type="logical" name="LSPECTRALGW"> F  </i>
   <i type="logical" name="LSINGLES"> F  </i>
   <i type="logical" name="LFERMIGW"> F  </i>
   <i type="logical" name="ODDONLYGW"> F  </i>
   <i type="logical" name="EVENONLYGW"> F  </i>
   <i type="int" name="NKREDLFX">     1</i>
   <i type="int" name="NKREDLFY">     1</i>
   <i type="int" name="NKREDLFZ">     1</i>
   <i type="int" name="MAXMEM">  2800</i>
   <i type="int" name="TELESCOPE">     0</i>
   <i type="int" name="TAUPAR">     1</i>
   <i type="int" name="OMEGAPAR">    -1</i>
   <i name="LAMBDA">      1.00000000</i>
  </separator>
  <separator name="External order field" >
   <i name="OFIELD_KAPPA">      0.00000000</i>
   <v name="OFIELD_K">      0.00000000      0.00000000      0.00000000</v>
   <i name="OFIELD_Q6_NEAR">      0.00000000</i>
   <i name="OFIELD_Q6_FAR">      0.00000000</i>
   <i name="OFIELD_A">      0.00000000</i>
  </separator>
 </parameters>
 <atominfo>
  <atoms>     288 </atoms>
  <types>       2 </types>
  <array name="atoms" >
   <dimension dim="1">ion</dimension>
   <field type="string">element</field>
   <field type="int">atomtype</field>
   <set>
    <rc><c>Fe</c><c>   1</c></rc>
    <rc><c>Fe</c><c>   1</c></rc>
    <rc><c>Fe</c><c>   1</c></rc>
    <rc><c>Fe</c><c>   1</c></rc>
    <rc><c>Fe</c><c>   1</c></rc>
    <rc><c>Fe</c><c>   1</c></rc>
    <rc><c>Fe</c><c>   1</c></rc>
    <rc><c>Fe</c><c>   1</c></rc>
    <rc><c>Fe</c><c>   1</c></rc>
    <rc><c>Fe</c><c>   1</c></rc>
    <rc><c>Fe</c><c>   1</c></rc>
    <rc><c>Fe</c><c>   1</c></rc>
    <rc><c>Fe</c><c>   1</c></rc>
    <rc><c>Fe</c><c>   1</c></rc>
    <rc><c>Fe</c><c>   1</c></rc>
    <rc><c>Fe</c><c>   1</c></rc>
    <rc><c>Fe</c><c>   1</c></rc>
    <rc><c>Fe</c><c>   1</c></rc>
    <rc><c>Fe</c><c>   1</c></rc>
    <rc><c>Fe</c><c>   1</c></rc>
    <rc><c>Fe</c><c>   1</c></rc>
    <rc><c>Fe</c><c>   1</c></rc>
    <rc><c>Fe</c><c>   1</c></rc>
    <rc><c>Fe</c><c>   1</c></rc>
    <rc><c>Fe</c><c>   1</c></rc>
    <rc><c>Fe</c><c>   1</c></rc>
    <rc><c>Fe</c><c>   1</c></rc>
    <rc><c>Fe</c><c>   1</c></rc>
    <rc><c>Fe</c><c>   1</c></rc>
    <rc><c>Fe</c><c>   1</c></rc>
    <rc><c>Fe</c><c>   1</c></rc>
    <rc><c>Fe</c><c>   1</c></rc>
    <rc><c>Fe</c><c>   1</c></rc>
    <rc><c>Fe</c><c>   1</c></rc>
    <rc><c>Fe</c><c>   1</c></rc>
    <rc><c>Fe</c><c>   1</c></rc>
    <rc><c>Fe</c><c>   1</c></rc>
    <rc><c>Fe</c><c>   1</c></rc>
    <rc><c>Fe</c><c>   1</c></rc>
    <rc><c>Fe</c><c>   1</c></rc>
    <rc><c>Fe</c><c>   1</c></rc>
    <rc><c>Fe</c><c>   1</c></rc>
    <rc><c>Fe</c><c>   1</c></rc>
    <rc><c>Fe</c><c>   1</c></rc>
    <rc><c>Fe</c><c>   1</c></rc>
    <rc><c>Fe</c><c>   1</c></rc>
    <rc><c>Fe</c><c>   1</c></rc>
    <rc><c>Fe</c><c>   1</c></rc>
    <rc><c>Fe</c><c>   1</c></rc>
    <rc><c>Fe</c><c>   1</c></rc>
    <rc><c>Fe</c><c>   1</c></rc>
    <rc><c>Fe</c><c>   1</c></rc>
    <rc><c>Fe</c><c>   1</c></rc>
    <rc><c>Fe</c><c>   1</c></rc>
    <rc><c>Fe</c><c>   1</c></rc>
    <rc><c>Fe</c><c>   1</c></rc>
    <rc><c>Fe</c><c>   1</c></rc>
    <rc><c>Fe</c><c>   1</c></rc>
    <rc><c>Fe</c><c>   1</c></rc>
    <rc><c>Fe</c><c>   1</c></rc>
    <rc><c>Fe</c><c>   1</c></rc>
    <rc><c>Fe</c><c>   1</c></rc>
    <rc><c>Fe</c><c>   1</c></rc>
    <rc><c>Fe</c><c>   1</c></rc>
    <rc><c>Fe</c><c>   1</c></rc>
    <rc><c>Fe</c><c>   1</c></rc>
    <rc><c>Fe</c><c>   1</c></rc>
    <rc><c>Fe</c><c>   1</c></rc>
    <rc><c>Fe</c><c>   1</c></rc>
    <rc><c>Fe</c><c>   1</c></rc>
    <rc><c>Fe</c><c>   1</c></rc>
    <rc><c>Fe</c><c>   1</c></rc>
    <rc><c>Fe</c><c>   1</c></rc>
    <rc><c>Fe</c><c>   1</c></rc>
    <rc><c>Fe</c><c>   1</c></rc>
    <rc><c>Fe</c><c>   1</c></rc>
    <rc><c>Fe</c><c>   1</c></rc>
    <rc><c>Fe</c><c>   1</c></rc>
    <rc><c>Fe</c><c>   1</c></rc>
    <rc><c>Fe</c><c>   1</c></rc>
    <rc><c>Fe</c><c>   1</c></rc>
    <rc><c>Fe</c><c>   1</c></rc>
    <rc><c>Fe</c><c>   1</c></rc>
    <rc><c>Fe</c><c>   1</c></rc>
    <rc><c>Fe</c><c>   1</c></rc>
    <rc><c>Fe</c><c>   1</c></rc>
    <rc><c>Fe</c><c>   1</c></rc>
    <rc><c>Fe</c><c>   1</c></rc>
    <rc><c>Fe</c><c>   1</c></rc>
    <rc><c>Fe</c><c>   1</c></rc>
    <rc><c>Fe</c><c>   1</c></rc>
    <rc><c>Fe</c><c>   1</c></rc>
    <rc><c>Fe</c><c>   1</c></rc>
    <rc><c>Fe</c><c>   1</c></rc>
    <rc><c>Fe</c><c>   1</c></rc>
    <rc><c>Fe</c><c>   1</c></rc>
    <rc><c>Fe</c><c>   1</c></rc>
    <rc><c>Fe</c><c>   1</c></rc>
    <rc><c>Fe</c><c>   1</c></rc>
    <rc><c>Fe</c><c>   1</c></rc>
    <rc><c>Fe</c><c>   1</c></rc>
    <rc><c>Fe</c><c>   1</c></rc>
    <rc><c>Fe</c><c>   1</c></rc>
    <rc><c>Fe</c><c>   1</c></rc>
    <rc><c>Fe</c><c>   1</c></rc>
    <rc><c>Fe</c><c>   1</c></rc>
    <rc><c>Fe</c><c>   1</c></rc>
    <rc><c>Fe</c><c>   1</c></rc>
    <rc><c>Fe</c><c>   1</c></rc>
    <rc><c>Fe</c><c>   1</c></rc>
    <rc><c>Fe</c><c>   1</c></rc>
    <rc><c>Fe</c><c>   1</c></rc>
    <rc><c>Fe</c><c>   1</c></rc>
    <rc><c>Fe</c><c>   1</c></rc>
    <rc><c>Fe</c><c>   1</c></rc>
    <rc><c>Fe</c><c>   1</c></rc>
    <rc><c>Fe</c><c>   1</c></rc>
    <rc><c>Fe</c><c>   1</c></rc>
    <rc><c>Fe</c><c>   1</c></rc>
    <rc><c>Fe</c><c>   1</c></rc>
    <rc><c>Fe</c><c>   1</c></rc>
    <rc><c>Fe</c><c>   1</c></rc>
    <rc><c>Fe</c><c>   1</c></rc>
    <rc><c>Fe</c><c>   1</c></rc>
    <rc><c>Fe</c><c>   1</c></rc>
    <rc><c>Fe</c><c>   1</c></rc>
    <rc><c>Fe</c><c>   1</c></rc>
    <rc><c>Fe</c><c>   1</c></rc>
    <rc><c>Fe</c><c>   1</c></rc>
    <rc><c>Fe</c><c>   1</c></rc>
    <rc><c>Fe</c><c>   1</c></rc>
    <rc><c>Fe</c><c>   1</c></rc>
    <rc><c>Fe</c><c>   1</c></rc>
    <rc><c>Fe</c><c>   1</c></rc>
    <rc><c>Fe</c><c>   1</c></rc>
    <rc><c>Fe</c><c>   1</c></rc>
    <rc><c>Fe</c><c>   1</c></rc>
    <rc><c>Fe</c><c>   1</c></rc>
    <rc><c>Fe</c><c>   1</c></rc>
    <rc><c>Fe</c><c>   1</c></rc>
    <rc><c>Fe</c><c>   1</c></rc>
    <rc><c>Fe</c><c>   1</c></rc>
    <rc><c>Fe</c><c>   1</c></rc>
    <rc><c>Fe</c><c>   1</c></rc>
    <rc><c>Fe</c><c>   1</c></rc>
    <rc><c>Fe</c><c>   1</c></rc>
    <rc><c>Fe</c><c>   1</c></rc>
    <rc><c>Fe</c><c>   1</c></rc>
    <rc><c>Fe</c><c>   1</c></rc>
    <rc><c>Fe</c><c>   1</c></rc>
    <rc><c>Fe</c><c>   1</c></rc>
    <rc><c>Fe</c><c>   1</c></rc>
    <rc><c>Fe</c><c>   1</c></rc>
    <rc><c>Fe</c><c>   1</c></rc>
    <rc><c>Fe</c><c>   1</c></rc>
    <rc><c>Fe</c><c>   1</c></rc>
    <rc><c>Fe</c><c>   1</c></rc>
    <rc><c>Fe</c><c>   1</c></rc>
    <rc><c>Fe</c><c>   1</c></rc>
    <rc><c>Fe</c><c>   1</c></rc>
    <rc><c>Fe</c><c>   1</c></rc>
    <rc><c>Fe</c><c>   1</c></rc>
    <rc><c>Fe</c><c>   1</c></rc>
    <rc><c>Fe</c><c>   1</c></rc>
    <rc><c>Fe</c><c>   1</c></rc>
    <rc><c>Fe</c><c>   1</c></rc>
    <rc><c>Fe</c><c>   1</c></rc>
    <rc><c>Fe</c><c>   1</c></rc>
    <rc><c>Fe</c><c>   1</c></rc>
    <rc><c>Fe</c><c>   1</c></rc>
    <rc><c>Fe</c><c>   1</c></rc>
    <rc><c>Fe</c><c>   1</c></rc>
    <rc><c>Fe</c><c>   1</c></rc>
    <rc><c>Fe</c><c>   1</c></rc>
    <rc><c>Fe</c><c>   1</c></rc>
    <rc><c>Fe</c><c>   1</c></rc>
    <rc><c>Fe</c><c>   1</c></rc>
    <rc><c>Fe</c><c>   1</c></rc>
    <rc><c>Fe</c><c>   1</c></rc>
    <rc><c>Fe</c><c>   1</c></rc>
    <rc><c>Fe</c><c>   1</c></rc>
    <rc><c>Fe</c><c>   1</c></rc>
    <rc><c>Fe</c><c>   1</c></rc>
    <rc><c>Fe</c><c>   1</c></rc>
    <rc><c>Fe</c><c>   1</c></rc>
    <rc><c>Fe</c><c>   1</c></rc>
    <rc><c>Fe</c><c>   1</c></rc>
    <rc><c>Fe</c><c>   1</c></rc>
    <rc><c>Fe</c><c>   1</c></rc>
    <rc><c>Fe</c><c>   1</c></rc>
    <rc><c>Fe</c><c>   1</c></rc>
    <rc><c>Fe</c><c>   1</c></rc>
    <rc><c>Fe</c><c>   1</c></rc>
    <rc><c>Fe</c><c>   1</c></rc>
    <rc><c>Fe</c><c>   1</c></rc>
    <rc><c>Fe</c><c>   1</c></rc>
    <rc><c>Fe</c><c>   1</c></rc>
    <rc><c>Fe</c><c>   1</c></rc>
    <rc><c>Fe</c><c>   1</c></rc>
    <rc><c>Fe</c><c>   1</c></rc>
    <rc><c>Fe</c><c>   1</c></rc>
    <rc><c>Fe</c><c>   1</c></rc>
    <rc><c>Fe</c><c>   1</c></rc>
    <rc><c>Fe</c><c>   1</c></rc>
    <rc><c>Fe</c><c>   1</c></rc>
    <rc><c>Fe</c><c>   1</c></rc>
    <rc><c>Fe</c><c>   1</c></rc>
    <rc><c>Fe</c><c>   1</c></rc>
    <rc><c>Fe</c><c>   1</c></rc>
    <rc><c>Fe</c><c>   1</c></rc>
    <rc><c>Fe</c><c>   1</c></rc>
    <rc><c>Fe</c><c>   1</c></rc>
    <rc><c>Fe</c><c>   1</c></rc>
    <rc><c>Fe</c><c>   1</c></rc>
    <rc><c>Fe</c><c>   1</c></rc>
    <rc><c>Fe</c><c>   1</c></rc>
    <rc><c>Fe</c><c>   1</c></rc>
    <rc><c>Fe</c><c>   1</c></rc>
    <rc><c>Fe</c><c>   1</c></rc>
    <rc><c>Fe</c><c>   1</c></rc>
    <rc><c>Fe</c><c>   1</c></rc>
    <rc><c>Fe</c><c>   1</c></rc>
    <rc><c>Fe</c><c>   1</c></rc>
    <rc><c>Fe</c><c>   1</c></rc>
    <rc><c>Fe</c><c>   1</c></rc>
    <rc><c>Fe</c><c>   1</c></rc>
    <rc><c>Fe</c><c>   1</c></rc>
    <rc><c>Fe</c><c>   1</c></rc>
    <rc><c>Fe</c><c>   1</c></rc>
    <rc><c>Fe</c><c>   1</c></rc>
    <rc><c>Fe</c><c>   1</c></rc>
    <rc><c>Fe</c><c>   1</c></rc>
    <rc><c>Fe</c><c>   1</c></rc>
    <rc><c>Fe</c><c>   1</c></rc>
    <rc><c>Fe</c><c>   1</c></rc>
    <rc><c>Fe</c><c>   1</c></rc>
    <rc><c>Fe</c><c>   1</c></rc>
    <rc><c>Fe</c><c>   1</c></rc>
    <rc><c>Fe</c><c>   1</c></rc>
    <rc><c>Fe</c><c>   1</c></rc>
    <rc><c>Fe</c><c>   1</c></rc>
    <rc><c>Fe</c><c>   1</c></rc>
    <rc><c>Fe</c><c>   1</c></rc>
    <rc><c>Fe</c><c>   1</c></rc>
    <rc><c>Fe</c><c>   1</c></rc>
    <rc><c>Fe</c><c>   1</c></rc>
    <rc><c>Fe</c><c>   1</c></rc>
    <rc><c>Fe</c><c>   1</c></rc>
    <rc><c>Fe</c><c>   1</c></rc>
    <rc><c>Fe</c><c>   1</c></rc>
    <rc><c>Fe</c><c>   1</c></rc>
    <rc><c>Fe</c><c>   1</c></rc>
    <rc><c>Fe</c><c>   1</c></rc>
    <rc><c>Fe</c><c>   1</c></rc>
    <rc><c>Fe</c><c>   1</c></rc>
    <rc><c>Fe</c><c>   1</c></rc>
    <rc><c>Fe</c><c>   1</c></rc>
    <rc><c>Fe</c><c>   1</c></rc>
    <rc><c>Fe</c><c>   1</c></rc>
    <rc><c>Fe</c><c>   1</c></rc>
    <rc><c>Fe</c><c>   1</c></rc>
    <rc><c>Fe</c><c>   1</c></rc>
    <rc><c>Fe</c><c>   1</c></rc>
    <rc><c>Fe</c><c>   1</c></rc>
    <rc><c>Fe</c><c>   1</c></rc>
    <rc><c>Fe</c><c>   1</c></rc>
    <rc><c>Fe</c><c>   1</c></rc>
    <rc><c>Fe</c><c>   1</c></rc>
    <rc><c>Fe</c><c>   1</c></rc>
    <rc><c>Fe</c><c>   1</c></rc>
    <rc><c>Fe</c><c>   1</c></rc>
    <rc><c>Fe</c><c>   1</c></rc>
    <rc><c>Fe</c><c>   1</c></rc>
    <rc><c>Mn</c><c>   2</c></rc>
    <rc><c>Mn</c><c>   2</c></rc>
    <rc><c>Mn</c><c>   2</c></rc>
    <rc><c>Mn</c><c>   2</c></rc>
    <rc><c>Mn</c><c>   2</c></rc>
    <rc><c>Mn</c><c>   2</c></rc>
    <rc><c>Mn</c><c>   2</c></rc>
    <rc><c>Mn</c><c>   2</c></rc>
    <rc><c>Mn</c><c>   2</c></rc>
    <rc><c>Mn</c><c>   2</c></rc>
    <rc><c>Mn</c><c>   2</c></rc>
    <rc><c>Mn</c><c>   2</c></rc>
    <rc><c>Mn</c><c>   2</c></rc>
    <rc><c>Mn</c><c>   2</c></rc>
    <rc><c>Mn</c><c>   2</c></rc>
   </set>
  </array>
  <array name="atomtypes" >
   <dimension dim="1">type</dimension>
   <field type="int">atomspertype</field>
   <field type="string">element</field>
   <field>mass</field>
   <field>valence</field>
   <field type="string">pseudopotential</field>
   <set>
    <rc><c> 273</c><c>Fe</c><c>     55.84700000</c><c>      8.00000000</c><c>  PAW_PBE Fe_GW 31Mar2010               </c></rc>
    <rc><c>  15</c><c>Mn</c><c>     54.93800000</c><c>      7.00000000</c><c>  PAW_PBE Mn_GW 31Mar2010               </c></rc>
   </set>
  </array>
 </atominfo>
 <structure name="initialpos" >
  <crystal>
   <varray name="basis" >
    <v>       9.72667800       0.00000000       0.00000000 </v>
    <v>       0.00000000       8.42355000       0.00000000 </v>
    <v>       0.00000000       0.00000000      45.00000000 </v>
   </varray>
   <i name="volume">   3686.99213101 </i>
   <varray name="rec_basis" >
    <v>       0.10281002       0.00000000       0.00000000 </v>
    <v>       0.00000000       0.11871479       0.00000000 </v>
    <v>       0.00000000       0.00000000       0.02222222 </v>
   </varray>
  </crystal>
  <varray name="positions" >
   <v>       0.43744822       0.11510637       0.16632811 </v>
   <v>       0.93745306       0.95444520       0.56529496 </v>
   <v>       0.68762634       0.62455545       0.78849215 </v>
   <v>       0.68749113       0.12112963       0.65473822 </v>
   <v>       0.68765943       0.12454600       0.78853343 </v>
   <v>       0.56245442       0.04041557       0.38936752 </v>
   <v>       0.31241761       0.03749223       0.61066975 </v>
   <v>       0.31243626       0.03186135       0.12403736 </v>
   <v>       0.81241312       0.37319391       0.43430662 </v>
   <v>       0.06239727       0.54050624       0.38932292 </v>
   <v>       0.18735014       0.28863157       0.25598421 </v>
   <v>       0.81245507       0.20686060       0.34518651 </v>
   <v>       0.68767278       0.62185578       0.52157786 </v>
   <v>       0.43745748       0.46161455       0.83351931 </v>
   <v>       0.93717432       0.12318747       0.30040428 </v>
   <v>       0.06261937       0.03657824       0.61059373 </v>
   <v>       0.06288104       0.04498339       0.87562057 </v>
   <v>       0.56298840       0.71217863       0.83352444 </v>
   <v>       0.31239849       0.04066559       0.38948709 </v>
   <v>       0.93754738       0.29576890       0.87565450 </v>
   <v>       0.93706622       0.62355276       0.43421573 </v>
   <v>       0.06263367       0.71221870       0.83345129 </v>
   <v>       0.43756725       0.78913763       0.74401505 </v>
   <v>       0.93688823       0.62221083       0.52161315 </v>
   <v>       0.31248188       0.87315932       0.43431671 </v>
   <v>       0.43775928       0.62417094       0.78848244 </v>
   <v>       0.56248667       0.87123286       0.65486087 </v>
   <v>       0.93737709       0.78805198       0.25603118 </v>
   <v>       0.06262946       0.87400057       0.78843298 </v>
   <v>       0.68721203       0.28959440       0.74400358 </v>
   <v>       0.68761280       0.79052917       0.38935243 </v>
   <v>       0.68735788       0.28859475       0.25599197 </v>
   <v>       0.68767017       0.12157391       0.52153975 </v>
   <v>       0.68773481       0.95488703       0.56577305 </v>
   <v>       0.81273952       0.70428451       0.56572600 </v>
   <v>       0.31222733       0.20458587       0.56569527 </v>
   <v>       0.31260261       0.53873231       0.25589406 </v>
   <v>       0.43773150       0.62361504       0.43446222 </v>
   <v>       0.56274230       0.37357385       0.30047116 </v>
   <v>       0.56287095       0.87152830       0.52155606 </v>
   <v>       0.56238806       0.20362488       0.21159814 </v>
   <v>       0.81252835       0.36582577       0.16659833 </v>
   <v>       0.56240964       0.37163621       0.52154182 </v>
   <v>       0.81180616       0.71201479       0.83349132 </v>
   <v>       0.68735527       0.95668806       0.34511850 </v>
   <v>       0.81252115       0.53216394       0.12415353 </v>
   <v>       0.43724371       0.62122622       0.65481706 </v>
   <v>       0.43765140       0.12340695       0.43453006 </v>
   <v>       0.81191030       0.37118114       0.52157309 </v>
   <v>       0.31237925       0.37338574       0.30034690 </v>
   <v>       0.06243641       0.21176605       0.83342287 </v>
   <v>       0.18749363       0.62423643       0.78853094 </v>
   <v>       0.43710855       0.96212761       0.83345518 </v>
   <v>       0.18738327       0.95723476       0.34503763 </v>
   <v>       0.43759948       0.28861496       0.25599500 </v>
   <v>       0.93712717       0.28281925       0.12430142 </v>
   <v>       0.81208586       0.54482269       0.87582232 </v>
   <v>       0.81270094       0.04022640       0.38948104 </v>
   <v>       0.93760815       0.12423560       0.78839151 </v>
   <v>       0.68754133       0.62089356       0.65483679 </v>
   <v>       0.93750055       0.95673159       0.34515670 </v>
   <v>       0.93629876       0.78315144       0.12434532 </v>
   <v>       0.43754719       0.78772508       0.61053669 </v>
   <v>       0.43824776       0.95403380       0.21172148 </v>
   <v>       0.81254227       0.53890231       0.25596302 </v>
   <v>       0.93738841       0.29102825       0.38930533 </v>
   <v>       0.68755907       0.28721955       0.61050712 </v>
   <v>       0.81258346       0.20474127       0.56572527 </v>
   <v>       0.06331837       0.54476201       0.87554971 </v>
   <v>       0.93698395       0.12252216       0.52159506 </v>
   <v>       0.81244023       0.53918503       0.74397225 </v>
   <v>       0.56251262       0.21281612       0.83348828 </v>
   <v>       0.31234134       0.53954343       0.74410206 </v>
   <v>       0.93738787       0.78934405       0.74409424 </v>
   <v>       0.43727380       0.79649873       0.87558001 </v>
   <v>       0.18766879       0.45444000       0.56560007 </v>
   <v>       0.68751802       0.12333121       0.43440516 </v>
   <v>       0.31251218       0.03839082       0.25596418 </v>
   <v>       0.18750263       0.11508971       0.16633509 </v>
   <v>       0.18725531       0.28293188       0.12428342 </v>
   <v>       0.43759592       0.28938256       0.74404143 </v>
   <v>       0.18750824       0.29554827       0.87563005 </v>
   <v>       0.81245625       0.70680373       0.34514923 </v>
   <v>       0.93730677       0.28705816       0.61055191 </v>
   <v>       0.56262181       0.87324819       0.43445633 </v>
   <v>       0.18741652       0.45377845       0.21148310 </v>
   <v>       0.31247076       0.53271552       0.12421324 </v>
   <v>       0.68732964       0.95361369       0.21149344 </v>
   <v>       0.93749135       0.46157780       0.83355336 </v>
   <v>       0.93775962       0.79677016       0.87559883 </v>
   <v>       0.56244782       0.20653506       0.34514062 </v>
   <v>       0.31225242       0.70563448       0.47852599 </v>
   <v>       0.81251562       0.86488895       0.16635801 </v>
   <v>       0.56300291       0.20631744       0.47840899 </v>
   <v>       0.81244286       0.20361510       0.21148735 </v>
   <v>       0.43747778       0.45434057       0.56553577 </v>
   <v>       0.81248623       0.37326912       0.30052317 </v>
   <v>       0.18668879       0.95409890       0.21171119 </v>
   <v>       0.81254868       0.03832277       0.25599190 </v>
   <v>       0.93740012       0.95482062       0.69979071 </v>
   <v>       0.31255012       0.03895878       0.74399978 </v>
   <v>       0.43771090       0.95674600       0.34511983 </v>
   <v>       0.68727837       0.78913380       0.74404247 </v>
   <v>       0.81249250       0.53710463       0.61063046 </v>
   <v>       0.93716998       0.12350478       0.43428347 </v>
   <v>       0.31283263       0.37435822       0.78844770 </v>
   <v>       0.31259114       0.70455698       0.69967290 </v>
   <v>       0.81286118       0.04455580       0.87559442 </v>
   <v>       0.06225441       0.53848130       0.25599121 </v>
   <v>       0.81255789       0.70504062       0.69964914 </v>
   <v>       0.18742972       0.62318710       0.30037558 </v>
   <v>       0.81217647       0.20634290       0.47844310 </v>
   <v>       0.81250074       0.87354560       0.30033516 </v>
   <v>       0.68763460       0.96242678       0.83350830 </v>
   <v>       0.93756185       0.78699599       0.61064953 </v>
   <v>       0.43756020       0.29566512       0.87566165 </v>
   <v>       0.56227045       0.54097267       0.38935390 </v>
   <v>       0.06213712       0.37343318       0.30040029 </v>
   <v>       0.06260860       0.53068161       0.12434498 </v>
   <v>       0.06240636       0.37116706       0.65482284 </v>
   <v>       0.56236787       0.03774572       0.61063349 </v>
   <v>       0.93759120       0.62334907       0.30031013 </v>
   <v>       0.56266477       0.70555230       0.47847200 </v>
   <v>       0.18785635       0.95484994       0.56569927 </v>
   <v>       0.56252690       0.20472954       0.69970791 </v>
   <v>       0.31266827       0.53744754       0.61061827 </v>
   <v>       0.18753669       0.79567760       0.87568454 </v>
   <v>       0.06226995       0.37324903       0.43481033 </v>
   <v>       0.43739460       0.45614494       0.47847157 </v>
   <v>       0.18720212       0.28717444       0.61047359 </v>
   <v>       0.56276107       0.87417882       0.78850389 </v>
   <v>       0.43676698       0.61574989       0.16644878 </v>
   <v>       0.06233932       0.53933195       0.74401946 </v>
   <v>       0.18749777       0.12111351       0.65475714 </v>
   <v>       0.68785230       0.45432202       0.69963849 </v>
   <v>       0.43772605       0.95455621       0.69971470 </v>
   <v>       0.06272025       0.70501141       0.47858199 </v>
   <v>       0.68766388       0.11611083       0.16653743 </v>
   <v>       0.31342414       0.37127304       0.52162748 </v>
   <v>       0.31199135       0.20633706       0.47851953 </v>
   <v>       0.56199370       0.37401939       0.78832291 </v>
   <v>       0.06224078       0.03185272       0.12423523 </v>
   <v>       0.68761788       0.62316646       0.43446411 </v>
   <v>       0.31283018       0.87126900       0.52163156 </v>
   <v>       0.06255237       0.70486102       0.69973607 </v>
   <v>       0.18765001       0.79036329       0.38927311 </v>
   <v>       0.68748263       0.95670935       0.47839753 </v>
   <v>       0.06249246       0.53693136       0.61054791 </v>
   <v>       0.18727661       0.96198427       0.83340853 </v>
   <v>       0.31240840       0.87410942       0.78844621 </v>
   <v>       0.93768280       0.95369348       0.21151449 </v>
   <v>       0.31229241       0.70705762       0.34505652 </v>
   <v>       0.56244771       0.70464288       0.69970981 </v>
   <v>       0.43764033       0.29117342       0.38933384 </v>
   <v>       0.68737545       0.78751658       0.61061456 </v>
   <v>       0.43662689       0.78329631       0.12416367 </v>
   <v>       0.31238568       0.70358204       0.21153282 </v>
   <v>       0.31158501       0.54459210       0.87553190 </v>
   <v>       0.68792668       0.28287629       0.12430953 </v>
   <v>       0.68747871       0.78813450       0.25601429 </v>
   <v>       0.93761057       0.28853229       0.25603004 </v>
   <v>       0.68755822       0.79535190       0.87569155 </v>
   <v>       0.31260084       0.87330579       0.30042326 </v>
   <v>       0.81258938       0.21266774       0.83351179 </v>
   <v>       0.31283358       0.37307742       0.43434676 </v>
   <v>       0.43758829       0.12335209       0.30035001 </v>
   <v>       0.31260715       0.54034929       0.38938612 </v>
   <v>       0.93721174       0.61561180       0.16637340 </v>
   <v>       0.18766813       0.45671849       0.34511635 </v>
   <v>       0.06236339       0.87155024       0.65485812 </v>
   <v>       0.43758243       0.12409348       0.78846662 </v>
   <v>       0.31253699       0.20454960       0.69967898 </v>
   <v>       0.81258306       0.03750489       0.61067424 </v>
   <v>       0.06258873       0.86639353       0.16638651 </v>
   <v>       0.18767381       0.78812656       0.25603574 </v>
   <v>       0.68733366       0.45401860       0.21158281 </v>
   <v>       0.56244876       0.03889703       0.74396116 </v>
   <v>       0.31228902       0.21183869       0.83341739 </v>
   <v>       0.43735928       0.12228380       0.52152343 </v>
   <v>       0.81295416       0.37391118       0.78833838 </v>
   <v>       0.81249626       0.37116215       0.65492219 </v>
   <v>       0.18764909       0.95685695       0.47842585 </v>
   <v>       0.56243911       0.86642183       0.16639467 </v>
   <v>       0.93733891       0.62399058       0.78843445 </v>
   <v>       0.68873357       0.78317022       0.12435173 </v>
   <v>       0.93733506       0.12141415       0.65491532 </v>
   <v>       0.81241270       0.20441325       0.69958143 </v>
   <v>       0.68759549       0.29591588       0.87582931 </v>
   <v>       0.06254704       0.04070464       0.38939163 </v>
   <v>       0.06219322       0.36625748       0.16628480 </v>
   <v>       0.56272323       0.03186972       0.12423956 </v>
   <v>       0.93740758       0.79058416       0.38944912 </v>
   <v>       0.43759796       0.79090869       0.38945520 </v>
   <v>       0.06227210       0.70362778       0.56565013 </v>
   <v>       0.56285118       0.36630254       0.16627981 </v>
   <v>       0.93746505       0.45635876       0.47853292 </v>
   <v>       0.93757079       0.62147318       0.65484833 </v>
   <v>       0.93744967       0.45628482       0.34507069 </v>
   <v>       0.31253184       0.36493122       0.16646903 </v>
   <v>       0.43755986       0.45385049       0.21149293 </v>
   <v>       0.43756206       0.12136232       0.65489031 </v>
   <v>       0.68766477       0.45433992       0.56557705 </v>
   <v>       0.18717826       0.45396760       0.69976584 </v>
   <v>       0.06268046       0.20421663       0.69962887 </v>
   <v>       0.06254652       0.37426418       0.78847006 </v>
   <v>       0.81247919       0.03267161       0.12428994 </v>
   <v>       0.93762506       0.45407352       0.21159004 </v>
   <v>       0.18793508       0.62210599       0.52155704 </v>
   <v>       0.06264353       0.70665235       0.34518162 </v>
   <v>       0.18817103       0.61574059       0.16645065 </v>
   <v>       0.81149830       0.87104030       0.52157470 </v>
   <v>       0.43765378       0.28295920       0.12429189 </v>
   <v>       0.93777356       0.96171696       0.83361106 </v>
   <v>       0.43732993       0.78813248       0.25601092 </v>
   <v>       0.81262503       0.03924198       0.74398953 </v>
   <v>       0.93764081       0.45444549       0.69962133 </v>
   <v>       0.56309376       0.54468072       0.87581066 </v>
   <v>       0.68762062       0.29078401       0.38943343 </v>
   <v>       0.93735403       0.11612582       0.16654036 </v>
   <v>       0.06284395       0.20563272       0.47854535 </v>
   <v>       0.18751464       0.62107169       0.65492623 </v>
   <v>       0.56237510       0.53712129       0.61054439 </v>
   <v>       0.31224670       0.04505751       0.87558372 </v>
   <v>       0.18764208       0.12349164       0.30044147 </v>
   <v>       0.31240812       0.71246356       0.83349776 </v>
   <v>       0.56269415       0.53857160       0.25605051 </v>
   <v>       0.56260446       0.20457818       0.56565496 </v>
   <v>       0.43775259       0.28744763       0.61058771 </v>
   <v>       0.18739021       0.95448210       0.69965292 </v>
   <v>       0.68746405       0.62327539       0.30043595 </v>
   <v>       0.06256940       0.87335238       0.43476791 </v>
   <v>       0.68760617       0.45623099       0.47839369 </v>
   <v>       0.81210279       0.87328410       0.43438472 </v>
   <v>       0.81251666       0.87415405       0.78848169 </v>
   <v>       0.43736791       0.95430800       0.56537442 </v>
   <v>       0.06247804       0.20359838       0.21155768 </v>
   <v>       0.31258003       0.87133508       0.65493917 </v>
   <v>       0.56240027       0.70427397       0.56566767 </v>
   <v>       0.56253162       0.37114830       0.65484238 </v>
   <v>       0.06244584       0.70366915       0.21153484 </v>
   <v>       0.56230379       0.53070131       0.12434247 </v>
   <v>       0.68783742       0.61555105       0.16637601 </v>
   <v>       0.81227326       0.87135065       0.65487756 </v>
   <v>       0.18762703       0.28972284       0.74395183 </v>
   <v>       0.56249382       0.37314628       0.43446023 </v>
   <v>       0.06225072       0.03942112       0.74401075 </v>
   <v>       0.56214267       0.04467642       0.87553812 </v>
   <v>       0.68741205       0.45652810       0.34511948 </v>
   <v>       0.18769702       0.12324498       0.43421500 </v>
   <v>       0.31241286       0.70447258       0.56564299 </v>
   <v>       0.18750631       0.12428450       0.78851551 </v>
   <v>       0.06248403       0.87357783       0.30045581 </v>
   <v>       0.18757509       0.45640673       0.47851660 </v>
   <v>       0.18828830       0.78332472       0.12415325 </v>
   <v>       0.68767596       0.12334213       0.30044937 </v>
   <v>       0.81281475       0.54090192       0.38949807 </v>
   <v>       0.56253011       0.70374162       0.21154771 </v>
   <v>       0.43755012       0.62310629       0.30030757 </v>
   <v>       0.18754368       0.46233167       0.83356979 </v>
   <v>       0.81263005       0.70562518       0.47848007 </v>
   <v>       0.56214949       0.87341996       0.30050631 </v>
   <v>       0.43744872       0.45636353       0.34511018 </v>
   <v>       0.56262812       0.70644922       0.34518226 </v>
   <v>       0.56278690       0.53947567       0.74406273 </v>
   <v>       0.18782618       0.12191812       0.52157924 </v>
   <v>       0.31261917       0.20716226       0.34513948 </v>
   <v>       0.18764454       0.78937606       0.74404740 </v>
   <v>       0.06247476       0.20419839       0.56572175 </v>
   <v>       0.43747798       0.62179883       0.52154238 </v>
   <v>       0.06250044       0.20680140       0.34504949 </v>
   <v>       0.68769027       0.95452274       0.69964059 </v>
   <v>       0.31241088       0.37111072       0.65486819 </v>
   <v>       0.93734254       0.45444369       0.56547530 </v>
   <v>       0.06291681       0.03892045       0.25588176 </v>
   <v>       0.31242199       0.20326193       0.21174400 </v>
   <v>       0.43751482       0.45443546       0.69964028 </v>
   <v>       0.18773416       0.62272398       0.43412723 </v>
   <v>       0.43751921       0.95602670       0.47856964 </v>
   <v>       0.31250553       0.86555589       0.16575147 </v>
   <v>       0.93731624       0.28932281       0.74414249 </v>
   <v>       0.18730677       0.78728709       0.61075404 </v>
   <v>       0.18766159       0.29080887       0.38927618 </v>
   <v>       0.06270943       0.87173612       0.52155278 </v>
   <v>       0.56220111       0.03911404       0.25594469 </v>
   <v>       0.81234038       0.70366847       0.21175237 </v>
   <v>       0.68739300       0.46252366       0.83422912 </v>
   <v>       0.93743103       0.95618945       0.47854448 </v>
   <v>       0.06220494       0.37142061       0.52157242 </v>
  </varray>
 </structure>
 <calculation>
  <scstep>
   <time name="dav">  147.40  147.40</time>
   <time name="total">  147.84  147.84</time>
   <energy>
    <i name="alphaZ">  16277.55763135 </i>
    <i name="ewald"> 718333.63357237 </i>
    <i name="hartreedc">-908678.22719685 </i>
    <i name="XCdc">  -6529.96359131 </i>
    <i name="pawpsdc"> 162148.49262465 </i>
    <i name="pawaedc">-159453.03229289 </i>
    <i name="eentropy">     -0.97217852 </i>
    <i name="bandstr">  39764.96099654 </i>
    <i name="atom"> 168497.18126305 </i>
    <i name="e_fr_energy">  30359.63082839 </i>
    <i name="e_wo_entrp">  30360.60300691 </i>
    <i name="e_0_energy">  30360.11691765 </i>
   </energy>
  </scstep>
  <scstep>
   <time name="dav">  141.51  141.51</time>
   <time name="total">  141.51  141.51</time>
   <energy>
    <i name="e_fr_energy">   1516.90310668 </i>
    <i name="e_wo_entrp">   1518.28348751 </i>
    <i name="e_0_energy">   1517.59329710 </i>
   </energy>
  </scstep>
  <scstep>
   <time name="dav">  176.39  176.38</time>
   <time name="total">  176.39  176.39</time>
   <energy>
    <i name="e_fr_energy">  -1898.82937191 </i>
    <i name="e_wo_entrp">  -1895.27459386 </i>
    <i name="e_0_energy">  -1897.05198288 </i>
   </energy>
  </scstep>
  <scstep>
   <time name="dav">  218.07  218.07</time>
   <time name="total">  218.08  218.07</time>
   <energy>
    <i name="e_fr_energy">  -2610.83429640 </i>
    <i name="e_wo_entrp">  -2607.33799764 </i>
    <i name="e_0_energy">  -2609.08614702 </i>
   </energy>
  </scstep>
  <scstep>
   <time name="dav">  208.68  208.68</time>
   <time name="total">  213.74  213.74</time>
   <energy>
    <i name="e_fr_energy">  -2740.32930188 </i>
    <i name="e_wo_entrp">  -2736.73617207 </i>
    <i name="e_0_energy">  -2738.53273698 </i>
   </energy>
  </scstep>
  <scstep>
   <time name="diag">   31.69   31.69</time>
   <time name="diis">   75.89   75.89</time>
   <time name="orth">    8.70    8.70</time>
   <time name="total">  121.36  121.36</time>
   <energy>
    <i name="e_fr_energy">  -6597.64036993 </i>
    <i name="e_wo_entrp">  -6594.46546307 </i>
    <i name="e_0_energy">  -6596.05291650 </i>
   </energy>
  </scstep>
  <scstep>
   <time name="diag">   31.06   31.06</time>
   <time name="diis">   77.87   77.87</time>
   <time name="orth">    8.60    8.60</time>
   <time name="total">  122.66  122.66</time>
   <energy>
    <i name="e_fr_energy">  -5132.98762889 </i>
    <i name="e_wo_entrp">  -5127.88284973 </i>
    <i name="e_0_energy">  -5130.43523931 </i>
   </energy>
  </scstep>
  <scstep>
[...]
   <v>      -0.02301954      -0.00087305      -0.01532029 </v>
   <v>       0.01390638       0.00523749      -0.03317662 </v>
   <v>      -0.00020681      -0.00139437      -0.02145865 </v>
   <v>      -0.01503419       0.01580221       0.00171509 </v>
   <v>       0.00659316      -0.00092379       0.02989207 </v>
   <v>      -0.01018428      -0.02405710      -0.04425887 </v>
   <v>      -0.02034758       0.00940209       0.01991895 </v>
   <v>      -0.00050302       0.00745403       0.06654668 </v>
   <v>      -0.07192042      -0.05733488      -0.01351067 </v>
   <v>      -0.00684509       0.02495144      -0.00059864 </v>
   <v>      -0.00050924      -0.02846717       0.06305184 </v>
   <v>       0.00200424       0.01202558      -0.03678681 </v>
   <v>      -0.00062923       0.03047257      -0.02354347 </v>
   <v>      -0.00642448      -0.02245567       0.01729184 </v>
   <v>       0.01676965      -0.01788822      -0.03333152 </v>
   <v>      -0.00099106      -0.01344278       0.01118945 </v>
   <v>      -0.00511920       0.01980015      -0.01632962 </v>
   <v>      -0.00540833      -0.01547972      -0.01139068 </v>
   <v>      -0.01712941       0.02046196      -0.01465835 </v>
   <v>      -0.00421844      -0.03755372       0.05730430 </v>
   <v>       0.00192211      -0.00611532      -0.01633556 </v>
   <v>      -0.00012642       0.03606675      -0.05238697 </v>
   <v>      -0.01579930      -0.03580015      -0.03411945 </v>
   <v>       0.00717392       0.00028262       0.01384219 </v>
   <v>       0.00649474      -0.02174249       0.00230158 </v>
   <v>      -0.00290636       0.02347498      -0.03262243 </v>
   <v>      -0.00193566      -0.03525399       0.06070333 </v>
   <v>      -0.00844037       0.02739467      -0.02460379 </v>
   <v>       0.00646386      -0.01082966      -0.01338781 </v>
   <v>       0.00851763       0.03819901       0.03053714 </v>
   <v>       0.00888500      -0.00110006      -0.03429774 </v>
   <v>       0.00015227      -0.00513408       0.00123642 </v>
   <v>       0.00227674       0.00905925      -0.01271306 </v>
   <v>      -0.01748780       0.00195559      -0.01554000 </v>
   <v>      -0.00165599      -0.03575095      -0.00243321 </v>
   <v>       0.03937149      -0.01219716      -0.02452145 </v>
   <v>       0.00043723      -0.00484886      -0.02708928 </v>
   <v>       0.00636470       0.03823178      -0.00885742 </v>
   <v>      -0.00450440      -0.00176590      -0.02702372 </v>
   <v>      -0.00626125      -0.00358091      -0.01374206 </v>
   <v>      -0.00504065      -0.00413633       0.00122675 </v>
   <v>       0.00508066       0.01148911      -0.01096827 </v>
   <v>       0.00645520      -0.01245891       0.00797376 </v>
   <v>       0.00145441       0.00660147      -0.02764445 </v>
   <v>       0.00945013      -0.04898756       0.05411304 </v>
   <v>      -0.00412290       0.03431007      -0.04801233 </v>
   <v>      -0.00756151      -0.01877283      -0.01190342 </v>
   <v>      -0.00259958      -0.01610399       0.00206745 </v>
   <v>      -0.00345757      -0.01779750       0.06491715 </v>
   <v>      -0.01002976       0.00855230      -0.01013989 </v>
   <v>      -0.00633863      -0.01277901       0.00290473 </v>
   <v>       0.00845766       0.02801624       0.01400283 </v>
   <v>       0.00000386       0.01600390      -0.03397291 </v>
   <v>      -0.01128594       0.03379026       0.03045112 </v>
   <v>      -0.02002336       0.02699920       0.00075244 </v>
   <v>       0.00600298       0.00238989       0.00261259 </v>
   <v>       0.00841807      -0.01532829       0.04872046 </v>
   <v>       0.00950709       0.05033251       0.04431631 </v>
   <v>      -0.00150614      -0.02918520       0.08657213 </v>
   <v>      -0.00736832      -0.00758016       0.04783454 </v>
   <v>       0.00214455       0.02142687       0.00119359 </v>
   <v>       0.00813021       0.00684253      -0.00587699 </v>
   <v>      -0.00863909      -0.00539303       0.02547769 </v>
   <v>      -0.00720424       0.03615506       0.03458623 </v>
   <v>      -0.00019030       0.01475586      -0.01582786 </v>
   <v>      -0.00204904      -0.01145255      -0.03171516 </v>
   <v>       0.00709576      -0.01242766      -0.01556910 </v>
   <v>       0.00327955      -0.03441549       0.05490803 </v>
   <v>       0.00079543       0.00117435      -0.02718643 </v>
   <v>      -0.01851706       0.00692135      -0.01448572 </v>
   <v>       0.00719416      -0.02404467       0.00112677 </v>
   <v>       0.00856056      -0.03327236      -0.00500199 </v>
   <v>      -0.00001236       0.00939261      -0.03667308 </v>
   <v>       0.00207935      -0.02698217       0.00062517 </v>
   <v>       0.00151564      -0.00130703      -0.02290551 </v>
   <v>       0.00242321       0.01230661      -0.04271169 </v>
   <v>       0.00126670      -0.00959386       0.03961797 </v>
   <v>      -0.03235462       0.02357486       0.03479360 </v>
   <v>      -0.00018620       0.00903358       0.02890769 </v>
   <v>      -0.00067736       0.02406923      -0.00625320 </v>
   <v>      -0.00822566      -0.00065602      -0.01166325 </v>
   <v>       0.01102349       0.00375209       0.00131781 </v>
   <v>      -0.00702483       0.01758296      -0.00641775 </v>
   <v>      -0.00762893      -0.00156064       0.01832791 </v>
   <v>      -0.00344044       0.00866227      -0.05782366 </v>
   <v>       0.00349807       0.04200874      -0.02490943 </v>
   <v>       0.01471294      -0.00707614      -0.01811842 </v>
   <v>       0.00258949       0.00251256       0.03029742 </v>
   <v>      -0.03595657       0.04357411       0.03003603 </v>
   <v>      -0.01086703      -0.01401429      -0.02158846 </v>
   <v>      -0.00113725      -0.00706620      -0.02888135 </v>
   <v>       0.01563691       0.00281462      -0.01826530 </v>
   <v>       0.00188942      -0.00602107      -0.00990731 </v>
   <v>       0.00931529       0.00136864      -0.02043951 </v>
   <v>      -0.00188748      -0.00363755       0.04073500 </v>
   <v>      -0.00246187       0.00395252      -0.00805973 </v>
   <v>       0.00805298      -0.02011681       0.00083107 </v>
   <v>       0.00008819      -0.01181254       0.03973825 </v>
   <v>      -0.00279438      -0.00054544      -0.02840296 </v>
   <v>       0.00003857       0.02944526      -0.00711478 </v>
   <v>       0.00439586       0.00868720      -0.04016317 </v>
   <v>       0.00607697      -0.00345315      -0.03005714 </v>
   <v>       0.03456865      -0.01986800       0.04471105 </v>
   <v>      -0.01325990      -0.02990375       0.07594268 </v>
   <v>       0.02865013      -0.05145481      -0.02260898 </v>
   <v>       0.05272318      -0.03415892       0.08493554 </v>
   <v>       0.00645891      -0.03293636      -0.00161003 </v>
   <v>       0.00058429      -0.00931151      -0.06136607 </v>
   <v>       0.00188352       0.00393420      -0.00368442 </v>
   <v>       0.04097834      -0.00778698      -0.07066813 </v>
   <v>      -0.00147101       0.01029905      -0.03548405 </v>
   <v>      -0.00099004       0.00114920       0.02205350 </v>
   <v>      -0.04529125       0.01365642       0.02576435 </v>
   <v>      -0.00060502       0.00187370      -0.01317099 </v>
   <v>      -0.00372817       0.01918441      -0.00157309 </v>
   <v>      -0.00781820      -0.02575718       0.00071209 </v>
   <v>       0.01273380       0.02668298       0.02970675 </v>
   <v>      -0.00591572      -0.01976583       0.04529741 </v>
   <v>       0.00584124       0.00875807      -0.03855308 </v>
   <v>       0.00398170       0.00562596       0.00305468 </v>
   <v>      -0.00347543      -0.00967011      -0.02231846 </v>
   <v>      -0.01370864       0.02830276       0.00362694 </v>
   <v>      -0.00363665       0.02358457       0.00402889 </v>
   <v>       0.00444492      -0.03809149      -0.00124426 </v>
   <v>       0.00506919       0.03766223      -0.03391499 </v>
   <v>       0.00391905       0.02422971      -0.01756196 </v>
   <v>       0.00313951      -0.00783389      -0.01086292 </v>
   <v>       0.00259061      -0.01218537       0.00011073 </v>
   <v>      -0.00330082      -0.00562982       0.01541259 </v>
   <v>      -0.01021017       0.04454825      -0.00823624 </v>
   <v>      -0.01376669       0.00499345      -0.01577766 </v>
   <v>       0.00046180      -0.00794860       0.02895921 </v>
   <v>       0.00291566       0.01317076       0.00876528 </v>
   <v>      -0.00596960      -0.02243285       0.05301781 </v>
   <v>       0.00128014      -0.02478951       0.04440662 </v>
   <v>       0.00362154       0.03370293      -0.01575059 </v>
   <v>      -0.00020631      -0.03150531      -0.00384695 </v>
   <v>       0.00087870      -0.00090896      -0.02992327 </v>
   <v>      -0.00488629      -0.00164062      -0.01498835 </v>
   <v>       0.01193396      -0.03071847       0.05064590 </v>
   <v>       0.00132268       0.00584168      -0.00564846 </v>
   <v>       0.00378322       0.03847361       0.00192760 </v>
   <v>      -0.00302495      -0.02061605      -0.02125177 </v>
   <v>      -0.00418844       0.01604033      -0.01553551 </v>
   <v>      -0.03990932       0.04603331      -0.05686828 </v>
   <v>       0.01521480      -0.03536590      -0.00247003 </v>
   <v>      -0.00391157       0.03409844      -0.02861527 </v>
   <v>       0.04719333      -0.01986097       0.04228670 </v>
   <v>      -0.00927766      -0.02879350       0.04021438 </v>
   <v>      -0.00071612      -0.01641433       0.00602430 </v>
   <v>       0.00910611       0.02915304      -0.01679981 </v>
   <v>       0.00305247       0.01985383      -0.02321107 </v>
   <v>      -0.00411956      -0.01302267      -0.03116284 </v>
   <v>       0.00771921      -0.00069809      -0.01462944 </v>
   <v>      -0.00124052      -0.00358084       0.01202220 </v>
   <v>      -0.01012684      -0.01618846       0.07242999 </v>
   <v>      -0.00043508      -0.01123537      -0.04624164 </v>
   <v>       0.00565452       0.00552266       0.01419487 </v>
   <v>      -0.00003906       0.00563631       0.02479205 </v>
   <v>      -0.00519433       0.01317400      -0.02137407 </v>
   <v>       0.01271835      -0.01211843       0.05563998 </v>
   <v>      -0.00448205       0.02690278       0.03561559 </v>
   <v>      -0.00165910       0.03616202      -0.02340139 </v>
   <v>      -0.02098705      -0.02782833       0.05591908 </v>
   <v>       0.00431359      -0.01797642       0.06662548 </v>
   <v>      -0.00768120       0.03038073       0.01569769 </v>
   <v>      -0.00582333       0.01384550      -0.01769865 </v>
   <v>      -0.00361765       0.01267750       0.03353560 </v>
   <v>       0.00111845       0.00755444      -0.03452276 </v>
   <v>       0.00994825      -0.00455251      -0.02826359 </v>
   <v>      -0.01808932      -0.03330014      -0.00559745 </v>
   <v>       0.00072843      -0.00426415      -0.04628355 </v>
   <v>      -0.00157790       0.03914804       0.00792894 </v>
   <v>      -0.02476972      -0.02999259      -0.04002127 </v>
   <v>       0.00278688      -0.02661056       0.05253957 </v>
   <v>       0.00127961      -0.01091625       0.05807504 </v>
   <v>       0.00234888       0.00515537      -0.00610121 </v>
   <v>      -0.00162514       0.03756266      -0.03379603 </v>
   <v>       0.00834555       0.02101361      -0.00448357 </v>
   <v>      -0.00824207       0.00942867      -0.00837610 </v>
   <v>      -0.00711063      -0.02044314      -0.03156577 </v>
   <v>       0.00393290       0.01240817      -0.04458507 </v>
   <v>       0.01739642      -0.03614292      -0.03413875 </v>
   <v>       0.00277800      -0.00196608       0.01188964 </v>
   <v>       0.01117643      -0.03013831       0.08576877 </v>
   <v>      -0.01107772      -0.01609608       0.06456914 </v>
   <v>      -0.00089286       0.04237727      -0.02694144 </v>
   <v>       0.00700121       0.00697122      -0.01781469 </v>
   <v>      -0.01338606      -0.02519269      -0.02626902 </v>
   <v>       0.01031112      -0.01320064       0.01772028 </v>
   <v>      -0.01129218       0.03166290      -0.01870352 </v>
   <v>      -0.00071223      -0.00243614      -0.01373674 </v>
   <v>       0.01104695       0.00933439      -0.00857571 </v>
   <v>       0.00791888       0.00867358      -0.01699446 </v>
   <v>       0.00286557      -0.00207387      -0.03684457 </v>
   <v>      -0.00073195      -0.00207983       0.04574665 </v>
   <v>       0.00068231       0.00572736      -0.00889238 </v>
   <v>       0.03887491      -0.00979246      -0.00501762 </v>
   <v>       0.00867551      -0.00658159      -0.02172380 </v>
   <v>      -0.00293014      -0.02431475      -0.00103732 </v>
   <v>       0.01570787      -0.02813193       0.00052275 </v>
   <v>       0.01025025       0.00787802       0.01534013 </v>
   <v>      -0.00899724       0.02863746      -0.00859687 </v>
   <v>       0.00686740      -0.00814445      -0.00777307 </v>
   <v>      -0.00424386       0.03682380      -0.03503646 </v>
   <v>      -0.00680486       0.01993191      -0.00818258 </v>
   <v>       0.00046529       0.00971757      -0.04208471 </v>
   <v>       0.00759666      -0.02201030       0.04902315 </v>
   <v>      -0.00298082       0.02050768      -0.02909802 </v>
   <v>      -0.00620658      -0.01429093      -0.01303022 </v>
   <v>      -0.00414256      -0.00544293      -0.01993347 </v>
   <v>      -0.00465752      -0.01130633      -0.02122068 </v>
   <v>       0.00531547      -0.02237154      -0.00552947 </v>
   <v>       0.00518503      -0.01897750       0.05326393 </v>
   <v>      -0.01134816       0.00058795      -0.00860809 </v>
   <v>       0.01941258      -0.00671186      -0.01761278 </v>
   <v>       0.00041680      -0.03493469       0.00034102 </v>
   <v>      -0.00465626       0.00109773       0.02834847 </v>
   <v>      -0.03174503       0.06847441       0.03458418 </v>
   <v>       0.01246732       0.02859103      -0.00955515 </v>
   <v>       0.01040963      -0.00084598       0.03071940 </v>
   <v>       0.00575807       0.01253578       0.00566349 </v>
   <v>       0.00334591       0.02567443      -0.01424824 </v>
   <v>       0.00081296      -0.00721767       0.04161333 </v>
   <v>      -0.00434954       0.01536529      -0.02599526 </v>
   <v>      -0.00854000      -0.03306868       0.03306120 </v>
   <v>      -0.00362689       0.00718224       0.03930221 </v>
   <v>       0.01214070      -0.01820545       0.05416228 </v>
   <v>       0.00855293      -0.02811141       0.05718622 </v>
   <v>      -0.00164144      -0.00216156      -0.02550257 </v>
   <v>      -0.01454879       0.03299909      -0.02980661 </v>
   <v>       0.01309145      -0.02870957       0.02702436 </v>
   <v>      -0.00392672      -0.00183154      -0.00743522 </v>
   <v>      -0.00353898      -0.00024726      -0.02925567 </v>
   <v>      -0.01456430       0.03300687      -0.02304147 </v>
   <v>      -0.01562966      -0.03401498       0.03905635 </v>
   <v>       0.00262220      -0.00827825      -0.03436529 </v>
   <v>      -0.00257077       0.04136838      -0.02498812 </v>
   <v>      -0.01059744       0.01225931      -0.00824229 </v>
   <v>       0.00698954       0.01992885      -0.00906256 </v>
   <v>      -0.00081881       0.02024127       0.01838036 </v>
   <v>      -0.00230092       0.00577155      -0.05454218 </v>
   <v>      -0.00545745      -0.00296991       0.01550600 </v>
   <v>      -0.01292925      -0.02252635       0.04730445 </v>
   <v>       0.00128217      -0.00953003       0.03278333 </v>
   <v>       0.00092211      -0.01966125      -0.00373910 </v>
   <v>       0.00108804      -0.01004140       0.01079613 </v>
   <v>      -0.00201418      -0.01560893       0.01006054 </v>
   <v>      -0.02676530       0.02753711      -0.01837295 </v>
   <v>       0.00927464       0.02644247      -0.00585022 </v>
   <v>      -0.00453499       0.02568933       0.01039662 </v>
   <v>       0.00234213       0.02278917       0.00813859 </v>
   <v>       0.00493340       0.00694772       0.02329128 </v>
   <v>       0.02063965      -0.00030815      -0.02257421 </v>
  </varray>
  <varray name="stress" >
   <v>      -5.19099369      -0.02112775       0.01230440 </v>
   <v>      -0.02112799      -3.38812669      -2.05744856 </v>
   <v>       0.01230432      -2.05744837     -21.65592786 </v>
  </varray>
  <energy>
   <i name="e_fr_energy">  -2326.00153900 </i>
   <i name="e_wo_entrp">  -2323.22964822 </i>
   <i name="e_0_energy">     -5.54378156 </i>
  </energy>
  <time name="totalsc"> 2775.98 2775.95</time>
 </calculation>
 <calculation>
  <scstep>
   <time name="dav">  135.70  135.70</time>
   <time name="total">  141.14  141.13</time>
   <energy>
    <i name="alphaZ">  16277.55763135 </i>
    <i name="ewald"> 735748.61091427 </i>
    <i name="hartreedc">-922896.57327918 </i>
    <i name="XCdc">  -6675.19966069 </i>
    <i name="pawpsdc"> 201022.18762594 </i>
    <i name="pawaedc">-198576.53575573 </i>
    <i name="eentropy">     -5.53678136 </i>
    <i name="bandstr">   4282.32230208 </i>
    <i name="atom"> 168497.18126305 </i>
    <i name="e_fr_energy">  -2325.98574026 </i>
    <i name="e_wo_entrp">  -2320.44895890 </i>
    <i name="e_0_energy">  -2323.21734958 </i>
   </energy>
  </scstep>
  <scstep>
   <time name="diag">   29.99   29.99</time>
   <time name="diis">   48.96   48.96</time>
   <time name="orth">    9.68    9.68</time>
   <time name="total">   93.93   93.93</time>
   <energy>
    <i name="e_fr_energy">  -2343.06332081 </i>
    <i name="e_wo_entrp">  -2337.36354626 </i>
    <i name="e_0_energy">  -2340.21343354 </i>
   </energy>
  </scstep>
  <scstep>
   <time name="diag">   28.88   28.88</time>
   <time name="diis">   46.39   46.39</time>
   <time name="orth">    8.68    8.68</time>
   <time name="total">   89.37   89.36</time>
   <energy>
    <i name="e_fr_energy">  -2327.42578806 </i>
    <i name="e_wo_entrp">  -2321.85835666 </i>
    <i name="e_0_energy">  -2324.64207236 </i>
   </energy>
  </scstep>
  <scstep>
   <time name="diag">   29.01   29.01</time>
   <time name="diis">   45.02   45.02</time>
   <time name="orth">    8.90    8.90</time>
   <time name="total">   88.36   88.36</time>
   <energy>
    <i name="e_fr_energy">  -2326.34797479 </i>
    <i name="e_wo_entrp">  -2320.83580596 </i>
    <i name="e_0_energy">  -2323.59189038 </i>
   </energy>
  </scstep>
  <scstep>
   <time name="diag">   29.28   29.28</time>
   <time name="diis">   59.36   59.36</time>
   <time name="orth">    8.93    8.93</time>
   <time name="total">  103.60  103.59</time>
   <energy>
    <i name="e_fr_energy">  -2330.06549069 </i>
    <i name="e_wo_entrp">  -2324.43907343 </i>
    <i name="e_0_energy">  -2327.25228206 </i>
   </energy>
  </scstep>
  <scstep>
   <time name="diag">   30.96   30.96</time>
   <time name="diis">   47.72   47.72</time>
   <time name="orth">    8.65    8.65</time>
   <time name="total">   93.08   93.08</time>
   <energy>
    <i name="e_fr_energy">  -2326.67112747 </i>
    <i name="e_wo_entrp">  -2321.09071184 </i>
    <i name="e_0_energy">  -2323.88091965 </i>
   </energy>
  </scstep>
  <scstep>
   <time name="diag">   30.16   30.16</time>
   <time name="diis">   44.94   44.94</time>
   <time name="orth">    9.01    9.01</time>
   <time name="total">   89.54   89.54</time>
   <energy>
    <i name="e_fr_energy">  -2326.80755808 </i>
    <i name="e_wo_entrp">  -2321.26901136 </i>
    <i name="e_0_energy">  -2324.03828472 </i>
   </energy>
  </scstep>
  <scstep>
   <time name="diag">   29.14   29.14</time>
   <time name="diis">   46.11   46.11</time>
   <time name="orth">    9.29    9.29</time>
   <time name="total">   89.94   89.94</time>
   <energy>
    <i name="e_fr_energy">  -2326.31591019 </i>
    <i name="e_wo_entrp">  -2320.79030656 </i>
    <i name="e_0_energy">  -2323.55310838 </i>
   </energy>
  </scstep>
  <scstep>
   <time name="diag">   29.70   29.69</time>
   <time name="diis">   45.82   45.82</time>
   <time name="orth">    8.57    8.57</time>
   <time name="total">   89.85   89.85</time>
  