unknown system                          
            1
     9.726678    0.000000    0.000000
     0.000000    8.423550    0.000000
     0.000000    0.000000   45.000000
   Fe   Mn
 273  15
Direct configuration=     1
   0.43744822  0.11510637  0.16632811
   0.93745306  0.95444520  0.56529496
   0.68762634  0.62455545  0.78849215
   0.68749113  0.12112963  0.65473822
   0.68765943  0.12454600  0.78853343
   0.56245442  0.04041557  0.38936752
   0.31241761  0.03749223  0.61066975
   0.31243626  0.03186135  0.12403736
   0.81241312  0.37319391  0.43430662
   0.06239727  0.54050624  0.38932292
   0.18735014  0.28863157  0.25598421
   0.81245507  0.20686060  0.34518651
   0.68767278  0.62185578  0.52157786
   0.43745748  0.46161455  0.83351931
   0.93717432  0.12318747  0.30040428
   0.06261937  0.03657824  0.61059373
   0.06288104  0.04498339  0.87562057
   0.56298840  0.71217863  0.83352444
   0.31239849  0.04066559  0.38948709
   0.93754738  0.29576890  0.87565450
   0.93706622  0.62355276  0.43421573
   0.06263367  0.71221870  0.83345129
   0.43756725  0.78913763  0.74401505
   0.93688823  0.62221083  0.52161315
   0.31248188  0.87315932  0.43431671
   0.43775928  0.62417094  0.78848244
   0.56248667  0.87123286  0.65486087
   0.93737709  0.78805198  0.25603118
   0.06262946  0.87400057  0.78843298
   0.68721203  0.28959440  0.74400358
   0.68761280  0.79052917  0.38935243
   0.68735788  0.28859475  0.25599197
   0.68767017  0.12157391  0.52153975
   0.68773481  0.95488703  0.56577305
   0.81273952  0.70428451  0.56572600
   0.31222733  0.20458587  0.56569527
   0.31260261  0.53873231  0.25589406
   0.43773150  0.62361504  0.43446222
   0.56274230  0.37357385  0.30047116
   0.56287095  0.87152830  0.52155606
   0.56238806  0.20362488  0.21159814
   0.81252835  0.36582577  0.16659833
   0.56240964  0.37163621  0.52154182
   0.81180616  0.71201479  0.83349132
   0.68735527  0.95668806  0.34511850
   0.81252115  0.53216394  0.12415353
   0.43724371  0.62122622  0.65481706
   0.43765140  0.12340695  0.43453006
   0.81191030  0.37118114  0.52157309
   0.31237925  0.37338574  0.30034690
   0.06243641  0.21176605  0.83342287
   0.18749363  0.62423643  0.78853094
   0.43710855  0.96212761  0.83345518
   0.18738327  0.95723476  0.34503763
   0.43759948  0.28861496  0.25599500
   0.93712717  0.28281925  0.12430142
   0.81208586  0.54482269  0.87582232
   0.81270094  0.04022640  0.38948104
   0.93760815  0.12423560  0.78839151
   0.68754133  0.62089356  0.65483679
   0.93750055  0.95673159  0.34515670
   0.93629876  0.78315144  0.12434532
   0.43754719  0.78772508  0.61053669
   0.43824776  0.95403380  0.21172148
   0.81254227  0.53890231  0.25596302
   0.93738841  0.29102825  0.38930533
   0.68755907  0.28721955  0.61050712
   0.81258346  0.20474127  0.56572527
   0.06331837  0.54476201  0.87554971
   0.93698395  0.12252216  0.52159506
   0.81244023  0.53918503  0.74397225
   0.56251262  0.21281612  0.83348828
   0.31234134  0.53954343  0.74410206
   0.93738787  0.78934405  0.74409424
   0.43727380  0.79649873  0.87558001
   0.18766879  0.45444000  0.56560007
   0.68751802  0.12333121  0.43440516
   0.31251218  0.03839082  0.25596418
   0.18750263  0.11508971  0.16633509
   0.18725531  0.28293188  0.12428342
   0.43759592  0.28938256  0.74404143
   0.18750824  0.29554827  0.87563005
   0.81245625  0.70680373  0.34514923
   0.93730677  0.28705816  0.61055191
   0.56262181  0.87324819  0.43445633
   0.18741652  0.45377845  0.21148310
   0.31247076  0.53271552  0.12421324
   0.68732964  0.95361369  0.21149344
   0.93749135  0.46157780  0.83355336
   0.93775962  0.79677016  0.87559883
   0.56244782  0.20653506  0.34514062
   0.31225242  0.70563448  0.47852599
   0.81251562  0.86488895  0.16635801
   0.56300291  0.20631744  0.47840899
   0.81244286  0.20361510  0.21148735
   0.43747778  0.45434057  0.56553577
   0.81248623  0.37326912  0.30052317
   0.18668879  0.95409890  0.21171119
   0.81254868  0.03832277  0.25599190
   0.93740012  0.95482062  0.69979071
   0.31255012  0.03895878  0.74399978
   0.43771090  0.95674600  0.34511983
   0.68727837  0.78913380  0.74404247
   0.81249250  0.53710463  0.61063046
   0.93716998  0.12350478  0.43428347
   0.31283263  0.37435822  0.78844770
   0.31259114  0.70455698  0.69967290
   0.81286118  0.04455580  0.87559442
   0.06225441  0.53848130  0.25599121
   0.81255789  0.70504062  0.69964914
   0.18742972  0.62318710  0.30037558
   0.81217647  0.20634290  0.47844310
   0.81250074  0.87354560  0.30033516
   0.68763460  0.96242678  0.83350830
   0.93756185  0.78699599  0.61064953
   0.43756020  0.29566512  0.87566165
   0.56227045  0.54097267  0.38935390
   0.06213712  0.37343318  0.30040029
   0.06260860  0.53068161  0.12434498
   0.06240636  0.37116706  0.65482284
   0.56236787  0.03774572  0.61063349
   0.93759120  0.62334907  0.30031013
   0.56266477  0.70555230  0.47847200
   0.18785635  0.95484994  0.56569927
   0.56252690  0.20472954  0.69970791
   0.31266827  0.53744754  0.61061827
   0.18753669  0.79567760  0.87568454
   0.06226995  0.37324903  0.43481033
   0.43739460  0.45614494  0.47847157
   0.18720212  0.28717444  0.61047359
   0.56276107  0.87417882  0.78850389
   0.43676698  0.61574989  0.16644878
   0.06233932  0.53933195  0.74401946
   0.18749777  0.12111351  0.65475714
   0.68785230  0.45432202  0.69963849
   0.43772605  0.95455621  0.69971470
   0.06272025  0.70501141  0.47858199
   0.68766388  0.11611083  0.16653743
   0.31342414  0.37127304  0.52162748
   0.31199135  0.20633706  0.47851953
   0.56199370  0.37401939  0.78832291
   0.06224078  0.03185272  0.12423523
   0.68761788  0.62316646  0.43446411
   0.31283018  0.87126900  0.52163156
   0.06255237  0.70486102  0.69973607
   0.18765001  0.79036329  0.38927311
   0.68748263  0.95670935  0.47839753
   0.06249246  0.53693136  0.61054791
   0.18727661  0.96198427  0.83340853
   0.31240840  0.87410942  0.78844621
   0.93768280  0.95369348  0.21151449
   0.31229241  0.70705762  0.34505652
   0.56244771  0.70464288  0.69970981
   0.43764033  0.29117342  0.38933384
   0.68737545  0.78751658  0.61061456
   0.43662689  0.78329631  0.12416367
   0.31238568  0.70358204  0.21153282
   0.31158501  0.54459210  0.87553190
   0.68792668  0.28287629  0.12430953
   0.68747871  0.78813450  0.25601429
   0.93761057  0.28853229  0.25603004
   0.68755822  0.79535190  0.87569155
   0.31260084  0.87330579  0.30042326
   0.81258938  0.21266774  0.83351179
   0.31283358  0.37307742  0.43434676
   0.43758829  0.12335209  0.30035001
   0.31260715  0.54034929  0.38938612
   0.93721174  0.61561180  0.16637340
   0.18766813  0.45671849  0.34511635
   0.06236339  0.87155024  0.65485812
   0.43758243  0.12409348  0.78846662
   0.31253699  0.20454960  0.69967898
   0.81258306  0.03750489  0.61067424
   0.06258873  0.86639353  0.16638651
   0.18767381  0.78812656  0.25603574
   0.68733366  0.45401860  0.21158281
   0.56244876  0.03889703  0.74396116
   0.31228902  0.21183869  0.83341739
   0.43735928  0.12228380  0.52152343
   0.81295416  0.37391118  0.78833838
   0.81249626  0.37116215  0.65492219
   0.18764909  0.95685695  0.47842585
   0.56243911  0.86642183  0.16639467
   0.93733891  0.62399058  0.78843445
   0.68873357  0.78317022  0.12435173
   0.93733506  0.12141415  0.65491532
   0.81241270  0.20441325  0.69958143
   0.68759549  0.29591588  0.87582931
   0.06254704  0.04070464  0.38939163
   0.06219322  0.36625748  0.16628480
   0.56272323  0.03186972  0.12423956
   0.93740758  0.79058416  0.38944912
   0.43759796  0.79090869  0.38945520
   0.06227210  0.70362778  0.56565013
   0.56285118  0.36630254  0.16627981
   0.93746505  0.45635876  0.47853292
   0.93757079  0.62147318  0.65484833
   0.93744967  0.45628482  0.34507069
   0.31253184  0.36493122  0.16646903
   0.43755986  0.45385049  0.21149293
   0.43756206  0.12136232  0.65489031
   0.68766477  0.45433992  0.56557705
   0.18717826  0.45396760  0.69976584
   0.06268046  0.20421663  0.69962887
   0.06254652  0.37426418  0.78847006
   0.81247919  0.03267161  0.12428994
   0.93762506  0.45407352  0.21159004
   0.18793508  0.62210599  0.52155704
   0.06264353  0.70665235  0.34518162
   0.18817103  0.61574059  0.16645065
   0.81149830  0.87104030  0.52157470
   0.43765378  0.28295920  0.12429189
   0.93777356  0.96171696  0.83361106
   0.43732993  0.78813248  0.25601092
   0.81262503  0.03924198  0.74398953
   0.93764081  0.45444549  0.69962133
   0.56309376  0.54468072  0.87581066
   0.68762062  0.29078401  0.38943343
   0.93735403  0.11612582  0.16654036
   0.06284395  0.20563272  0.47854535
   0.18751464  0.62107169  0.65492623
   0.56237510  0.53712129  0.61054439
   0.31224670  0.04505751  0.87558372
   0.18764208  0.12349164  0.30044147
   0.31240812  0.71246356  0.83349776
   0.56269415  0.53857160  0.25605051
   0.56260446  0.20457818  0.56565496
   0.43775259  0.28744763  0.61058771
   0.18739021  0.95448210  0.69965292
   0.68746405  0.62327539  0.30043595
   0.06256940  0.87335238  0.43476791
   0.68760617  0.45623099  0.47839369
   0.81210279  0.87328410  0.43438472
   0.81251666  0.87415405  0.78848169
   0.43736791  0.95430800  0.56537442
   0.06247804  0.20359838  0.21155768
   0.31258003  0.87133508  0.65493917
   0.56240027  0.70427397  0.56566767
   0.56253162  0.37114830  0.65484238
   0.06244584  0.70366915  0.21153484
   0.56230379  0.53070131  0.12434247
   0.68783742  0.61555105  0.16637601
   0.81227326  0.87135065  0.65487756
   0.18762703  0.28972284  0.74395183
   0.56249382  0.37314628  0.43446023
   0.06225072  0.03942112  0.74401075
   0.56214267  0.04467642  0.87553812
   0.68741205  0.45652810  0.34511948
   0.18769702  0.12324498  0.43421500
   0.31241286  0.70447258  0.56564299
   0.18750631  0.12428450  0.78851551
   0.06248403  0.87357783  0.30045581
   0.18757509  0.45640673  0.47851660
   0.18828830  0.78332472  0.12415325
   0.68767596  0.12334213  0.30044937
   0.81281475  0.54090192  0.38949807
   0.56253011  0.70374162  0.21154771
   0.43755012  0.62310629  0.30030757
   0.18754368  0.46233167  0.83356979
   0.81263005  0.70562518  0.47848007
   0.56214949  0.87341996  0.30050631
   0.43744872  0.45636353  0.34511018
   0.56262812  0.70644922  0.34518226
   0.56278690  0.53947567  0.74406273
   0.18782618  0.12191812  0.52157924
   0.31261917  0.20716226  0.34513948
   0.18764454  0.78937606  0.74404740
   0.06247476  0.20419839  0.56572175
   0.43747798  0.62179883  0.52154238
   0.06250044  0.20680140  0.34504949
   0.68769027  0.95452274  0.69964059
   0.31241088  0.37111072  0.65486819
   0.93734254  0.45444369  0.56547530
   0.06291681  0.03892045  0.25588176
   0.31242199  0.20326193  0.21174400
   0.43751482  0.45443546  0.69964028
   0.18773416  0.62272398  0.43412723
   0.43751921  0.95602670  0.47856964
   0.31250553  0.86555589  0.16575147
   0.93731624  0.28932281  0.74414249
   0.18730677  0.78728709  0.61075404
   0.18766159  0.29080887  0.38927618
   0.06270943  0.87173612  0.52155278
   0.56220111  0.03911404  0.25594469
   0.81234038  0.70366847  0.21175237
   0.68739300  0.46252366  0.83422912
   0.93743103  0.95618945  0.47854448
   0.06220494  0.37142061  0.52157242
Direct configuration=     2
   0.43744628  0.11520421  0.16638171
   0.93744467  0.95445373  0.56530898
   0.68763046  0.62461659  0.78847396
   0.68749506  0.12111802  0.65473196
   0.68767246  0.12460198  0.78850940
   0.56245051  0.04034305  0.38936309
   0.31247078  0.03752154  0.61069239
   0.31243103  0.03193069  0.12405334
   0.81245757  0.37318943  0.43429093
   0.06237410  0.54047491  0.38932468
   0.18740486  0.28860104  0.25597627
   0.81243480  0.20684318  0.34521138
   0.68767315  0.62181878  0.52156211
   0.43748324  0.46150555  0.83347531
   0.93720475  0.12315127  0.30041129
   0.06258286  0.03660803  0.61061611
   0.06283138  0.04498595  0.87562416
   0.56299847  0.71202624  0.83347944
   0.31242197  0.04061216  0.38948849
   0.93750159  0.29567759  0.87565445
   0.93708212  0.62356344  0.43419579
   0.06264128  0.71207504  0.83339999
   0.43757726  0.78919635  0.74402146
   0.93692824  0.62221365  0.52158652
   0.31247674  0.87315142  0.43430069
   0.43775404  0.62422597  0.78846375
   0.56250139  0.87124517  0.65485566
   0.93738044  0.78800173  0.25601792
   0.06260406  0.87406802  0.78840667
   0.68722158  0.28962480  0.74399864
   0.68761225  0.79048987  0.38933630
   0.68737392  0.28856934  0.25598816
   0.68767118  0.12158891  0.52152097
   0.68769056  0.95488132  0.56579551
   0.81266575  0.70430850  0.56574439
   0.31225242  0.20459925  0.56571481
   0.31259867  0.53865759  0.25588936
   0.43772242  0.62360163  0.43444309
   0.56272090  0.37350393  0.30048571
   0.56286530  0.87160082  0.52153676
   0.56238282  0.20356821  0.21160807
   0.81253977  0.36595700  0.16664014
   0.56247762  0.37174127  0.52151696
   0.81179609  0.71184295  0.83344148
   0.68736849  0.95669943  0.34513880
   0.81253326  0.53229127  0.12417600
   0.43725156  0.62121253  0.65480663
   0.43763072  0.12339033  0.43450185
   0.81189405  0.37128533  0.52154460
   0.31239539  0.37334149  0.30035737
   0.06243082  0.21165552  0.83337640
   0.18748157  0.62430156  0.78851271
   0.43710904  0.96200868  0.83340656
   0.18739029  0.95725546  0.34505222
   0.43755457  0.28857594  0.25598697
   0.93713149  0.28284115  0.12431348
   0.81206539  0.54480003  0.87582370
   0.81270647  0.04015407  0.38946902
   0.93758417  0.12431065  0.78836516
   0.68753651  0.62090451  0.65482634
   0.93747334  0.95675620  0.34517635
   0.93632587  0.78311437  0.12435408
   0.43759251  0.78776231  0.61054814
   0.43821979  0.95396137  0.21172387
   0.81252975  0.53883578  0.25595900
   0.93736744  0.29095276  0.38930097
   0.68753962  0.28727153  0.61052627
   0.81252497  0.20473111  0.56574217
   0.06326761  0.54476287  0.87555574
   0.93699946  0.12249575  0.52156405
   0.81244024  0.53923979  0.74398014
   0.56253422  0.21271013  0.83344111
   0.31235321  0.53956338  0.74410578
   0.93738331  0.78941477  0.74409978
   0.43731517  0.79634684  0.87558307
   0.18770043  0.45447905  0.56560315
   0.68750794  0.12326475  0.43437961
   0.31250811  0.03834497  0.25596226
   0.18750095  0.11519283  0.16638868
   0.18723790  0.28297639  0.12429733
   0.43758882  0.28942183  0.74404025
   0.18750982  0.29546501  0.87562980
   0.81243892  0.70679463  0.34516537
   0.93726905  0.28708766  0.61057734
   0.56261080  0.87324026  0.43444346
   0.18740960  0.45372804  0.21149141
   0.31245800  0.53289140  0.12422859
   0.68731553  0.95350882  0.21149536
   0.93747277  0.46143986  0.83350321
   0.93771280  0.79662146  0.87559973
   0.56248358  0.20651906  0.34516093
   0.31231817  0.70566210  0.47852370
   0.81251989  0.86504047  0.16639522
   0.56298781  0.20626807  0.47842506
   0.81244667  0.20354280  0.21149656
   0.43751059  0.45440779  0.56555535
   0.81249970  0.37319137  0.30053890
   0.18671505  0.95402457  0.21171167
   0.81255169  0.03827285  0.25598945
   0.93738480  0.95489923  0.69978519
   0.31253336  0.03902917  0.74400513
   0.43772273  0.95675820  0.34513779
   0.68728876  0.78922507  0.74404697
   0.81243834  0.53714323  0.61065163
   0.93721195  0.12349947  0.43425658
   0.31281026  0.37440410  0.78842382
   0.31257263  0.70458271  0.69965437
   0.81284024  0.04458775  0.87559677
   0.06228699  0.53844012  0.25598195
   0.81255392  0.70508093  0.69964005
   0.18744690  0.62316411  0.30037586
   0.81219715  0.20627859  0.47845503
   0.81249753  0.87346163  0.30035033
   0.68764047  0.96228240  0.83345599
   0.93751640  0.78706293  0.61066358
   0.43759802  0.29559403  0.87566110
   0.56229816  0.54093819  0.38934783
   0.06215375  0.37337178  0.30041136
   0.06263904  0.53083404  0.12435336
   0.06241130  0.37114062  0.65482180
   0.56237565  0.03778340  0.61065302
   0.93758413  0.62329588  0.30032265
   0.56264669  0.70559139  0.47848386
   0.18787539  0.95484846  0.56571461
   0.56254650  0.20477170  0.69969378
   0.31271309  0.53748446  0.61063858
   0.18753945  0.79556301  0.87567788
   0.06229580  0.37322872  0.43479061
   0.43739908  0.45614023  0.47848390
   0.18723928  0.28721311  0.61049282
   0.56274445  0.87423276  0.78847788
   0.43677263  0.61587495  0.16649595
   0.06234118  0.53937549  0.74402923
   0.18750725  0.12109004  0.65475238
   0.68785342  0.45438407  0.69962883
   0.43773657  0.95464118  0.69970571
   0.06266360  0.70507238  0.47858637
   0.68767215  0.11622012  0.16658005
   0.31333091  0.37138868  0.52160614
   0.31199534  0.20626485  0.47851975
   0.56203254  0.37408098  0.78830826
   0.06221976  0.03194424  0.12425188
   0.68760918  0.62321234  0.43444219
   0.31278632  0.87134491  0.52160268
   0.06254064  0.70490748  0.69972185
   0.18763215  0.79035301  0.38926623
   0.68749277  0.95663687  0.47841313
   0.06249218  0.53696917  0.61057433
   0.18728592  0.96183711  0.83335683
   0.31240794  0.87416695  0.78842056
   0.93769609  0.95359036  0.21151673
   0.31232113  0.70706541  0.34507327
   0.56246729  0.70467746  0.69969361
   0.43767399  0.29108551  0.38932783
   0.68735803  0.78755447  0.61062684
   0.43661805  0.78326418  0.12417409
   0.31238471  0.70351094  0.21154249
   0.31164644  0.54459438  0.87553781
   0.68794827  0.28289674  0.12432262
   0.68748265  0.78807876  0.25600610
   0.93758749  0.28850550  0.25602752
   0.68755187  0.79522263  0.87568519
   0.31260053  0.87323757  0.30043650
   0.81258768  0.21255545  0.83346118
   0.31280446  0.37307251  0.43433513
   0.43759457  0.12331688  0.30035853
   0.31261415  0.54034284  0.38938815
   0.93721671  0.61571315  0.16641968
   0.18765182  0.45673677  0.34512548
   0.06236406  0.87152788  0.65485536
   0.43758869  0.12414911  0.78844130
   0.31253501  0.20459895  0.69966462
   0.81254810  0.03752677  0.61069450
   0.06258423  0.86650547  0.16643736
   0.18768671  0.78809172  0.25602450
   0.68731421  0.45399153  0.21159189
   0.56246264  0.03898419  0.74396602
   0.31229780  0.21173404  0.83337245
   0.43735780  0.12224376  0.52149656
   0.81293199  0.37397917  0.78832079
   0.81248684  0.37114273  0.65491467
   0.18770374  0.95674842  0.47843856
   0.56243737  0.86652755  0.16644540
   0.93733177  0.62404468  0.78840979
   0.68871332  0.78313653  0.12436056
   0.93732534  0.12140180  0.65491020
   0.81240483  0.20446105  0.69957248
   0.68758533  0.29585581  0.87582875
   0.06252126  0.04063995  0.38939329
   0.06215324  0.36640367  0.16633547
   0.56273753  0.03194940  0.12425646
   0.93737846  0.79057651  0.38944214
   0.43762526  0.79087897  0.38944199
   0.06230186  0.70365221  0.56566435
   0.56288233  0.36643539  0.16633240
   0.93740884  0.45628257  0.47855250
   0.93756102  0.62146629  0.65484568
   0.93744331  0.45628650  0.34508618
   0.31251856  0.36513102  0.16651065
   0.43755820  0.45379167  0.21150426
   0.43756476  0.12136329  0.65488255
   0.68761723  0.45442183  0.56558175
   0.18716918  0.45403066  0.69975215
   0.06266007  0.20426745  0.69961759
   0.06252690  0.37431280  0.78844386
   0.81249571  0.03277540  0.12429674
   0.93765165  0.45404515  0.21159396
   0.18790508  0.62207961  0.52154384
   0.06262342  0.70666979  0.34519927
   0.18815053  0.61586398  0.16649606
   0.81152833  0.87112995  0.52155028
   0.43764736  0.28299201  0.12430586
   0.93778167  0.96159874  0.83355503
   0.43731818  0.78810003  0.25599994
   0.81262082  0.03933868  0.74399676
   0.93763259  0.45450322  0.69961189
   0.56309781  0.54465390  0.87581073
   0.68762341  0.29072488  0.38940889
   0.93735136  0.11624437  0.16658157
   0.06283202  0.20558601  0.47855033
   0.18753143  0.62105327  0.65492353
   0.56238148  0.53717048  0.61055987
   0.31229360  0.04504994  0.87558741
   0.18762830  0.12346190  0.30044832
   0.31241848  0.71233259  0.83345156
   0.56266250  0.53851844  0.25603926
   0.56259910  0.20458143  0.56567282
   0.43778249  0.28749490  0.61060161
   0.18736591  0.95455941  0.69964204
   0.68745857  0.62322536  0.30044878
   0.06255102  0.87332312  0.43473950
   0.68758593  0.45618103  0.47842060
   0.81213998  0.87327340  0.43437346
   0.81253411  0.87421099  0.78845573
   0.43739498  0.95434051  0.56538789
   0.06249769  0.20355409  0.21156530
   0.31258228  0.87131925  0.65492886
   0.56241788  0.70428533  0.56568763
   0.56253519  0.37113696  0.65483886
   0.06248231  0.70361508  0.21154242
   0.56227698  0.53087062  0.12435211
   0.68784336  0.61565707  0.16641995
   0.81227840  0.87136543  0.65487511
   0.18763258  0.28972419  0.74395424
   0.56245320  0.37314106  0.43444962
   0.06227247  0.03950584  0.74401795
   0.56215911  0.04469689  0.87554388
   0.68740151  0.45651643  0.34513739
   0.18769362  0.12322020  0.43419350
   0.31244099  0.70449369  0.56566330
   0.18748291  0.12434468  0.78848637
   0.06250410  0.87352557  0.30046632
   0.18764293  0.45625983  0.47852971
   0.18829188  0.78328672  0.12416542
   0.68764773  0.12329063  0.30046193
   0.81280423  0.54087177  0.38948511
   0.56250083  0.70368058  0.21155748
   0.43753773  0.62305919  0.30031360
   0.18754971  0.46221975  0.83351780
   0.81263335  0.70568242  0.47848728
   0.56215886  0.87335204  0.30051605
   0.43748100  0.45636505  0.34512048
   0.56263166  0.70645597  0.34520137
   0.56278378  0.53950494  0.74406359
   0.18781642  0.12194606  0.52155766
   0.31261275  0.20715257  0.34516460
   0.18764071  0.78944406  0.74405532
   0.06250790  0.20418405  0.56573680
   0.43746693  0.62179097  0.52151934
   0.06248990  0.20679375  0.34507803
   0.68770112  0.95460480  0.69962882
   0.31242374  0.37110179  0.65486602
   0.93732883  0.45447767  0.56548588
   0.06291397  0.03884598  0.25587025
   0.31242090  0.20318617  0.21175775
   0.43752627  0.45447764  0.69963468
   0.18773232  0.62272602  0.43410629
   0.43751896  0.95598366  0.47858391
   0.31249570  0.86562973  0.16578869
   0.93732493  0.28935126  0.74414595
   0.18733380  0.78733783  0.61076387
   0.18763835  0.29074581  0.38927642
   0.06271768  0.87179284  0.52152926
   0.56217554  0.03903439  0.25593278
   0.81235858  0.70361537  0.21175781
   0.68739716  0.46239507  0.83419089
   0.93737624  0.95608509  0.47856050
   0.06225018  0.37152350  0.52154401
Direct configuration=     3
   0.43744236  0.11540227  0.16649021
   0.93742767  0.95447099  0.56533736
   0.68763881  0.62474034  0.78843713
   0.68750301  0.12109452  0.65471930
   0.68769882  0.12471531  0.78846076
   0.56244261  0.04019625  0.38935413
   0.31257841  0.03758088  0.61073820
   0.31242044  0.03207105  0.12408568
   0.81254754  0.37318035  0.43425918
   0.06232721  0.54041149  0.38932822
   0.18751561  0.28853927  0.25596020
   0.81239376  0.20680792  0.34526173
   0.68767390  0.62174387  0.52153024
   0.43753540  0.46128492  0.83338626
   0.93726635  0.12307801  0.30042550
   0.06250896  0.03666832  0.61066142
   0.06273085  0.04499115  0.87563144
   0.56301884  0.71171776  0.83338836
   0.31246949  0.04050401  0.38949133
   0.93740892  0.29549277  0.87565436
   0.93711429  0.62358507  0.43415544
   0.06265668  0.71178425  0.83329616
   0.43759753  0.78931522  0.74403444
   0.93700922  0.62221936  0.52153262
   0.31246633  0.87313543  0.43426827
   0.43774344  0.62433735  0.78842590
   0.56253118  0.87127008  0.65484511
   0.93738721  0.78790002  0.25599109
   0.06255264  0.87420455  0.78835343
   0.68724091  0.28968634  0.74398865
   0.68761114  0.79041032  0.38930365
   0.68740637  0.28851790  0.25598046
   0.68767324  0.12161927  0.52148295
   0.68760098  0.95486976  0.56584097
   0.81251644  0.70435704  0.56578161
   0.31230323  0.20462631  0.56575437
   0.31259069  0.53850633  0.25587985
   0.43770403  0.62357448  0.43440437
   0.56267760  0.37336241  0.30051516
   0.56285389  0.87174760  0.52149770
   0.56237221  0.20345351  0.21162817
   0.81256290  0.36622264  0.16672477
   0.56261521  0.37195392  0.52146665
   0.81177570  0.71149511  0.83334060
   0.68739523  0.95672245  0.34517988
   0.81255778  0.53254901  0.12422148
   0.43726745  0.62118481  0.65478551
   0.43758884  0.12335668  0.43444477
   0.81186115  0.37149620  0.52148694
   0.31242804  0.37325193  0.30037856
   0.06241948  0.21143181  0.83328233
   0.18745715  0.62443339  0.78847580
   0.43711001  0.96176795  0.83330816
   0.18740448  0.95729737  0.34508175
   0.43746366  0.28849697  0.25597071
   0.93714024  0.28288548  0.12433790
   0.81202396  0.54475417  0.87582651
   0.81271766  0.04000765  0.38944470
   0.93753562  0.12446256  0.78831183
   0.68752673  0.62092667  0.65480519
   0.93741826  0.95680601  0.34521611
   0.93638074  0.78303935  0.12437181
   0.43768425  0.78783768  0.61057131
   0.43816316  0.95381475  0.21172870
   0.81250440  0.53870113  0.25595087
   0.93732499  0.29079997  0.38929216
   0.68750025  0.28737674  0.61056504
   0.81240659  0.20471054  0.56577638
   0.06316486  0.54476462  0.87556796
   0.93703086  0.12244228  0.52150130
   0.81244025  0.53935063  0.74399611
   0.56257795  0.21249559  0.83334564
   0.31237724  0.53960378  0.74411331
   0.93737409  0.78955792  0.74411100
   0.43739891  0.79603940  0.87558925
   0.18776447  0.45455810  0.56560938
   0.68748754  0.12313021  0.43432790
   0.31249988  0.03825215  0.25595836
   0.18749757  0.11540156  0.16649716
   0.18720266  0.28306647  0.12432550
   0.43757444  0.28950130  0.74403787
   0.18751303  0.29529646  0.87562930
   0.81240383  0.70677621  0.34519803
   0.93719269  0.28714735  0.61062881
   0.56258851  0.87322421  0.43441739
   0.18739560  0.45362601  0.21150823
   0.31243216  0.53324740  0.12425968
   0.68728699  0.95329656  0.21149925
   0.93743517  0.46116065  0.83340169
   0.93761803  0.79632046  0.87560154
   0.56255596  0.20648666  0.34520205
   0.31245124  0.70571802  0.47851907
   0.81252853  0.86534717  0.16647052
   0.56295725  0.20616813  0.47845760
   0.81245439  0.20339644  0.21151519
   0.43757699  0.45454386  0.56559497
   0.81252697  0.37303399  0.30057076
   0.18676822  0.95387412  0.21171265
   0.81255780  0.03817179  0.25598451
   0.93735377  0.95505833  0.69977402
   0.31249941  0.03917165  0.74401595
   0.43774667  0.95678290  0.34517415
   0.68730978  0.78940981  0.74405609
   0.81232872  0.53722135  0.61069449
   0.93729689  0.12348872  0.43420215
   0.31276500  0.37449697  0.78837548
   0.31253517  0.70463479  0.69961685
   0.81279786  0.04465241  0.87560155
   0.06235294  0.53835676  0.25596319
   0.81254589  0.70516254  0.69962166
   0.18748168  0.62311758  0.30037643
   0.81223901  0.20614844  0.47847919
   0.81249103  0.87329165  0.30038105
   0.68765235  0.96199017  0.83335010
   0.93742441  0.78719844  0.61069200
   0.43767458  0.29545012  0.87565998
   0.56235425  0.54086840  0.38933554
   0.06218743  0.37324751  0.30043376
   0.06270066  0.53114257  0.12437032
   0.06242130  0.37108711  0.65481969
   0.56239139  0.03785969  0.61069256
   0.93756981  0.62318822  0.30034799
   0.56261011  0.70567053  0.47850787
   0.18791394  0.95484545  0.56574566
   0.56258619  0.20485703  0.69966519
   0.31280381  0.53755920  0.61067970
   0.18754503  0.79533105  0.87566441
   0.06234812  0.37318759  0.43475069
   0.43740815  0.45613070  0.47850887
   0.18731449  0.28729137  0.61053176
   0.56271080  0.87434194  0.78842522
   0.43678407  0.61612811  0.16659144
   0.06234495  0.53946361  0.74404901
   0.18752643  0.12104252  0.65474276
   0.68785569  0.45450965  0.69960927
   0.43775787  0.95481319  0.69968751
   0.06254895  0.70519581  0.47859525
   0.68768890  0.11644136  0.16666633
   0.31314218  0.37162275  0.52156294
   0.31200341  0.20611868  0.47852019
   0.56211114  0.37420566  0.78827861
   0.06217720  0.03212948  0.12428556
   0.68759159  0.62330520  0.43439783
   0.31269753  0.87149856  0.52154422
   0.06251690  0.70500153  0.69969306
   0.18759598  0.79033220  0.38925230
   0.68751329  0.95649016  0.47844471
   0.06249163  0.53704571  0.61062779
   0.18730477  0.96153926  0.83325220
   0.31240701  0.87428338  0.78836863
   0.93772300  0.95338164  0.21152127
   0.31237925  0.70708116  0.34510717
   0.56250692  0.70474745  0.69966082
   0.43774213  0.29090756  0.38931566
   0.68732277  0.78763116  0.61065168
   0.43660013  0.78319915  0.12419518
   0.31238272  0.70336704  0.21156206
   0.31177077  0.54459900  0.87554978
   0.68799196  0.28293813  0.12434912
   0.68749061  0.78796593  0.25598950
   0.93754076  0.28845127  0.25602241
   0.68753901  0.79496097  0.87567234
   0.31259992  0.87309949  0.30046330
   0.81258424  0.21232816  0.83335872
   0.31274552  0.37306258  0.43431157
   0.43760728  0.12324560  0.30037576
   0.31262831  0.54032978  0.38939225
   0.93722679  0.61591828  0.16651334
   0.18761880  0.45677379  0.34514396
   0.06236542  0.87148261  0.65484978
   0.43760138  0.12426171  0.78839006
   0.31253100  0.20469883  0.69963554
   0.81247732  0.03757106  0.61073550
   0.06257512  0.86673205  0.16654030
   0.18771281  0.78802119  0.25600176
   0.68727485  0.45393673  0.21161027
   0.56249072  0.03916059  0.74397586
   0.31231558  0.21152224  0.83328149
   0.43735480  0.12216269  0.52144218
   0.81288712  0.37411679  0.78828518
   0.81246779  0.37110342  0.65489945
   0.18781436  0.95652873  0.47846430
   0.56243386  0.86674153  0.16654807
   0.93731731  0.62415417  0.78835987
   0.68867234  0.78306833  0.12437842
   0.93730568  0.12137681  0.65489985
   0.81238890  0.20455781  0.69955437
   0.68756475  0.29573424  0.87582760
   0.06246907  0.04050902  0.38939665
   0.06207230  0.36669957  0.16643803
   0.56276647  0.03211069  0.12429068
   0.93731953  0.79056102  0.38942802
   0.43768052  0.79081882  0.38941525
   0.06236211  0.70370166  0.56569314
   0.56294537  0.36670430  0.16643885
   0.93729506  0.45612837  0.47859213
   0.93754124  0.62145235  0.65484031
   0.93743045  0.45628991  0.34511753
   0.31249168  0.36553544  0.16659488
   0.43755484  0.45367262  0.21152721
   0.43757023  0.12136528  0.65486683
   0.68752100  0.45458764  0.56559125
   0.18715082  0.45415830  0.69972446
   0.06261880  0.20437031  0.69959478
   0.06248719  0.37441122  0.78839081
   0.81252915  0.03298550  0.12431049