 288 288   0   0
  0.1280206E+02  0.9726678E-09  0.8423550E-09  0.4500000E-08  0.2500000E-15
  1.000000000000000E-004
  CAR 
 unknown system                          
      6.76926422     -6.02478938  301      4.29205059      1.00000000
     -6.025  0.0000E+00  0.0000E+00
     -5.982  0.0000E+00  0.0000E+00
     -5.939  0.0000E+00  0.0000E+00
     -5.897  0.0000E+00  0.0000E+00
     -5.854  0.0000E+00  0.0000E+00
     -5.812  0.0000E+00  0.0000E+00
     -5.769  0.0000E+00  0.0000E+00
     -5.726  0.0000E+00  0.0000E+00
     -5.684  0.0000E+00  0.0000E+00
     -5.641  0.0000E+00  0.0000E+00
     -5.598  0.0000E+00  0.0000E+00
     -5.556  0.0000E+00  0.0000E+00
     -5.513  0.0000E+00  0.0000E+00
     -5.470  0.0000E+00  0.0000E+00
     -5.428  0.0000E+00  0.0000E+00
     -5.385  0.1627E-15  0.6939E-17
     -5.342  0.3547E-14  0.1582E-15
     -5.300  0.7673E-13  0.3431E-14
     -5.257  0.1400E-11  0.6313E-13
     -5.214  0.2178E-10  0.9919E-12
     -5.172  0.2889E-09  0.1331E-10
     -5.129  0.3269E-08  0.1527E-09
     -5.087  0.3155E-07  0.1498E-08
     -5.044  0.2600E-06  0.1259E-07
     -5.001  0.1831E-05  0.9069E-07
     -4.959  0.1103E-04  0.5612E-06
     -4.916  0.5695E-04  0.2990E-05
     -4.873  0.2525E-03  0.1376E-04
     -4.831  0.9648E-03  0.5490E-04
     -4.788  0.3191E-02  0.1910E-03
     -4.745  0.9195E-02  0.5831E-03
     -4.703  0.2326E-01  0.1575E-02
     -4.660  0.5217E-01  0.3800E-02
     -4.617  0.1049E+00  0.8274E-02
     -4.575  0.1913E+00  0.1643E-01
     -4.532  0.3195E+00  0.3006E-01
     -4.490  0.4929E+00  0.5108E-01
     -4.447  0.7069E+00  0.8123E-01
     -4.404  0.9469E+00  0.1216E+00
     -4.362  0.1190E+01  0.1724E+00
     -4.319  0.1410E+01  0.2325E+00
     -4.276  0.1586E+01  0.3001E+00
     -4.234  0.1706E+01  0.3729E+00
     -4.191  0.1779E+01  0.4488E+00
     -4.148  0.1832E+01  0.5269E+00
     -4.106  0.1901E+01  0.6080E+00
     -4.063  0.2021E+01  0.6941E+00
     -4.020  0.2209E+01  0.7883E+00
     -3.978  0.2457E+01  0.8931E+00
     -3.935  0.2728E+01  0.1009E+01
     -3.892  0.2973E+01  0.1136E+01
     -3.850  0.3141E+01  0.1270E+01
     -3.807  0.3207E+01  0.1407E+01
     -3.765  0.3181E+01  0.1543E+01
     -3.722  0.3105E+01  0.1675E+01
     -3.679  0.3041E+01  0.1805E+01
     -3.637  0.3045E+01  0.1935E+01
     -3.594  0.3149E+01  0.2069E+01
     -3.551  0.3342E+01  0.2211E+01
     -3.509  0.3585E+01  0.2364E+01
     -3.466  0.3819E+01  0.2527E+01
     -3.423  0.4001E+01  0.2698E+01
     -3.381  0.4109E+01  0.2873E+01
     -3.338  0.4151E+01  0.3050E+01
     -3.295  0.4155E+01  0.3227E+01
     -3.253  0.4154E+01  0.3404E+01
     -3.210  0.4184E+01  0.3583E+01
     -3.167  0.4265E+01  0.3765E+01
     -3.125  0.4403E+01  0.3953E+01
     -3.082  0.4587E+01  0.4148E+01
     -3.040  0.4793E+01  0.4353E+01
     -2.997  0.4992E+01  0.4565E+01
     -2.954  0.5152E+01  0.4785E+01
     -2.912  0.5259E+01  0.5009E+01
     -2.869  0.5321E+01  0.5236E+01
     -2.826  0.5365E+01  0.5465E+01
     -2.784  0.5429E+01  0.5697E+01
     -2.741  0.5532E+01  0.5933E+01
     -2.698  0.5660E+01  0.6174E+01
     -2.656  0.5752E+01  0.6419E+01
     -2.613  0.5743E+01  0.6664E+01
     -2.570  0.5614E+01  0.6904E+01
     -2.528  0.5434E+01  0.7135E+01
     -2.485  0.5340E+01  0.7363E+01
     -2.442  0.5473E+01  0.7596E+01
     -2.400  0.5886E+01  0.7847E+01
     -2.357  0.6504E+01  0.8125E+01
     -2.315  0.7137E+01  0.8429E+01
     -2.272  0.7568E+01  0.8752E+01
     -2.229  0.7663E+01  0.9079E+01
     -2.187  0.7440E+01  0.9396E+01
     -2.144  0.7071E+01  0.9698E+01
     -2.101  0.6791E+01  0.9987E+01
     -2.059  0.6784E+01  0.1028E+02
     -2.016  0.7101E+01  0.1058E+02
     -1.973  0.7644E+01  0.1091E+02
     -1.931  0.8227E+01  0.1126E+02
     -1.888  0.8667E+01  0.1163E+02
     -1.845  0.8866E+01  0.1200E+02
     -1.803  0.8853E+01  0.1238E+02
     -1.760  0.8748E+01  0.1275E+02
     -1.717  0.8686E+01  0.1313E+02
     -1.675  0.8743E+01  0.1350E+02
     -1.632  0.8913E+01  0.1388E+02
     -1.590  0.9148E+01  0.1427E+02
     -1.547  0.9411E+01  0.1467E+02
     -1.504  0.9691E+01  0.1508E+02
     -1.462  0.9982E+01  0.1551E+02
     -1.419  0.1025E+02  0.1595E+02
     -1.376  0.1043E+02  0.1639E+02
     -1.334  0.1053E+02  0.1684E+02
     -1.291  0.1062E+02  0.1729E+02
     -1.248  0.1092E+02  0.1776E+02
     -1.206  0.1161E+02  0.1825E+02
     -1.163  0.1270E+02  0.1879E+02
     -1.120  0.1395E+02  0.1939E+02
     -1.078  0.1500E+02  0.2003E+02
     -1.035  0.1555E+02  0.2069E+02
     -0.992  0.1562E+02  0.2136E+02
     -0.950  0.1552E+02  0.2202E+02
     -0.907  0.1569E+02  0.2269E+02
     -0.865  0.1643E+02  0.2339E+02
     -0.822  0.1780E+02  0.2415E+02
     -0.779  0.1969E+02  0.2499E+02
     -0.737  0.2203E+02  0.2593E+02
     -0.694  0.2496E+02  0.2699E+02
     -0.651  0.2868E+02  0.2822E+02
     -0.609  0.3319E+02  0.2963E+02
     -0.566  0.3812E+02  0.3126E+02
     -0.523  0.4282E+02  0.3308E+02
     -0.481  0.4673E+02  0.3508E+02
     -0.438  0.4964E+02  0.3719E+02
     -0.395  0.5175E+02  0.3940E+02
     -0.353  0.5342E+02  0.4168E+02
     -0.310  0.5484E+02  0.4402E+02
     -0.267  0.5600E+02  0.4641E+02
     -0.225  0.5675E+02  0.4883E+02
     -0.182  0.5705E+02  0.5126E+02
     -0.140  0.5701E+02  0.5369E+02
     -0.097  0.5686E+02  0.5612E+02
     -0.054  0.5690E+02  0.5854E+02
     -0.012  0.5739E+02  0.6099E+02
      0.031  0.5852E+02  0.6349E+02
      0.074  0.6040E+02  0.6606E+02
      0.116  0.6302E+02  0.6875E+02
      0.159  0.6624E+02  0.7157E+02
      0.202  0.6985E+02  0.7455E+02
      0.244  0.7360E+02  0.7769E+02
      0.287  0.7721E+02  0.8098E+02
      0.330  0.8038E+02  0.8441E+02
      0.372  0.8293E+02  0.8795E+02
      0.415  0.8484E+02  0.9157E+02
      0.458  0.8618E+02  0.9524E+02
      0.500  0.8703E+02  0.9895E+02
      0.543  0.8740E+02  0.1027E+03
      0.585  0.8727E+02  0.1064E+03
      0.628  0.8669E+02  0.1101E+03
      0.671  0.8575E+02  0.1138E+03
      0.713  0.8448E+02  0.1174E+03
      0.756  0.8285E+02  0.1209E+03
      0.799  0.8092E+02  0.1243E+03
      0.841  0.7888E+02  0.1277E+03
      0.884  0.7713E+02  0.1310E+03
      0.927  0.7601E+02  0.1342E+03
      0.969  0.7566E+02  0.1375E+03
      1.012  0.7586E+02  0.1407E+03
      1.055  0.7621E+02  0.1440E+03
      1.097  0.7631E+02  0.1472E+03
      1.140  0.7598E+02  0.1504E+03
      1.183  0.7528E+02  0.1537E+03
      1.225  0.7443E+02  0.1568E+03
      1.268  0.7360E+02  0.1600E+03
      1.310  0.7287E+02  0.1631E+03
      1.353  0.7214E+02  0.1662E+03
      1.396  0.7120E+02  0.1692E+03
      1.438  0.6988E+02  0.1722E+03
      1.481  0.6824E+02  0.1751E+03
      1.524  0.6666E+02  0.1779E+03
      1.566  0.6571E+02  0.1807E+03
      1.609  0.6590E+02  0.1835E+03
      1.652  0.6739E+02  0.1864E+03
      1.694  0.6993E+02  0.1894E+03
      1.737  0.7303E+02  0.1925E+03
      1.780  0.7623E+02  0.1958E+03
      1.822  0.7929E+02  0.1991E+03
      1.865  0.8209E+02  0.2026E+03
      1.908  0.8461E+02  0.2062E+03
      1.950  0.8682E+02  0.2100E+03
      1.993  0.8880E+02  0.2137E+03
      2.035  0.9058E+02  0.2176E+03
      2.078  0.9218E+02  0.2215E+03
      2.121  0.9352E+02  0.2255E+03
      2.163  0.9461E+02  0.2296E+03
      2.206  0.9563E+02  0.2336E+03
      2.249  0.9699E+02  0.2378E+03
      2.291  0.9912E+02  0.2420E+03
      2.334  0.1022E+03  0.2464E+03
      2.377  0.1063E+03  0.2509E+03
      2.419  0.1107E+03  0.2556E+03
      2.462  0.1151E+03  0.2605E+03
      2.505  0.1188E+03  0.2656E+03
      2.547  0.1218E+03  0.2708E+03
      2.590  0.1242E+03  0.2761E+03
      2.633  0.1262E+03  0.2815E+03
      2.675  0.1280E+03  0.2869E+03
      2.718  0.1300E+03  0.2925E+03
      2.760  0.1321E+03  0.2981E+03
      2.803  0.1347E+03  0.3038E+03
      2.846  0.1375E+03  0.3097E+03
      2.888  0.1403E+03  0.3157E+03
      2.931  0.1420E+03  0.3217E+03
      2.974  0.1417E+03  0.3278E+03
      3.016  0.1387E+03  0.3337E+03
      3.059  0.1329E+03  0.3394E+03
      3.102  0.1249E+03  0.3447E+03
      3.144  0.1159E+03  0.3496E+03
      3.187  0.1070E+03  0.3542E+03
      3.230  0.9933E+02  0.3584E+03
      3.272  0.9342E+02  0.3624E+03
      3.315  0.8932E+02  0.3662E+03
      3.358  0.8676E+02  0.3699E+03
      3.400  0.8531E+02  0.3736E+03
      3.443  0.8453E+02  0.3772E+03
      3.485  0.8403E+02  0.3808E+03
      3.528  0.8348E+02  0.3843E+03
      3.571  0.8279E+02  0.3879E+03
      3.613  0.8219E+02  0.3914E+03
      3.656  0.8223E+02  0.3949E+03
      3.699  0.8346E+02  0.3984E+03
      3.741  0.8615E+02  0.4021E+03
      3.784  0.9007E+02  0.4059E+03
      3.827  0.9458E+02  0.4100E+03
      3.869  0.9899E+02  0.4142E+03
      3.912  0.1028E+03  0.4186E+03
      3.955  0.1057E+03  0.4231E+03
      3.997  0.1078E+03  0.4277E+03
      4.040  0.1090E+03  0.4323E+03
      4.083  0.1094E+03  0.4370E+03
      4.125  0.1091E+03  0.4417E+03
      4.168  0.1082E+03  0.4463E+03
      4.210  0.1071E+03  0.4508E+03
      4.253  0.1057E+03  0.4553E+03
      4.296  0.1042E+03  0.4598E+03
      4.338  0.1029E+03  0.4642E+03
      4.381  0.1018E+03  0.4685E+03
      4.424  0.1011E+03  0.4728E+03
      4.466  0.1005E+03  0.4771E+03
      4.509  0.9982E+02  0.4814E+03
      4.552  0.9886E+02  0.4856E+03
      4.594  0.9787E+02  0.4898E+03
      4.637  0.9729E+02  0.4939E+03
      4.680  0.9749E+02  0.4981E+03
      4.722  0.9866E+02  0.5023E+03
      4.765  0.1006E+03  0.5066E+03
      4.808  0.1031E+03  0.5110E+03
      4.850  0.1056E+03  0.5155E+03
      4.893  0.1077E+03  0.5201E+03
      4.935  0.1091E+03  0.5247E+03
      4.978  0.1093E+03  0.5294E+03
      5.021  0.1078E+03  0.5340E+03
      5.063  0.1037E+03  0.5384E+03
      5.106  0.9585E+02  0.5425E+03
      5.149  0.8386E+02  0.5461E+03
      5.191  0.6833E+02  0.5490E+03
      5.234  0.5110E+02  0.5511E+03
      5.277  0.3465E+02  0.5526E+03
      5.319  0.2110E+02  0.5535E+03
      5.362  0.1145E+02  0.5540E+03
      5.405  0.5503E+01  0.5542E+03
      5.447  0.2331E+01  0.5543E+03
      5.490  0.8671E+00  0.5544E+03
      5.533  0.2822E+00  0.5544E+03
      5.575  0.8017E-01  0.5544E+03
      5.618  0.1983E-01  0.5544E+03
      5.660  0.4262E-02  0.5544E+03
      5.703  0.7948E-03  0.5544E+03
      5.746  0.1284E-03  0.5544E+03
      5.788  0.1794E-04  0.5544E+03
      5.831  0.2166E-05  0.5544E+03
      5.874  0.2256E-06  0.5544E+03
      5.916  0.2027E-07  0.5544E+03
      5.959  0.1568E-08  0.5544E+03
      6.002  0.1044E-09  0.5544E+03
      6.044  0.5978E-11  0.5544E+03
      6.087  0.2929E-12  0.5544E+03
      6.130  0.1158E-13  0.5544E+03
      6.172  0.1302E-15  0.5544E+03
      6.215  0.0000E+00  0.5544E+03
      6.258  0.0000E+00  0.5544E+03
      6.300  0.0000E+00  0.5544E+03
      6.343  0.0000E+00  0.5544E+03
      6.385  0.0000E+00  0.5544E+03
      6.428  0.0000E+00  0.5544E+03
      6.471  0.0000E+00  0.5544E+03
      6.513  0.0000E+00  0.5544E+03
      6.556  0.0000E+00  0.5544E+03
      6.599  0.0000E+00  0.5544E+03
      6.641  0.0000E+00  0.5544E+03
      6.684  0.0000E+00  0.5544E+03
      6.727  0.0000E+00  0.5544E+03
      6.769  0.0000E+00  0.5544E+03
