unknown system                          
           1
     9.726678    0.000000    0.000000
     0.000000    8.423550    0.000000
     0.000000    0.000000   45.000000
   Fe   Mn
 281   7
Direct configuration=     1
   0.05338872  0.70188137  0.21144856
   0.31789881  0.72484215  0.87627316
   0.68757439  0.95821450  0.61119112
   0.43818244  0.45770338  0.61123890
   0.43991044  0.28819132  0.25547975
   0.05844186  0.38789730  0.83352679
   0.30809431  0.88742039  0.83347389
   0.44724992  0.62620600  0.70017726
   0.06108375  0.21121051  0.74471545
   0.17863479  0.45129481  0.21129945
   0.56776474  0.21049157  0.47748643
   0.06699666  0.87480822  0.56669875
   0.56779746  0.22394951  0.87609233
   0.80895865  0.53418494  0.12425320
   0.42860850  0.95117452  0.21130467
   0.56671775  0.37481848  0.56681696
   0.81230376  0.04188410  0.38861212
   0.68255445  0.78806334  0.52216313
   0.44286387  0.46062310  0.47742757
   0.43568744  0.96165133  0.74455532
   0.44168067  0.62507421  0.56674160
   0.05900247  0.53411153  0.12425906
   0.30922523  0.03446172  0.12423764
   0.69039741  0.95936978  0.34417126
   0.68176050  0.77876774  0.12416410
   0.05314394  0.37367290  0.29985573
   0.68920766  0.46698760  0.87598874
   0.42860297  0.45127272  0.21130104
   0.80831458  0.37498131  0.43312110
   0.80813343  0.88810759  0.83344330
   0.55987774  0.54135170  0.65556885
   0.93338946  0.12503984  0.43308805
   0.56584331  0.53754126  0.25545610
   0.69031095  0.45934050  0.34419176
   0.19145949  0.61236005  0.16687510
   0.19553722  0.79831033  0.78862879
   0.44785501  0.12547747  0.70009411
   0.92839497  0.62352525  0.29974306
   0.31770721  0.22412784  0.87610233
   0.31683346  0.87411330  0.56677550
   0.81755891  0.22334239  0.87620471
   0.80980622  0.54065559  0.65582829
   0.55887681  0.53432047  0.12421806
   0.56606260  0.86255664  0.16669964
   0.18999242  0.28822775  0.25545487
   0.80838984  0.87504285  0.43311367
   0.57231569  0.37546014  0.70019672
   0.05902643  0.03461008  0.12428938
   0.30997804  0.54106215  0.65571625
   0.56528537  0.20942147  0.34416535
   0.18770954  0.95809295  0.61133251
   0.30304046  0.37372397  0.29981499
   0.43460194  0.79059007  0.65577935
   0.68483063  0.46190629  0.74461009
   0.06630122  0.36240441  0.16671725
   0.69785216  0.62613765  0.70044379
   0.31232687  0.54185925  0.38860679
   0.06764015  0.72390039  0.87614446
   0.93329141  0.63748995  0.83356264
   0.32033829  0.54970531  0.78864634
   0.30335103  0.20184105  0.21143518
   0.06784358  0.71068715  0.47745048
   0.55340431  0.20196511  0.21143270
   0.31093944  0.21189125  0.74443465
   0.07236654  0.37561175  0.70036573
   0.18312714  0.63742566  0.83337906
   0.07124890  0.04880787  0.78873291
   0.44179602  0.12499010  0.56676421
   0.93487081  0.29093481  0.65573625
   0.80335598  0.20191067  0.21144777
   0.92856917  0.95110921  0.21133501
   0.94160745  0.62502836  0.56690580
   0.80856734  0.38783375  0.83348772
   0.19737736  0.62618958  0.70013172
   0.57219887  0.87591240  0.70043457
   0.68466304  0.29068322  0.65575654
   0.31262635  0.20803770  0.61138117
   0.43556682  0.46182699  0.74449351
   0.43742607  0.79195115  0.38862349
   0.68515969  0.96212369  0.74450217
   0.80335556  0.70178177  0.21143667
   0.81258106  0.70813967  0.61119997
   0.43191569  0.77884584  0.12415339
   0.31059190  0.71209504  0.74445933
   0.32143702  0.04914526  0.78867733
   0.81221172  0.54190818  0.38859330
   0.68249793  0.28834332  0.52221773
   0.69520855  0.79791744  0.78867523
   0.18976577  0.78789201  0.25550658
   0.69140731  0.11244305  0.16686054
   0.69282634  0.96073472  0.47744720
   0.94032945  0.95929723  0.34419842
   0.80760341  0.03822948  0.52220760
   0.68348280  0.62500127  0.43308948
   0.44032958  0.45940757  0.34417491
   0.81102390  0.21167507  0.74462529
   0.43955720  0.96688789  0.87590742
   0.56660367  0.87490143  0.56689381
   0.80886353  0.03437536  0.12430622
   0.42843677  0.62339299  0.29971480
   0.81701712  0.72318147  0.87614028
   0.68757623  0.45822534  0.61124212
   0.55834914  0.38754952  0.83317712
   0.80304792  0.37369509  0.29978884
   0.18694168  0.29178117  0.38850137
   0.82118980  0.54897791  0.78883010
   0.18260959  0.78844636  0.52230566
   0.30301687  0.87374021  0.29980359
   0.17858526  0.95116088  0.21129578
   0.18577078  0.46125789  0.74464849
   0.43246191  0.28819206  0.52217872
   0.06527984  0.70940076  0.34418046
   0.18476279  0.79065066  0.65579342
   0.44614206  0.79803973  0.78866252
   0.68342792  0.12502131  0.43307065
   0.93246026  0.78838739  0.52232930
   0.69150681  0.61242104  0.16687208
   0.81527890  0.70937607  0.34417431
   0.93506297  0.46175511  0.74452461
   0.19034891  0.45935152  0.34418773
   0.56965613  0.54913454  0.78883968
   0.56634395  0.36261336  0.16669460
   0.56529586  0.70935516  0.34419055
   0.55306857  0.37367507  0.29982148
   0.18917085  0.46687920  0.87587920
   0.19143141  0.11245069  0.16688680
   0.44496311  0.29847746  0.78871876
   0.69004197  0.78820420  0.25544501
   0.93358109  0.13764915  0.83350870
   0.44287421  0.96079201  0.47744865
   0.56713905  0.72324031  0.87609760
   0.19285945  0.46082627  0.47746246
   0.93156538  0.27873084  0.12420623
   0.31216695  0.04189631  0.38860586
   0.05972859  0.04059031  0.65583965
   0.55835840  0.37496951  0.43310341
   0.93338261  0.62508689  0.43308176
   0.31630505  0.36254956  0.16672885
   0.94680208  0.12593036  0.70009897
   0.56000610  0.04141302  0.65557281
   0.55730122  0.53831122  0.52233732
   0.17847318  0.12344522  0.29972247
   0.44144341  0.11238413  0.16685150
   0.67841988  0.62353044  0.29975528
   0.92842790  0.12338094  0.29968830
   0.81678601  0.37432322  0.56676661
   0.05315624  0.87368557  0.29984885
   0.19152221  0.62503022  0.56685820
   0.94505907  0.79779187  0.78878662
   0.30781403  0.38709156  0.83348311
   0.93831622  0.46662670  0.87594903
   0.43359538  0.63756226  0.83349949
   0.06537560  0.20937011  0.34418116
   0.18897571  0.96566875  0.87606186
   0.93187409  0.77880002  0.12419321
   0.68721502  0.79181508  0.38855226
   0.93470290  0.79070054  0.65579661
   0.94149184  0.11250359  0.16684205
   0.43474768  0.29061998  0.65586253
   0.05349923  0.20193824  0.21144484
   0.67865466  0.95114651  0.21129877
   0.17843683  0.62356241  0.29976675
   0.82280146  0.87577048  0.70017505
   0.94705186  0.62605762  0.70018411
   0.19754183  0.12587133  0.70016198
   0.94277759  0.46089221  0.47746414
   0.81291915  0.20762617  0.61128914
   0.18344749  0.62501963  0.43312857
   0.42826922  0.12364087  0.29976971
   0.67846669  0.12348880  0.29974850
   0.56215567  0.54184164  0.38861480
   0.81537920  0.20942027  0.34417944
   0.43965804  0.46675164  0.87597047
   0.55821777  0.88815698  0.83326143
   0.31784606  0.21074662  0.47743483
   0.19285706  0.96085148  0.47746859
   0.05858750  0.88767739  0.83338780
   0.05739250  0.53814435  0.52236930
   0.94269215  0.96086383  0.47747195
   0.06287366  0.70792640  0.61125069
   0.55733090  0.03824492  0.52232978
   0.69617857  0.29856412  0.78866907
   0.81627983  0.36267393  0.16675490
   0.43343176  0.12502278  0.43309461
   0.06782483  0.21066929  0.47746039
   0.30974715  0.04077410  0.65573978
   0.43244203  0.78809815  0.52214213
   0.18357585  0.13808419  0.83352041
   0.18144903  0.27866973  0.12415887
   0.94033862  0.45927582  0.34418054
   0.31630276  0.86270347  0.16669286
   0.30329524  0.70198102  0.21144900
   0.94143188  0.61247581  0.16687015
   0.18767982  0.45825249  0.61125225
   0.07235476  0.87609731  0.69995929
   0.05975722  0.54060697  0.65581025
   0.30885667  0.53424015  0.12423956
   0.93730817  0.79179455  0.38856378
   0.94629631  0.29785649  0.78855975
   0.18490942  0.29110191  0.65570827
   0.93770122  0.95826477  0.61127174
   0.81135158  0.71133179  0.74458071
   0.68981109  0.28812894  0.25545725
   0.06122470  0.71121790  0.74473417
   0.67868189  0.45122624  0.21131711
   0.81792488  0.21061693  0.47744107
   0.56793493  0.71055911  0.47750301
   0.06629769  0.86252668  0.16667834
   0.93229722  0.28857817  0.52225913
   0.68466381  0.79070732  0.65580135
   0.05843967  0.87491914  0.43309971
   0.06723884  0.22312803  0.87613401
   0.81026006  0.04140191  0.65588305
   0.55908032  0.03447756  0.12424587
   0.30838943  0.37498221  0.43311125
   0.31677760  0.37444101  0.56676118
   0.31789311  0.71072226  0.47743202
   0.05728619  0.03817842  0.52232706
   0.32204289  0.87532943  0.70005796
   0.06590751  0.53762226  0.25546387
   0.68293501  0.13701702  0.83337025
   0.81588093  0.03752752  0.25545493
   0.18341432  0.12506914  0.43310908
   0.69838532  0.12636494  0.70017016
   0.18262119  0.28841550  0.52230104
   0.43995001  0.78817956  0.25544595
   0.81582009  0.53753420  0.25545890
   0.06277885  0.20798763  0.61122748
   0.18699817  0.79190109  0.38851416
   0.30724260  0.53833260  0.52235226
   0.81604134  0.86256325  0.16668586
   0.68720237  0.29188113  0.38858344
   0.19146826  0.12508346  0.56687822
   0.68933587  0.96759124  0.87590993
   0.69201236  0.12519709  0.56669973
   0.44032296  0.95925837  0.34419947
   0.18531452  0.96248272  0.74466016
   0.93984785  0.78796929  0.25550623
   0.55846604  0.87496977  0.43308350
   0.30839822  0.87510960  0.43310989
   0.80754647  0.53819279  0.52219508
   0.92870077  0.45124591  0.21132879
   0.31589095  0.53759984  0.25544354
   0.56230295  0.04186413  0.38858716
   0.93759324  0.45810799  0.61129381
   0.06218488  0.04182150  0.38861762
   0.06220931  0.54179759  0.38856712
   0.43725635  0.29193575  0.38860732
   0.69293974  0.46069003  0.47744848
   0.06700608  0.37437146  0.56674458
   0.55341894  0.70197411  0.21143013
   0.93994039  0.28824170  0.25544430
   0.82009339  0.04947432  0.78888835
   0.19039782  0.95922283  0.34418813
   0.55314339  0.87375404  0.29981829
   0.05845671  0.37497202  0.43308603
   0.31538952  0.70942486  0.34417224
   0.31534414  0.20941827  0.34418062
   0.94169135  0.12504466  0.56688868
   0.43815877  0.95775375  0.61122386
   0.56583342  0.03749754  0.25542907
   0.18157258  0.77876123  0.12416254
   0.06584736  0.03749447  0.25546192
   0.69177823  0.62506014  0.56675702
   0.44140377  0.61250270  0.16684742
   0.30716486  0.03837178  0.52222464
   0.68131133  0.27872987  0.12418227
   0.81787900  0.71075153  0.47745334
   0.43371881  0.13768453  0.83361410
   0.32245269  0.37531367  0.70006687
   0.68345556  0.63719774  0.83350612
   0.56096754  0.71265357  0.74451257
   0.93738010  0.29186850  0.38859938
   0.93912941  0.96627352  0.87596681
   0.93515561  0.96158741  0.74456867
   0.81669360  0.87415482  0.56680983
   0.80312934  0.87373507  0.29982663
   0.31579286  0.03752812  0.25545615
   0.43153546  0.27897547  0.12416494
   0.31264498  0.70796131  0.61141109
   0.43339763  0.62494235  0.43308997
   0.19688523  0.29672453  0.78853145
   0.57096929  0.04967123  0.78880242
   0.07101027  0.55010741  0.78878760
   0.82248329  0.37648188  0.70015491
   0.56148063  0.21245740  0.74441067
   0.56263542  0.20650027  0.61123966
   0.56368363  0.70684266  0.61139314
Direct configuration=     2
   0.05392499  0.70185078  0.21145461
   0.31761835  0.72410540  0.87619157
   0.68773022  0.95811995  0.61121026
   0.43812257  0.45763130  0.61125357
   0.43939339  0.28803376  0.25551803
   0.05878580  0.38768055  0.83362756
   0.30854426  0.88723046  0.83356004
   0.44661458  0.62626738  0.70017647
   0.06151512  0.21146419  0.74467129
   0.17914015  0.45131387  0.21130859
   0.56723064  0.21025931  0.47753534
   0.06657500  0.87471258  0.56669178
   0.56744916  0.22327266  0.87602735
   0.80912791  0.53365809  0.12433350
   0.42911395  0.95122122  0.21131008
   0.56638482  0.37477307  0.56678411
   0.81225280  0.04192080  0.38860317
   0.68308294  0.78841902  0.52215385
   0.44228962  0.46038552  0.47748081
   0.43611738  0.96175356  0.74452713
   0.44129513  0.62500525  0.56673064
   0.05916228  0.53359067  0.12433815
   0.30935285  0.03388182  0.12431994
   0.68993752  0.95928394  0.34420754
   0.68206893  0.77917451  0.12422286
   0.05380387  0.37362394  0.29984403
   0.68910904  0.46755586  0.87590243
   0.42911816  0.45128895  0.21130756
   0.80870444  0.37501330  0.43312093
   0.80857960  0.88785341  0.83352334
   0.56035975  0.54128502  0.65556005
   0.93377361  0.12506273  0.43309557
   0.56521266  0.53757130  0.25549237
   0.68987198  0.45924470  0.34422199
   0.19099460  0.61262511  0.16676636
   0.19516737  0.79833483  0.78860959
   0.44715982  0.12546922  0.70008582
   0.92904083  0.62349870  0.29974805
   0.31727741  0.22350657  0.87605565
   0.31645488  0.87416875  0.56675055
   0.81732362  0.22278042  0.87612585
   0.81023836  0.54080930  0.65578515
   0.55905778  0.53377377  0.12430259
   0.56560679  0.86276845  0.16663605
   0.18944678  0.28806108  0.25549940
   0.80876366  0.87505689  0.43311553
   0.57158839  0.37558399  0.70020370
   0.05918851  0.03400191  0.12435886
   0.31042939  0.54105620  0.65568849
   0.56486546  0.20930694  0.34419420
   0.18782646  0.95804263  0.61133919
   0.30371739  0.37367440  0.29981082
   0.43508720  0.79071754  0.65574102
   0.68543732  0.46200363  0.74459970
   0.06579735  0.36264862  0.16665335
   0.69706735  0.62617116  0.70040714
   0.31227276  0.54190890  0.38860050
   0.06733847  0.72316979  0.87607773
   0.93369813  0.63737775  0.83363196
   0.31996387  0.54963196  0.78865991
   0.30390219  0.20182022  0.21144533
   0.06729758  0.71045258  0.47750279
   0.55393586  0.20192107  0.21144109
   0.31143495  0.21191710  0.74441081
   0.07172967  0.37570531  0.70033772
   0.18358207  0.63733005  0.83343775
   0.07067050  0.04869296  0.78875417
   0.44139910  0.12492735  0.56674942
   0.93531996  0.29102440  0.65571387
   0.80389594  0.20186545  0.21145621
   0.92908676  0.95115440  0.21133527
   0.94128689  0.62493608  0.56686696
   0.80895231  0.38767733  0.83357869
   0.19668073  0.62624407  0.70013012
   0.57149419  0.87594823  0.70040368
   0.68516284  0.29077890  0.65572002
   0.31259668  0.20795059  0.61137187
   0.43601554  0.46194737  0.74446666
   0.43735195  0.79196912  0.38861289
   0.68578759  0.96217245  0.74449188
   0.80389922  0.70177239  0.21144396
   0.81280403  0.70808528  0.61121337
   0.43218376  0.77924780  0.12421093
   0.31100145  0.71214507  0.74444679
   0.32084177  0.04905176  0.78868988
   0.81218259  0.54193418  0.38858928
   0.68304960  0.28863038  0.52219550
   0.69483549  0.79793272  0.78866574
   0.18928227  0.78781730  0.25554124
   0.69094914  0.11268787  0.16676203
   0.69227609  0.96047747  0.47749634
   0.93988317  0.95922755  0.34422627
   0.80813092  0.03848761  0.52217080
   0.68384969  0.62503087  0.43309350
   0.43988071  0.45930932  0.34420932
   0.81148187  0.21176253  0.74459662
   0.43950595  0.96749965  0.87583733
   0.56629074  0.87484399  0.56685047
   0.80905861  0.03379911  0.12437440
   0.42907963  0.62342489  0.29972271
   0.81671291  0.72266225  0.87607773
   0.68772386  0.45810242  0.61125131
   0.55869657  0.38743944  0.83330279
   0.80372427  0.37364256  0.29978981
   0.18697020  0.29183707  0.38851418
   0.82066531  0.54898985  0.78883994
   0.18311784  0.78869267  0.52227029
   0.30371281  0.87367980  0.29980131
   0.17910190  0.95120406  0.21130640
   0.18621733  0.46148563  0.74462493
   0.43299034  0.28849990  0.52216249
   0.06485740  0.70929158  0.34420673
   0.18522522  0.79073021  0.65576303
   0.44559853  0.79808281  0.78865468
   0.68379437  0.12504938  0.43307913
   0.93301647  0.78864729  0.52229502
   0.69102525  0.61266802  0.16676387
   0.81485922  0.70926326  0.34420253
   0.93567652  0.46185553  0.74451199
   0.18990105  0.45925782  0.34421957
   0.56936036  0.54910929  0.78884083
   0.56582225  0.36283499  0.16663411
   0.56486576  0.70925966  0.34421343
   0.55375185  0.37363094  0.29981461
   0.18906702  0.46744920  0.87582134
   0.19097739  0.11267988  0.16677807
   0.44466450  0.29852609  0.78869104
   0.68948209  0.78805460  0.25549279
   0.93403132  0.13748683  0.83357259
   0.44229757  0.96051793  0.47749774
   0.56688254  0.72266039  0.87603051
   0.19230304  0.46058843  0.47752284
   0.93188038  0.27915120  0.12425863
   0.31215234  0.04193400  0.38859903
   0.06024881  0.04068731  0.65578573
   0.55874017  0.37501249  0.43310505
   0.93377138  0.62510620  0.43308772
   0.31580176  0.36276439  0.16666252
   0.94624672  0.12593268  0.70011246
   0.56043373  0.04130250  0.65557135
   0.55786485  0.53865673  0.52228285
   0.17910455  0.12345697  0.29972729
   0.44098540  0.11262726  0.16674835
   0.67905730  0.62352691  0.29975505
   0.92906484  0.12340876  0.29970141
   0.81637598  0.37436118  0.56674772
   0.05381832  0.87364495  0.29983976
   0.19117340  0.62493185  0.56682558
   0.94465456  0.79779893  0.78876412
   0.30819710  0.38700693  0.83357406
   0.93837030  0.46723527  0.87588882
   0.43401285  0.63739721  0.83356658
   0.06492862  0.20925920  0.34420691
   0.18890867  0.96633702  0.87596867
   0.93215997  0.77918564  0.12424723
   0.68718330  0.79186297  0.38855429
   0.93516566  0.79081957  0.65576700
   0.94102256  0.11271118  0.16675084
   0.43518474  0.29072044  0.65581448
   0.05401532  0.20187566  0.21145297
   0.67915021  0.95120698  0.21130624
   0.17908126  0.62354500  0.29976683
   0.82206798  0.87583701  0.70018220
   0.94649820  0.62611750  0.70018212
   0.19685437  0.12585230  0.70014640
   0.94223341  0.46063276  0.47752394
   0.81306228  0.20765220  0.61129050
   0.18380731  0.62504826  0.43312760
   0.42895213  0.12360855  0.29976719
   0.67909495  0.12348767  0.29975000
   0.56213203  0.54188166  0.38860806
   0.81493487  0.20930064  0.34420508
   0.43964242  0.46743409  0.87587659
   0.55857942  0.88789777  0.83337030
   0.31727516  0.21048565  0.47748546
   0.19229472  0.96059513  0.47752538
   0.05892175  0.88750338  0.83347840
   0.05793229  0.53845675  0.52232788
   0.94216238  0.96059822  0.47752657
   0.06291140  0.70786374  0.61126134
   0.55789521  0.03858339  0.52228277
   0.69576571  0.29853323  0.78865063
   0.81576936  0.36286250  0.16668724
   0.43379134  0.12504775  0.43309608
   0.06727651  0.21045582  0.47751039
   0.31022040  0.04083409  0.65568931
   0.43298861  0.78844760  0.52213053
   0.18398801  0.13790665  0.83356757
   0.18179533  0.27910110  0.12421820
   0.93988818  0.45919036  0.34421229
   0.31578353  0.86287881  0.16662897
   0.30384700  0.70193828  0.21145479
   0.94097615  0.61270707  0.16676365
   0.18777427  0.45816056  0.61126500
   0.07173337  0.87621445  0.70000157
   0.06022613  0.54070660  0.65576837
   0.30904376  0.53370769  0.12432163
   0.93726993  0.79184304  0.38856310
   0.94566128  0.29800817  0.78857491
   0.18532952  0.29111578  0.65569001
   0.93778340  0.95820368  0.61128831
   0.81189855  0.71148427  0.74455166
   0.68931008  0.28798229  0.25550090
   0.06167029  0.71145720  0.74468719
   0.67916840  0.45125731  0.21132083
   0.81735134  0.21037112  0.47749297
   0.56735875  0.71031257  0.47754890
   0.06578648  0.86273788  0.16662203
   0.93288297  0.28879828  0.52223026
   0.68516005  0.79086943  0.65577653
   0.05879942  0.87494494  0.43309918
   0.06700647  0.22256335  0.87608257
   0.81065402  0.04136940  0.65582513
   0.55922485  0.03389495  0.12432293
   0.30876149  0.37501616  0.43311294
   0.31642229  0.37445214  0.56674083
   0.31731181  0.71046079  0.47747990
   0.05784143  0.03849330  0.52229401
   0.32136873  0.87554641  0.70008280
   0.06526340  0.53762091  0.25550063
   0.68345061  0.13699911  0.83344007
   0.81523960  0.03755540  0.25548888
   0.18377956  0.12508767  0.43311200
   0.69754214  0.12628811  0.70016355
   0.18313431  0.28864613  0.52226701
   0.43942410  0.78804311  0.25549122
   0.81519192  0.53755650  0.25549465
   0.06287313  0.20793296  0.61122378
   0.18702261  0.79193092  0.38852471
   0.30780792  0.53859254  0.52230827
   0.81559260  0.86276152  0.16662892
   0.68717676  0.29190913  0.38857860
   0.19113217  0.12496652  0.56685195
   0.68919137  0.96807332  0.87584505
   0.69158482  0.12510305  0.56668601
   0.43988187  0.95918861  0.34422891
   0.18586061  0.96236863  0.74460468
   0.93934686  0.78787149  0.25554014
   0.55882595  0.87500759  0.43308747
   0.30877770  0.87510577  0.43311315
   0.80809478  0.53845456  0.52216336
   0.92919527  0.45126212  0.21133148
   0.31524968  0.53761557  0.25547926
   0.56224609  0.04190492  0.38858338
   0.93766851  0.45806448  0.61130227
   0.06215843  0.04186031  0.38860918
   0.06217151  0.54184715  0.38856948
   0.43722217  0.29194758  0.38859693
   0.69235912  0.46044323  0.47749651
   0.06658007  0.37436361  0.56673194
   0.55394895  0.70191273  0.21143838
   0.93942212  0.28807682  0.25549237
   0.81976173  0.04931298  0.78887138
   0.18994328  0.95915881  0.34421938
   0.55380530  0.87369462  0.29981204
   0.05882104  0.37500705  0.43308857
   0.31494979  0.70930404  0.34420064
   0.31491442  0.20929999  0.34420853
   0.94134716  0.12491895  0.56684871
   0.43809629  0.95766677  0.61123597
   0.56519599  0.03753112  0.25547004
   0.18191625  0.77917434  0.12422144
   0.06521064  0.03752065  0.25549495
   0.69139236  0.62498253  0.56673119
   0.44095356  0.61272210  0.16674427
   0.30774544  0.03861067  0.52219580
   0.68168368  0.27916003  0.12423771
   0.81732483  0.71048670  0.47750379
   0.43415224  0.13753960  0.83366811
   0.32178738  0.37551014  0.70008756
   0.68393797  0.63706948  0.83355924
   0.56144026  0.71266060  0.74449615
   0.93731879  0.29190260  0.38859081
   0.93907852  0.96691643  0.87587348
   0.93571834  0.96157309  0.74452958
   0.81632126  0.87419631  0.56679119
   0.80378537  0.87367799  0.29981950
   0.31517339  0.03755039  0.25549141
   0.43186385  0.27936164  0.12422348
   0.31260923  0.70788608  0.61139816
   0.43375224  0.62498539  0.43309387
   0.19635507  0.29685228  0.78852100
   0.57052662  0.04945401  0.78877701
   0.07048661  0.55003363  0.78877531
   0.82183503  0.37642125  0.70015800
   0.56186822  0.21254391  0.74439004
   0.56269990  0.20667735  0.61123404
   0.56359830  0.70697932  0.61138712
Direct configuration=     3
   0.05553382  0.70175902  0.21147273
   0.31677695  0.72189516  0.87594677
   0.68819772  0.95783629  0.61126768
   0.43794296  0.45741504  0.61129757
   0.43784222  0.28756107  0.25563286
   0.05981759  0.38703033  0.83392985
   0.30989412  0.88666069  0.83381849
   0.44470855  0.62645154  0.70017410
   0.06280922  0.21222525  0.74453879
   0.18065624  0.45137104  0.21133599
   0.56562834  0.20956253  0.47768209
   0.06531002  0.87442568  0.56667085
   0.56640426  0.22124211  0.87583241
   0.80963569  0.53207755  0.12457440
   0.43063033  0.95136134  0.21132632
   0.56538604  0.37463684  0.56668557
   0.81209993  0.04203091  0.38857635
   0.68466841  0.78948607  0.52212604
   0.44056684  0.45967280  0.47764054
   0.43740722  0.96206023  0.74444256
   0.44013850  0.62479834  0.56669778
   0.05964169  0.53202810  0.12457541
   0.30973572  0.03214210  0.12456682
   0.68855786  0.95902643  0.34431637
   0.68299423  0.78039482  0.12439915
   0.05578366  0.37347708  0.29980894
   0.68881320  0.46926064  0.87564352
   0.43066373  0.45133763  0.21132712
   0.80987401  0.37510926  0.43312042
   0.80991811  0.88709085  0.83376346
   0.56180579  0.54108500  0.65553363
   0.93492604  0.12513141  0.43311811
   0.56332070  0.53766141  0.25560119
   0.68855508  0.45895729  0.34431267
   0.18959993  0.61342029  0.16644014
   0.19405781  0.79840832  0.78855199
   0.44507426  0.12544445  0.70006095
   0.93097840  0.62341907  0.29976301
   0.31598802  0.22164276  0.87591561
   0.31531916  0.87433512  0.56667569
   0.81661775  0.22109452  0.87588926
   0.81153477  0.54127044  0.65565572
   0.55960071  0.53213370  0.12455618
   0.56423936  0.86340388  0.16644527
   0.18780987  0.28756107  0.25563302
   0.80988513  0.87509903  0.43312114
   0.56940647  0.37595552  0.70022466
   0.05967473  0.03217739  0.12456730
   0.31178344  0.54103833  0.65560522
   0.56360576  0.20896337  0.34428075
   0.18817720  0.95789167  0.61135921
   0.30574819  0.37352570  0.29979832
   0.43654297  0.79109994  0.65562603
   0.68725741  0.46229564  0.74456853
   0.06428574  0.36338124  0.16646164
   0.69471291  0.62627167  0.70029718
   0.31211042  0.54205785  0.38858162
   0.06643344  0.72097797  0.87587752
   0.93491832  0.63704113  0.83383993
   0.31884059  0.54941189  0.78870063
   0.30555568  0.20175773  0.21147580
   0.06565959  0.70974889  0.47765970
   0.55553053  0.20178896  0.21146625
   0.31292148  0.21199464  0.74433930
   0.06981905  0.37598597  0.70025369
   0.18494685  0.63704323  0.83361380
   0.06893529  0.04834824  0.78881795
   0.44020834  0.12473910  0.56670502
   0.93666740  0.29129316  0.65564674
   0.80551580  0.20172977  0.21148153
   0.93063953  0.95128997  0.21133605
   0.94032522  0.62465921  0.56675045
   0.81010723  0.38720809  0.83385160
   0.19459084  0.62640757  0.70012530
   0.56938016  0.87605571  0.70031104
   0.68666221  0.29106594  0.65561048
   0.31250768  0.20768927  0.61134395
   0.43736169  0.46230851  0.74438613
   0.43712960  0.79202302  0.38858109
   0.68767129  0.96231875  0.74446101
   0.80553019  0.70174427  0.21146584
   0.81347292  0.70792211  0.61125358
   0.43298798  0.78045369  0.12438354
   0.31223010  0.71229516  0.74440915
   0.31905604  0.04877125  0.78872754
   0.81209520  0.54201219  0.38857722
   0.68470460  0.28949156  0.52212878
   0.69371630  0.79797857  0.78863727
   0.18783176  0.78759318  0.25564522
   0.68957465  0.11342233  0.16646650
   0.69062534  0.95970572  0.47764375
   0.93854434  0.95901852  0.34430982
   0.80971347  0.03926201  0.52206040
   0.68495035  0.62511967  0.43310556
   0.43853410  0.45901458  0.34431254
   0.81285580  0.21202493  0.74451063
   0.43935219  0.96933496  0.87562704
   0.56535194  0.87467166  0.56672045
   0.80964388  0.03207037  0.12457894
   0.43100820  0.62352058  0.29974642
   0.81580028  0.72110461  0.87589008
   0.68816675  0.45773366  0.61127886
   0.55973885  0.38710922  0.83367980
   0.80575332  0.37348499  0.29979272
   0.18705578  0.29200475  0.38855259
   0.81909183  0.54902566  0.78886946
   0.18464259  0.78943160  0.52216416
   0.30580064  0.87349855  0.29979448
   0.18065183  0.95133362  0.21133827
   0.18755698  0.46216885  0.74455424
   0.43457563  0.28942341  0.52211381
   0.06359007  0.70896404  0.34428555
   0.18661253  0.79096886  0.65567184
   0.44396792  0.79821205  0.78863117
   0.68489373  0.12513357  0.43310456
   0.93468509  0.78942699  0.52219217
   0.68958056  0.61340897  0.16643925
   0.81360016  0.70892483  0.34428717
   0.93751718  0.46215681  0.74447411
   0.18855747  0.45897675  0.34431509
   0.56847303  0.54903356  0.78884428
   0.56425718  0.36349987  0.16645261
   0.56357547  0.70897316  0.34428207
   0.55580171  0.37349855  0.29979401
   0.18875553  0.46915918  0.87564777
   0.18961533  0.11336745  0.16645187
   0.44376868  0.29867200  0.78860788
   0.68780246  0.78760580  0.25563614
   0.93538199  0.13699987  0.83376428
   0.44056767  0.95969569  0.47764500
   0.56611298  0.72092063  0.87582925
   0.19063380  0.45987492  0.47770397
   0.93282540  0.28041228  0.12441585
   0.31210852  0.04204707  0.38857856
   0.06180947  0.04097831  0.65562397
   0.55988551  0.37514144  0.43310996
   0.93493767  0.62516412  0.43310559
   0.31429187  0.36340888  0.16646354
   0.94458064  0.12593965  0.70015293
   0.56171662  0.04097094  0.65556698
   0.55955572  0.53969325  0.52211944
   0.18099867  0.12349221  0.29974177
   0.43961137  0.11335667  0.16643888
   0.68096955  0.62351634  0.29975435
   0.93097564  0.12349225  0.29974074
   0.81514591  0.37447506  0.56669104
   0.05580456  0.87352309  0.29981249
   0.19012695  0.62463671  0.56672771
   0.94344106  0.79782010  0.78869661
   0.30934631  0.38675301  0.83384689
   0.93853255  0.46906099  0.87570820
   0.43526525  0.63690206  0.83376785
   0.06358768  0.20892647  0.34428416
   0.18870756  0.96834183  0.87568909
   0.93301760  0.78034252  0.12440926
   0.68708815  0.79200664  0.38856035
   0.93655394  0.79117664  0.65567817
   0.93961473  0.11333394  0.16647721
   0.43649592  0.29102183  0.65567031
   0.05556357  0.20168790  0.21147734
   0.68063686  0.95138839  0.21132865
   0.18101455  0.62349275  0.29976708
   0.81986753  0.87603663  0.70020365
   0.94483723  0.62629713  0.70017614
   0.19479200  0.12579519  0.70009966
   0.94060087  0.45985439  0.47770331
   0.81349166  0.20773031  0.61129459
   0.18488676  0.62513417  0.43312466
   0.43100086  0.12351160  0.29975961
   0.68097975  0.12348429  0.29975449
   0.56206110  0.54200172  0.38858784
   0.81360188  0.20894177  0.34428201
   0.43959553  0.46948144  0.87559494
   0.55966436  0.88712015  0.83369691
   0.31556245  0.20970271  0.47763734
   0.19060770  0.95982611  0.47769578
   0.05992452  0.88698135  0.83375021
   0.05955167  0.53939397  0.52220359
   0.94057308  0.95980138  0.47769043
   0.06302463  0.70767577  0.61129329
   0.55958811  0.03959879  0.52214175
   0.69452714  0.29844058  0.78859534
   0.81423794  0.36342819  0.16648426
   0.43487008  0.12512267  0.43310052
   0.06563158  0.20981540  0.47766041
   0.31164014  0.04101407  0.65553792
   0.43462834  0.78949596  0.52209571
   0.18522449  0.13737404  0.83370905
   0.18283421  0.28039523  0.12439616
   0.93853684  0.45893398  0.34430755
   0.31422584  0.86340485  0.16643728
   0.30550229  0.70181008  0.21147215
   0.93960893  0.61340085  0.16644412
   0.18805760  0.45788475  0.61130323
   0.06986920  0.87656586  0.70012841
   0.06163287  0.54100550  0.65564275
   0.30960504  0.53211031  0.12456784
   0.93715520  0.79198850  0.38856105
   0.94375617  0.29846319  0.78862040
   0.18658981  0.29115738  0.65563523
   0.93802993  0.95802041  0.61133799
   0.81353944  0.71194170  0.74446452
   0.68780708  0.28754232  0.25563186
   0.06300703  0.71217508  0.74454624
   0.68062794  0.45135051  0.21133199
   0.81563072  0.20963371  0.47764868