 288 288   0   0
  0.1280206E+02  0.9726678E-09  0.8423550E-09  0.4500000E-08  0.2500000E-15
  1.000000000000000E-004
  CAR 
 unknown system                          
      6.83291208     -6.03021244  301      4.31873206      1.00000000
     -6.030  0.0000E+00  0.0000E+00
     -5.987  0.0000E+00  0.0000E+00
     -5.944  0.0000E+00  0.0000E+00
     -5.902  0.0000E+00  0.0000E+00
     -5.859  0.0000E+00  0.0000E+00
     -5.816  0.0000E+00  0.0000E+00
     -5.773  0.0000E+00  0.0000E+00
     -5.730  0.0000E+00  0.0000E+00
     -5.687  0.0000E+00  0.0000E+00
     -5.644  0.0000E+00  0.0000E+00
     -5.601  0.0000E+00  0.0000E+00
     -5.559  0.0000E+00  0.0000E+00
     -5.516  0.0000E+00  0.0000E+00
     -5.473  0.0000E+00  0.0000E+00
     -5.430  0.0000E+00  0.0000E+00
     -5.387  0.1942E-15  0.8327E-17
     -5.344  0.4661E-14  0.2082E-15
     -5.301  0.1001E-12  0.4499E-14
     -5.258  0.1826E-11  0.8281E-13
     -5.216  0.2835E-10  0.1299E-11
     -5.173  0.3745E-09  0.1736E-10
     -5.130  0.4210E-08  0.1979E-09
     -5.087  0.4029E-07  0.1925E-08
     -5.044  0.3283E-06  0.1600E-07
     -5.001  0.2280E-05  0.1138E-06
     -4.958  0.1351E-04  0.6931E-06
     -4.915  0.6839E-04  0.3625E-05
     -4.873  0.2964E-03  0.1633E-04
     -4.830  0.1103E-02  0.6364E-04
     -4.787  0.3546E-02  0.2157E-03
     -4.744  0.9909E-02  0.6406E-03
     -4.701  0.2430E-01  0.1682E-02
     -4.658  0.5290E-01  0.3950E-02
     -4.615  0.1036E+00  0.8393E-02
     -4.572  0.1849E+00  0.1632E-01
     -4.530  0.3040E+00  0.2936E-01
     -4.487  0.4640E+00  0.4926E-01
     -4.444  0.6613E+00  0.7761E-01
     -4.401  0.8842E+00  0.1155E+00
     -4.358  0.1114E+01  0.1633E+00
     -4.315  0.1330E+01  0.2203E+00
     -4.272  0.1511E+01  0.2851E+00
     -4.229  0.1646E+01  0.3557E+00
     -4.186  0.1740E+01  0.4303E+00
     -4.144  0.1809E+01  0.5079E+00
     -4.101  0.1883E+01  0.5886E+00
     -4.058  0.1990E+01  0.6739E+00
     -4.015  0.2149E+01  0.7661E+00
     -3.972  0.2360E+01  0.8673E+00
     -3.929  0.2602E+01  0.9789E+00
     -3.886  0.2838E+01  0.1101E+01
     -3.843  0.3025E+01  0.1230E+01
     -3.801  0.3136E+01  0.1365E+01
     -3.758  0.3163E+01  0.1500E+01
     -3.715  0.3128E+01  0.1634E+01
     -3.672  0.3075E+01  0.1766E+01
     -3.629  0.3055E+01  0.1897E+01
     -3.586  0.3106E+01  0.2030E+01
     -3.543  0.3239E+01  0.2169E+01
     -3.500  0.3440E+01  0.2317E+01
     -3.458  0.3672E+01  0.2474E+01
     -3.415  0.3890E+01  0.2641E+01
     -3.372  0.4059E+01  0.2815E+01
     -3.329  0.4159E+01  0.2993E+01
     -3.286  0.4192E+01  0.3173E+01
     -3.243  0.4183E+01  0.3353E+01
     -3.200  0.4170E+01  0.3531E+01
     -3.157  0.4194E+01  0.3711E+01
     -3.115  0.4288E+01  0.3895E+01
     -3.072  0.4458E+01  0.4086E+01
     -3.029  0.4684E+01  0.4287E+01
     -2.986  0.4930E+01  0.4498E+01
     -2.943  0.5147E+01  0.4719E+01
     -2.900  0.5298E+01  0.4946E+01
     -2.857  0.5369E+01  0.5176E+01
     -2.814  0.5378E+01  0.5407E+01
     -2.772  0.5374E+01  0.5637E+01
     -2.729  0.5408E+01  0.5869E+01
     -2.686  0.5496E+01  0.6105E+01
     -2.643  0.5606E+01  0.6345E+01
     -2.600  0.5673E+01  0.6589E+01
     -2.557  0.5653E+01  0.6831E+01
     -2.514  0.5565E+01  0.7070E+01
     -2.471  0.5501E+01  0.7305E+01
     -2.429  0.5579E+01  0.7545E+01
     -2.386  0.5878E+01  0.7797E+01
     -2.343  0.6382E+01  0.8070E+01
     -2.300  0.6965E+01  0.8369E+01
     -2.257  0.7430E+01  0.8688E+01
     -2.214  0.7610E+01  0.9014E+01
     -2.171  0.7468E+01  0.9334E+01
     -2.128  0.7129E+01  0.9640E+01
     -2.086  0.6824E+01  0.9932E+01
     -2.043  0.6765E+01  0.1022E+02
     -2.000  0.7038E+01  0.1052E+02
     -1.957  0.7574E+01  0.1085E+02
     -1.914  0.8189E+01  0.1120E+02
     -1.871  0.8675E+01  0.1157E+02
     -1.828  0.8901E+01  0.1195E+02
     -1.785  0.8877E+01  0.1233E+02
     -1.743  0.8733E+01  0.1271E+02
     -1.700  0.8635E+01  0.1308E+02
     -1.657  0.8682E+01  0.1345E+02
     -1.614  0.8873E+01  0.1383E+02
     -1.571  0.9146E+01  0.1422E+02
     -1.528  0.9437E+01  0.1463E+02
     -1.485  0.9717E+01  0.1504E+02
     -1.442  0.9983E+01  0.1547E+02
     -1.399  0.1023E+02  0.1591E+02
     -1.357  0.1042E+02  0.1636E+02
     -1.314  0.1056E+02  0.1681E+02
     -1.271  0.1073E+02  0.1727E+02
     -1.228  0.1108E+02  0.1775E+02
     -1.185  0.1177E+02  0.1825E+02
     -1.142  0.1280E+02  0.1880E+02
     -1.099  0.1396E+02  0.1940E+02
     -1.056  0.1492E+02  0.2004E+02
     -1.014  0.1544E+02  0.2070E+02
     -0.971  0.1554E+02  0.2137E+02
     -0.928  0.1552E+02  0.2203E+02
     -0.885  0.1582E+02  0.2271E+02
     -0.842  0.1673E+02  0.2343E+02
     -0.799  0.1829E+02  0.2421E+02
     -0.756  0.2038E+02  0.2509E+02
     -0.713  0.2290E+02  0.2607E+02
     -0.671  0.2594E+02  0.2718E+02
     -0.628  0.2966E+02  0.2845E+02
     -0.585  0.3403E+02  0.2991E+02
     -0.542  0.3871E+02  0.3157E+02
     -0.499  0.4312E+02  0.3342E+02
     -0.456  0.4676E+02  0.3542E+02
     -0.413  0.4952E+02  0.3755E+02
     -0.370  0.5159E+02  0.3976E+02
     -0.328  0.5329E+02  0.4204E+02
     -0.285  0.5479E+02  0.4439E+02
     -0.242  0.5606E+02  0.4680E+02
     -0.199  0.5698E+02  0.4924E+02
     -0.156  0.5746E+02  0.5170E+02
     -0.113  0.5759E+02  0.5417E+02
     -0.070  0.5761E+02  0.5664E+02
     -0.027  0.5778E+02  0.5912E+02
      0.015  0.5829E+02  0.6162E+02
      0.058  0.5929E+02  0.6416E+02
      0.101  0.6095E+02  0.6678E+02
      0.144  0.6338E+02  0.6949E+02
      0.187  0.6654E+02  0.7235E+02
      0.230  0.7013E+02  0.7535E+02
      0.273  0.7378E+02  0.7852E+02
      0.316  0.7712E+02  0.8182E+02
      0.358  0.7998E+02  0.8525E+02
      0.401  0.8232E+02  0.8878E+02
      0.444  0.8416E+02  0.9239E+02
      0.487  0.8552E+02  0.9606E+02
      0.530  0.8636E+02  0.9976E+02
      0.573  0.8664E+02  0.1035E+03
      0.616  0.8644E+02  0.1072E+03
      0.659  0.8590E+02  0.1109E+03
      0.701  0.8506E+02  0.1145E+03
      0.744  0.8390E+02  0.1181E+03
      0.787  0.8234E+02  0.1216E+03
      0.830  0.8049E+02  0.1251E+03
      0.873  0.7870E+02  0.1285E+03
      0.916  0.7736E+02  0.1318E+03
      0.959  0.7663E+02  0.1351E+03
      1.002  0.7636E+02  0.1383E+03
      1.045  0.7619E+02  0.1416E+03
      1.087  0.7577E+02  0.1449E+03
      1.130  0.7496E+02  0.1481E+03
      1.173  0.7396E+02  0.1512E+03
      1.216  0.7319E+02  0.1544E+03
      1.259  0.7299E+02  0.1575E+03
      1.302  0.7333E+02  0.1607E+03
      1.345  0.7373E+02  0.1638E+03
      1.388  0.7356E+02  0.1670E+03
      1.430  0.7249E+02  0.1701E+03
      1.473  0.7074E+02  0.1731E+03
      1.516  0.6895E+02  0.1761E+03
      1.559  0.6780E+02  0.1790E+03
      1.602  0.6768E+02  0.1819E+03
      1.645  0.6860E+02  0.1848E+03
      1.688  0.7035E+02  0.1878E+03
      1.731  0.7260E+02  0.1909E+03
      1.773  0.7506E+02  0.1942E+03
      1.816  0.7751E+02  0.1975E+03
      1.859  0.7980E+02  0.2009E+03
      1.902  0.8186E+02  0.2044E+03
      1.945  0.8370E+02  0.2080E+03
      1.988  0.8536E+02  0.2117E+03
      2.031  0.8693E+02  0.2154E+03
      2.074  0.8848E+02  0.2192E+03
      2.116  0.9004E+02  0.2231E+03
      2.159  0.9162E+02  0.2270E+03
      2.202  0.9322E+02  0.2310E+03
      2.245  0.9491E+02  0.2350E+03
      2.288  0.9687E+02  0.2392E+03
      2.331  0.9936E+02  0.2435E+03
      2.374  0.1026E+03  0.2479E+03
      2.417  0.1066E+03  0.2524E+03
      2.459  0.1110E+03  0.2572E+03
      2.502  0.1155E+03  0.2621E+03
      2.545  0.1196E+03  0.2673E+03
      2.588  0.1230E+03  0.2725E+03
      2.631  0.1255E+03  0.2779E+03
      2.674  0.1272E+03  0.2834E+03
      2.717  0.1282E+03  0.2889E+03
      2.760  0.1291E+03  0.2944E+03
      2.802  0.1302E+03  0.3000E+03
      2.845  0.1321E+03  0.3057E+03
      2.888  0.1351E+03  0.3115E+03
      2.931  0.1385E+03  0.3174E+03
      2.974  0.1413E+03  0.3234E+03
      3.017  0.1418E+03  0.3295E+03
      3.060  0.1390E+03  0.3355E+03
      3.103  0.1326E+03  0.3412E+03
      3.145  0.1237E+03  0.3465E+03
      3.188  0.1141E+03  0.3514E+03
      3.231  0.1054E+03  0.3559E+03
      3.274  0.9864E+02  0.3601E+03
      3.317  0.9417E+02  0.3642E+03
      3.360  0.9175E+02  0.3681E+03
      3.403  0.9079E+02  0.3720E+03
      3.446  0.9051E+02  0.3759E+03
      3.488  0.9011E+02  0.3797E+03
      3.531  0.8901E+02  0.3835E+03
      3.574  0.8717E+02  0.3873E+03
      3.617  0.8509E+02  0.3909E+03
      3.660  0.8367E+02  0.3945E+03
      3.703  0.8363E+02  0.3981E+03
      3.746  0.8517E+02  0.4018E+03
      3.789  0.8786E+02  0.4055E+03
      3.832  0.9097E+02  0.4094E+03
      3.874  0.9386E+02  0.4134E+03
      3.917  0.9628E+02  0.4176E+03
      3.960  0.9826E+02  0.4218E+03
      4.003  0.9991E+02  0.4261E+03
      4.046  0.1013E+03  0.4304E+03
      4.089  0.1022E+03  0.4348E+03
      4.132  0.1025E+03  0.4392E+03
      4.175  0.1022E+03  0.4436E+03
      4.217  0.1012E+03  0.4479E+03
      4.260  0.1001E+03  0.4522E+03
      4.303  0.9920E+02  0.4565E+03
      4.346  0.9876E+02  0.4607E+03
      4.389  0.9888E+02  0.4649E+03
      4.432  0.9940E+02  0.4692E+03
      4.475  0.1000E+03  0.4735E+03
      4.518  0.1003E+03  0.4778E+03
      4.560  0.1000E+03  0.4821E+03
      4.603  0.9928E+02  0.4863E+03
      4.646  0.9833E+02  0.4905E+03
      4.689  0.9772E+02  0.4947E+03
      4.732  0.9798E+02  0.4989E+03
      4.775  0.9937E+02  0.5032E+03
      4.818  0.1018E+03  0.5076E+03
      4.861  0.1049E+03  0.5121E+03
      4.903  0.1080E+03  0.5167E+03
      4.946  0.1105E+03  0.5214E+03
      4.989  0.1119E+03  0.5262E+03
      5.032  0.1116E+03  0.5310E+03
      5.075  0.1087E+03  0.5357E+03
      5.118  0.1023E+03  0.5401E+03
      5.161  0.9192E+02  0.5440E+03
      5.204  0.7767E+02  0.5473E+03
      5.246  0.6088E+02  0.5499E+03
      5.289  0.4371E+02  0.5518E+03
      5.332  0.2845E+02  0.5530E+03
      5.375  0.1664E+02  0.5537E+03
      5.418  0.8688E+01  0.5541E+03
      5.461  0.4028E+01  0.5543E+03
      5.504  0.1652E+01  0.5544E+03
      5.547  0.5970E+00  0.5544E+03
      5.589  0.1898E+00  0.5544E+03
      5.632  0.5293E-01  0.5544E+03
      5.675  0.1293E-01  0.5544E+03
      5.718  0.2762E-02  0.5544E+03
      5.761  0.5149E-03  0.5544E+03
      5.804  0.8363E-04  0.5544E+03
      5.847  0.1181E-04  0.5544E+03
      5.890  0.1448E-05  0.5544E+03
      5.932  0.1538E-06  0.5544E+03
      5.975  0.1413E-07  0.5544E+03
      6.018  0.1121E-08  0.5544E+03
      6.061  0.7659E-10  0.5544E+03
      6.104  0.4504E-11  0.5544E+03
      6.147  0.2264E-12  0.5544E+03
      6.190  0.9645E-14  0.5544E+03
      6.233  0.2589E-15  0.5544E+03
      6.276  0.0000E+00  0.5544E+03
      6.318  0.0000E+00  0.5544E+03
      6.361  0.0000E+00  0.5544E+03
      6.404  0.0000E+00  0.5544E+03
      6.447  0.0000E+00  0.5544E+03
      6.490  0.0000E+00  0.5544E+03
      6.533  0.0000E+00  0.5544E+03
      6.576  0.0000E+00  0.5544E+03
      6.619  0.0000E+00  0.5544E+03
      6.661  0.0000E+00  0.5544E+03
      6.704  0.0000E+00  0.5544E+03
      6.747  0.0000E+00  0.5544E+03
      6.790  0.0000E+00  0.5544E+03
      6.833  0.0000E+00  0.5544E+03
