unknown system                          
           1
     9.726678    0.000000    0.000000
     0.000000    8.423550    0.000000
     0.000000    0.000000   45.000000
   Fe   Mn
 274  14
Direct configuration=     1
   0.06184893  0.03118325  0.12437478
   0.31653915  0.87493733  0.65486067
   0.18485267  0.12164026  0.78833595
   0.44157383  0.28765861  0.38908119
   0.31713296  0.71278420  0.83296553
   0.81743977  0.21465048  0.83342608
   0.19130870  0.96255875  0.83331561
   0.56240457  0.20716341  0.56548851
   0.06532540  0.03967030  0.74394305
   0.81157132  0.87124295  0.52131001
   0.19107510  0.29066061  0.74391379
   0.93360127  0.45221572  0.34493729
   0.94128528  0.28742255  0.38908070
   0.81343067  0.03937343  0.87548998
   0.18356047  0.78807816  0.61085101
   0.56637498  0.03786127  0.38907234
   0.94211448  0.96315022  0.83359949
   0.31370213  0.53893033  0.87570378
   0.69048770  0.29039483  0.74398875
   0.18223016  0.61381062  0.16668969
   0.81219524  0.20572594  0.47869104
   0.80873871  0.53792344  0.61093364
   0.31189029  0.87034295  0.43447074
   0.80919502  0.03839856  0.25616789
   0.68349705  0.95173228  0.34491475
   0.93138818  0.11450094  0.16724820
   0.06159919  0.87127490  0.52134714
   0.55895612  0.53857274  0.25609300
   0.68456827  0.79557437  0.87553901
   0.55609865  0.36551743  0.16678669
   0.43989181  0.79084098  0.74405812
   0.81152759  0.70659561  0.56545484
   0.55997690  0.87275810  0.78838104
   0.68657177  0.12142742  0.52133053
   0.81642451  0.37481752  0.65489664
   0.94162188  0.46260109  0.83356684
   0.06044284  0.20797468  0.69954465
   0.43504392  0.95796185  0.69955534
   0.31642209  0.21215448  0.83316514
   0.44151333  0.62495016  0.65487413
   0.30877290  0.53788318  0.61089491
   0.93664055  0.45668839  0.56551386
   0.69016132  0.79107174  0.74406108
   0.93367894  0.78838144  0.12466528
   0.69145537  0.78758462  0.38907306
   0.94071857  0.79018538  0.74427923
   0.05877764  0.20284209  0.34501179
   0.68360558  0.45217925  0.34502227
   0.43456834  0.12141495  0.78860467
   0.06473054  0.20498252  0.21161110
   0.05546741  0.36568311  0.16680018
   0.93359861  0.78866358  0.25587750
   0.56048292  0.20782239  0.69955777
   0.68498227  0.95811462  0.69958952
   0.80959476  0.87253681  0.78818525
   0.43706326  0.95719434  0.56534805
   0.81144584  0.37334438  0.78804412
   0.68393327  0.28934170  0.25613743
   0.18726540  0.45730637  0.56541427
   0.05579249  0.86558356  0.16679485
   0.18386396  0.28795138  0.61091226
   0.06240182  0.20722257  0.56536334
   0.31034390  0.20813510  0.69960427
   0.56403950  0.53893140  0.87563151
   0.06183815  0.70628262  0.56547416
   0.68480344  0.62188377  0.78805835
   0.31627043  0.53770143  0.38904324
   0.18664146  0.62132179  0.52139070
   0.56234890  0.87024513  0.43446035
   0.43697891  0.45734164  0.56543485
   0.43987257  0.29117058  0.74401174
   0.81935815  0.87483291  0.30038695
   0.80827092  0.70225381  0.34500863
   0.44161718  0.46232669  0.83314052
   0.68738091  0.95578311  0.47866318
   0.68495014  0.45800175  0.69959814
   0.56175744  0.87191751  0.52139702
   0.56658362  0.37486238  0.65487927
   0.81648153  0.87485326  0.65489723
   0.81173610  0.37069750  0.43425272
   0.80872360  0.53825945  0.25619020
   0.81645596  0.03790218  0.38913982
   0.18609346  0.78842819  0.12427854
   0.69125463  0.28756860  0.38903245
   0.31642720  0.37486789  0.65489477
   0.30877341  0.20252096  0.34492244
   0.81560832  0.53986667  0.74394848
   0.69144022  0.96203567  0.83313431
   0.56626428  0.87501496  0.65490644
   0.31173052  0.70733719  0.56543316
   0.31236402  0.53119829  0.12426262
   0.68969393  0.95539765  0.21194359
   0.31138001  0.20661328  0.56548552
   0.18735058  0.95567392  0.47867684
   0.68732319  0.95718788  0.56547159
   0.43367302  0.78821253  0.61082963
   0.68230414  0.61203753  0.16671340
   0.31885753  0.87439066  0.30028393
   0.31221631  0.70574428  0.47864540
   0.93361325  0.28800379  0.61086023
   0.44481590  0.62482120  0.30044910
   0.80689389  0.86408240  0.16722219
   0.56652104  0.20343926  0.21178026
   0.93299067  0.61283716  0.16684773
   0.43719931  0.95568993  0.47863890
   0.55990683  0.37169327  0.78821596
   0.06137020  0.37205701  0.52134403
   0.30682030  0.36457630  0.16688521
   0.69483177  0.12424451  0.30040483
   0.44244688  0.96156184  0.83315733
   0.18474206  0.28749187  0.12450935
   0.18402721  0.28908099  0.25613623
   0.31242408  0.37026872  0.43446816
   0.56251770  0.03269872  0.12460992
   0.43368967  0.28822330  0.61082536
   0.18371914  0.45274365  0.34508339
   0.43457035  0.28740946  0.12456766
   0.68389305  0.78926543  0.25608785
   0.43659140  0.12143529  0.52136774
   0.18841046  0.29452713  0.87583718
   0.19141997  0.12506101  0.65490275
   0.94153988  0.12496943  0.65490244
   0.81633847  0.53757728  0.38907249
   0.06644416  0.03766549  0.38908882
   0.18285930  0.11210743  0.16668309
   0.05866673  0.53783998  0.61093990
   0.93416067  0.28932392  0.25608294
   0.55866840  0.53803190  0.61088073
   0.93675099  0.95742654  0.56542970
   0.69443404  0.62456009  0.30041305
   0.93750331  0.62068390  0.43446579
   0.93329540  0.62337774  0.78798381
   0.56038984  0.70770459  0.69956810
   0.06534882  0.71580605  0.83367893
   0.94493448  0.12392726  0.30037174
   0.93369621  0.78766108  0.61091246
   0.43384498  0.78929533  0.25605112
   0.31091964  0.37223864  0.78825702
   0.43996830  0.45548373  0.21187629
   0.18664369  0.12148604  0.52135866
   0.81020953  0.70793274  0.69954410
   0.05871109  0.03786757  0.61084106
   0.56617957  0.21387885  0.83308902
   0.31165516  0.87158223  0.52140165
   0.68630099  0.28729599  0.12436577
   0.19000332  0.95645465  0.21205023
   0.68362090  0.28808416  0.61089218
   0.30869150  0.03795650  0.61095470
   0.93502504  0.12288446  0.78838351
   0.43707927  0.79624038  0.87568077
   0.81552435  0.04023039  0.74387405
   0.93498439  0.45801916  0.69958274
   0.19144978  0.62495831  0.65488996
   0.31025173  0.70774112  0.69960547
   0.93447290  0.28711023  0.12441990
   0.43733316  0.45565706  0.47852574
   0.06224085  0.70568842  0.47850153
   0.93707709  0.12055261  0.43452345
   0.44404011  0.12445239  0.30049162
   0.18721349  0.12045014  0.43438477
   0.56338446  0.03873645  0.87574750
   0.18703271  0.95730094  0.56546318
   0.68424489  0.78845765  0.12477272
   0.55894144  0.70254354  0.34507599
   0.31624165  0.03730558  0.38901512
   0.68223098  0.11430915  0.16720519
   0.81507675  0.20503690  0.21166231
   0.05958104  0.53814606  0.25601041
   0.56223918  0.70576120  0.47863694
   0.43467467  0.78761951  0.12453320
   0.56888191  0.37409487  0.30039179
   0.43368684  0.95272979  0.34502968
   0.18504646  0.95801709  0.69965223
   0.43181449  0.61365367  0.16663970
   0.94010131  0.45556750  0.21199219
   0.06181645  0.53107515  0.12429508
   0.81168069  0.37187831  0.52138649
   0.94418516  0.62450783  0.30027164
   0.30940889  0.03798228  0.25589878
   0.68381591  0.78801458  0.61083015
   0.19178665  0.46264613  0.83316381
   0.43220029  0.11226361  0.16669308
   0.31135435  0.37155933  0.52138227
   0.43412868  0.62141866  0.78839913
   0.05900274  0.03842540  0.25610885
   0.56211298  0.70705988  0.56548521
   0.94027839  0.28976495  0.74398972
   0.68330772  0.12241044  0.78837023
   0.18956124  0.45504702  0.21165970
   0.94139755  0.78769106  0.38905887
   0.68643574  0.29772012  0.87575535
   0.55568945  0.86489815  0.16666882
   0.43533887  0.45790956  0.69954120
   0.93401460  0.95165073  0.34491896
   0.68651670  0.62128314  0.52126231
   0.06641069  0.87478295  0.65488975
   0.06033397  0.87303759  0.78822431
   0.06644142  0.37486241  0.65490705
   0.68704480  0.45561967  0.47861916
   0.18419373  0.78897554  0.25591166
   0.43732489  0.12059906  0.43444252
   0.81352641  0.03150986  0.12433971
   0.93651486  0.62159142  0.52137699
   0.44150795  0.12488449  0.65485898
   0.81255840  0.53070413  0.12440433
   0.43366190  0.45264429  0.34508749
   0.80886330  0.20259221  0.34504748
   0.30868048  0.70188139  0.34494223
   0.69142251  0.12494771  0.65493929
   0.56948950  0.87415416  0.30050701
   0.06564441  0.53973893  0.74397666
   0.94079080  0.95539798  0.21168816
   0.81662106  0.70547184  0.21179983
   0.06904273  0.87472469  0.30048482
   0.19443577  0.12456912  0.30046126
   0.05826020  0.70236830  0.34495435
   0.80891499  0.03791220  0.61084158
   0.06272240  0.37066494  0.43438810
   0.55854561  0.20258325  0.34498906
   0.81928612  0.37433610  0.30041911
   0.55964369  0.03895734  0.25594325
   0.56627879  0.53774387  0.38908457
   0.06246902  0.20586579  0.47862357
   0.31125629  0.87151245  0.78804874
   0.93523862  0.95829001  0.69955736
   0.06903405  0.37486729  0.30041141
   0.69130027  0.62493458  0.65491813
   0.68680763  0.45700724  0.56541155
   0.44020836  0.95665726  0.21226879
   0.31232231  0.20568785  0.47867766
   0.81338740  0.53893646  0.87573019
   0.68750871  0.62045880  0.43447962
   0.81059120  0.20749442  0.69965764
   0.81243061  0.70581859  0.47856929
   0.81168581  0.87078659  0.43426257
   0.93704816  0.95534513  0.47865576
   0.56224440  0.20568630  0.47862946
   0.18701251  0.62042768  0.43444225
   0.31544139  0.04068302  0.74388004
   0.94152561  0.62516665  0.65485813
   0.56661325  0.71267634  0.83312198
   0.31979909  0.37341641  0.30032774
   0.56500225  0.70475578  0.21176536
   0.18727646  0.45558513  0.47865924
   0.31365337  0.04029370  0.87560498
   0.18480903  0.45802252  0.69954307
   0.56170024  0.37150008  0.52138719
   0.19124544  0.28758570  0.38903264
   0.31550848  0.20539584  0.21162869
   0.06690754  0.70559920  0.21166973
   0.56216085  0.37045238  0.43444972
   0.43653695  0.62172148  0.52128744
   0.81616978  0.71403040  0.83302401
   0.06059723  0.37337917  0.78816702
   0.43663276  0.29643915  0.87596336
   0.31123630  0.03148772  0.12442564
   0.68799841  0.12050536  0.43435351
   0.18334247  0.95224425  0.34504537
   0.06643542  0.21321090  0.83356688
   0.55894123  0.03822597  0.61098449
   0.68967560  0.45560056  0.21203152
   0.19054446  0.79027220  0.74391439
   0.19441266  0.62456634  0.30045549
   0.44132343  0.78780853  0.38915188
   0.43360107  0.28935597  0.25610279
   0.06509188  0.53825330  0.87551752
   0.56595177  0.04044502  0.74389920
   0.18798763  0.79540809  0.87572292
   0.93715305  0.45558639  0.47860960
   0.56553025  0.54013765  0.74392460
   0.81133732  0.20667896  0.56540684
   0.18516069  0.62065094  0.78811085
   0.06657032  0.53811522  0.38914390
   0.06050523  0.70777087  0.69956488
   0.30804240  0.53857336  0.25571653
   0.31509702  0.70390236  0.21242587
   0.30526260  0.86521043  0.16612928
   0.43709879  0.62120777  0.43441706
   0.69334853  0.46026607  0.83377267
   0.93602517  0.29598292  0.87533480
   0.93777040  0.79442797  0.87524377
   0.06619448  0.03777215  0.87543261
   0.56274064  0.52991666  0.12489153
   0.80504996  0.36614668  0.16645695
   0.06224984  0.87062274  0.43439812
   0.93657318  0.12141111  0.52136903
   0.19309542  0.78792051  0.38909456
   0.31563518  0.54036264  0.74421808
Direct configuration=     2
   0.06172347  0.03159328  0.12444034
   0.31613114  0.87484243  0.65485932
   0.18515242  0.12196084  0.78829955
   0.44132989  0.28770448  0.38915722
   0.31677926  0.71248349  0.83300552
   0.81720388  0.21417409  0.83342648
   0.19097736  0.96228813  0.83333937
   0.56226133  0.20701424  0.56552752
   0.06503395  0.03980856  0.74393995
   0.81145020  0.87138715  0.52139935
   0.19069173  0.29067131  0.74392157
   0.93410950  0.45249420  0.34496923
   0.94098651  0.28747427  0.38913425
   0.81328942  0.04010211  0.87543093
   0.18392647  0.78821358  0.61077435
   0.56605936  0.03788522  0.38914391
   0.94210472  0.96281289  0.83358806
   0.31369231  0.53961816  0.87562047
   0.69026137  0.29043260  0.74398093
   0.18259792  0.61426117  0.16667659
   0.81216130  0.20564105  0.47861890
   0.80902328  0.53807567  0.61085401
   0.31204389  0.87050121  0.43444252
   0.80957085  0.03835267  0.25615552
   0.68400943  0.95208591  0.34494549
   0.93164526  0.11482686  0.16717093
   0.06174812  0.87144935  0.52140496
   0.55932213  0.53858311  0.25608935
   0.68491832  0.79505384  0.87548472
   0.55642926  0.36570503  0.16674252
   0.43976471  0.79087835  0.74405040
   0.81154549  0.70653145  0.56548954
   0.56028228  0.87281300  0.78833668
   0.68652279  0.12155630  0.52140516
   0.81601778  0.37472549  0.65489962
   0.94153968  0.46238971  0.83356053
   0.06062811  0.20790169  0.69954971
   0.43531716  0.95786850  0.69954724
   0.31613814  0.21177776  0.83323842
   0.44109657  0.62482693  0.65486389
   0.30910842  0.53808730  0.61081171
   0.93665633  0.45656568  0.56555129
   0.68997591  0.79107774  0.74405119
   0.93369861  0.78768190  0.12472783
   0.69121332  0.78755645  0.38913475
   0.94044786  0.79026929  0.74423153
   0.05930248  0.20306866  0.34502569
   0.68416972  0.45240562  0.34502031
   0.43489521  0.12175630  0.78854900
   0.06449297  0.20489993  0.21162793
   0.05576669  0.36582494  0.16674709
   0.93399364  0.78863061  0.25590020
   0.56067412  0.20774594  0.69955827
   0.68526693  0.95796814  0.69959959
   0.80989070  0.87272925  0.78817067
   0.43703320  0.95703597  0.56541713
   0.81153250  0.37332353  0.78803635
   0.68429266  0.28914991  0.25614016
   0.18719125  0.45712143  0.56546727
   0.05624602  0.86579673  0.16675144
   0.18420050  0.28815553  0.61084829
   0.06231531  0.20707680  0.56541819
   0.31059583  0.20803884  0.69960218
   0.56414751  0.53976923  0.87557433
   0.06182119  0.70623263  0.56550830
   0.68499493  0.62224802  0.78806014
   0.31596389  0.53766284  0.38912042
   0.18672550  0.62155947  0.52146116
   0.56235501  0.87041446  0.43442781
   0.43695267  0.45714173  0.56548609
   0.43975363  0.29113900  0.74400031
   0.81875808  0.87454470  0.30036764
   0.80884501  0.70241411  0.34502670
   0.44142421  0.46193264  0.83320639
   0.68742298  0.95561325  0.47859114
   0.68524112  0.45788076  0.69959375
   0.56177869  0.87195789  0.52146054
   0.56619629  0.37472036  0.65486209
   0.81606759  0.87471581  0.65490254
   0.81177331  0.37075593  0.43423952
   0.80912225  0.53825569  0.25618052
   0.81624033  0.03789970  0.38919996
   0.18595192  0.78766873  0.12432902
   0.69100031  0.28758648  0.38909722
   0.31600908  0.37476761  0.65487981
   0.30928161  0.20275321  0.34495902
   0.81533241  0.53997764  0.74392548
   0.69129748  0.96187131  0.83321346
   0.56587736  0.87485645  0.65490493
   0.31175902  0.70715295  0.56548120
   0.31202378  0.53173960  0.12432020
   0.68948934  0.95525528  0.21195130
   0.31149407  0.20658569  0.56552570
   0.18727846  0.95557624  0.47861250
   0.68728564  0.95701822  0.56551986
   0.43400411  0.78832996  0.61075076
   0.68236655  0.61256765  0.16672710
   0.31837736  0.87412441  0.30029234
   0.31216330  0.70560359  0.47856723
   0.93394137  0.28814380  0.61078664
   0.44417347  0.62451510  0.30044784
   0.80702867  0.86438098  0.16714415
   0.56611592  0.20348624  0.21182608
   0.93321173  0.61327495  0.16684622
   0.43723014  0.95551238  0.47857214
   0.56014448  0.37190022  0.78819407
   0.06140249  0.37218988  0.52140711
   0.30702883  0.36485268  0.16681127
   0.69418844  0.12407466  0.30041309
   0.44211082  0.96129501  0.83321763
   0.18478196  0.28694058  0.12458257
   0.18442163  0.28884614  0.25613161
   0.31248535  0.37039506  0.43442624
   0.56225049  0.03291136  0.12463221
   0.43400950  0.28835763  0.61075096
   0.18419280  0.45294975  0.34508878
   0.43438674  0.28677437  0.12462924
   0.68429125  0.78908814  0.25610253
   0.43664352  0.12169328  0.52143342
   0.18863492  0.29412032  0.87578085
   0.19104595  0.12492837  0.65490048
   0.94113027  0.12481180  0.65490220
   0.81605989  0.53755744  0.38912828
   0.06611235  0.03769510  0.38914738
   0.18294304  0.11269798  0.16669978
   0.05900395  0.53799677  0.61085358
   0.93450381  0.28909228  0.25607995
   0.55897299  0.53821634  0.61079406
   0.93674644  0.95713301  0.56547904
   0.69382906  0.62435983  0.30041826
   0.93751446  0.62077617  0.43442261
   0.93377652  0.62362044  0.78799526
   0.56056579  0.70760145  0.69956276
   0.06520751  0.71527432  0.83365158
   0.94422736  0.12382253  0.30037648
   0.93399649  0.78782533  0.61083904
   0.43428810  0.78914366  0.25607240
   0.31106263  0.37228176  0.78822547
   0.43981106  0.45530444  0.21188670
   0.18670724  0.12161528  0.52142962
   0.81044603  0.70787777  0.69955390
   0.05900734  0.03808060  0.61076372
   0.56589684  0.21341800  0.83311758
   0.31167657  0.87170146  0.52147465
   0.68623459  0.28662639  0.12443141
   0.18972633  0.95627778  0.21203091
   0.68390686  0.28828313  0.61083153
   0.30902791  0.03811912  0.61087229
   0.93524511  0.12318521  0.78834063
   0.43719652  0.79565909  0.87561530
   0.81527848  0.04034091  0.74387860
   0.93525985  0.45789888  0.69957500
   0.19105997  0.62482991  0.65488730
   0.31050339  0.70766922  0.69959267
   0.93442972  0.28653933  0.12448254
   0.43731116  0.45545821  0.47847198
   0.06224423  0.70545519  0.47846522
   0.93713691  0.12060337  0.43451663
   0.44360384  0.12412611  0.30048407
   0.18726314  0.12052756  0.43433854
   0.56352105  0.03951564  0.87566465
   0.18694823  0.95711866  0.56551208
   0.68442261  0.78785639  0.12483256
   0.55939669  0.70273114  0.34508722
   0.31593313  0.03738071  0.38909353
   0.68261570  0.11457997  0.16715493
   0.81488567  0.20484440  0.21170341
   0.05985308  0.53820273  0.25600560
   0.56230038  0.70564785  0.47856772
   0.43459139  0.78705993  0.12454498
   0.56833389  0.37391187  0.30038542
   0.43416337  0.95291317  0.34502603
   0.18530785  0.95794290  0.69964678
   0.43208538  0.61404998  0.16665208
   0.93988205  0.45543975  0.21200054
   0.06162431  0.53142120  0.12435598
   0.81168102  0.37205799  0.52144079
   0.94366625  0.62434013  0.30027784
   0.30977339  0.03800477  0.25592479
   0.68408490  0.78817160  0.61075838
   0.19158669  0.46243991  0.83323209
   0.43254232  0.11276382  0.16673150
   0.31142613  0.37175510  0.52144936
   0.43459424  0.62178301  0.78837512
   0.05932372  0.03839418  0.25609865
   0.56204219  0.70689717  0.56551936
   0.94006717  0.28980905  0.74398310
   0.68378849  0.12269388  0.78831332
   0.18927194  0.45499081  0.21168353
   0.94107939  0.78768559  0.38912221
   0.68656666  0.29687345  0.87574625
   0.55593438  0.86509504  0.16667561
   0.43555045  0.45781840  0.69954135
   0.93456234  0.95198557  0.34494909
   0.68651736  0.62150842  0.52135195
   0.06602842  0.87465937  0.65489303
   0.06059168  0.87311320  0.78821564
   0.06602975  0.37472629  0.65490389
   0.68707831  0.45543399  0.47853414
   0.18455979  0.78889549  0.25594586
   0.43733771  0.12069871  0.43441367
   0.81312521  0.03199142  0.12443751
   0.93650652  0.62173428  0.52143678
   0.44111823  0.12477643  0.65485769
   0.81248663  0.53124642  0.12441283
   0.43419618  0.45285237  0.34508823
   0.80936037  0.20275728  0.34506249
   0.30921737  0.70221373  0.34497009
   0.69100076  0.12483952  0.65492875
   0.56890420  0.87395989  0.30050085
   0.06529219  0.53983453  0.74396163
   0.94048474  0.95533662  0.21172910
   0.81619428  0.70519503  0.21182317
   0.06846827  0.87440885  0.30049713
   0.19384404  0.12436076  0.30044156
   0.05882755  0.70258566  0.34498129
   0.80921854  0.03810316  0.61076537
   0.06272177  0.37072210  0.43434125
   0.55907314  0.20274228  0.34501116
   0.81869893  0.37414275  0.30041670
   0.55999529  0.03891319  0.25597654
   0.56598712  0.53764028  0.38914826
   0.06242989  0.20565740  0.47854726
   0.31134559  0.87165639  0.78802950
   0.93545872  0.95815393  0.69955801
   0.06858370  0.37462380  0.30041777
   0.69092067  0.62482115  0.65491767
   0.68677387  0.45688725  0.56545822
   0.43996102  0.95640093  0.21223340
   0.31229214  0.20549834  0.47859793
   0.81333634  0.53976138  0.87569319
   0.68757754  0.62052523  0.43443851
   0.81080317  0.20748890  0.69964558
   0.81238160  0.70562533  0.47850193
   0.81170031  0.87086847  0.43425305
   0.93709395  0.95521423  0.47859019
   0.56229426  0.20551096  0.47855521
   0.18704682  0.62047028  0.43440785
   0.31514480  0.04074729  0.74389119
   0.94110541  0.62501143  0.65486028
   0.56641628  0.71230658  0.83314729
   0.31914391  0.37338545  0.30034717
   0.56480932  0.70465762  0.21177742
   0.18730544  0.45544664  0.47857760
   0.31393193  0.04107664  0.87554414
   0.18508754  0.45792375  0.69954349
   0.56175157  0.37171688  0.52145174
   0.19092728  0.28760834  0.38911133
   0.31523743  0.20526737  0.21165341
   0.06642655  0.70532617  0.21167495
   0.56219483  0.37056021  0.43441762
   0.43659828  0.62186854  0.52135436
   0.81594363  0.71363577  0.83303771
   0.06082111  0.37349600  0.78815240
   0.43681898  0.29588172  0.87586639
   0.31120515  0.03192085  0.12441244
   0.68794238  0.12064423  0.43432669
   0.18389032  0.95247634  0.34506247
   0.06617231  0.21281914  0.83353171
   0.55921877  0.03836829  0.61088623
   0.68941455  0.45543721  0.21202599
   0.19021400  0.79035112  0.74392212
   0.19382841  0.62432898  0.30044177
   0.44108078  0.78781063  0.38921057
   0.43407467  0.28918000  0.25608802
   0.06527577  0.53906610  0.87547539
   0.56573878  0.04056309  0.74392126
   0.18809424  0.79481499  0.87568798
   0.93712985  0.45538325  0.47854371
   0.56534228  0.54028451  0.74391363
   0.81135763  0.20663939  0.56545687
   0.18540134  0.62119942  0.78811424
   0.06629884  0.53809199  0.38920596
   0.06070579  0.70771711  0.69956943
   0.30852428  0.53849817  0.25575805
   0.31494177  0.70393154  0.21237914
   0.30557393  0.86535414  0.16614174
   0.43707301  0.62112120  0.43437970
   0.69295917  0.46041512  0.83379355
   0.93613869  0.29555440  0.87533673
   0.93775412  0.79386107  0.87524712
   0.06612733  0.03855787  0.87539363
   0.56256296  0.53045430  0.12490135
   0.80543102  0.36621473  0.16640170
   0.06226593  0.87072388  0.43437265
   0.93662307  0.12164827  0.52140596
   0.19266775  0.78780759  0.38912646
   0.31537931  0.54044895  0.74419591
Direct configuration=     3
   0.06134710  0.03282337  0.12463704
   0.31490711  0.87455774  0.65485527
   0.18605167  0.12292259  0.78819035
   0.44059806  0.28784210  0.38938531
   0.31571816  0.71158138  0.83312547
   0.81649619  0.21274490  0.83342767
   0.18998333  0.96147626  0.83341066
   0.56183161  0.20656675  0.56564455
   0.06415960  0.04022335  0.74393065
   0.81108686  0.87181977  0.52166736
   0.18954160  0.29070342  0.74394492
   0.93563418  0.45332962  0.34506506
   0.94009022  0.28762943  0.38929490
   0.81286567  0.04228812  0.87525378
   0.18502449  0.78861982  0.61054438
   0.56511249  0.03795705  0.38935861
   0.94207544  0.96180090  0.83355377
   0.31366285  0.54168166  0.87537053
   0.68958238  0.29054592  0.74395745
   0.18370119  0.61561281  0.16663731
   0.81205947  0.20538638  0.47840251
   0.80987700  0.53853237  0.61061511
   0.31250467  0.87097601  0.43435787
   0.81069834  0.03821501  0.25611844
   0.68554655  0.95314682  0.34503770
   0.93241648  0.11580459  0.16693911
   0.06219491  0.87197271  0.52157842
   0.56042017  0.53861423  0.25607841
   0.68596847  0.79349225  0.87532186
   0.55742112  0.36626784  0.16661003
   0.43938342  0.79099046  0.74402724
   0.81159921  0.70633899  0.56559365
   0.56119840  0.87297770  0.78820358
   0.68637586  0.12194296  0.52162906
   0.81479760  0.37444939  0.65490855
   0.94129310  0.46175557  0.83354162
   0.06118392  0.20768272  0.69956491
   0.43613688  0.95758842  0.69952294
   0.31528631  0.21064760  0.83345824
   0.43984631  0.62445721  0.65483316
   0.31011497  0.53869966  0.61056211
   0.93670367  0.45619756  0.56566359
   0.68941966  0.79109572  0.74402152
   0.93375761  0.78558326  0.12491550
   0.69048716  0.78747193  0.38931979
   0.93963575  0.79052101  0.74408845
   0.06087701  0.20374838  0.34506739
   0.68586215  0.45308471  0.34501442
   0.43587584  0.12278037  0.78838201
   0.06378025  0.20465214  0.21167841
   0.05666450  0.36625041  0.16658784
   0.93517872  0.78853171  0.25596828
   0.56124775  0.20751660  0.69955978
   0.68612092  0.95752870  0.69962980
   0.81077854  0.87330657  0.78812696
   0.43694303  0.95656087  0.56562437
   0.81179249  0.37326101  0.78801306
   0.68537083  0.28857453  0.25614837
   0.18696877  0.45656661  0.56562627
   0.05760663  0.86643623  0.16662119
   0.18521013  0.28876798  0.61065637
   0.06205576  0.20663946  0.56558272
   0.31135160  0.20775004  0.69959588
   0.56447156  0.54228272  0.87540279
   0.06177034  0.70608268  0.56561071
   0.68556939  0.62334076  0.78806550
   0.31504424  0.53754708  0.38935194
   0.18697762  0.62227251  0.52167252
   0.56237336  0.87092245  0.43433021
   0.43687397  0.45654201  0.56563978
   0.43939683  0.29104424  0.74396601
   0.81695784  0.87368007  0.30030968
   0.81056727  0.70289502  0.34508092
   0.44084533  0.46075047  0.83340398
   0.68754918  0.95510364  0.47837501
   0.68611406  0.45751779  0.69958059
   0.56184241  0.87207903  0.52165110
   0.56503427  0.37429433  0.65481055
   0.81482576  0.87430345  0.65491846
   0.81188497  0.37093123  0.43419991
   0.81031820  0.53824441  0.25615148
   0.81559344  0.03789224  0.38938039
   0.18552729  0.78539033  0.12448045
   0.69023736  0.28764009  0.38929154
   0.31475470  0.37446676  0.65483491
   0.31080620  0.20344996  0.34506876
   0.81450466  0.54031055  0.74385649
   0.69086928  0.96137823  0.83345091
   0.56471658  0.87438091  0.65490042
   0.31184452  0.70660022  0.56562534
   0.31100305  0.53336355  0.12449294
   0.68887556  0.95482816  0.21197443
   0.31183627  0.20650293  0.56564624
   0.18706210  0.95528320  0.47841946
   0.68717297  0.95650924  0.56566465
   0.43499738  0.78868226  0.61051417
   0.68255379  0.61415801  0.16676819
   0.31693686  0.87332568  0.30031755
   0.31200426  0.70518152  0.47833273
   0.93492573  0.28856384  0.61056589
   0.44224617  0.62359677  0.30044408
   0.80743302  0.86527671  0.16691002
   0.56490057  0.20362717  0.21196353
   0.93387489  0.61458834  0.16684167
   0.43732263  0.95497974  0.47837186
   0.56085742  0.37252108  0.78812842
   0.06149934  0.37258851  0.52159635
   0.30765445  0.36568182  0.16658944
   0.69225843  0.12356510  0.30043787
   0.44110262  0.96049454  0.83339853
   0.18490166  0.28528670  0.12480223
   0.18560490  0.28814159  0.25611775
   0.31266916  0.37077407  0.43430048
   0.56144884  0.03354929  0.12469907
   0.43496901  0.28876065  0.61052777
   0.18561377  0.45356802  0.34510496
   0.43383590  0.28486912  0.12481398
   0.68548585  0.78855629  0.25614657
   0.43679989  0.12246726  0.52163044
   0.18930828  0.29289989  0.87561184
   0.18992390  0.12453045  0.65489367
   0.93990143  0.12433893  0.65490148
   0.81522415  0.53749794  0.38929563
   0.06511690  0.03778392  0.38932305
   0.18319426  0.11446963  0.16674985
   0.06001561  0.53846714  0.61059464
   0.93553324  0.28839735  0.25607098
   0.55988678  0.53876968  0.61053404
   0.93673281  0.95625239  0.56562705
   0.69201410  0.62375905  0.30043390
   0.93754790  0.62105295  0.43429307
   0.93521987  0.62434854  0.78802958
   0.56109364  0.70729202  0.69954673
   0.06478358  0.71367913  0.83356953
   0.94210600  0.12350834  0.30039071
   0.93489732  0.78831810  0.61061881
   0.43561747  0.78868864  0.25613625
   0.31149160  0.37241112  0.78813083
   0.43933931  0.45476659  0.21191792
   0.18689788  0.12200301  0.52164250
   0.81115555  0.70771289  0.69958329
   0.05989611  0.03871969  0.61053171
   0.56504865  0.21203544  0.83320325
   0.31174082  0.87205914  0.52169364
   0.68603540  0.28461762  0.12462836
   0.18889536  0.95574715  0.21197297
   0.68476473  0.28888002  0.61064960
   0.31003715  0.03860699  0.61062508
   0.93590534  0.12408745  0.78821198
   0.43754825  0.79391520  0.87541890
   0.81454085  0.04067247  0.74389225
   0.93608624  0.45753803  0.69955176
   0.18989056  0.62444469  0.65487932
   0.31125834  0.70745350  0.69955424
   0.93430018  0.28482661  0.12467043
   0.43724515  0.45486167  0.47831072
   0.06225438  0.70475552  0.47835629
   0.93731637  0.12075567  0.43449616
   0.44229505  0.12314727  0.30046140
   0.18741210  0.12075982  0.43419985
   0.56393079  0.04185319  0.87541609
   0.18669479  0.95657183  0.56565878
   0.68495579  0.78605260  0.12501208
   0.56076244  0.70329393  0.34512092
   0.31500755  0.03760610  0.38932877
   0.68376984  0.11539244  0.16700416
   0.81431245  0.20426687  0.21182669
   0.06066921  0.53837273  0.25599118
   0.56248397  0.70530778  0.47836004
   0.43434157  0.78538120  0.12458031
   0.56668983  0.37336289  0.30036630
   0.43559297  0.95346331  0.34501508
   0.18609203  0.95772034  0.69963046
   0.43289806  0.61523892  0.16668920
   0.93922424  0.45505653  0.21202559
   0.06104790  0.53245933  0.12453866
   0.81168201  0.37259704  0.52160371
   0.94210951  0.62383701  0.30029643
   0.31086690  0.03807223  0.25600282
   0.68489187  0.78864268  0.61054309
   0.19098682  0.46182123  0.83343695
   0.43356841  0.11426447  0.16684674
   0.31164146  0.37234242  0.52165061
   0.43599091  0.62287605  0.78830310
   0.06028668  0.03830054  0.25606806
   0.56182980  0.70640907  0.56562179
   0.93943351  0.28994136  0.74396323
   0.68523079  0.12354420  0.78814262
   0.18840404  0.45482220  0.21175501
   0.94012491  0.78766917  0.38931223
   0.68695941  0.29433347  0.87571897
   0.55666919  0.86568572  0.16669600
   0.43618518  0.45754491  0.69954180
   0.93620556  0.95299011  0.34503948
   0.68651933  0.62218429  0.52162087
   0.06488158  0.87428864  0.65490289
   0.06136480  0.87334003  0.78818965
   0.06479473  0.37431793  0.65489443
   0.68717882  0.45487694  0.47827906
   0.18565798  0.78865536  0.25604848
   0.43737617  0.12099765  0.43432713
   0.81192163  0.03343613  0.12473094
   0.93648149  0.62216285  0.52161615
   0.43994907  0.12445225  0.65485382
   0.81227131  0.53287331  0.12443832
   0.43579902  0.45347662  0.34509044