 288 288   0   0
  0.1280206E+02  0.9726678E-09  0.8423550E-09  0.4500000E-08  0.2500000E-15
  1.000000000000000E-004
  CAR 
 unknown system                          
      6.77874621     -6.01620334  301      4.29514635      1.00000000
     -6.016  0.0000E+00  0.0000E+00
     -5.974  0.0000E+00  0.0000E+00
     -5.931  0.0000E+00  0.0000E+00
     -5.888  0.0000E+00  0.0000E+00
     -5.846  0.0000E+00  0.0000E+00
     -5.803  0.0000E+00  0.0000E+00
     -5.760  0.0000E+00  0.0000E+00
     -5.718  0.0000E+00  0.0000E+00
     -5.675  0.0000E+00  0.0000E+00
     -5.632  0.0000E+00  0.0000E+00
     -5.590  0.0000E+00  0.0000E+00
     -5.547  0.0000E+00  0.0000E+00
     -5.504  0.0000E+00  0.0000E+00
     -5.462  0.0000E+00  0.0000E+00
     -5.419  0.0000E+00  0.0000E+00
     -5.376  0.1627E-15  0.6939E-17
     -5.334  0.3579E-14  0.1596E-15
     -5.291  0.7718E-13  0.3451E-14
     -5.249  0.1409E-11  0.6356E-13
     -5.206  0.2195E-10  0.9996E-12
     -5.163  0.2915E-09  0.1343E-10
     -5.121  0.3302E-08  0.1542E-09
     -5.078  0.3192E-07  0.1516E-08
     -5.035  0.2636E-06  0.1276E-07
     -4.993  0.1860E-05  0.9211E-07
     -4.950  0.1124E-04  0.5714E-06
     -4.907  0.5819E-04  0.3053E-05
     -4.865  0.2589E-03  0.1410E-04
     -4.822  0.9929E-03  0.5644E-04
     -4.779  0.3297E-02  0.1971E-03
     -4.737  0.9534E-02  0.6037E-03
     -4.694  0.2419E-01  0.1635E-02
     -4.651  0.5438E-01  0.3955E-02
     -4.609  0.1094E+00  0.8623E-02
     -4.566  0.1995E+00  0.1713E-01
     -4.523  0.3326E+00  0.3132E-01
     -4.481  0.5119E+00  0.5315E-01
     -4.438  0.7316E+00  0.8435E-01
     -4.396  0.9759E+00  0.1260E+00
     -4.353  0.1220E+01  0.1780E+00
     -4.310  0.1438E+01  0.2393E+00
     -4.268  0.1607E+01  0.3079E+00
     -4.225  0.1718E+01  0.3811E+00
     -4.182  0.1783E+01  0.4572E+00
     -4.140  0.1829E+01  0.5352E+00
     -4.097  0.1899E+01  0.6162E+00
     -4.054  0.2025E+01  0.7026E+00
     -4.012  0.2225E+01  0.7975E+00
     -3.969  0.2484E+01  0.9034E+00
     -3.926  0.2763E+01  0.1021E+01
     -3.884  0.3006E+01  0.1149E+01
     -3.841  0.3164E+01  0.1284E+01
     -3.798  0.3213E+01  0.1421E+01
     -3.756  0.3169E+01  0.1557E+01
     -3.713  0.3082E+01  0.1688E+01
     -3.670  0.3017E+01  0.1817E+01
     -3.628  0.3032E+01  0.1946E+01
     -3.585  0.3151E+01  0.2081E+01
     -3.543  0.3362E+01  0.2224E+01
     -3.500  0.3615E+01  0.2378E+01
     -3.457  0.3850E+01  0.2542E+01
     -3.415  0.4021E+01  0.2714E+01
     -3.372  0.4114E+01  0.2889E+01
     -3.329  0.4143E+01  0.3066E+01
     -3.287  0.4141E+01  0.3243E+01
     -3.244  0.4145E+01  0.3419E+01
     -3.201  0.4185E+01  0.3598E+01
     -3.159  0.4277E+01  0.3780E+01
     -3.116  0.4422E+01  0.3969E+01
     -3.073  0.4608E+01  0.4165E+01
     -3.031  0.4812E+01  0.4371E+01
     -2.988  0.5006E+01  0.4584E+01
     -2.945  0.5163E+01  0.4804E+01
     -2.903  0.5269E+01  0.5029E+01
     -2.860  0.5331E+01  0.5256E+01
     -2.817  0.5377E+01  0.5486E+01
     -2.775  0.5437E+01  0.5718E+01
     -2.732  0.5531E+01  0.5954E+01
     -2.690  0.5645E+01  0.6194E+01
     -2.647  0.5722E+01  0.6438E+01
     -2.604  0.5703E+01  0.6682E+01
     -2.562  0.5575E+01  0.6919E+01
     -2.519  0.5412E+01  0.7150E+01
     -2.476  0.5352E+01  0.7378E+01
     -2.434  0.5526E+01  0.7614E+01
     -2.391  0.5974E+01  0.7869E+01
     -2.348  0.6603E+01  0.8150E+01
     -2.306  0.7217E+01  0.8458E+01
     -2.263  0.7605E+01  0.8783E+01
     -2.220  0.7651E+01  0.9109E+01
     -2.178  0.7397E+01  0.9424E+01
     -2.135  0.7023E+01  0.9724E+01
     -2.092  0.6767E+01  0.1001E+02
     -2.050  0.6802E+01  0.1030E+02
     -2.007  0.7163E+01  0.1061E+02
     -1.964  0.7734E+01  0.1094E+02
     -1.922  0.8320E+01  0.1129E+02
     -1.879  0.8738E+01  0.1167E+02
     -1.837  0.8900E+01  0.1205E+02
     -1.794  0.8847E+01  0.1242E+02
     -1.751  0.8715E+01  0.1279E+02
     -1.709  0.8648E+01  0.1316E+02
     -1.666  0.8724E+01  0.1353E+02
     -1.623  0.8928E+01  0.1392E+02
     -1.581  0.9197E+01  0.1431E+02
     -1.538  0.9477E+01  0.1471E+02
     -1.495  0.9751E+01  0.1513E+02
     -1.453  0.1002E+02  0.1556E+02
     -1.410  0.1025E+02  0.1599E+02
     -1.367  0.1042E+02  0.1644E+02
     -1.325  0.1051E+02  0.1689E+02
     -1.282  0.1064E+02  0.1734E+02
     -1.239  0.1099E+02  0.1781E+02
     -1.197  0.1174E+02  0.1831E+02
     -1.154  0.1286E+02  0.1886E+02
     -1.111  0.1410E+02  0.1946E+02
     -1.069  0.1509E+02  0.2010E+02
     -1.026  0.1558E+02  0.2077E+02
     -0.984  0.1561E+02  0.2143E+02
     -0.941  0.1551E+02  0.2209E+02
     -0.898  0.1572E+02  0.2276E+02
     -0.856  0.1653E+02  0.2347E+02
     -0.813  0.1796E+02  0.2423E+02
     -0.770  0.1989E+02  0.2508E+02
     -0.728  0.2229E+02  0.2603E+02
     -0.685  0.2529E+02  0.2711E+02
     -0.642  0.2910E+02  0.2835E+02
     -0.600  0.3368E+02  0.2979E+02
     -0.557  0.3863E+02  0.3144E+02
     -0.514  0.4328E+02  0.3328E+02
     -0.472  0.4708E+02  0.3529E+02
     -0.429  0.4992E+02  0.3742E+02
     -0.386  0.5200E+02  0.3964E+02
     -0.344  0.5365E+02  0.4193E+02
     -0.301  0.5504E+02  0.4427E+02
     -0.258  0.5611E+02  0.4667E+02
     -0.216  0.5677E+02  0.4909E+02
     -0.173  0.5700E+02  0.5152E+02
     -0.131  0.5694E+02  0.5395E+02
     -0.088  0.5683E+02  0.5637E+02
     -0.045  0.5694E+02  0.5880E+02
     -0.003  0.5749E+02  0.6125E+02
      0.040  0.5869E+02  0.6376E+02
      0.083  0.6063E+02  0.6634E+02
      0.125  0.6330E+02  0.6904E+02
      0.168  0.6656E+02  0.7188E+02
      0.211  0.7020E+02  0.7487E+02
      0.253  0.7396E+02  0.7803E+02
      0.296  0.7755E+02  0.8134E+02
      0.339  0.8067E+02  0.8478E+02
      0.381  0.8314E+02  0.8832E+02
      0.424  0.8497E+02  0.9195E+02
      0.467  0.8623E+02  0.9562E+02
      0.509  0.8702E+02  0.9933E+02
      0.552  0.8733E+02  0.1031E+03
      0.595  0.8715E+02  0.1068E+03
      0.637  0.8655E+02  0.1105E+03
      0.680  0.8559E+02  0.1141E+03
      0.722  0.8429E+02  0.1177E+03
      0.765  0.8263E+02  0.1212E+03
      0.808  0.8068E+02  0.1247E+03
      0.850  0.7866E+02  0.1280E+03
      0.893  0.7698E+02  0.1313E+03
      0.936  0.7597E+02  0.1346E+03
      0.978  0.7570E+02  0.1378E+03
      1.021  0.7594E+02  0.1410E+03
      1.064  0.7626E+02  0.1443E+03
      1.106  0.7630E+02  0.1475E+03
      1.149  0.7591E+02  0.1508E+03
      1.192  0.7520E+02  0.1540E+03
      1.234  0.7438E+02  0.1571E+03
      1.277  0.7362E+02  0.1603E+03
      1.320  0.7294E+02  0.1634E+03
      1.362  0.7220E+02  0.1665E+03
      1.405  0.7121E+02  0.1695E+03
      1.448  0.6983E+02  0.1725E+03
      1.490  0.6816E+02  0.1754E+03
      1.533  0.6662E+02  0.1782E+03
      1.575  0.6579E+02  0.1810E+03
      1.618  0.6616E+02  0.1839E+03
      1.661  0.6781E+02  0.1868E+03
      1.703  0.7045E+02  0.1898E+03
      1.746  0.7357E+02  0.1929E+03
      1.789  0.7674E+02  0.1962E+03
      1.831  0.7973E+02  0.1996E+03
      1.874  0.8246E+02  0.2031E+03
      1.917  0.8491E+02  0.2067E+03
      1.959  0.8709E+02  0.2104E+03
      2.002  0.8905E+02  0.2142E+03
      2.045  0.9084E+02  0.2181E+03
      2.087  0.9244E+02  0.2220E+03
      2.130  0.9377E+02  0.2260E+03
      2.173  0.9483E+02  0.2301E+03
      2.215  0.9586E+02  0.2342E+03
      2.258  0.9729E+02  0.2383E+03
      2.301  0.9955E+02  0.2426E+03
      2.343  0.1028E+03  0.2470E+03
      2.386  0.1069E+03  0.2515E+03
      2.428  0.1114E+03  0.2563E+03
      2.471  0.1157E+03  0.2612E+03
      2.514  0.1193E+03  0.2663E+03
      2.556  0.1222E+03  0.2715E+03
      2.599  0.1245E+03  0.2768E+03
      2.642  0.1264E+03  0.2822E+03
      2.684  0.1282E+03  0.2877E+03
      2.727  0.1302E+03  0.2932E+03
      2.770  0.1324E+03  0.2989E+03
      2.812  0.1350E+03  0.3046E+03
      2.855  0.1379E+03  0.3105E+03
      2.898  0.1405E+03  0.3165E+03
      2.940  0.1420E+03  0.3226E+03
      2.983  0.1413E+03  0.3286E+03
      3.026  0.1379E+03  0.3345E+03
      3.068  0.1318E+03  0.3401E+03
      3.111  0.1237E+03  0.3454E+03
      3.154  0.1147E+03  0.3503E+03
      3.196  0.1060E+03  0.3548E+03
      3.239  0.9858E+02  0.3590E+03
      3.281  0.9298E+02  0.3630E+03
      3.324  0.8913E+02  0.3668E+03
      3.367  0.8671E+02  0.3705E+03
      3.409  0.8528E+02  0.3741E+03
      3.452  0.8444E+02  0.3777E+03
      3.495  0.8384E+02  0.3813E+03
      3.537  0.8324E+02  0.3848E+03
      3.580  0.8260E+02  0.3883E+03
      3.623  0.8224E+02  0.3918E+03
      3.665  0.8268E+02  0.3954E+03
      3.708  0.8440E+02  0.3990E+03
      3.751  0.8752E+02  0.4027E+03
      3.793  0.9166E+02  0.4066E+03
      3.836  0.9617E+02  0.4107E+03
      3.879  0.1004E+03  0.4150E+03
      3.921  0.1039E+03  0.4194E+03
      3.964  0.1065E+03  0.4240E+03
      4.007  0.1082E+03  0.4286E+03
      4.049  0.1089E+03  0.4332E+03
      4.092  0.1088E+03  0.4379E+03
      4.134  0.1081E+03  0.4425E+03
      4.177  0.1070E+03  0.4470E+03
      4.220  0.1057E+03  0.4516E+03
      4.262  0.1045E+03  0.4560E+03
      4.305  0.1033E+03  0.4604E+03
      4.348  0.1024E+03  0.4648E+03
      4.390  0.1018E+03  0.4691E+03
      4.433  0.1015E+03  0.4735E+03
      4.476  0.1011E+03  0.4778E+03
      4.518  0.1003E+03  0.4820E+03
      4.561  0.9905E+02  0.4863E+03
      4.604  0.9776E+02  0.4904E+03
      4.646  0.9697E+02  0.4946E+03
      4.689  0.9716E+02  0.4987E+03
      4.732  0.9846E+02  0.5029E+03
      4.774  0.1007E+03  0.5072E+03
      4.817  0.1033E+03  0.5116E+03
      4.860  0.1060E+03  0.5161E+03
      4.902  0.1081E+03  0.5207E+03
      4.945  0.1093E+03  0.5254E+03
      4.987  0.1092E+03  0.5301E+03
      5.030  0.1073E+03  0.5346E+03
      5.073  0.1026E+03  0.5390E+03
      5.115  0.9420E+02  0.5430E+03
      5.158  0.8170E+02  0.5465E+03
      5.201  0.6585E+02  0.5493E+03
      5.243  0.4862E+02  0.5514E+03
      5.286  0.3249E+02  0.5528E+03
      5.329  0.1947E+02  0.5536E+03
      5.371  0.1039E+02  0.5541E+03
      5.414  0.4905E+01  0.5543E+03
      5.457  0.2041E+01  0.5544E+03
      5.499  0.7461E+00  0.5544E+03
      5.542  0.2388E+00  0.5544E+03
      5.585  0.6676E-01  0.5544E+03
      5.627  0.1627E-01  0.5544E+03
      5.670  0.3453E-02  0.5544E+03
      5.713  0.6367E-03  0.5544E+03
      5.755  0.1019E-03  0.5544E+03
      5.798  0.1414E-04  0.5544E+03
      5.840  0.1698E-05  0.5544E+03
      5.883  0.1765E-06  0.5544E+03
      5.926  0.1584E-07  0.5544E+03
      5.968  0.1228E-08  0.5544E+03
      6.011  0.8206E-10  0.5544E+03
      6.054  0.4725E-11  0.5544E+03
      6.096  0.2332E-12  0.5544E+03
      6.139  0.9241E-14  0.5544E+03
      6.182  0.1952E-15  0.5544E+03
      6.224  0.0000E+00  0.5544E+03
      6.267  0.0000E+00  0.5544E+03
      6.310  0.0000E+00  0.5544E+03
      6.352  0.0000E+00  0.5544E+03
      6.395  0.0000E+00  0.5544E+03
      6.438  0.0000E+00  0.5544E+03
      6.480  0.0000E+00  0.5544E+03
      6.523  0.0000E+00  0.5544E+03
      6.565  0.0000E+00  0.5544E+03
      6.608  0.0000E+00  0.5544E+03
      6.651  0.0000E+00  0.5544E+03
      6.693  0.0000E+00  0.5544E+03
      6.736  0.0000E+00  0.5544E+03
      6.779  0.0000E+00  0.5544E+03
