<?xml version="1.0" encoding="ISO-8859-1"?>
<modeling>
 <generator>
  <i name="program" type="string">vasp </i>
  <i name="version" type="string">5.4.4.18Apr17-6-g9f103f2a35  </i>
  <i name="subversion" type="string">(build Sep 27 2018 12:46:37) complex + VL-xray_ parallel </i>
  <i name="platform" type="string">LLNL_Quartz_ifc </i>
  <i name="date" type="string">2021 09 26 </i>
  <i name="time" type="string">18:40:28 </i>
 </generator>
 <incar>
  <i type="int" name="ISTART">     2</i>
  <i type="string" name="PREC">accurate</i>
  <i type="string" name="ALGO"> Fast</i>
  <i type="int" name="ICHARG">     2</i>
  <i type="int" name="INIWAV">     1</i>
  <i type="int" name="NELM">   200</i>
  <i type="int" name="NELMIN">     4</i>
  <i type="int" name="IBRION">     2</i>
  <i name="EDIFF">      0.00000100</i>
  <i type="int" name="NSW">     5</i>
  <i type="int" name="ISIF">     2</i>
  <i type="int" name="ISYM">     2</i>
  <i name="ENCUT">    450.00000000</i>
  <i name="POTIM">      0.25000000</i>
  <i type="string" name="LREAL"> Auto</i>
  <i type="int" name="ISMEAR">     0</i>
  <i name="SIGMA">      0.15000000</i>
  <i type="logical" name="LWAVE"> F  </i>
  <i type="logical" name="LCHARG"> F  </i>
  <i type="int" name="ICORELEVEL">     0</i>
  <i type="int" name="CLNT">     1</i>
  <i type="int" name="CLN">     1</i>
  <i type="int" name="INCAR     ">     0</i>
  <i name="CLZ">      0.00000000</i>
  <v type="int" name="KPOINT_BSE">    -1     0     0     0</v>
  <i type="int" name="NELM">   200</i>
 </incar>
 <structure name="primitive_cell" >
  <crystal>
   <varray name="basis" >
    <v>       9.72667804       0.00000000       0.00000000 </v>
    <v>       0.00000000       8.42355028       0.00000000 </v>
    <v>       0.00000000       0.00000000      45.00000000 </v>
   </varray>
   <i name="volume">   3686.99226691 </i>
   <varray name="rec_basis" >
    <v>       0.10281002       0.00000000       0.00000000 </v>
    <v>       0.00000000       0.11871479       0.00000000 </v>
    <v>       0.00000000       0.00000000       0.02222222 </v>
   </varray>
  </crystal>
  <varray name="positions" >
   <v>       0.05395249      -0.29881455       0.21130986 </v>
   <v>      -0.05880160      -0.21238058       0.25531918 </v>
   <v>      -0.05880204      -0.38759133       0.16662125 </v>
   <v>       0.06569538      -0.46267344       0.25525932 </v>
   <v>      -0.07089005       0.45151226       0.21125541 </v>
   <v>       0.17844884       0.45116335       0.21133881 </v>
   <v>       0.06758770      -0.13703793       0.16665426 </v>
   <v>      -0.19616144      -0.29883850       0.21118544 </v>
   <v>      -0.07074606      -0.04845983       0.21129785 </v>
   <v>       0.17877584      -0.04853431       0.21133992 </v>
   <v>       0.30410514      -0.29909822       0.21129144 </v>
   <v>       0.19065756      -0.21274011       0.25521779 </v>
   <v>       0.19182495      -0.38833941       0.16644149 </v>
   <v>      -0.18216361      -0.13846070       0.16675784 </v>
   <v>      -0.18462307      -0.46247526       0.25519315 </v>
   <v>       0.06584727       0.03751473       0.25519778 </v>
   <v>       0.06748741       0.36302652       0.16664235 </v>
   <v>       0.31540582      -0.46225912       0.25516445 </v>
   <v>       0.31865153      -0.13707714       0.16585781 </v>
   <v>      -0.30908319      -0.21247751       0.25539670 </v>
   <v>      -0.30819292      -0.38748594       0.16672827 </v>
   <v>      -0.06527472      -0.21793335       0.12420882 </v>
   <v>      -0.05880403       0.11215386       0.16661262 </v>
   <v>      -0.05890171       0.28739858       0.25530241 </v>
   <v>      -0.18452479       0.03735307       0.25517465 </v>
   <v>       0.18608755      -0.21694803       0.12431551 </v>
   <v>      -0.18227404       0.36172951       0.16672959 </v>
   <v>       0.05719905      -0.47355588       0.12416091 </v>
   <v>       0.17814933      -0.37627647       0.29956416 </v>
   <v>      -0.07204668      -0.37649149       0.29957900 </v>
   <v>      -0.32086176      -0.04878458       0.21128152 </v>
   <v>       0.05420178       0.20108360       0.21129964 </v>
   <v>      -0.32102835       0.45131876       0.21127286 </v>
   <v>       0.42922819       0.45120137       0.21140213 </v>
   <v>       0.42925391      -0.04882510       0.21142621 </v>
   <v>       0.19196207       0.11169557       0.16646212 </v>
   <v>       0.19101228       0.28738613       0.25526046 </v>
   <v>       0.05268756      -0.12611659       0.29956082 </v>
   <v>       0.31563341       0.03769374       0.25515914 </v>
   <v>       0.44095070      -0.21265615       0.25521075 </v>
   <v>       0.44130422      -0.38942744       0.16648215 </v>
   <v>       0.31840655       0.36288626       0.16583035 </v>
   <v>       0.05735522       0.02644077       0.12419434 </v>
   <v>      -0.19156024      -0.47191098       0.12394498 </v>
   <v>       0.05284281       0.37382957       0.29954877 </v>
   <v>       0.30440709       0.20061230       0.21126512 </v>
   <v>      -0.44624891      -0.29899144       0.21118345 </v>
   <v>      -0.19606775       0.20128267       0.21120885 </v>
   <v>       0.30780390      -0.47441449       0.12401347 </v>
   <v>       0.30285597      -0.12606945       0.29958456 </v>
   <v>      -0.19696625      -0.12647604       0.29947318 </v>
   <v>      -0.43459286      -0.46265375       0.25512796 </v>
   <v>      -0.43324443      -0.13730714       0.16648214 </v>
   <v>      -0.30816087       0.11239832       0.16673320 </v>
   <v>      -0.31195352      -0.21754005       0.12426092 </v>
   <v>      -0.30907383       0.28747595       0.25535077 </v>
   <v>      -0.19072169       0.02816740       0.12396831 </v>
   <v>       0.30908073       0.02572369       0.12402794 </v>
   <v>      -0.06557952       0.28207980       0.12421458 </v>
   <v>       0.30310034       0.37392458       0.29959595 </v>
   <v>      -0.19689228       0.37347185       0.29941880 </v>
   <v>       0.18594062       0.28312682       0.12428561 </v>
   <v>       0.42797590      -0.37625747       0.29947243 </v>
   <v>      -0.32182132      -0.37655245       0.29944770 </v>
   <v>       0.43687855      -0.21621595       0.12406845 </v>
   <v>       0.17808669       0.12383653       0.29955144 </v>
   <v>      -0.07217867       0.12356611       0.29959585 </v>
   <v>       0.44137344       0.11048180       0.16646866 </v>
   <v>       0.44072912       0.28734173       0.25519407 </v>
   <v>      -0.43436980       0.03749862       0.25513556 </v>
   <v>      -0.43314344       0.36279225       0.16647188 </v>
   <v>       0.06461618      -0.29140125       0.34376751 </v>
   <v>      -0.31210825       0.28243394       0.12421340 </v>
   <v>      -0.44112708      -0.47340920       0.12394083 </v>
   <v>      -0.18552577      -0.29132544       0.34384719 </v>
   <v>      -0.06010391       0.45913547       0.34404793 </v>
   <v>      -0.44582860       0.20087555       0.21117230 </v>
   <v>      -0.44705690      -0.12628466       0.29957956 </v>
   <v>       0.18979902       0.45881248       0.34399803 </v>
   <v>      -0.05978283      -0.04093756       0.34401700 </v>
   <v>       0.43682900       0.28350364       0.12409263 </v>
   <v>       0.42810259       0.12353711       0.29950423 </v>
   <v>      -0.32202736       0.12371355       0.29948000 </v>
   <v>       0.31475725      -0.29124931       0.34393430 </v>
   <v>       0.18981977      -0.04120040       0.34398062 </v>
   <v>      -0.44018636       0.02675025       0.12396489 </v>
   <v>      -0.44708394       0.37369426       0.29957271 </v>
   <v>      -0.31033909       0.45883699       0.34397245 </v>
   <v>       0.06474774       0.20856116       0.34379651 </v>
   <v>      -0.31028420      -0.04110088       0.34397160 </v>
   <v>       0.43971268       0.45872699       0.34398521 </v>
   <v>       0.43972801      -0.04131841       0.34399367 </v>
   <v>      -0.18551850       0.20883087       0.34379568 </v>
   <v>      -0.43525074      -0.29104606       0.34393754 </v>
   <v>       0.31486246       0.20898590       0.34399442 </v>
   <v>       0.06125385      -0.45856923       0.38834149 </v>
   <v>      -0.06351479      -0.20868695       0.38844335 </v>
   <v>       0.18599270      -0.20867611       0.38832717 </v>
   <v>      -0.18899727      -0.45816565       0.38832425 </v>
   <v>       0.31122456      -0.45854575       0.38842369 </v>
   <v>       0.06136116       0.04136252       0.38841892 </v>
   <v>      -0.43515877       0.20893155       0.34399326 </v>
   <v>      -0.06366316       0.29146865       0.38842872 </v>
   <v>      -0.31368862      -0.20873931       0.38842878 </v>
   <v>       0.18599850       0.29131564       0.38834061 </v>
   <v>      -0.18901614       0.04161037       0.38832085 </v>
   <v>       0.43613832      -0.20877903       0.38837567 </v>
   <v>       0.31140582       0.04146280       0.38840826 </v>
   <v>      -0.31352765       0.29132847       0.38842624 </v>
   <v>      -0.43857867      -0.45854487       0.38842705 </v>
   <v>       0.43610507       0.29133229       0.38834958 </v>
   <v>      -0.43831281       0.04146015       0.38844872 </v>
   <v>      -0.06666859      -0.37461253       0.43311585 </v>
   <v>       0.05853101      -0.12521673       0.43294852 </v>
   <v>       0.18366978      -0.37493617       0.43312343 </v>
   <v>       0.05863369       0.37483386       0.43290000 </v>
   <v>      -0.19120890      -0.12483015       0.43301545 </v>
   <v>       0.30869379      -0.12506406       0.43290221 </v>
   <v>      -0.31631858      -0.37489530       0.43287111 </v>
   <v>      -0.19124523       0.37500229       0.43307415 </v>
   <v>       0.30893733       0.37502331       0.43293876 </v>
   <v>       0.43357932      -0.37489353       0.43298409 </v>
   <v>      -0.06662070       0.12540430       0.43306089 </v>
   <v>       0.18344418       0.12516952       0.43310288 </v>
   <v>      -0.44145853      -0.12518838       0.43304798 </v>
   <v>      -0.31617353       0.12492604       0.43288600 </v>
   <v>       0.43363342       0.12487302       0.43295110 </v>
   <v>      -0.44144255       0.37475147       0.43305985 </v>
   <v>       0.06775848      -0.28932894       0.47735994 </v>
   <v>      -0.05740106       0.46050466       0.47721114 </v>
   <v>      -0.18223038      -0.28925302       0.47744454 </v>
   <v>      -0.05737259      -0.03928941       0.47719649 </v>
   <v>       0.19260892       0.46080191       0.47745553 </v>
   <v>       0.31763276      -0.28962800       0.47727609 </v>
   <v>       0.19267600      -0.03924821       0.47748701 </v>
   <v>      -0.30720293       0.46075290       0.47742147 </v>
   <v>       0.06792151       0.21064793       0.47743076 </v>
   <v>      -0.30715910      -0.03941265       0.47742362 </v>
   <v>       0.44276223       0.46069652       0.47742738 </v>
   <v>       0.44289247      -0.03925811       0.47742408 </v>
   <v>      -0.43235267      -0.28951027       0.47737534 </v>
   <v>      -0.18221256       0.21072023       0.47745253 </v>
   <v>       0.31767402       0.21043056       0.47728132 </v>
   <v>      -0.43221692       0.21052270       0.47742092 </v>
   <v>      -0.06789204      -0.21154285      -0.47762104 </v>
   <v>       0.05745131      -0.46076525      -0.47749282 </v>
   <v>       0.18223476      -0.21067625      -0.47744643 </v>
   <v>      -0.19257805      -0.46072643      -0.47748469 </v>
   <v>       0.30685263      -0.46094332      -0.47756227 </v>
   <v>       0.05723698       0.03916677      -0.47747940 </v>
   <v>      -0.06760544       0.28851831      -0.47759816 </v>
   <v>      -0.31805089      -0.21128325      -0.47765030 </v>
   <v>       0.18229683       0.28923318      -0.47752513 </v>
   <v>       0.30709618       0.03852561      -0.47768834 </v>
   <v>      -0.19279592       0.03933651      -0.47741087 </v>
   <v>       0.43203054      -0.21099624      -0.47753975 </v>
   <v>      -0.31786815       0.28870666      -0.47768570 </v>
   <v>      -0.44265762      -0.46075627      -0.47755345 </v>
   <v>       0.43213596       0.28876748      -0.47771884 </v>
   <v>       0.06752354      -0.27674246      -0.12379645 </v>
   <v>      -0.44303111       0.03920008      -0.47755731 </v>
   <v>      -0.18348531      -0.27617731      -0.12364379 </v>
   <v>      -0.06016031       0.46847401      -0.12386957 </v>
   <v>       0.18974067       0.46792352      -0.12390333 </v>
   <v>      -0.06034429      -0.03144150      -0.12386995 </v>
   <v>       0.31799925      -0.27613032      -0.12375978 </v>
   <v>       0.18971862      -0.03203993      -0.12386917 </v>
   <v>       0.06818679       0.22329456      -0.12381732 </v>
   <v>      -0.31012404       0.46786388      -0.12391404 </v>
   <v>      -0.31019687      -0.03161774      -0.12387815 </v>
   <v>       0.43992424       0.46805630      -0.12405963 </v>
   <v>       0.43965227      -0.03213888      -0.12391718 </v>
   <v>      -0.18247070       0.22393818      -0.12378729 </v>
   <v>      -0.43253563      -0.27528479      -0.12375147 </v>
   <v>       0.31733086       0.22351630      -0.12383154 </v>
   <v>      -0.05849858      -0.37480372      -0.43319439 </v>
   <v>       0.19175286      -0.37506812      -0.43313630 </v>
   <v>       0.06667827      -0.12501885      -0.43309722 </v>
   <v>      -0.18342238      -0.12495163      -0.43311678 </v>
   <v>       0.06661779       0.37501184      -0.43313523 </v>
   <v>       0.31659927      -0.12511234      -0.43326442 </v>
   <v>      -0.43155786       0.22380112      -0.12384178 </v>
   <v>      -0.30832209      -0.37494801      -0.43310930 </v>
   <v>      -0.18339351       0.37501280      -0.43309949 </v>
   <v>      -0.05841083       0.12503845      -0.43320797 </v>
   <v>       0.31659007       0.37480159      -0.43318376 </v>
   <v>       0.44173870      -0.37487839      -0.43319596 </v>
   <v>       0.19153178       0.12503327      -0.43310820 </v>
   <v>      -0.43321927      -0.12518917      -0.43324449 </v>
   <v>      -0.30822845       0.12487424      -0.43312121 </v>
   <v>       0.44148913       0.12501255      -0.43309524 </v>
   <v>      -0.43318316       0.37502562      -0.43324426 </v>
   <v>      -0.06619800      -0.36220564      -0.16599198 </v>
   <v>       0.18324533      -0.36223188      -0.16637291 </v>
   <v>       0.05870487      -0.11237338      -0.16650938 </v>
   <v>       0.05869200       0.38838951      -0.16644277 </v>
   <v>      -0.19143406      -0.11234545      -0.16644021 </v>
   <v>       0.30855270      -0.11246003      -0.16648759 </v>
   <v>      -0.19157424       0.38766751      -0.16647175 </v>
   <v>       0.30842644       0.38745492      -0.16645845 </v>
   <v>      -0.31638382      -0.36226840      -0.16648791 </v>
   <v>       0.43370783      -0.36214693      -0.16646370 </v>
   <v>      -0.06623683       0.13777222      -0.16643763 </v>
   <v>       0.18368657       0.13773515      -0.16640946 </v>
   <v>      -0.44135926      -0.11241287      -0.16649837 </v>
   <v>      -0.31654597       0.13768233      -0.16648622 </v>
   <v>       0.43352594       0.13761281      -0.16647789 </v>
   <v>      -0.44146936       0.38753827      -0.16649821 </v>
   <v>       0.06325359      -0.29158353      -0.38840846 </v>
   <v>      -0.18648354      -0.29161699      -0.38840476 </v>
   <v>      -0.06181375       0.45826559      -0.38838533 </v>
   <v>       0.18832466       0.45846367      -0.38850245 </v>
   <v>      -0.06190939      -0.04166258      -0.38849628 </v>
   <v>       0.18767227      -0.04177994      -0.38865660 </v>
   <v>       0.31350006      -0.29139224      -0.38844684 </v>
   <v>      -0.31209403       0.45804224      -0.38856905 </v>
   <v>      -0.31190807      -0.04152206      -0.38854089 </v>
   <v>       0.06326973       0.20847389      -0.38845424 </v>
   <v>       0.43807360       0.45822438      -0.38838783 </v>
   <v>       0.43856237      -0.04129670      -0.38842134 </v>
   <v>      -0.18649625       0.20831585      -0.38843431 </v>
   <v>      -0.43649125      -0.29137054      -0.38844091 </v>
   <v>       0.31284972       0.20826073      -0.38860348 </v>
   <v>      -0.05545010      -0.20028189      -0.21114048 </v>
   <v>       0.07044139      -0.45079130      -0.21130445 </v>
   <v>       0.19444227      -0.20063190      -0.21114695 </v>
   <v>      -0.43726450       0.20803633      -0.38865098 </v>
   <v>      -0.18000399      -0.45055430      -0.21108906 </v>
   <v>       0.31994860      -0.45043327      -0.21108750 </v>
   <v>       0.06957342       0.04951963      -0.21098918 </v>
   <v>      -0.05509073       0.29860114      -0.21124195 </v>
   <v>      -0.30506165      -0.20068327      -0.21114023 </v>
   <v>      -0.18079319       0.04961172      -0.21090207 </v>
   <v>       0.19489614       0.29896464      -0.21118868 </v>
   <v>       0.44475933      -0.20073891      -0.21116727 </v>
   <v>       0.32004691       0.04935678      -0.21112345 </v>
   <v>      -0.43015905      -0.45034802      -0.21097803 </v>
   <v>      -0.30493647       0.29906285      -0.21120966 </v>
   <v>       0.44433929       0.29922472      -0.21116056 </v>
   <v>      -0.43086092       0.04955857      -0.21099213 </v>
   <v>       0.06000303      -0.45900230      -0.34403315 </v>
   <v>      -0.06513696      -0.20918968      -0.34407178 </v>
   <v>       0.18487058      -0.20933905      -0.34413559 </v>
   <v>      -0.19024007      -0.45846680      -0.34411959 </v>
   <v>       0.30985646      -0.45880244      -0.34409628 </v>
   <v>       0.06024579       0.04061345      -0.34394633 </v>
   <v>      -0.06522610       0.29075647      -0.34415243 </v>
   <v>       0.18486448       0.29063419      -0.34411604 </v>
   <v>      -0.31512035      -0.20941662      -0.34403029 </v>
   <v>      -0.19023051       0.04062976      -0.34410751 </v>
   <v>       0.43488712      -0.20932496      -0.34408029 </v>
   <v>       0.31035739       0.04165389      -0.34398433 </v>
   <v>      -0.44035940      -0.45963087      -0.34409224 </v>
   <v>      -0.31493556       0.29083717      -0.34390902 </v>
   <v>       0.43474208       0.29120166      -0.34400784 </v>
   <v>      -0.44036158       0.04097352      -0.34421432 </v>
   <v>       0.05930430      -0.28762892      -0.25500841 </v>
   <v>      -0.06581245       0.46274585      -0.25504743 </v>
   <v>       0.18427592       0.46260883      -0.25502335 </v>
   <v>      -0.19013947      -0.28802087      -0.25512299 </v>
   <v>       0.30959428      -0.28785180      -0.25509623 </v>
   <v>      -0.06666005      -0.03756494      -0.25530239 </v>
   <v>       0.18408210      -0.03733743      -0.25522661 </v>
   <v>      -0.31572539       0.46277121      -0.25504129 </v>
   <v>       0.05962061       0.21253025      -0.25507404 </v>
   <v>       0.43466252       0.46280690      -0.25516623 </v>
   <v>      -0.31556408      -0.03719046      -0.25515939 </v>
   <v>       0.43392625      -0.03746346      -0.25506937 </v>
   <v>       0.30958754       0.21247861      -0.25504519 </v>
   <v>      -0.18969340       0.21137457      -0.25532929 </v>
   <v>      -0.44031247      -0.28796561      -0.25511450 </v>
   <v>      -0.44022236       0.21250199      -0.25509645 </v>
   <v>      -0.05333985      -0.37357542      -0.29947919 </v>
   <v>       0.07222220      -0.12356526      -0.29963771 </v>
   <v>       0.19671540      -0.37386962      -0.29965255 </v>
   <v>      -0.17804283      -0.12384699      -0.29956392 </v>
   <v>       0.07204945       0.37629462      -0.29953190 </v>
   <v>       0.32194478      -0.12407610      -0.29940971 </v>
   <v>      -0.17799111       0.37617599      -0.29987030 </v>
   <v>      -0.30310288      -0.37374901      -0.29948108 </v>
   <v>      -0.05295792       0.12632300      -0.29962829 </v>
   <v>       0.32234749       0.37625257      -0.29959635 </v>
   <v>       0.19707167       0.12627407      -0.29965585 </v>
   <v>       0.44657962      -0.37427701      -0.29965640 </v>
   <v>      -0.42851412      -0.12371806      -0.29944073 </v>
   <v>      -0.30322605       0.12661140      -0.29949395 </v>
   <v>       0.44719123       0.12613246      -0.29961413 </v>
   <v>      -0.42766964       0.37590581      -0.29950120 </v>
  </varray>
 </structure>
 <varray name="primitive_index" >
  <v type="int" >        1 </v>
  <v type="int" >      238 </v>
  <v type="int" >      193 </v>
  <v type="int" >      220 </v>
  <v type="int" >      242 </v>
  <v type="int" >       10 </v>
  <v type="int" >      208 </v>
  <v type="int" >       81 </v>
  <v type="int" >       71 </v>
  <v type="int" >      109 </v>
  <v type="int" >      192 </v>
  <v type="int" >       89 </v>
  <v type="int" >       35 </v>
  <v type="int" >       32 </v>
  <v type="int" >      159 </v>
  <v type="int" >      263 </v>
  <v type="int" >       55 </v>
  <v type="int" >      243 </v>
  <v type="int" >      283 </v>
  <v type="int" >      128 </v>
  <v type="int" >      117 </v>
  <v type="int" >      155 </v>
  <v type="int" >      158 </v>
  <v type="int" >      252 </v>
  <v type="int" >      222 </v>
  <v type="int" >      262 </v>
  <v type="int" >      183 </v>
  <v type="int" >      265 </v>
  <v type="int" >      162 </v>
  <v type="int" >       38 </v>
  <v type="int" >      161 </v>
  <v type="int" >      160 </v>
  <v type="int" >      205 </v>
  <v type="int" >       28 </v>
  <v type="int" >       15 </v>
  <v type="int" >      126 </v>
  <v type="int" >       45 </v>
  <v type="int" >      147 </v>
  <v type="int" >      278 </v>
  <v type="int" >      226 </v>
  <v type="int" >      227 </v>
  <v type="int" >      286 </v>
  <v type="int" >       48 </v>
  <v type="int" >       14 </v>
  <v type="int" >       26 </v>
  <v type="int" >       61 </v>
  <v type="int" >      251 </v>
  <v type="int" >       70 </v>
  <v type="int" >      197 </v>
  <v type="int" >      108 </v>
  <v type="int" >      277 </v>
  <v type="int" >       33 </v>
  <v type="int" >      191 </v>
  <v type="int" >       90 </v>
  <v type="int" >       25 </v>
  <v type="int" >      203 </v>
  <v type="int" >       99 </v>
  <v type="int" >       23 </v>
  <v type="int" >      133 </v>
  <v type="int" >       52 </v>
  <v type="int" >      104 </v>
  <v type="int" >      189 </v>
  <v type="int" >      100 </v>
  <v type="int" >      144 </v>
  <v type="int" >       83 </v>
  <v type="int" >      142 </v>
  <v type="int" >      145 </v>
  <v type="int" >      143 </v>
  <v type="int" >        5 </v>
  <v type="int" >      261 </v>
  <v type="int" >      122 </v>
  <v type="int" >      112 </v>
  <v type="int" >      267 </v>
  <v type="int" >       43 </v>
  <v type="int" >      118 </v>
  <v type="int" >      190 </v>
  <v type="int" >       63 </v>
  <v type="int" >      255 </v>
  <v type="int" >      120 </v>
  <v type="int" >       92 </v>
  <v type="int" >      279 </v>
  <v type="int" >      169 </v>
  <v type="int" >      170 </v>
  <v type="int" >      257 </v>
  <v type="int" >      254 </v>
  <v type="int" >      214 </v>
  <v type="int" >      124 </v>
  <v type="int" >       34 </v>
  <v type="int" >      153 </v>
  <v type="int" >       24 </v>
  <v type="int" >       95 </v>
  <v type="int" >      236 </v>
  <v type="int" >      172 </v>
  <v type="int" >      123 </v>
  <v type="int" >      258 </v>
  <v type="int" >      247 </v>
  <v type="int" >      198 </v>
  <v type="int" >      229 </v>
  <v type="int" >       86 </v>
  <v type="int" >       57 </v>
  <v type="int" >      246 </v>
  <v type="int" >       50 </v>
  <v type="int" >      273 </v>
  <v type="int" >      156 </v>
  <v type="int" >      105 </v>
  <v type="int" >       17 </v>
  <v type="int" >       79 </v>
  <v type="int" >      134 </v>
  <v type="int" >      232 </v>
  <v type="int" >      171 </v>
  <v type="int" >      248 </v>
  <v type="int" >      244 </v>
  <v type="int" >      282 </v>
  <v type="int" >      211 </v>
  <v type="int" >      168 </v>
  <v type="int" >      256 </v>
  <v type="int" >       46 </v>
  <v type="int" >      240 </v>
  <v type="int" >       94 </v>
  <v type="int" >       29 </v>
  <v type="int" >      215 </v>
  <v type="int" >      281 </v>
  <v type="int" >      285 </v>
  <v type="int" >      223 </v>
  <v type="int" >      239 </v>
  <v type="int" >      115 </v>
  <v type="int" >      184 </v>
  <v type="int" >      136 </v>
  <v type="int" >       62 </v>
  <v type="int" >      166 </v>
  <v type="int" >      268 </v>
  <v type="int" >      179 </v>
  <v type="int" >      132 </v>
  <v type="int" >      217 </v>
  <v type="int" >      176 </v>
  <v type="int" >      249 </v>
  <v type="int" >      185 </v>
  <v type="int" >       91 </v>
  <v type="int" >       19 </v>
  <v type="int" >      130 </v>
  <v type="int" >      207 </v>
  <v type="int" >      206 </v>
  <v type="int" >      175 </v>
  <v type="int" >       11 </v>
  <v type="int" >      116 </v>
  <v type="int" >      178 </v>
  <v type="int" >      107 </v>
  <v type="int" >      241 </v>
  <v type="int" >      230 </v>
  <v type="int" >      218 </v>
  <v type="int" >      209 </v>
  <v type="int" >       18 </v>
  <v type="int" >      225 </v>
  <v type="int" >      266 </v>
  <v type="int" >       93 </v>
  <v type="int" >      187 </v>
  <v type="int" >       87 </v>
  <v type="int" >      141 </v>
  <v type="int" >      111 </v>
  <v type="int" >       58 </v>
  <v type="int" >      181 </v>
  <v type="int" >      101 </v>
  <v type="int" >      151 </v>
  <v type="int" >      125 </v>
  <v type="int" >      274 </v>
  <v type="int" >        2 </v>
  <v type="int" >      154 </v>
  <v type="int" >      212 </v>
  <v type="int" >       27 </v>
  <v type="int" >      234 </v>
  <v type="int" >      173 </v>
  <v type="int" >       97 </v>
  <v type="int" >       41 </v>
  <v type="int" >      131 </v>
  <v type="int" >       39 </v>
  <v type="int" >       72 </v>
  <v type="int" >      148 </v>
  <v type="int" >       12 </v>
  <v type="int" >      276 </v>
  <v type="int" >      250 </v>
  <v type="int" >       40 </v>
  <v type="int" >       13 </v>
  <v type="int" >      264 </v>
  <v type="int" >      146 </v>
  <v type="int" >      259 </v>
  <v type="int" >      216 </v>
  <v type="int" >       21 </v>
  <v type="int" >      233 </v>
  <v type="int" >       98 </v>
  <v type="int" >      235 </v>
  <v type="int" >       68 </v>
  <v type="int" >       16 </v>
  <v type="int" >       59 </v>
  <v type="int" >       66 </v>
  <v type="int" >      177 </v>
  <v type="int" >        6 </v>
  <v type="int" >       75 </v>
  <v type="int" >        7 </v>
  <v type="int" >       73 </v>
  <v type="int" >      150 </v>
  <v type="int" >      271 </v>
  <v type="int" >      152 </v>
  <v type="int" >      129 </v>
  <v type="int" >      188 </v>
  <v type="int" >      174 </v>
  <v type="int" >      221 </v>
  <v type="int" >      269 </v>
  <v type="int" >      103 </v>
  <v type="int" >      180 </v>
  <v type="int" >       82 </v>
  <v type="int" >      245 </v>
  <v type="int" >      194 </v>
  <v type="int" >      201 </v>
  <v type="int" >       51 </v>
  <v type="int" >      280 </v>
  <v type="int" >      102 </v>
  <v type="int" >        3 </v>
  <v type="int" >      228 </v>
  <v type="int" >        4 </v>
  <v type="int" >      260 </v>
  <v type="int" >      167 </v>
  <v type="int" >       30 </v>
  <v type="int" >       77 </v>
  <v type="int" >      149 </v>
  <v type="int" >      284 </v>
  <v type="int" >       36 </v>
  <v type="int" >      275 </v>
  <v type="int" >      106 </v>
  <v type="int" >       60 </v>
  <v type="int" >       67 </v>
  <v type="int" >      199 </v>
  <v type="int" >       88 </v>
  <v type="int" >      253 </v>
  <v type="int" >       54 </v>
  <v type="int" >      114 </v>
  <v type="int" >       85 </v>
  <v type="int" >      121 </v>
  <v type="int" >      182 </v>
  <v type="int" >      127 </v>
  <v type="int" >       44 </v>
  <v type="int" >      196 </v>
  <v type="int" >      157 </v>
  <v type="int" >      113 </v>
  <v type="int" >       42 </v>
  <v type="int" >       49 </v>
  <v type="int" >      135 </v>
  <v type="int" >       69 </v>
  <v type="int" >      200 </v>
  <v type="int" >      210 </v>
  <v type="int" >      213 </v>
  <v type="int" >       53 </v>
  <v type="int" >      186 </v>
  <v type="int" >       31 </v>
  <v type="int" >       76 </v>
  <v type="int" >      288 </v>
  <v type="int" >      140 </v>
  <v type="int" >      204 </v>
  <v type="int" >      119 </v>
  <v type="int" >      110 </v>
  <v type="int" >      202 </v>
  <v type="int" >       84 </v>
  <v type="int" >      287 </v>
  <v type="int" >      237 </v>
  <v type="int" >      137 </v>
  <v type="int" >        9 </v>
  <v type="int" >       78 </v>
  <v type="int" >       80 </v>
  <v type="int" >       20 </v>
  <v type="int" >       64 </v>
  <v type="int" >       96 </v>
  <v type="int" >      272 </v>
  <v type="int" >      138 </v>
  <v type="int" >      164 </v>
  <v type="int" >      195 </v>
  <v type="int" >       74 </v>
  <v type="int" >      163 </v>
  <v type="int" >       65 </v>
  <v type="int" >      219 </v>
  <v type="int" >      231 </v>
  <v type="int" >       56 </v>
  <v type="int" >      139 </v>
  <v type="int" >      270 </v>
  <v type="int" >      165 </v>
  <v type="int" >        8 </v>
  <v type="int" >       22 </v>
  <v type="int" >      224 </v>
  <v type="int" >       37 </v>
  <v type="int" >       47 </v>
 </varray>
 <kpoints>
  <generation param="Gamma">
   <v type="int" name="divisions">       4        4        1 </v>
   <v name="usershift">      0.00000000       0.00000000       0.00000000 </v>
   <v name="genvec1">      0.25000000       0.00000000       0.00000000 </v>
   <v name="genvec2">      0.00000000       0.25000000       0.00000000 </v>
   <v name="genvec3">      0.00000000       0.00000000       1.00000000 </v>
   <v name="shift">      0.00000000       0.00000000       0.00000000 </v>
  </generation>
  <varray name="kpointlist" >
   <v>       0.00000000       0.00000000       0.00000000 </v>
   <v>       0.25000000       0.00000000       0.00000000 </v>
   <v>       0.50000000       0.00000000       0.00000000 </v>
   <v>       0.00000000       0.25000000       0.00000000 </v>
   <v>       0.25000000       0.25000000       0.00000000 </v>
   <v>       0.50000000       0.25000000       0.00000000 </v>
   <v>      -0.25000000       0.25000000       0.00000000 </v>
   <v>       0.00000000       0.50000000       0.00000000 </v>
   <v>       0.25000000       0.50000000       0.00000000 </v>
   <v>       0.50000000       0.50000000       0.00000000 </v>
  </varray>
  <varray name="weights" >
   <v>       0.06250000 </v>
   <v>       0.12500000 </v>
   <v>       0.06250000 </v>
   <v>       0.12500000 </v>
   <v>       0.12500000 </v>
   <v>       0.12500000 </v>
   <v>       0.12500000 </v>
   <v>       0.06250000 </v>
   <v>       0.12500000 </v>
   <v>       0.06250000 </v>
  </varray>
 </kpoints>
 <parameters>
  <separator name="general" >
   <i type="string" name="SYSTEM">unknown system</i>
   <i type="logical" name="LCOMPAT"> F  </i>
  </separator>
  <separator name="electronic" >
   <i type="string" name="PREC">accura</i>
   <i name="ENMAX">    450.00000000</i>
   <i name="ENAUG">    838.43500000</i>
   <i name="EDIFF">      0.00000100</i>
   <i type="int" name="IALGO">    68</i>
   <i type="int" name="IWAVPR">    11</i>
   <i type="int" name="NBANDS">  1386</i>
   <i name="NELECT">   2297.00000000</i>
   <i type="int" name="TURBO">     0</i>
   <i type="int" name="IRESTART">     0</i>
   <i type="int" name="NREBOOT">     0</i>
   <i type="int" name="NMIN">     0</i>
   <i name="EREF">      0.00000000</i>
   <separator name="electronic smearing" >
    <i type="int" name="ISMEAR">     0</i>
    <i name="SIGMA">      0.15000000</i>
    <i name="KSPACING">      0.50000000</i>
    <i type="logical" name="KGAMMA"> T  </i>
   </separator>
   <separator name="electronic projectors" >
    <i type="logical" name="LREAL"> T  </i>
    <v name="ROPT">     -0.00025000     -0.00025000</v>
    <i type="int" name="LMAXPAW">  -100</i>
    <i type="int" name="LMAXMIX">     2</i>
    <i type="logical" name="NLSPLINE"> F  </i>
   </separator>
   <separator name="electronic startup" >
    <i type="int" name="ISTART">     0</i>
    <i type="int" name="ICHARG">     2</i>
    <i type="int" name="INIWAV">     1</i>
   </separator>
   <separator name="electronic spin" >
    <i type="int" name="ISPIN">     1</i>
    <i type="logical" name="LNONCOLLINEAR"> F  </i>
    <v name="MAGMOM">      1.00000000      1.00000000      1.00000000      1.00000000      1.00000000      1.00000000      1.00000000      1.00000000      1.00000000      1.00000000      1.00000000      1.00000000      1.00000000      1.00000000      1.00000000      1.00000000      1.00000000      1.00000000      1.00000000      1.00000000
      1.00000000      1.00000000      1.00000000      1.00000000      1.00000000      1.00000000      1.00000000      1.00000000      1.00000000      1.00000000      1.00000000      1.00000000      1.00000000      1.00000000      1.00000000      1.00000000      1.00000000      1.00000000      1.00000000      1.00000000
      1.00000000      1.00000000      1.00000000      1.00000000      1.00000000      1.00000000      1.00000000      1.00000000      1.00000000      1.00000000      1.00000000      1.00000000      1.00000000      1.00000000      1.00000000      1.00000000      1.00000000      1.00000000      1.00000000      1.00000000
      1.00000000      1.00000000      1.00000000      1.00000000      1.00000000      1.00000000      1.00000000      1.00000000      1.00000000      1.00000000      1.00000000      1.00000000      1.00000000      1.00000000      1.00000000      1.00000000      1.00000000      1.00000000      1.00000000      1.00000000
      1.00000000      1.00000000      1.00000000      1.00000000      1.00000000      1.00000000      1.00000000      1.00000000      1.00000000      1.00000000      1.00000000      1.00000000      1.00000000      1.00000000      1.00000000      1.00000000      1.00000000      1.00000000      1.00000000      1.00000000
      1.00000000      1.00000000      1.00000000      1.00000000      1.00000000      1.00000000      1.00000000      1.00000000      1.00000000      1.00000000      1.00000000      1.00000000      1.00000000      1.00000000      1.00000000      1.00000000      1.00000000      1.00000000      1.00000000      1.00000000
      1.00000000      1.00000000      1.00000000      1.00000000      1.00000000      1.00000000      1.00000000      1.00000000      1.00000000      1.00000000      1.00000000      1.00000000      1.00000000      1.00000000      1.00000000      1.00000000      1.00000000      1.00000000      1.00000000      1.00000000
      1.00000000      1.00000000      1.00000000      1.00000000      1.00000000      1.00000000      1.00000000      1.00000000      1.00000000      1.00000000      1.00000000      1.00000000      1.00000000      1.00000000      1.00000000      1.00000000      1.00000000      1.00000000      1.00000000      1.00000000
      1.00000000      1.00000000      1.00000000      1.00000000      1.00000000      1.00000000      1.00000000      1.00000000      1.00000000      1.00000000      1.00000000      1.00000000      1.00000000      1.00000000      1.00000000      1.00000000      1.00000000      1.00000000      1.00000000      1.00000000
      1.00000000      1.00000000      1.00000000      1.00000000      1.00000000      1.00000000      1.00000000      1.00000000      1.00000000      1.00000000      1.00000000      1.00000000      1.00000000      1.00000000      1.00000000      1.00000000      1.00000000      1.00000000      1.00000000      1.00000000
      1.00000000      1.00000000      1.00000000      1.00000000      1.00000000      1.00000000      1.00000000      1.00000000      1.00000000      1.00000000      1.00000000      1.00000000      1.00000000      1.00000000      1.00000000      1.00000000      1.00000000      1.00000000      1.00000000      1.00000000
      1.00000000      1.00000000      1.00000000      1.00000000      1.00000000      1.00000000      1.00000000      1.00000000      1.00000000      1.00000000      1.00000000      1.00000000      1.00000000      1.00000000      1.00000000      1.00000000      1.00000000      1.00000000      1.00000000      1.00000000
      1.00000000      1.00000000      1.00000000      1.00000000      1.00000000      1.00000000      1.00000000      1.00000000      1.00000000      1.00000000      1.00000000      1.00000000      1.00000000      1.00000000      1.00000000      1.00000000      1.00000000      1.00000000      1.00000000      1.00000000
      1.00000000      1.00000000      1.00000000      1.00000000      1.00000000      1.00000000      1.00000000      1.00000000      1.00000000      1.00000000      1.00000000      1.00000000      1.00000000      1.00000000      1.00000000      1.00000000      1.00000000      1.00000000      1.00000000      1.00000000
      1.00000000      1.00000000      1.00000000      1.00000000      1.00000000      1.00000000      1.00000000      1.00000000</v>
    <i name="NUPDOWN">     -1.00000000</i>
    <i type="logical" name="LSORBIT"> F  </i>
    <v name="SAXIS">      0.00000000      0.00000000      1.00000000</v>
    <i type="logical" name="LSPIRAL"> F  </i>
    <v name="QSPIRAL">      0.00000000      0.00000000      0.00000000</v>
    <i type="logical" name="LZEROZ"> F  </i>
   </separator>
   <separator name="electronic exchange-correlation" >
    <i type="logical" name="LASPH"> F  </i>
    <i type="logical" name="LMETAGGA"> F  </i>
   </separator>
   <separator name="electronic convergence" >
    <i type="int" name="NELM">   200</i>
    <i type="int" name="NELMDL">     0</i>
    <i type="int" name="NELMIN">     4</i>
    <i name="ENINI">    450.00000000</i>
    <separator name="electronic convergence detail" >
     <i type="logical" name="LDIAG"> T  </i>
     <i type="logical" name="LSUBROT"> F  </i>
     <i name="WEIMIN">      0.00100000</i>
     <i name="EBREAK">      0.00000000</i>
     <i name="DEPER">      0.30000000</i>
     <i type="int" name="NRMM">     4</i>
     <i name="TIME">      0.40000000</i>
    </separator>
   </separator>
   <separator name="electronic mixer" >
    <i name="AMIX">      0.40000000</i>
    <i name="BMIX">      1.00000000</i>
    <i name="AMIN">      0.10000000</i>
    <i name="AMIX_MAG">      1.60000000</i>
    <i name="BMIX_MAG">      1.00000000</i>
    <separator name="electronic mixer details" >
     <i type="int" name="IMIX">     4</i>
     <i type="logical" name="MIXFIRST"> F  </i>
     <i type="int" name="MAXMIX">   -45</i>
     <i name="WC">    100.00000000</i>
     <i type="int" name="INIMIX">     1</i>
     <i type="int" name="MIXPRE">     1</i>
     <i type="int" name="MREMOVE">     5</i>
    </separator>
   </separator>
   <separator name="electronic dipolcorrection" >
    <i type="logical" name="LDIPOL"> F  </i>
    <i type="logical" name="LMONO"> F  </i>
    <i type="int" name="IDIPOL">     0</i>
    <i name="EPSILON">      1.00000000</i>
    <v name="DIPOL">   -100.00000000   -100.00000000   -100.00000000</v>
    <i name="EFIELD">      0.00000000</i>
   </separator>
  </separator>
  <separator name="grids" >
   <i type="int" name="NGX">    70</i>
   <i type="int" name="NGY">    60</i>
   <i type="int" name="NGZ">   320</i>
   <i type="int" name="NGXF">   140</i>
   <i type="int" name="NGYF">   120</i>
   <i type="int" name="NGZF">   640</i>
   <i type="logical" name="ADDGRID"> F  </i>
  </separator>
  <separator name="ionic" >
   <i type="int" name="NSW">     5</i>
   <i type="int" name="IBRION">     2</i>
   <i type="int" name="MDALGO">     0</i>
   <i type="int" name="ISIF">     2</i>
   <i name="PSTRESS">      0.00000000</i>
   <i name="EDIFFG">      0.00001000</i>
   <i type="int" name="NFREE">     1</i>
   <i name="POTIM">      0.25000000</i>
   <i name="SMASS">     -3.00000000</i>
   <i name="SCALEE">      1.00000000</i>
  </separator>
  <separator name="ionic md" >
   <i name="TEBEG">      0.00010000</i>
   <i name="TEEND">      0.00010000</i>
   <i type="int" name="NBLOCK">     1</i>
   <i type="int" name="KBLOCK">     5</i>
   <i type="int" name="NPACO">   256</i>
   <i name="APACO">     16.00000000</i>
  </separator>
  <separator name="symmetry" >
   <i type="int" name="ISYM">     2</i>
   <i name="SYMPREC">      0.00001000</i>
  </separator>
  <separator name="dos" >
   <i type="int" name="LORBIT">     0</i>
   <v name="RWIGS">     -1.00000000     -1.00000000</v>
   <i type="int" name="NEDOS">   301</i>
   <i name="EMIN">     10.00000000</i>
   <i name="EMAX">    -10.00000000</i>
   <i name="EFERMI">      0.00000000</i>
  </separator>
  <separator name="writing" >
   <i type="int" name="NWRITE">     2</i>
   <i type="logical" name="LWAVE"> F  </i>
   <i type="logical" name="LDOWNSAMPLE"> F  </i>
   <i type="logical" name="LCHARG"> F  </i>
   <i type="logical" name="LPARD"> F  </i>
   <i type="logical" name="LVTOT"> F  </i>
   <i type="logical" name="LVHAR"> F  </i>
   <i type="logical" name="LELF"> F  </i>
   <i type="logical" name="LOPTICS"> F  </i>
   <v name="STM">      0.00000000      0.00000000      0.00000000      0.00000000      0.00000000      0.00000000      0.00000000</v>
  </separator>
  <separator name="performance" >
   <i type="int" name="NPAR">    14</i>
   <i type="int" name="NSIM">     4</i>
   <i type="int" name="NBLK">    -1</i>
   <i type="logical" name="LPLANE"> T  </i>
   <i type="logical" name="LSCALAPACK"> T  </i>
   <i type="logical" name="LSCAAWARE"> T  </i>
   <i type="logical" name="LSCALU"> F  </i>
   <i type="logical" name="LASYNC"> F  </i>
   <i type="logical" name="LORBITALREAL"> F  </i>
  </separator>
  <separator name="miscellaneous" >
   <i type="int" name="IDIOT">     3</i>
   <i type="int" name="ISPECIAL">     0</i>
   <i type="logical" name="LMUSIC"> F  </i>
   <v name="POMASS">     55.84700000     54.93800000</v>
   <v name="DARWINR">      0.00000000      0.00000000</v>
   <v name="DARWINV">      1.00000000      1.00000000</v>
   <i type="logical" name="LCORR"> T  </i>
  </separator>
  <i type="logical" name="GGA_COMPAT"> T  </i>
  <i type="logical" name="LBERRY"> F  </i>
  <i type="int" name="ICORELEVEL">     0</i>
  <i type="logical" name="LDAU"> F  </i>
  <i type="int" name="I_CONSTRAINED_M">     0</i>
  <separator name="electronic exchange-correlation" >
   <i type="string" name="GGA">--</i>
   <i type="int" name="VOSKOWN">     0</i>
   <i type="logical" name="LHFCALC"> F  </i>
   <i type="string" name="PRECFOCK"></i>
   <i type="logical" name="LSYMGRAD"> F  </i>
   <i type="logical" name="LHFONE"> F  </i>
   <i type="logical" name="LRHFCALC"> F  </i>
   <i type="logical" name="LTHOMAS"> F  </i>
   <i type="logical" name="LMODELHF"> F  </i>
   <i name="ENCUT4O">     -1.00000000</i>
   <i type="int" name="EXXOEP">     0</i>
   <i type="int" name="FOURORBIT">     0</i>
   <i name="AEXX">      0.00000000</i>
   <i name="HFALPHA">      0.00000000</i>
   <i name="MCALPHA">      0.00000000</i>
   <i name="ALDAX">      1.00000000</i>
   <i name="AGGAX">      1.00000000</i>
   <i name="ALDAC">      1.00000000</i>
   <i name="AGGAC">      1.00000000</i>
   <i type="int" name="NKREDX">     1</i>
   <i type="int" name="NKREDY">     1</i>
   <i type="int" name="NKREDZ">     1</i>
   <i type="logical" name="SHIFTRED"> F  </i>
   <i type="logical" name="ODDONLY"> F  </i>
   <i type="logical" name="EVENONLY"> F  </i>
   <i type="int" name="LMAXFOCK">     0</i>
   <i type="int" name="NMAXFOCKAE">     0</i>
   <i type="logical" name="LFOCKAEDFT"> F  </i>
   <i name="HFSCREEN">      0.00000000</i>
   <i name="HFSCREENC">      0.00000000</i>
   <i type="int" name="NBANDSGWLOW">     0</i>
  </separator>
  <separator name="vdW DFT" >
   <i type="logical" name="LUSE_VDW"> F  </i>
   <i name="Zab_VDW">     -0.84910000</i>
   <i name="PARAM1">      0.12340000</i>
   <i name="PARAM2">      1.00000000</i>
   <i name="PARAM3">      0.00000000</i>
  </separator>
  <separator name="model GW" >
   <i type="int" name="MODEL_GW">     0</i>
   <i name="MODEL_EPS0">      7.68123389</i>
   <i name="MODEL_ALPHA">      1.00000000</i>
  </separator>
  <separator name="linear response parameters" >
   <i type="logical" name="LEPSILON"> F  </i>
   <i type="logical" name="LRPA"> F  </i>
   <i type="logical" name="LNABLA"> F  </i>
   <i type="logical" name="LVEL"> F  </i>
   <i type="int" name="KINTER">     0</i>
   <i name="CSHIFT">      0.10000000</i>
   <i name="OMEGAMAX">     -1.00000000</i>
   <i name="DEG_THRESHOLD">      0.00200000</i>
   <i name="RTIME">     -0.10000000</i>
   <i name="WPLASMAI">      0.00000000</i>
   <v name="DFIELD">      0.00000000      0.00000000      0.00000000</v>
   <v name="WPLASMA">      0.00000000      0.00000000      0.00000000      0.00000000      0.00000000      0.00000000      0.00000000      0.00000000      0.00000000</v>
  </separator>
  <separator name="orbital magnetization" >
   <i type="logical" name="NUCIND"> F  </i>
   <v name="MAGPOS">      0.00000000      0.00000000      0.00000000</v>
   <i type="logical" name="LNICSALL"> T  </i>
   <i type="logical" name="ORBITALMAG"> F  </i>
   <i type="logical" name="LMAGBLOCH"> F  </i>
   <i type="logical" name="LCHIMAG"> F  </i>
   <i type="logical" name="LGAUGE"> T  </i>
   <i type="int" name="MAGATOM">     0</i>
   <v name="MAGDIPOL">      0.00000000      0.00000000      0.00000000</v>
   <v name="AVECCONST">      0.00000000      0.00000000      0.00000000</v>
  </separator>
  <separator name="response functions" >
   <i type="logical" name="LADDER"> F  </i>
   <i type="logical" name="LRPAFORCE"> F  </i>
   <i type="logical" name="LFXC"> F  </i>
   <i type="logical" name="LHARTREE"> T  </i>
   <i type="int" name="IBSE">     0</i>
   <v type="int" name="KPOINT">    -1     0     0     0</v>
   <i type="logical" name="LTCTE"> F  </i>
   <i type="logical" name="LTETE"> F  </i>
   <i type="logical" name="LTRIPLET"> F  </i>
   <i type="logical" name="LFXCEPS"> F  </i>
   <i type="logical" name="LFXHEG"> F  </i>
   <i type="int" name="NATURALO">     2</i>
   <i type="logical" name="L2ORDER"> F  </i>
   <i type="logical" name="LMP2LT"> F  </i>
   <i type="logical" name="LUSEW"> F  </i>
   <i name="ENCUTGW">     -2.00000000</i>
   <i name="ENCUTGWSOFT">     -2.00000000</i>
   <i name="ENCUTLF">     -1.00000000</i>
   <i type="int" name="LMAXMP2">    -1</i>
   <i name="SCISSOR">      0.00000000</i>
   <i type="int" name="NOMEGA">     0</i>
   <i type="int" name="NOMEGAR">     0</i>
   <i type="int" name="NBANDSGW">    -1</i>
   <i type="int" name="NBANDSO">    -1</i>
   <i type="int" name="NBANDSV">    -1</i>
   <i type="int" name="NELM">   200</i>
   <i type="int" name="NELMHF">     1</i>
   <i type="int" name="DIM">     3</i>
   <i type="int" name="ANTIRES">     0</i>
   <i name="OMEGAMAX">    -30.00000000</i>
   <i name="OMEGAMIN">    -30.00000000</i>
   <i name="OMEGATL">   -200.00000000</i>
   <i type="int" name="OMEGAGRID">   140</i>
   <i name="CSHIFT">     -0.10000000</i>
   <i type="logical" name="SELFENERGY"> F  </i>
   <i type="logical" name="LSPECTRAL"> F  </i>
   <i type="logical" name="LSPECTRALGW"> F  </i>
   <i type="logical" name="LSINGLES"> F  </i>
   <i type="logical" name="LFERMIGW"> F  </i>
   <i type="logical" name="ODDONLYGW"> F  </i>
   <i type="logical" name="EVENONLYGW"> F  </i>
   <i type="int" name="NKREDLFX">     1</i>
   <i type="int" name="NKREDLFY">     1</i>
   <i type="int" name="NKREDLFZ">     1</i>
   <i type="int" name="MAXMEM">  2800</i>
   <i type="int" name="TELESCOPE">     0</i>
   <i type="int" name="TAUPAR">     1</i>
   <i type="int" name="OMEGAPAR">    -1</i>
   <i name="LAMBDA">      1.00000000</i>
  </separator>
  <separator name="External order field" >
   <i name="OFIELD_KAPPA">      0.00000000</i>
   <v name="OFIELD_K">      0.00000000      0.00000000      0.00000000</v>
   <i name="OFIELD_Q6_NEAR">      0.00000000</i>
   <i name="OFIELD_Q6_FAR">      0.00000000</i>
   <i name="OFIELD_A">      0.00000000</i>
  </separator>
 </parameters>
 <atominfo>
  <atoms>     288 </atoms>
  <types>       2 </types>
  <array name="atoms" >
   <dimension dim="1">ion</dimension>
   <field type="string">element</field>
   <field type="int">atomtype</field>
   <set>
    <rc><c>Fe</c><c>   1</c></rc>
    <rc><c>Fe</c><c>   1</c></rc>
    <rc><c>Fe</c><c>   1</c></rc>
    <rc><c>Fe</c><c>   1</c></rc>
    <rc><c>Fe</c><c>   1</c></rc>
    <rc><c>Fe</c><c>   1</c></rc>
    <rc><c>Fe</c><c>   1</c></rc>
    <rc><c>Fe</c><c>   1</c></rc>
    <rc><c>Fe</c><c>   1</c></rc>
    <rc><c>Fe</c><c>   1</c></rc>
    <rc><c>Fe</c><c>   1</c></rc>
    <rc><c>Fe</c><c>   1</c></rc>
    <rc><c>Fe</c><c>   1</c></rc>
    <rc><c>Fe</c><c>   1</c></rc>
    <rc><c>Fe</c><c>   1</c></rc>
    <rc><c>Fe</c><c>   1</c></rc>
    <rc><c>Fe</c><c>   1</c></rc>
    <rc><c>Fe</c><c>   1</c></rc>
    <rc><c>Fe</c><c>   1</c></rc>
    <rc><c>Fe</c><c>   1</c></rc>
    <rc><c>Fe</c><c>   1</c></rc>
    <rc><c>Fe</c><c>   1</c></rc>
    <rc><c>Fe</c><c>   1</c></rc>
    <rc><c>Fe</c><c>   1</c></rc>
    <rc><c>Fe</c><c>   1</c></rc>
    <rc><c>Fe</c><c>   1</c></rc>
    <rc><c>Fe</c><c>   1</c></rc>
    <rc><c>Fe</c><c>   1</c></rc>
    <rc><c>Fe</c><c>   1</c></rc>
    <rc><c>Fe</c><c>   1</c></rc>
    <rc><c>Fe</c><c>   1</c></rc>
    <rc><c>Fe</c><c>   1</c></rc>
    <rc><c>Fe</c><c>   1</c></rc>
    <rc><c>Fe</c><c>   1</c></rc>
    <rc><c>Fe</c><c>   1</c></rc>
    <rc><c>Fe</c><c>   1</c></rc>
    <rc><c>Fe</c><c>   1</c></rc>
    <rc><c>Fe</c><c>   1</c></rc>
    <rc><c>Fe</c><c>   1</c></rc>
    <rc><c>Fe</c><c>   1</c></rc>
    <rc><c>Fe</c><c>   1</c></rc>
    <rc><c>Fe</c><c>   1</c></rc>
    <rc><c>Fe</c><c>   1</c></rc>
    <rc><c>Fe</c><c>   1</c></rc>
    <rc><c>Fe</c><c>   1</c></rc>
    <rc><c>Fe</c><c>   1</c></rc>
    <rc><c>Fe</c><c>   1</c></rc>
    <rc><c>Fe</c><c>   1</c></rc>
    <rc><c>Fe</c><c>   1</c></rc>
    <rc><c>Fe</c><c>   1</c></rc>
    <rc><c>Fe</c><c>   1</c></rc>
    <rc><c>Fe</c><c>   1</c></rc>
    <rc><c>Fe</c><c>   1</c></rc>
    <rc><c>Fe</c><c>   1</c></rc>
    <rc><c>Fe</c><c>   1</c></rc>
    <rc><c>Fe</c><c>   1</c></rc>
    <rc><c>Fe</c><c>   1</c></rc>
    <rc><c>Fe</c><c>   1</c></rc>
    <rc><c>Fe</c><c>   1</c></rc>
    <rc><c>Fe</c><c>   1</c></rc>
    <rc><c>Fe</c><c>   1</c></rc>
    <rc><c>Fe</c><c>   1</c></rc>
    <rc><c>Fe</c><c>   1</c></rc>
    <rc><c>Fe</c><c>   1</c></rc>
    <rc><c>Fe</c><c>   1</c></rc>
    <rc><c>Fe</c><c>   1</c></rc>
    <rc><c>Fe</c><c>   1</c></rc>
    <rc><c>Fe</c><c>   1</c></rc>
    <rc><c>Fe</c><c>   1</c></rc>
    <rc><c>Fe</c><c>   1</c></rc>
    <rc><c>Fe</c><c>   1</c></rc>
    <rc><c>Fe</c><c>   1</c></rc>
    <rc><c>Fe</c><c>   1</c></rc>
    <rc><c>Fe</c><c>   1</c></rc>
    <rc><c>Fe</c><c>   1</c></rc>
    <rc><c>Fe</c><c>   1</c></rc>
    <rc><c>Fe</c><c>   1</c></rc>
    <rc><c>Fe</c><c>   1</c></rc>
    <rc><c>Fe</c><c>   1</c></rc>
    <rc><c>Fe</c><c>   1</c></rc>
    <rc><c>Fe</c><c>   1</c></rc>
    <rc><c>Fe</c><c>   1</c></rc>
    <rc><c>Fe</c><c>   1</c></rc>
    <rc><c>Fe</c><c>   1</c></rc>
    <rc><c>Fe</c><c>   1</c></rc>
    <rc><c>Fe</c><c>   1</c></rc>
    <rc><c>Fe</c><c>   1</c></rc>
    <rc><c>Fe</c><c>   1</c></rc>
    <rc><c>Fe</c><c>   1</c></rc>
    <rc><c>Fe</c><c>   1</c></rc>
    <rc><c>Fe</c><c>   1</c></rc>
    <rc><c>Fe</c><c>   1</c></rc>
    <rc><c>Fe</c><c>   1</c></rc>
    <rc><c>Fe</c><c>   1</c></rc>
    <rc><c>Fe</c><c>   1</c></rc>
    <rc><c>Fe</c><c>   1</c></rc>
    <rc><c>Fe</c><c>   1</c></rc>
    <rc><c>Fe</c><c>   1</c></rc>
    <rc><c>Fe</c><c>   1</c></rc>
    <rc><c>Fe</c><c>   1</c></rc>
    <rc><c>Fe</c><c>   1</c></rc>
    <rc><c>Fe</c><c>   1</c></rc>
    <rc><c>Fe</c><c>   1</c></rc>
    <rc><c>Fe</c><c>   1</c></rc>
    <rc><c>Fe</c><c>   1</c></rc>
    <rc><c>Fe</c><c>   1</c></rc>
    <rc><c>Fe</c><c>   1</c></rc>
    <rc><c>Fe</c><c>   1</c></rc>
    <rc><c>Fe</c><c>   1</c></rc>
    <rc><c>Fe</c><c>   1</c></rc>
    <rc><c>Fe</c><c>   1</c></rc>
    <rc><c>Fe</c><c>   1</c></rc>
    <rc><c>Fe</c><c>   1</c></rc>
    <rc><c>Fe</c><c>   1</c></rc>
    <rc><c>Fe</c><c>   1</c></rc>
    <rc><c>Fe</c><c>   1</c></rc>
    <rc><c>Fe</c><c>   1</c></rc>
    <rc><c>Fe</c><c>   1</c></rc>
    <rc><c>Fe</c><c>   1</c></rc>
    <rc><c>Fe</c><c>   1</c></rc>
    <rc><c>Fe</c><c>   1</c></rc>
    <rc><c>Fe</c><c>   1</c></rc>
    <rc><c>Fe</c><c>   1</c></rc>
    <rc><c>Fe</c><c>   1</c></rc>
    <rc><c>Fe</c><c>   1</c></rc>
    <rc><c>Fe</c><c>   1</c></rc>
    <rc><c>Fe</c><c>   1</c></rc>
    <rc><c>Fe</c><c>   1</c></rc>
    <rc><c>Fe</c><c>   1</c></rc>
    <rc><c>Fe</c><c>   1</c></rc>
    <rc><c>Fe</c><c>   1</c></rc>
    <rc><c>Fe</c><c>   1</c></rc>
    <rc><c>Fe</c><c>   1</c></rc>
    <rc><c>Fe</c><c>   1</c></rc>
    <rc><c>Fe</c><c>   1</c></rc>
    <rc><c>Fe</c><c>   1</c></rc>
    <rc><c>Fe</c><c>   1</c></rc>
    <rc><c>Fe</c><c>   1</c></rc>
    <rc><c>Fe</c><c>   1</c></rc>
    <rc><c>Fe</c><c>   1</c></rc>
    <rc><c>Fe</c><c>   1</c></rc>
    <rc><c>Fe</c><c>   1</c></rc>
    <rc><c>Fe</c><c>   1</c></rc>
    <rc><c>Fe</c><c>   1</c></rc>
    <rc><c>Fe</c><c>   1</c></rc>
    <rc><c>Fe</c><c>   1</c></rc>
    <rc><c>Fe</c><c>   1</c></rc>
    <rc><c>Fe</c><c>   1</c></rc>
    <rc><c>Fe</c><c>   1</c></rc>
    <rc><c>Fe</c><c>   1</c></rc>
    <rc><c>Fe</c><c>   1</c></rc>
    <rc><c>Fe</c><c>   1</c></rc>
    <rc><c>Fe</c><c>   1</c></rc>
    <rc><c>Fe</c><c>   1</c></rc>
    <rc><c>Fe</c><c>   1</c></rc>
    <rc><c>Fe</c><c>   1</c></rc>
    <rc><c>Fe</c><c>   1</c></rc>
    <rc><c>Fe</c><c>   1</c></rc>
    <rc><c>Fe</c><c>   1</c></rc>
    <rc><c>Fe</c><c>   1</c></rc>
    <rc><c>Fe</c><c>   1</c></rc>
    <rc><c>Fe</c><c>   1</c></rc>
    <rc><c>Fe</c><c>   1</c></rc>
    <rc><c>Fe</c><c>   1</c></rc>
    <rc><c>Fe</c><c>   1</c></rc>
    <rc><c>Fe</c><c>   1</c></rc>
    <rc><c>Fe</c><c>   1</c></rc>
    <rc><c>Fe</c><c>   1</c></rc>
    <rc><c>Fe</c><c>   1</c></rc>
    <rc><c>Fe</c><c>   1</c></rc>
    <rc><c>Fe</c><c>   1</c></rc>
    <rc><c>Fe</c><c>   1</c></rc>
    <rc><c>Fe</c><c>   1</c></rc>
    <rc><c>Fe</c><c>   1</c></rc>
    <rc><c>Fe</c><c>   1</c></rc>
    <rc><c>Fe</c><c>   1</c></rc>
    <rc><c>Fe</c><c>   1</c></rc>
    <rc><c>Fe</c><c>   1</c></rc>
    <rc><c>Fe</c><c>   1</c></rc>
    <rc><c>Fe</c><c>   1</c></rc>
    <rc><c>Fe</c><c>   1</c></rc>
    <rc><c>Fe</c><c>   1</c></rc>
    <rc><c>Fe</c><c>   1</c></rc>
    <rc><c>Fe</c><c>   1</c></rc>
    <rc><c>Fe</c><c>   1</c></rc>
    <rc><c>Fe</c><c>   1</c></rc>
    <rc><c>Fe</c><c>   1</c></rc>
    <rc><c>Fe</c><c>   1</c></rc>
    <rc><c>Fe</c><c>   1</c></rc>
    <rc><c>Fe</c><c>   1</c></rc>
    <rc><c>Fe</c><c>   1</c></rc>
    <rc><c>Fe</c><c>   1</c></rc>
    <rc><c>Fe</c><c>   1</c></rc>
    <rc><c>Fe</c><c>   1</c></rc>
    <rc><c>Fe</c><c>   1</c></rc>
    <rc><c>Fe</c><c>   1</c></rc>
    <rc><c>Fe</c><c>   1</c></rc>
    <rc><c>Fe</c><c>   1</c></rc>
    <rc><c>Fe</c><c>   1</c></rc>
    <rc><c>Fe</c><c>   1</c></rc>
    <rc><c>Fe</c><c>   1</c></rc>
    <rc><c>Fe</c><c>   1</c></rc>
    <rc><c>Fe</c><c>   1</c></rc>
    <rc><c>Fe</c><c>   1</c></rc>
    <rc><c>Fe</c><c>   1</c></rc>
    <rc><c>Fe</c><c>   1</c></rc>
    <rc><c>Fe</c><c>   1</c></rc>
    <rc><c>Fe</c><c>   1</c></rc>
    <rc><c>Fe</c><c>   1</c></rc>
    <rc><c>Fe</c><c>   1</c></rc>
    <rc><c>Fe</c><c>   1</c></rc>
    <rc><c>Fe</c><c>   1</c></rc>
    <rc><c>Fe</c><c>   1</c></rc>
    <rc><c>Fe</c><c>   1</c></rc>
    <rc><c>Fe</c><c>   1</c></rc>
    <rc><c>Fe</c><c>   1</c></rc>
    <rc><c>Fe</c><c>   1</c></rc>
    <rc><c>Fe</c><c>   1</c></rc>
    <rc><c>Fe</c><c>   1</c></rc>
    <rc><c>Fe</c><c>   1</c></rc>
    <rc><c>Fe</c><c>   1</c></rc>
    <rc><c>Fe</c><c>   1</c></rc>
    <rc><c>Fe</c><c>   1</c></rc>
    <rc><c>Fe</c><c>   1</c></rc>
    <rc><c>Fe</c><c>   1</c></rc>
    <rc><c>Fe</c><c>   1</c></rc>
    <rc><c>Fe</c><c>   1</c></rc>
    <rc><c>Fe</c><c>   1</c></rc>
    <rc><c>Fe</c><c>   1</c></rc>
    <rc><c>Fe</c><c>   1</c></rc>
    <rc><c>Fe</c><c>   1</c></rc>
    <rc><c>Fe</c><c>   1</c></rc>
    <rc><c>Fe</c><c>   1</c></rc>
    <rc><c>Fe</c><c>   1</c></rc>
    <rc><c>Fe</c><c>   1</c></rc>
    <rc><c>Fe</c><c>   1</c></rc>
    <rc><c>Fe</c><c>   1</c></rc>
    <rc><c>Fe</c><c>   1</c></rc>
    <rc><c>Fe</c><c>   1</c></rc>
    <rc><c>Fe</c><c>   1</c></rc>
    <rc><c>Fe</c><c>   1</c></rc>
    <rc><c>Fe</c><c>   1</c></rc>
    <rc><c>Fe</c><c>   1</c></rc>
    <rc><c>Fe</c><c>   1</c></rc>
    <rc><c>Fe</c><c>   1</c></rc>
    <rc><c>Fe</c><c>   1</c></rc>
    <rc><c>Fe</c><c>   1</c></rc>
    <rc><c>Fe</c><c>   1</c></rc>
    <rc><c>Fe</c><c>   1</c></rc>
    <rc><c>Fe</c><c>   1</c></rc>
    <rc><c>Fe</c><c>   1</c></rc>
    <rc><c>Fe</c><c>   1</c></rc>
    <rc><c>Fe</c><c>   1</c></rc>
    <rc><c>Fe</c><c>   1</c></rc>
    <rc><c>Fe</c><c>   1</c></rc>
    <rc><c>Fe</c><c>   1</c></rc>
    <rc><c>Fe</c><c>   1</c></rc>
    <rc><c>Fe</c><c>   1</c></rc>
    <rc><c>Fe</c><c>   1</c></rc>
    <rc><c>Fe</c><c>   1</c></rc>
    <rc><c>Fe</c><c>   1</c></rc>
    <rc><c>Fe</c><c>   1</c></rc>
    <rc><c>Fe</c><c>   1</c></rc>
    <rc><c>Fe</c><c>   1</c></rc>
    <rc><c>Fe</c><c>   1</c></rc>
    <rc><c>Fe</c><c>   1</c></rc>
    <rc><c>Fe</c><c>   1</c></rc>
    <rc><c>Fe</c><c>   1</c></rc>
    <rc><c>Fe</c><c>   1</c></rc>
    <rc><c>Fe</c><c>   1</c></rc>
    <rc><c>Fe</c><c>   1</c></rc>
    <rc><c>Fe</c><c>   1</c></rc>
    <rc><c>Fe</c><c>   1</c></rc>
    <rc><c>Fe</c><c>   1</c></rc>
    <rc><c>Fe</c><c>   1</c></rc>
    <rc><c>Fe</c><c>   1</c></rc>
    <rc><c>Fe</c><c>   1</c></rc>
    <rc><c>Fe</c><c>   1</c></rc>
    <rc><c>Fe</c><c>   1</c></rc>
    <rc><c>Fe</c><c>   1</c></rc>
    <rc><c>Fe</c><c>   1</c></rc>
    <rc><c>Mn</c><c>   2</c></rc>
    <rc><c>Mn</c><c>   2</c></rc>
    <rc><c>Mn</c><c>   2</c></rc>
    <rc><c>Mn</c><c>   2</c></rc>
    <rc><c>Mn</c><c>   2</c></rc>
    <rc><c>Mn</c><c>   2</c></rc>
    <rc><c>Mn</c><c>   2</c></rc>
   </set>
  </array>
  <array name="atomtypes" >
   <dimension dim="1">type</dimension>
   <field type="int">atomspertype</field>
   <field type="string">element</field>
   <field>mass</field>
   <field>valence</field>
   <field type="string">pseudopotential</field>
   <set>
    <rc><c> 281</c><c>Fe</c><c>     55.84700000</c><c>      8.00000000</c><c>  PAW_PBE Fe_GW 31Mar2010               </c></rc>
    <rc><c>   7</c><c>Mn</c><c>     54.93800000</c><c>      7.00000000</c><c>  PAW_PBE Mn_GW 31Mar2010               </c></rc>
   </set>
  </array>
 </atominfo>
 <structure name="initialpos" >
  <crystal>
   <varray name="basis" >
    <v>       9.72667804       0.00000000       0.00000000 </v>
    <v>       0.00000000       8.42355028       0.00000000 </v>
    <v>       0.00000000       0.00000000      45.00000000 </v>
   </varray>
   <i name="volume">   3686.99226691 </i>
   <varray name="rec_basis" >
    <v>       0.10281002       0.00000000       0.00000000 </v>
    <v>       0.00000000       0.11871479       0.00000000 </v>
    <v>       0.00000000       0.00000000       0.02222222 </v>
   </varray>
  </crystal>
  <varray name="positions" >
   <v>       0.05395249       0.70118545       0.21130986 </v>
   <v>       0.31799925       0.72386968       0.87624022 </v>
   <v>       0.68809193       0.95847794       0.61145911 </v>
   <v>       0.43807360       0.45822438       0.61161217 </v>
   <v>       0.44072912       0.28734173       0.25519407 </v>
   <v>       0.05869200       0.38838951       0.83355723 </v>
   <v>       0.30855270       0.88753997       0.83351241 </v>
   <v>       0.44657962       0.62572299       0.70034360 </v>
   <v>       0.05962061       0.21253025       0.74492596 </v>
   <v>       0.17844884       0.45116335       0.21133881 </v>
   <v>       0.56778308       0.21052270       0.47742092 </v>
   <v>       0.06667827       0.87498115       0.56690278 </v>
   <v>       0.56844214       0.22380112       0.87615822 </v>
   <v>       0.80843976       0.52808902       0.12394498 </v>
   <v>       0.42925391       0.95117490       0.21142621 </v>
   <v>       0.56681684       0.37502562       0.56675574 </v>
   <v>       0.81098386       0.04161037       0.38832085 </v>
   <v>       0.68194911       0.78871675       0.52234970 </v>
   <v>       0.44276223       0.46069652       0.47742738 </v>
   <v>       0.43392625       0.96253654       0.74493063 </v>
   <v>       0.44173870       0.62512161       0.56680404 </v>
   <v>       0.57148588       0.87628194       0.70055927 </v>
   <v>       0.30908073       0.02572369       0.12402794 </v>
   <v>       0.68971580       0.95889912       0.34397160 </v>
   <v>       0.68804648       0.78245995       0.12426092 </v>
   <v>       0.05284281       0.37382957       0.29954877 </v>
   <v>       0.68987596       0.46786388       0.87608596 </v>
   <v>       0.42922819       0.45120137       0.21140213 </v>
   <v>       0.80875477       0.37500229       0.43307415 </v>
   <v>       0.56350875       0.70862946       0.61155909 </v>
   <v>       0.55964060       0.54036913       0.65590776 </v>
   <v>       0.81783639       0.86153930       0.16675784 </v>
   <v>       0.56540714       0.53734625       0.25512796 </v>
   <v>       0.68966091       0.45883699       0.34397245 </v>
   <v>       0.19182495       0.61166059       0.16644149 </v>
   <v>       0.19444227       0.79936810       0.78885305 </v>
   <v>       0.44719123       0.12613246       0.70038587 </v>
   <v>       0.92795332       0.62350851       0.29957900 </v>
   <v>       0.31733086       0.22351630       0.87616846 </v>
   <v>       0.31659927       0.87488766       0.56673558 </v>
   <v>       0.81752930       0.22393818       0.87621271 </v>
   <v>       0.80975993       0.54153320       0.65588041 </v>
   <v>       0.55887292       0.52659080       0.12394083 </v>
   <v>       0.56913908       0.04955857       0.78900787 </v>
   <v>       0.19101228       0.28738613       0.25526046 </v>
   <v>       0.80879110       0.87516985       0.43301545 </v>
   <v>       0.57233036       0.37590581       0.70049880 </v>
   <v>       0.05735522       0.02644077       0.12419434 </v>
   <v>       0.30985646       0.54119756       0.65590372 </v>
   <v>       0.56484123       0.20893155       0.34399326 </v>
   <v>       0.18767227       0.95822006       0.61134340 </v>
   <v>       0.30310034       0.37392458       0.29959595 </v>
   <v>       0.43488712       0.79067504       0.65591971 </v>
   <v>       0.19489614       0.29896464       0.78881132 </v>
   <v>       0.06748741       0.36302652       0.16664235 </v>
   <v>       0.69689712       0.62625099       0.70051892 </v>
   <v>       0.31122456       0.54145425       0.38842369 </v>
   <v>       0.06752354       0.72325754       0.87620355 </v>
   <v>       0.93380200       0.63779436       0.83400802 </v>
   <v>       0.31994860       0.54956673       0.78891250 </v>
   <v>       0.30440709       0.20061230       0.21126512 </v>
   <v>       0.06775848       0.71067106       0.47735994 </v>
   <v>       0.55417140       0.20087555       0.21117230 </v>
   <v>       0.30958754       0.21247861       0.74495481 </v>
   <v>       0.07204945       0.37629462       0.70046810 </v>
   <v>       0.18324533       0.63776812       0.83362709 </v>
   <v>       0.06957342       0.04951963       0.78901082 </v>
   <v>       0.44148913       0.12501255       0.56690476 </v>
   <v>       0.93477390       0.29075647       0.65584757 </v>
   <v>       0.80393225       0.20128267       0.21120885 </v>
   <v>       0.92925394       0.95154017       0.21129785 </v>
   <v>       0.94150142       0.62519628       0.56680561 </v>
   <v>       0.80842576       0.38766751       0.83352825 </v>
   <v>       0.19671540       0.62613038       0.70034745 </v>
   <v>       0.80856594       0.88765455       0.83355979 </v>
   <v>       0.68506444       0.29083717       0.65609098 </v>
   <v>       0.31284972       0.20826073       0.61139652 </v>
   <v>       0.43466252       0.46280690       0.74483377 </v>
   <v>       0.43613832       0.79122097       0.38837567 </v>
   <v>       0.68443592       0.96280954       0.74484061 </v>
   <v>       0.80383856       0.70116150       0.21118544 </v>
   <v>       0.81351646       0.70838301       0.61159524 </v>
   <v>       0.43687855       0.78378405       0.12406845 </v>
   <v>       0.30959428       0.71214820       0.74490377 </v>
   <v>       0.32004691       0.04935678       0.78887655 </v>
   <v>       0.81100273       0.54183435       0.38832425 </v>
   <v>       0.68213185       0.28870666       0.52231430 </v>
   <v>       0.69493835       0.79931673       0.78885977 </v>
   <v>       0.19065756       0.78725989       0.25521779 </v>
   <v>       0.69183913       0.11239832       0.16673320 </v>
   <v>       0.69284090       0.96058735       0.47742362 </v>
   <v>       0.94021717       0.95906244       0.34401700 </v>
   <v>       0.80720408       0.03933651       0.52258913 </v>
   <v>       0.68368142       0.62510470       0.43287111 </v>
   <v>       0.43971268       0.45872699       0.34398521 </v>
   <v>       0.81030660       0.21137457       0.74467071 </v>
   <v>       0.43965227       0.96786112       0.87608282 </v>
   <v>       0.56678073       0.87481083       0.56675551 </v>
   <v>       0.80927831       0.02816740       0.12396831 </v>
   <v>       0.42797590       0.62374253       0.29947243 </v>
   <v>       0.81651469       0.72382269       0.87635621 </v>
   <v>       0.68790597       0.45804224       0.61143095 </v>
   <v>       0.55853064       0.38753827       0.83350179 </v>
   <v>       0.80310772       0.37347185       0.29941880 </v>
   <v>       0.18599850       0.29131564       0.38834061 </v>
   <v>       0.81999601       0.54944570       0.78891094 </v>
   <v>       0.18223476       0.78932375       0.52255357 </v>
   <v>       0.30285597       0.87393055       0.29958456 </v>
   <v>       0.17877584       0.95146569       0.21133992 </v>
   <v>       0.18427592       0.46260883       0.74497665 </v>
   <v>       0.43213596       0.28876748       0.52228116 </v>
   <v>       0.06461618       0.70859875       0.34376751 </v>
   <v>       0.18487058       0.79066095       0.65586441 </v>
   <v>       0.44475933       0.79926109       0.78883273 </v>
   <v>       0.68382647       0.12492604       0.43288600 </v>
   <v>       0.93210796       0.78845715       0.52237896 </v>
   <v>       0.69180708       0.61251406       0.16672827 </v>
   <v>       0.81447423       0.70867456       0.34384719 </v>
   <v>       0.93418755       0.46274585       0.74495257 </v>
   <v>       0.18979902       0.45881248       0.34399803 </v>
   <v>       0.56984095       0.54965198       0.78902197 </v>
   <v>       0.56685656       0.36279225       0.16647188 </v>
   <v>       0.56474926       0.70895394       0.34393754 </v>
   <v>       0.55291606       0.37369426       0.29957271 </v>
   <v>       0.18974067       0.46792352       0.87609667 </v>
   <v>       0.19196207       0.11169557       0.16646212 </v>
   <v>       0.44433929       0.29922472       0.78883944 </v>
   <v>       0.69091681       0.78752249       0.25539670 </v>
   <v>       0.93376317       0.13777222       0.83356237 </v>
   <v>       0.44289247       0.96074189       0.47742408 </v>
   <v>       0.56746437       0.72471521       0.87624853 </v>
   <v>       0.19260892       0.46080191       0.47745553 </v>
   <v>       0.93442048       0.28207980       0.12421458 </v>
   <v>       0.31140582       0.04146280       0.38840826 </v>
   <v>       0.06024579       0.04061345       0.65605367 </v>
   <v>       0.55855745       0.37475147       0.43305985 </v>
   <v>       0.68427461       0.46277121       0.74495871 </v>
   <v>       0.55977764       0.21250199       0.74490355 </v>
   <v>       0.94704208       0.12632300       0.70037171 </v>
   <v>       0.55963842       0.04097352       0.65578568 </v>
   <v>       0.55734238       0.53924373       0.52244655 </v>
   <v>       0.17808669       0.12383653       0.29955144 </v>
   <v>       0.44137344       0.11048180       0.16646866 </v>
   <v>       0.67817868       0.62344755       0.29944770 </v>
   <v>       0.92782133       0.12356611       0.29959585 </v>
   <v>       0.81660649       0.37501280       0.56690051 </v>
   <v>       0.05268756       0.87388341       0.29956082 </v>
   <v>       0.19175286       0.62493188       0.56686370 </v>
   <v>       0.94454990       0.79971811       0.78885952 </v>
   <v>       0.30842644       0.38745492       0.83354155 </v>
   <v>       0.93983969       0.46847401       0.87613043 </v>
   <v>       0.43370783       0.63785307       0.83353630 </v>
   <v>       0.06474774       0.20856116       0.34379651 </v>
   <v>       0.18971862       0.96796007       0.87613083 </v>
   <v>       0.93472528       0.78206665       0.12420882 </v>
   <v>       0.68631138       0.79126069       0.38842878 </v>
   <v>       0.93486304       0.79081032       0.65592822 </v>
   <v>       0.94119597       0.11215386       0.16661262 </v>
   <v>       0.81537693       0.53752474       0.25519315 </v>
   <v>       0.05420178       0.20108360       0.21129964 </v>
   <v>       0.67913824       0.95121542       0.21128152 </v>
   <v>       0.17814933       0.62372353       0.29956416 </v>
   <v>       0.82195717       0.87615301       0.70043608 </v>
   <v>       0.94666015       0.62642458       0.70052081 </v>
   <v>       0.19707167       0.12627407       0.70034415 </v>
   <v>       0.94259894       0.46050466       0.47721114 </v>
   <v>       0.81350375       0.20831585       0.61156569 </v>
   <v>       0.18366978       0.62506383       0.43312343 </v>
   <v>       0.42810259       0.12353711       0.29950423 </v>
   <v>       0.67797264       0.12371355       0.29948000 </v>
   <v>       0.56142133       0.54145513       0.38842705 </v>
   <v>       0.81448150       0.20883087       0.34379568 </v>
   <v>       0.43992424       0.46805630       0.87594037 </v>
   <v>       0.55864074       0.88758713       0.83350163 </v>
   <v>       0.31767402       0.21043056       0.47728132 </v>
   <v>       0.19267600       0.96075179       0.47748701 </v>
   <v>       0.05870487       0.88762662       0.83349062 </v>
   <v>       0.05745131       0.53923475       0.52250718 </v>
   <v>       0.94262741       0.96071059       0.47719649 </v>
   <v>       0.06325359       0.70841647       0.61159154 </v>
   <v>       0.55696889       0.03920008       0.52244269 </v>
   <v>       0.69506353       0.29906285       0.78879034 </v>
   <v>       0.81772596       0.36172951       0.16672959 </v>
   <v>       0.43363342       0.12487302       0.43295110 </v>
   <v>       0.06792151       0.21064793       0.47743076 </v>
   <v>       0.31035739       0.04165389       0.65601567 </v>
   <v>       0.43203054       0.78900376       0.52246025 </v>
   <v>       0.18368657       0.13773515       0.83359054 </v>
   <v>       0.18594062       0.28312682       0.12428561 </v>
   <v>       0.93989609       0.45913547       0.34404793 </v>
   <v>       0.56675557       0.86269286       0.16648214 </v>
   <v>       0.30410514       0.70090178       0.21129144 </v>
   <v>       0.94119796       0.61240867       0.16662125 </v>
   <v>       0.18832466       0.45846367       0.61149755 </v>
   <v>       0.07222220       0.87643474       0.70036229 </v>
   <v>       0.06000303       0.54099770       0.65596685 </v>
   <v>       0.30780390       0.52558551       0.12401347 </v>
   <v>       0.93648521       0.79131305       0.38844335 </v>
   <v>       0.94490927       0.29860114       0.78875805 </v>
   <v>       0.18486448       0.29063419       0.65588396 </v>
   <v>       0.93809061       0.95833742       0.61150372 </v>
   <v>       0.80986053       0.71197913       0.74487701 </v>
   <v>       0.69092617       0.28747595       0.25535077 </v>
   <v>       0.05930430       0.71237108       0.74499159 </v>
   <v>       0.67897165       0.45131876       0.21127286 </v>
   <v>       0.81778744       0.21072023       0.47745253 </v>
   <v>       0.56764733       0.71048973       0.47737534 </v>
   <v>       0.06758770       0.86296207       0.16665426 </v>
   <v>       0.93239456       0.28851831       0.52240184 </v>
   <v>       0.68487965       0.79058338       0.65596971 </v>
   <v>       0.05853101       0.87478327       0.43294852 </v>
   <v>       0.06818679       0.22329456       0.87618268 </v>
   <v>       0.80976949       0.04062976       0.65589249 </v>
   <v>       0.55981364       0.02675025       0.12396489 </v>
   <v>       0.30893733       0.37502331       0.43293876 </v>
   <v>       0.31659007       0.37480159       0.56681624 </v>
   <v>       0.31763276       0.71037200       0.47727609 </v>
   <v>       0.05723698       0.03916677       0.52252060 </v>
   <v>       0.32194478       0.87592390       0.70059029 </v>
   <v>       0.06569538       0.53732656       0.25525932 </v>
   <v>       0.68345403       0.13768233       0.83351378 </v>
   <v>       0.81547521       0.03735307       0.25517465 </v>
   <v>       0.18344418       0.12516952       0.43310288 </v>
   <v>       0.69677395       0.12661140       0.70050605 </v>
   <v>       0.18229683       0.28923318       0.52247487 </v>
   <v>       0.44095070       0.78734385       0.25521075 </v>
   <v>       0.44130422       0.61057256       0.16648215 </v>
   <v>       0.06326973       0.20847389       0.61154576 </v>
   <v>       0.18599270       0.79132389       0.38832717 </v>
   <v>       0.30685263       0.53905668       0.52243773 </v>
   <v>       0.82200889       0.37617599       0.70012970 </v>
   <v>       0.68647235       0.29132847       0.38842624 </v>
   <v>       0.19153178       0.12503327       0.56689180 </v>
   <v>       0.68980313       0.96838226       0.87612185 </v>
   <v>       0.69177155       0.12487424       0.56687879 </v>
   <v>       0.43972801       0.95868159       0.34399367 </v>
   <v>       0.18408210       0.96266257       0.74477339 </v>
   <v>       0.94119840       0.78761942       0.25531918 </v>
   <v>       0.55854147       0.87481162       0.43304798 </v>
   <v>       0.30869379       0.87493594       0.43290221 </v>
   <v>       0.80742195       0.53927357       0.52251531 </v>
   <v>       0.92910995       0.45151226       0.21125541 </v>
   <v>       0.31540582       0.53774088       0.25516445 </v>
   <v>       0.56168719       0.04146015       0.38844872 </v>
   <v>       0.93818625       0.45826559       0.61161467 </v>
   <v>       0.06136116       0.04136252       0.38841892 </v>
   <v>       0.06125385       0.54143077       0.38834149 </v>
   <v>       0.43610507       0.29133229       0.38834958 </v>
   <v>       0.69279707       0.46075290       0.47742147 </v>
   <v>       0.06661779       0.37501184       0.56686477 </v>
   <v>       0.55375109       0.70100856       0.21118345 </v>
   <v>       0.94109829       0.28739858       0.25530241 </v>
   <v>       0.81920681       0.04961172       0.78909793 </v>
   <v>       0.18981977       0.95879960       0.34398062 </v>
   <v>       0.55294310       0.87371534       0.29957956 </v>
   <v>       0.05863369       0.37483386       0.43290000 </v>
   <v>       0.31475725       0.70875069       0.34393430 </v>
   <v>       0.31486246       0.20898590       0.34399442 </v>
   <v>       0.94158917       0.12503845       0.56679203 </v>
   <v>       0.43856237       0.95870330       0.61157866 </v>
   <v>       0.56563020       0.03749862       0.25513556 </v>
   <v>       0.18608755       0.78305197       0.12431551 </v>
   <v>       0.06584727       0.03751473       0.25519778 </v>
   <v>       0.69167791       0.62505199       0.56689070 </v>
   <v>       0.05719905       0.52644412       0.12416091 </v>
   <v>       0.30709618       0.03852561       0.52231166 </v>
   <v>       0.68789175       0.28243394       0.12421340 </v>
   <v>       0.81776962       0.71074698       0.47744454 </v>
   <v>       0.43352594       0.13761281       0.83352211 </v>
   <v>       0.32234749       0.37625257       0.70040365 </v>
   <v>       0.68361618       0.63773160       0.83351209 </v>
   <v>       0.55968753       0.71203439       0.74488550 </v>
   <v>       0.93633684       0.29146865       0.38842872 </v>
   <v>       0.93965571       0.96855850       0.87613005 </v>
   <v>       0.56273550       0.20803633       0.61134902 </v>
   <v>       0.81657762       0.87504837       0.56688322 </v>
   <v>       0.80303375       0.87352396       0.29947318 </v>
   <v>       0.31563341       0.03769374       0.25515914 </v>
   <v>       0.43682900       0.28350364       0.12409263 </v>
   <v>       0.31350006       0.70860776       0.61155316 </v>
   <v>       0.43357932       0.62510647       0.43298409 </v>
   <v>       0.93333141       0.62538747       0.43311585 </v>
   <v>       0.31865153       0.86292286       0.16585781 </v>
   <v>       0.07044139       0.54920870       0.78869555 </v>
   <v>       0.93337930       0.12540430       0.43306089 </v>
   <v>       0.31840655       0.36288626       0.16583035 </v>
   <v>       0.93333995       0.96243506       0.74469761 </v>
   <v>       0.43474208       0.29120166       0.65599216 </v>
  </varray>
 </structure>
 <calculation>
  <scstep>
   <time name="dav">   54.14   54.15</time>
   <time name="total">   54.28   54.43</time>
   <energy>
    <i name="alphaZ">  16403.00255340 </i>
    <i name="ewald"> 714606.26164413 </i>
    <i name="hartreedc">-906275.11290158 </i>
    <i name="XCdc">  -6389.67468244 </i>
    <i name="pawpsdc"> 163151.95320885 </i>
    <i name="pawaedc">-160818.84594568 </i>
    <i name="eentropy">     -1.04870833 </i>
    <i name="bandstr">  38625.66537574 </i>
    <i name="atom"> 169914.59583762 </i>
    <i name="e_fr_energy">  29216.79638171 </i>
    <i name="e_wo_entrp">  29217.84509004 </i>
    <i name="e_0_energy">  29217.32073587 </i>
   </energy>
  </scstep>
  <scstep>
   <time name="dav">   53.33   53.37</time>
   <time name="total">   53.34   53.38</time>
   <energy>
    <i name="e_fr_energy">   1193.52314513 </i>
    <i name="e_wo_entrp">   1194.99858691 </i>
    <i name="e_0_energy">   1194.26086602 </i>
   </energy>
  </scstep>
  <scstep>
   <time name="dav">   70.25   70.25</time>
   <time name="total">   70.25   70.26</time>
   <energy>
    <i name="e_fr_energy">  -1939.98057663 </i>
    <i name="e_wo_entrp">  -1936.40912458 </i>
    <i name="e_0_energy">  -1938.19485060 </i>
   </energy>
  </scstep>
  <scstep>
   <time name="dav">   88.00   88.04</time>
   <time name="total">   88.01   88.05</time>
   <energy>
    <i name="e_fr_energy">  -2606.56998788 </i>
    <i name="e_wo_entrp">  -2602.95101121 </i>
    <i name="e_0_energy">  -2604.76049955 </i>
   </energy>
  </scstep>
  <scstep>
   <time name="dav">   84.37   84.42</time>
   <time name="total">   86.41   86.46</time>
   <energy>
    <i name="e_fr_energy">  -2726.89292835 </i>
    <i name="e_wo_entrp">  -2723.10056962 </i>
    <i name="e_0_energy">  -2724.99674898 </i>
   </energy>
  </scstep>
  <scstep>
   <time name="diag">    8.25    8.25</time>
   <time name="diis">   37.61   37.61</time>
   <time name="orth">    2.28    2.28</time>
   <time name="total">   50.39   50.43</time>
   <energy>
    <i name="e_fr_energy">  -5590.75613086 </i>
    <i name="e_wo_entrp">  -5587.25624833 </i>
    <i name="e_0_energy">  -5589.00618960 </i>
   </energy>
  </scstep>
  <scstep>
   <time name="diag">    8.28    8.29</time>
   <time name="diis">   31.05   31.06</time>
   <time name="orth">    2.28    2.28</time>
   <time name="total">   43.73   43.79</time>
[...]
       <r>     5.8404     0.0000  2772.0000 </r>
       <r>     5.8831     0.0000  2772.0000 </r>
       <r>     5.9257     0.0000  2772.0000 </r>
       <r>     5.9684     0.0000  2772.0000 </r>
       <r>     6.0110     0.0000  2772.0000 </r>
       <r>     6.0537     0.0000  2772.0000 </r>
       <r>     6.0963     0.0000  2772.0000 </r>
       <r>     6.1390     0.0000  2772.0000 </r>
       <r>     6.1816     0.0000  2772.0000 </r>
       <r>     6.2243     0.0000  2772.0000 </r>
       <r>     6.2669     0.0000  2772.0000 </r>
       <r>     6.3096     0.0000  2772.0000 </r>
       <r>     6.3522     0.0000  2772.0000 </r>
       <r>     6.3949     0.0000  2772.0000 </r>
       <r>     6.4375     0.0000  2772.0000 </r>
       <r>     6.4802     0.0000  2772.0000 </r>
       <r>     6.5228     0.0000  2772.0000 </r>
       <r>     6.5655     0.0000  2772.0000 </r>
       <r>     6.6081     0.0000  2772.0000 </r>
       <r>     6.6508     0.0000  2772.0000 </r>
       <r>     6.6934     0.0000  2772.0000 </r>
       <r>     6.7361     0.0000  2772.0000 </r>
       <r>     6.7787     0.0000  2772.0000 </r>
      </set>
     </set>
    </array>
   </total>
  </dos>
 </calculation>
 <structure name="finalpos" >
  <crystal>
   <varray name="basis" >
    <v>       9.72667804       0.00000000       0.00000000 </v>
    <v>       0.00000000       8.42355028       0.00000000 </v>
    <v>       0.00000000       0.00000000      45.00000000 </v>
   </varray>
   <i name="volume">   3686.99226691 </i>
   <varray name="rec_basis" >
    <v>       0.10281002       0.00000000       0.00000000 </v>
    <v>       0.00000000       0.11871479       0.00000000 </v>
    <v>       0.00000000       0.00000000       0.02222222 </v>
   </varray>
  </crystal>
  <varray name="positions" >
   <v>       0.05809117       0.70098675       0.21117253 </v>
   <v>       0.31590386       0.72034001       0.87575502 </v>
   <v>       0.68844790       0.95799354       0.61140370 </v>
   <v>       0.43829705       0.45805030       0.61141553 </v>
   <v>       0.43658686       0.28705709       0.25554054 </v>
   <v>       0.06091776       0.38678878       0.83415114 </v>
   <v>       0.31113498       0.88669310       0.83424419 </v>
   <v>       0.44233721       0.62652723       0.70034807 </v>
   <v>       0.06363076       0.21344762       0.74450000 </v>
   <v>       0.18257797       0.45165266       0.21131376 </v>
   <v>       0.56383490       0.20910761       0.47780347 </v>
   <v>       0.06411739       0.87462316       0.56685357 </v>
   <v>       0.56562031       0.21989188       0.87569744 </v>
   <v>       0.80999985       0.53047949       0.12454014 </v>
   <v>       0.43327652       0.95151608       0.21119130 </v>
   <v>       0.56407678       0.37452184       0.56669748 </v>
   <v>       0.81175413       0.04202930       0.38838982 </v>
   <v>       0.68609747       0.79094907       0.52210250 </v>
   <v>       0.43885765       0.45906671       0.47778816 </v>
   <v>       0.43787461       0.96253590       0.74449424 </v>
   <v>       0.43909121       0.62496280       0.56673591 </v>
   <v>       0.56735023       0.87623752       0.70033074 </v>
   <v>       0.31068310       0.03111961       0.12413952 </v>
   <v>       0.68653306       0.95796370       0.34403259 </v>
   <v>       0.68778511       0.77979745       0.12468414 </v>
   <v>       0.05765386       0.37329561       0.29964320 </v>
   <v>       0.68895321       0.47132874       0.87549727 </v>
   <v>       0.43308485       0.45147455       0.21117288 </v>
   <v>       0.81081013       0.37559164       0.43300045 </v>
   <v>       0.56322870       0.70802147       0.61149948 </v>
   <v>       0.56321135       0.54137919       0.65579655 </v>
   <v>       0.81452644       0.86368095       0.16608858 </v>
   <v>       0.56144539       0.53707470       0.25549918 </v>
   <v>       0.68652422       0.45797321       0.34403840 </v>
   <v>       0.18839992       0.61272265       0.16623561 </v>
   <v>       0.19165040       0.79917098       0.78876464 </v>
   <v>       0.44241200       0.12612147       0.70045503 </v>
   <v>       0.93251547       0.62317234       0.29966782 </v>
   <v>       0.31546003       0.21998756       0.87569146 </v>
   <v>       0.31383210       0.87483175       0.56678072 </v>
   <v>       0.81537664       0.22004434       0.87569185 </v>
   <v>       0.81272726       0.54174460       0.65578349 </v>
   <v>       0.56014074       0.52952697       0.12446564 </v>
   <v>       0.56696377       0.04967284       0.78899423 </v>
   <v>       0.18680365       0.28735586       0.25549725 </v>
   <v>       0.81076127       0.87551004       0.43301129 </v>
   <v>       0.56736942       0.37662578       0.70048594 </v>
   <v>       0.06109211       0.02936801       0.12450713 </v>
   <v>       0.31281647       0.54164688       0.65573989 </v>
   <v>       0.56170574       0.20807911       0.34417430 </v>
   <v>       0.18843296       0.95807638       0.61146182 </v>
   <v>       0.30765853       0.37357593       0.29965310 </v>
   <v>       0.43792542       0.79182202       0.65581953 </v>
   <v>       0.19168069       0.29846939       0.78892273 </v>
   <v>       0.06390187       0.36375566       0.16608212 </v>
   <v>       0.69202394       0.62660689       0.70038834 </v>
   <v>       0.31146581       0.54167440       0.38840542 </v>
   <v>       0.06531084       0.71992723       0.87590541 </v>
   <v>       0.93620897       0.63670789       0.83431113 </v>
   <v>       0.31723590       0.54965151       0.78900084 </v>
   <v>       0.30750547       0.20036978       0.21114093 </v>
   <v>       0.06393569       0.70898564       0.47789301 </v>
   <v>       0.55745883       0.20090417       0.21114252 </v>
   <v>       0.31375682       0.21341132       0.74443747 </v>
   <v>       0.06710296       0.37690219       0.70042055 </v>
   <v>       0.18625010       0.63667002       0.83402868 </v>
   <v>       0.06674909       0.04916567       0.78894572 </v>
   <v>       0.43916394       0.12486998       0.56677783 </v>
   <v>       0.93807068       0.29182270       0.65567411 </v>
   <v>       0.80757531       0.20107881       0.21114858 </v>
   <v>       0.93281533       0.95138026       0.21137041 </v>
   <v>       0.93918416       0.62488227       0.56678164 </v>
   <v>       0.81098073       0.38661650       0.83420521 </v>
   <v>       0.19207143       0.62683592       0.70038426 </v>
   <v>       0.81112586       0.88646914       0.83430085 </v>
   <v>       0.68846352       0.29161072       0.65578676 </v>
   <v>       0.31354540       0.20808803       0.61146834 </v>
   <v>       0.43820316       0.46256797       0.74446428 </v>
   <v>       0.43652531       0.79171455       0.38843260 </v>
   <v>       0.68763996       0.96256341       0.74454125 </v>
   <v>       0.80745013       0.70111214       0.21115250 </v>
   <v>       0.81311959       0.70796934       0.61140779 </v>
   <v>       0.43720831       0.77936640       0.12431757 </v>
   <v>       0.31294999       0.71273284       0.74442080 </v>
   <v>       0.31711613       0.04962108       0.78903118 </v>
   <v>       0.81161955       0.54183138       0.38841666 </v>
   <v>       0.68608307       0.29108560       0.52212203 </v>
   <v>       0.69191192       0.79940971       0.78891443 </v>
   <v>       0.18688653       0.78737402       0.25552731 </v>
   <v>       0.68902921       0.11343275       0.16615989 </v>
   <v>       0.68874211       0.95917816       0.47788919 </v>
   <v>       0.93661015       0.95867824       0.34409988 </v>
   <v>       0.81100641       0.04036575       0.52212388 </v>
   <v>       0.68501860       0.62499481       0.43305212 </v>
   <v>       0.43683276       0.45848970       0.34415292 </v>
   <v>       0.81321592       0.21360541       0.74447201 </v>
   <v>       0.43905345       0.97156471       0.87552436 </v>
   <v>       0.56409660       0.87458603       0.56675629 </v>
   <v>       0.81041195       0.03035517       0.12455280 </v>
   <v>       0.43270647       0.62330225       0.29969074 </v>
   <v>       0.81515938       0.72040954       0.87584333 </v>
   <v>       0.68811151       0.45792417       0.61144072 </v>
   <v>       0.56115791       0.38687238       0.83409241 </v>
   <v>       0.80754426       0.37345657       0.29962165 </v>
   <v>       0.18641440       0.29160942       0.38841071 </v>
   <v>       0.81654989       0.54941190       0.78907537 </v>
   <v>       0.18609828       0.79058976       0.52216399 </v>
   <v>       0.30767561       0.87360204       0.29965535 </v>
   <v>       0.18248643       0.95151298       0.21130838 </v>
   <v>       0.18850363       0.46310843       0.74450209 </v>
   <v>       0.43605274       0.29083569       0.52205550 </v>
   <v>       0.06175372       0.70843936       0.34417092 </v>
   <v>       0.18784206       0.79146333       0.65571465 </v>
   <v>       0.44169093       0.79946720       0.78878810 </v>
   <v>       0.68502001       0.12510821       0.43305572 </v>
   <v>       0.93612885       0.79045036       0.52217157 </v>
   <v>       0.68883190       0.61328045       0.16613734 </v>
   <v>       0.81178942       0.70849823       0.34421094 </v>
   <v>       0.93829162       0.46261614       0.74443479 </v>
   <v>       0.18689002       0.45818310       0.34413338 </v>
   <v>       0.56727032       0.54921285       0.78899373 </v>
   <v>       0.56534366       0.36391274       0.16586211 </v>
   <v>       0.56169613       0.70813717       0.34415675 </v>
   <v>       0.55776447       0.37338607       0.29966880 </v>
   <v>       0.18889356       0.47131039       0.87560040 </v>
   <v>       0.18847827       0.11277114       0.16620190 </v>
   <v>       0.44176580       0.29876675       0.78886198 </v>
   <v>       0.68658276       0.78715920       0.25545043 </v>
   <v>       0.93675800       0.13671410       0.83413299 </v>
   <v>       0.43875479       0.95919571       0.47776317 </v>
   <v>       0.56539408       0.72011032       0.87572222 </v>
   <v>       0.18872927       0.45908320       0.47781292 </v>
   <v>       0.93636564       0.27965877       0.12462854 </v>
   <v>       0.31139876       0.04166812       0.38841021 </v>
   <v>       0.06307141       0.04091568       0.65572720 </v>
   <v>       0.56115694       0.37531303       0.43303019 </v>
   <v>       0.68773745       0.46272327       0.74462610 </v>
   <v>       0.56348426       0.21360184       0.74447690 </v>
   <v>       0.94247636       0.12696598       0.70035458 </v>
   <v>       0.56323296       0.04130359       0.65577333 </v>
   <v>       0.56103913       0.54074028       0.52205052 </v>
   <v>       0.18270129       0.12323749       0.29960221 </v>
   <v>       0.43869754       0.11242321       0.16608521 </v>
   <v>       0.68235459       0.62320858       0.29965572 </v>
   <v>       0.93265597       0.12309702       0.29965431 </v>
   <v>       0.81411717       0.37471533       0.56685320 </v>
   <v>       0.05775534       0.87338734       0.29961636 </v>
   <v>       0.18902136       0.62475099       0.56688260 </v>
   <v>       0.94113825       0.79907313       0.78893668 </v>
   <v>       0.31130610       0.38672416       0.83420275 </v>
   <v>       0.93931435       0.47154019       0.87557520 </v>
   <v>       0.43663089       0.63684347       0.83415776 </v>
   <v>       0.06172349       0.20833109       0.34419248 </v>
   <v>       0.18887442       0.97117933       0.87550451 </v>
   <v>       0.93639132       0.77965260       0.12462266 </v>
   <v>       0.68638776       0.79181639       0.38836258 </v>
   <v>       0.93814266       0.79164094       0.65577271 </v>
   <v>       0.93859332       0.11345399       0.16623343 </v>
   <v>       0.81153548       0.53674788       0.25551809 </v>
   <v>       0.05821933       0.20115883       0.21114246 </v>
   <v>       0.68282512       0.95135675       0.21129911 </v>
   <v>       0.18269257       0.62324343       0.29958873 </v>
   <v>       0.81699894       0.87662338       0.70036884 </v>
   <v>       0.94224830       0.62684533       0.70042769 </v>
   <v>       0.19222726       0.12669295       0.70042857 </v>
   <v>       0.93914406       0.45886857       0.47781945 </v>
   <v>       0.81312928       0.20788308       0.61143437 </v>
   <v>       0.18672064       0.62518179       0.43299246 </v>
   <v>       0.43259656       0.12330646       0.29969024 </v>
   <v>       0.68246432       0.12314229       0.29965161 </v>
   <v>       0.56131981       0.54162018       0.38840506 </v>
   <v>       0.81187525       0.20837265       0.34421906 </v>
   <v>       0.43920287       0.47141942       0.87548898 </v>
   <v>       0.56120562       0.88658219       0.83424512 </v>
   <v>       0.31400588       0.20921166       0.47777512 </v>
   <v>       0.18860518       0.95901401       0.47777341 </v>
   <v>       0.06091385       0.88685579       0.83423124 </v>
   <v>       0.06108879       0.54044990       0.52202387 </v>
   <v>       0.93914624       0.95879157       0.47776561 </v>
   <v>       0.06334025       0.70787886       0.61141519 </v>
   <v>       0.56120540       0.04074404       0.52204270 </v>
   <v>       0.69185061       0.29869895       0.78882169 </v>
   <v>       0.81439517       0.36354588       0.16608793 </v>
   <v>       0.43571121       0.12497226       0.43304764 </v>
   <v>       0.06388732       0.20894899       0.47785835 </v>
   <v>       0.31309629       0.04102955       0.65576143 </v>
   <v>       0.43619721       0.79036973       0.52205908 </v>
   <v>       0.18672339       0.13699826       0.83415039 </v>
   <v>       0.18607988       0.27863024       0.12442446 </v>
   <v>       0.93675494       0.45862271       0.34406520 </v>
   <v>       0.56543800       0.86399915       0.16587652 </v>
   <v>       0.30744549       0.70002244       0.21112692 </v>
   <v>       0.93838515       0.61327763       0.16622823 </v>
   <v>       0.18829255       0.45799248       0.61142850 </v>
   <v>       0.06733996       0.87679325       0.70025785 </v>
   <v>       0.06303807       0.54201054       0.65586400 </v>
   <v>       0.31056823       0.53098373       0.12411455 </v>
   <v>       0.93614168       0.79216093       0.38839673 </v>
   <v>       0.94148272       0.29865699       0.78884465 </v>
   <v>       0.18754819       0.29171439       0.65580216 </v>
   <v>       0.93835965       0.95783667       0.61150812 </v>
   <v>       0.81342595       0.71318670       0.74455082 </v>
   <v>       0.68667646       0.28729898       0.25545675 </v>
   <v>       0.06369963       0.71315159       0.74446440 </v>
   <v>       0.68271888       0.45135342       0.21131215 </v>
   <v>       0.81388398       0.20889957       0.47784397 </v>
   <v>       0.56382274       0.70913356       0.47783164 </v>
   <v>       0.06393671       0.86383773       0.16610458 </v>
   <v>       0.93609455       0.29058202       0.52218056 </v>
   <v>       0.68803914       0.79159155       0.65579969 </v>
   <v>       0.06134908       0.87493671       0.43298882 </v>
   <v>       0.06566774       0.21950861       0.87579912 </v>
   <v>       0.81297280       0.04088597       0.65576026 </v>
   <v>       0.56017175       0.02947200       0.12446817 </v>
   <v>       0.31064375       0.37499076       0.43307027 </v>
   <v>       0.31415676       0.37470240       0.56672935 </v>
   <v>       0.31394568       0.70925194       0.47782235 </v>
   <v>       0.06115502       0.04058944       0.52203977 </v>
   <v>       0.31725342       0.87656497       0.70039674 </v>
   <v>       0.06140457       0.53709600       0.25548423 </v>
   <v>       0.68654464       0.13740896       0.83411047 </v>
   <v>       0.81154198       0.03679145       0.25554918 </v>
   <v>       0.18685718       0.12514168       0.43301018 </v>
   <v>       0.69206076       0.12632072       0.70029306 </v>
   <v>       0.18628270       0.29079121       0.52215774 </v>
   <v>       0.43649093       0.78712522       0.25554144 </v>
   <v>       0.43850349       0.61233428       0.16609176 </v>
   <v>       0.06316180       0.20789541       0.61139522 </v>
   <v>       0.18642248       0.79167173       0.38839676 </v>
   <v>       0.31141035       0.54081105       0.52203598 </v>
   <v>       0.81716562       0.37680379       0.70036230 </v>
   <v>       0.68634386       0.29180636       0.38838378 </v>
   <v>       0.18890862       0.12444333       0.56665406 </v>
   <v>       0.68895602       0.97174226       0.87553049 </v>
   <v>       0.68908167       0.12474082       0.56679049 </v>
   <v>       0.43687536       0.95842817       0.34416438 </v>
   <v>       0.18833994       0.96282120       0.74449680 </v>
   <v>       0.93651349       0.78714135       0.25552904 </v>
   <v>       0.56108234       0.87522309       0.43301097 </v>
   <v>       0.31071613       0.87502357       0.43306814 </v>
   <v>       0.81100388       0.54036813       0.52210351 </v>
   <v>       0.93288627       0.45136110       0.21136950 </v>
   <v>       0.31140071       0.53664233       0.25557474 </v>
   <v>       0.56118182       0.04172299       0.38838808 </v>
   <v>       0.93820529       0.45767425       0.61149391 </v>
   <v>       0.06141522       0.04201006       0.38837855 </v>
   <v>       0.06140009       0.54184240       0.38841103 </v>
   <v>       0.43657213       0.29168697       0.38844691 </v>
   <v>       0.68879144       0.45907358       0.47784508 </v>
   <v>       0.06414734       0.37483758       0.56687179 </v>
   <v>       0.55747443       0.70077310       0.21113722 </v>
   <v>       0.93652510       0.28726306       0.25552288 </v>
   <v>       0.81651519       0.04938210       0.78892086 </v>
   <v>       0.18692354       0.95822533       0.34413661 </v>
   <v>       0.55774090       0.87334957       0.29965640 </v>
   <v>       0.06132683       0.37497756       0.43298381 </v>
   <v>       0.31173994       0.70810083       0.34418181 </v>
   <v>       0.31170005       0.20790784       0.34415010 </v>
   <v>       0.93889417       0.12496672       0.56676951 </v>
   <v>       0.43804068       0.95812088       0.61148480 </v>
   <v>       0.56138587       0.03702676       0.25550841 </v>
   <v>       0.18625132       0.77885742       0.12445765 </v>
   <v>       0.06151148       0.03705478       0.25553322 </v>
   <v>       0.68902680       0.62457742       0.56686103 </v>
   <v>       0.06072074       0.52933905       0.12450895 </v>
   <v>       0.31106215       0.04110521       0.52204541 </v>
   <v>       0.68763036       0.27987780       0.12469028 </v>
   <v>       0.81384428       0.70893090       0.47783266 </v>
   <v>       0.43674487       0.13680265       0.83402581 </v>
   <v>       0.31745793       0.37629114       0.70031633 </v>
   <v>       0.68685037       0.63712680       0.83407811 </v>
   <v>       0.56328825       0.71263632       0.74444597 </v>
   <v>       0.93617102       0.29207426       0.38839731 </v>
   <v>       0.93929061       0.97122153       0.87551417 </v>
   <v>       0.56355848       0.20803213       0.61139709 </v>
   <v>       0.81419994       0.87470336       0.56682838 </v>
   <v>       0.80753523       0.87341280       0.29963439 </v>
   <v>       0.31138465       0.03662550       0.25561484 </v>
   <v>       0.43698223       0.27943439       0.12431920 </v>
   <v>       0.31322229       0.70823164       0.61145473 </v>
   <v>       0.43570452       0.62496070       0.43302438 </v>
   <v>       0.93571604       0.62501090       0.43309069 </v>
   <v>       0.31514945       0.86318622       0.16563834 </v>
   <v>       0.06722553       0.54917426       0.78875088 </v>
   <v>       0.93577628       0.12508410       0.43309486 </v>
   <v>       0.31507723       0.36315995       0.16564067 </v>
   <v>       0.93758698       0.96302878       0.74463503 </v>
   <v>       0.43746246       0.29147860       0.65589709 </v>
  </varray>
 </structure>
</modeling>
