unknown system                          
           1
     9.726678    0.000000    0.000000
     0.000000    8.423550    0.000000
     0.000000    0.000000   45.000000
   Fe   Mn
 281   7
Direct configuration=     1
   0.05395249  0.70118545  0.21130986
   0.31799925  0.72386968  0.87624022
   0.68809193  0.95847794  0.61145911
   0.43807360  0.45822438  0.61161217
   0.44072912  0.28734173  0.25519407
   0.05869200  0.38838951  0.83355723
   0.30855270  0.88753997  0.83351241
   0.44657962  0.62572299  0.70034360
   0.05962061  0.21253025  0.74492596
   0.17844884  0.45116335  0.21133881
   0.56778308  0.21052270  0.47742092
   0.06667827  0.87498115  0.56690278
   0.56844214  0.22380112  0.87615822
   0.80843976  0.52808902  0.12394498
   0.42925391  0.95117490  0.21142621
   0.56681684  0.37502562  0.56675574
   0.81098386  0.04161037  0.38832085
   0.68194911  0.78871675  0.52234970
   0.44276223  0.46069652  0.47742738
   0.43392625  0.96253654  0.74493063
   0.44173870  0.62512161  0.56680404
   0.57148588  0.87628194  0.70055927
   0.30908073  0.02572369  0.12402794
   0.68971580  0.95889912  0.34397160
   0.68804648  0.78245995  0.12426092
   0.05284281  0.37382957  0.29954877
   0.68987596  0.46786388  0.87608596
   0.42922819  0.45120137  0.21140213
   0.80875477  0.37500229  0.43307415
   0.56350875  0.70862946  0.61155909
   0.55964060  0.54036913  0.65590776
   0.81783639  0.86153930  0.16675784
   0.56540714  0.53734625  0.25512796
   0.68966091  0.45883699  0.34397245
   0.19182495  0.61166059  0.16644149
   0.19444227  0.79936810  0.78885305
   0.44719123  0.12613246  0.70038587
   0.92795332  0.62350851  0.29957900
   0.31733086  0.22351630  0.87616846
   0.31659927  0.87488766  0.56673558
   0.81752930  0.22393818  0.87621271
   0.80975993  0.54153320  0.65588041
   0.55887292  0.52659080  0.12394083
   0.56913908  0.04955857  0.78900787
   0.19101228  0.28738613  0.25526046
   0.80879110  0.87516985  0.43301545
   0.57233036  0.37590581  0.70049880
   0.05735522  0.02644077  0.12419434
   0.30985646  0.54119756  0.65590372
   0.56484123  0.20893155  0.34399326
   0.18767227  0.95822006  0.61134340
   0.30310034  0.37392458  0.29959595
   0.43488712  0.79067504  0.65591971
   0.19489614  0.29896464  0.78881132
   0.06748741  0.36302652  0.16664235
   0.69689712  0.62625099  0.70051892
   0.31122456  0.54145425  0.38842369
   0.06752354  0.72325754  0.87620355
   0.93380200  0.63779436  0.83400802
   0.31994860  0.54956673  0.78891250
   0.30440709  0.20061230  0.21126512
   0.06775848  0.71067106  0.47735994
   0.55417140  0.20087555  0.21117230
   0.30958754  0.21247861  0.74495481
   0.07204945  0.37629462  0.70046810
   0.18324533  0.63776812  0.83362709
   0.06957342  0.04951963  0.78901082
   0.44148913  0.12501255  0.56690476
   0.93477390  0.29075647  0.65584757
   0.80393225  0.20128267  0.21120885
   0.92925394  0.95154017  0.21129785
   0.94150142  0.62519628  0.56680561
   0.80842576  0.38766751  0.83352825
   0.19671540  0.62613038  0.70034745
   0.80856594  0.88765455  0.83355979
   0.68506444  0.29083717  0.65609098
   0.31284972  0.20826073  0.61139652
   0.43466252  0.46280690  0.74483377
   0.43613832  0.79122097  0.38837567
   0.68443592  0.96280954  0.74484061
   0.80383856  0.70116150  0.21118544
   0.81351646  0.70838301  0.61159524
   0.43687855  0.78378405  0.12406845
   0.30959428  0.71214820  0.74490377
   0.32004691  0.04935678  0.78887655
   0.81100273  0.54183435  0.38832425
   0.68213185  0.28870666  0.52231430
   0.69493835  0.79931673  0.78885977
   0.19065756  0.78725989  0.25521779
   0.69183913  0.11239832  0.16673320
   0.69284090  0.96058735  0.47742362
   0.94021717  0.95906244  0.34401700
   0.80720408  0.03933651  0.52258913
   0.68368142  0.62510470  0.43287111
   0.43971268  0.45872699  0.34398521
   0.81030660  0.21137457  0.74467071
   0.43965227  0.96786112  0.87608282
   0.56678073  0.87481083  0.56675551
   0.80927831  0.02816740  0.12396831
   0.42797590  0.62374253  0.29947243
   0.81651469  0.72382269  0.87635621
   0.68790597  0.45804224  0.61143095
   0.55853064  0.38753827  0.83350179
   0.80310772  0.37347185  0.29941880
   0.18599850  0.29131564  0.38834061
   0.81999601  0.54944570  0.78891094
   0.18223476  0.78932375  0.52255357
   0.30285597  0.87393055  0.29958456
   0.17877584  0.95146569  0.21133992
   0.18427592  0.46260883  0.74497665
   0.43213596  0.28876748  0.52228116
   0.06461618  0.70859875  0.34376751
   0.18487058  0.79066095  0.65586441
   0.44475933  0.79926109  0.78883273
   0.68382647  0.12492604  0.43288600
   0.93210796  0.78845715  0.52237896
   0.69180708  0.61251406  0.16672827
   0.81447423  0.70867456  0.34384719
   0.93418755  0.46274585  0.74495257
   0.18979902  0.45881248  0.34399803
   0.56984095  0.54965198  0.78902197
   0.56685656  0.36279225  0.16647188
   0.56474926  0.70895394  0.34393754
   0.55291606  0.37369426  0.29957271
   0.18974067  0.46792352  0.87609667
   0.19196207  0.11169557  0.16646212
   0.44433929  0.29922472  0.78883944
   0.69091681  0.78752249  0.25539670
   0.93376317  0.13777222  0.83356237
   0.44289247  0.96074189  0.47742408
   0.56746437  0.72471521  0.87624853
   0.19260892  0.46080191  0.47745553
   0.93442048  0.28207980  0.12421458
   0.31140582  0.04146280  0.38840826
   0.06024579  0.04061345  0.65605367
   0.55855745  0.37475147  0.43305985
   0.68427461  0.46277121  0.74495871
   0.55977764  0.21250199  0.74490355
   0.94704208  0.12632300  0.70037171
   0.55963842  0.04097352  0.65578568
   0.55734238  0.53924373  0.52244655
   0.17808669  0.12383653  0.29955144
   0.44137344  0.11048180  0.16646866
   0.67817868  0.62344755  0.29944770
   0.92782133  0.12356611  0.29959585
   0.81660649  0.37501280  0.56690051
   0.05268756  0.87388341  0.29956082
   0.19175286  0.62493188  0.56686370
   0.94454990  0.79971811  0.78885952
   0.30842644  0.38745492  0.83354155
   0.93983969  0.46847401  0.87613043
   0.43370783  0.63785307  0.83353630
   0.06474774  0.20856116  0.34379651
   0.18971862  0.96796007  0.87613083
   0.93472528  0.78206665  0.12420882
   0.68631138  0.79126069  0.38842878
   0.93486304  0.79081032  0.65592822
   0.94119597  0.11215386  0.16661262
   0.81537693  0.53752474  0.25519315
   0.05420178  0.20108360  0.21129964
   0.67913824  0.95121542  0.21128152
   0.17814933  0.62372353  0.29956416
   0.82195717  0.87615301  0.70043608
   0.94666015  0.62642458  0.70052081
   0.19707167  0.12627407  0.70034415
   0.94259894  0.46050466  0.47721114
   0.81350375  0.20831585  0.61156569
   0.18366978  0.62506383  0.43312343
   0.42810259  0.12353711  0.29950423
   0.67797264  0.12371355  0.29948000
   0.56142133  0.54145513  0.38842705
   0.81448150  0.20883087  0.34379568
   0.43992424  0.46805630  0.87594037
   0.55864074  0.88758713  0.83350163
   0.31767402  0.21043056  0.47728132
   0.19267600  0.96075179  0.47748701
   0.05870487  0.88762662  0.83349062
   0.05745131  0.53923475  0.52250718
   0.94262741  0.96071059  0.47719649
   0.06325359  0.70841647  0.61159154
   0.55696889  0.03920008  0.52244269
   0.69506353  0.29906285  0.78879034
   0.81772596  0.36172951  0.16672959
   0.43363342  0.12487302  0.43295110
   0.06792151  0.21064793  0.47743076
   0.31035739  0.04165389  0.65601567
   0.43203054  0.78900376  0.52246025
   0.18368657  0.13773515  0.83359054
   0.18594062  0.28312682  0.12428561
   0.93989609  0.45913547  0.34404793
   0.56675557  0.86269286  0.16648214
   0.30410514  0.70090178  0.21129144
   0.94119796  0.61240867  0.16662125
   0.18832466  0.45846367  0.61149755
   0.07222220  0.87643474  0.70036229
   0.06000303  0.54099770  0.65596685
   0.30780390  0.52558551  0.12401347
   0.93648521  0.79131305  0.38844335
   0.94490927  0.29860114  0.78875805
   0.18486448  0.29063419  0.65588396
   0.93809061  0.95833742  0.61150372
   0.80986053  0.71197913  0.74487701
   0.69092617  0.28747595  0.25535077
   0.05930430  0.71237108  0.74499159
   0.67897165  0.45131876  0.21127286
   0.81778744  0.21072023  0.47745253
   0.56764733  0.71048973  0.47737534
   0.06758770  0.86296207  0.16665426
   0.93239456  0.28851831  0.52240184
   0.68487965  0.79058338  0.65596971
   0.05853101  0.87478327  0.43294852
   0.06818679  0.22329456  0.87618268
   0.80976949  0.04062976  0.65589249
   0.55981364  0.02675025  0.12396489
   0.30893733  0.37502331  0.43293876
   0.31659007  0.37480159  0.56681624
   0.31763276  0.71037200  0.47727609
   0.05723698  0.03916677  0.52252060
   0.32194478  0.87592390  0.70059029
   0.06569538  0.53732656  0.25525932
   0.68345403  0.13768233  0.83351378
   0.81547521  0.03735307  0.25517465
   0.18344418  0.12516952  0.43310288
   0.69677395  0.12661140  0.70050605
   0.18229683  0.28923318  0.52247487
   0.44095070  0.78734385  0.25521075
   0.44130422  0.61057256  0.16648215
   0.06326973  0.20847389  0.61154576
   0.18599270  0.79132389  0.38832717
   0.30685263  0.53905668  0.52243773
   0.82200889  0.37617599  0.70012970
   0.68647235  0.29132847  0.38842624
   0.19153178  0.12503327  0.56689180
   0.68980313  0.96838226  0.87612185
   0.69177155  0.12487424  0.56687879
   0.43972801  0.95868159  0.34399367
   0.18408210  0.96266257  0.74477339
   0.94119840  0.78761942  0.25531918
   0.55854147  0.87481162  0.43304798
   0.30869379  0.87493594  0.43290221
   0.80742195  0.53927357  0.52251531
   0.92910995  0.45151226  0.21125541
   0.31540582  0.53774088  0.25516445
   0.56168719  0.04146015  0.38844872
   0.93818625  0.45826559  0.61161467
   0.06136116  0.04136252  0.38841892
   0.06125385  0.54143077  0.38834149
   0.43610507  0.29133229  0.38834958
   0.69279707  0.46075290  0.47742147
   0.06661779  0.37501184  0.56686477
   0.55375109  0.70100856  0.21118345
   0.94109829  0.28739858  0.25530241
   0.81920681  0.04961172  0.78909793
   0.18981977  0.95879960  0.34398062
   0.55294310  0.87371534  0.29957956
   0.05863369  0.37483386  0.43290000
   0.31475725  0.70875069  0.34393430
   0.31486246  0.20898590  0.34399442
   0.94158917  0.12503845  0.56679203
   0.43856237  0.95870330  0.61157866
   0.56563020  0.03749862  0.25513556
   0.18608755  0.78305197  0.12431551
   0.06584727  0.03751473  0.25519778
   0.69167791  0.62505199  0.56689070
   0.05719905  0.52644412  0.12416091
   0.30709618  0.03852561  0.52231166
   0.68789175  0.28243394  0.12421340
   0.81776962  0.71074698  0.47744454
   0.43352594  0.13761281  0.83352211
   0.32234749  0.37625257  0.70040365
   0.68361618  0.63773160  0.83351209
   0.55968753  0.71203439  0.74488550
   0.93633684  0.29146865  0.38842872
   0.93965571  0.96855850  0.87613005
   0.56273550  0.20803633  0.61134902
   0.81657762  0.87504837  0.56688322
   0.80303375  0.87352396  0.29947318
   0.31563341  0.03769374  0.25515914
   0.43682900  0.28350364  0.12409263
   0.31350006  0.70860776  0.61155316
   0.43357932  0.62510647  0.43298409
   0.93333141  0.62538747  0.43311585
   0.31865153  0.86292286  0.16585781
   0.07044139  0.54920870  0.78869555
   0.93337930  0.12540430  0.43306089
   0.31840655  0.36288626  0.16583035
   0.93333995  0.96243506  0.74469761
   0.43474208  0.29120166  0.65599216
Direct configuration=     2
   0.05454220  0.70115714  0.21129029
   0.31770068  0.72336674  0.87617108
   0.68814265  0.95840892  0.61145122
   0.43810544  0.45819958  0.61158415
   0.44013889  0.28730117  0.25524344
   0.05900915  0.38816143  0.83364185
   0.30892065  0.88741930  0.83361668
   0.44597512  0.62583758  0.70034424
   0.06019201  0.21266097  0.74486527
   0.17903720  0.45123307  0.21133524
   0.56722051  0.21032107  0.47747543
   0.06631337  0.87493014  0.56689577
   0.56804006  0.22324410  0.87609256
   0.80866206  0.52842964  0.12402979
   0.42982709  0.95122351  0.21139274
   0.56642641  0.37495383  0.56674744
   0.81109361  0.04167007  0.38833068
   0.68254021  0.78903483  0.52231448
   0.44220587  0.46046429  0.47747878
   0.43448885  0.96253645  0.74486845
   0.44136146  0.62509898  0.56679433
   0.57089660  0.87627561  0.70052670
   0.30930905  0.02649255  0.12404384
   0.68926230  0.95876583  0.34398029
   0.68800924  0.78208057  0.12432122
   0.05352833  0.37375349  0.29956223
   0.68974448  0.46835759  0.87600208
   0.42977772  0.45124030  0.21136947
   0.80904763  0.37508627  0.43306365
   0.56346885  0.70854283  0.61155059
   0.56014939  0.54051305  0.65589191
   0.81736476  0.86184447  0.16666248
   0.56484263  0.53730756  0.25518086
   0.68921397  0.45871391  0.34398184
   0.19133692  0.61181193  0.16641215
   0.19404446  0.79934001  0.78884045
   0.44651024  0.12613090  0.70039572
   0.92860338  0.62346061  0.29959166
   0.31706429  0.22301349  0.87610049
   0.31620498  0.87487970  0.56674202
   0.81722257  0.22338335  0.87613849
   0.81018274  0.54156332  0.65586660
   0.55905357  0.52700917  0.12401561
   0.56882913  0.04957485  0.78900593
   0.19041259  0.28738181  0.25529420
   0.80907183  0.87521832  0.43301485
   0.57162348  0.37600839  0.70049697
   0.05788768  0.02685787  0.12423891
   0.31027823  0.54126158  0.65588037
   0.56439446  0.20881009  0.34401905
   0.18778066  0.95819959  0.61136027
   0.30374983  0.37387490  0.29960409
   0.43532005  0.79083847  0.65590544
   0.19443798  0.29889407  0.78882719
   0.06697651  0.36313041  0.16656252
   0.69620275  0.62630170  0.70050031
   0.31125893  0.54148562  0.38842109
   0.06720825  0.72278301  0.87616107
   0.93414496  0.63763955  0.83405121
   0.31956207  0.54957881  0.78892509
   0.30484857  0.20057775  0.21124742
   0.06721377  0.71043090  0.47743590
   0.55463982  0.20087962  0.21116806
   0.31018162  0.21261151  0.74488110
   0.07134463  0.37638119  0.70046133
   0.18367348  0.63761166  0.83368431
   0.06917099  0.04946919  0.78900154
   0.44115782  0.12499223  0.56688668
   0.93524365  0.29090839  0.65582286
   0.80445135  0.20125362  0.21120026
   0.92976140  0.95151738  0.21130819
   0.94117124  0.62515153  0.56680220
   0.80878982  0.38751776  0.83362471
   0.19605369  0.62623091  0.70035270
   0.80893070  0.88748564  0.83366538
   0.68554878  0.29094739  0.65604763
   0.31294885  0.20823612  0.61140676
   0.43516702  0.46277286  0.74478112
   0.43619346  0.79129130  0.38838378
   0.68489246  0.96277447  0.74479795
   0.80435316  0.70115447  0.21118075
   0.81345991  0.70832406  0.61156853
   0.43692554  0.78315458  0.12410395
   0.31007243  0.71223150  0.74483495
   0.31962931  0.04939444  0.78889858
   0.81109062  0.54183392  0.38833742
   0.68269485  0.28904563  0.52228690
   0.69450712  0.79932998  0.78886756
   0.19012023  0.78727615  0.25526189
   0.69143875  0.11254572  0.16665151
   0.69225687  0.96038655  0.47748996
   0.93970321  0.95900769  0.34402881
   0.80774587  0.03948317  0.52252283
   0.68387195  0.62508904  0.43289690
   0.43930232  0.45869318  0.34400910
   0.81072115  0.21169244  0.74464240
   0.43956695  0.96838884  0.87600325
   0.56639827  0.87477880  0.56675563
   0.80943984  0.02847913  0.12405159
   0.42864995  0.62367979  0.29950353
   0.81632157  0.72333636  0.87628313
   0.68793525  0.45802542  0.61143234
   0.55890500  0.38744339  0.83358594
   0.80373988  0.37346967  0.29944770
   0.18605776  0.29135750  0.38835060
   0.81950498  0.54944089  0.78893437
   0.18278527  0.78950414  0.52249806
   0.30354272  0.87388374  0.29959465
   0.17930456  0.95147243  0.21133542
   0.18487832  0.46268001  0.74490903
   0.43269406  0.28906218  0.52224901
   0.06420831  0.70857604  0.34382499
   0.18529398  0.79077528  0.65584307
   0.44432212  0.79929046  0.78882637
   0.68399654  0.12495199  0.43291018
   0.93268090  0.78874116  0.52234941
   0.69138315  0.61262326  0.16664407
   0.81409168  0.70864944  0.34389902
   0.93477234  0.46272737  0.74487879
   0.18938452  0.45872280  0.34401732
   0.56947467  0.54958941  0.78901795
   0.56664099  0.36295190  0.16638500
   0.56431422  0.70883756  0.34396878
   0.55360690  0.37365034  0.29958640
   0.18961997  0.46840611  0.87602595
   0.19146567  0.11184882  0.16642504
   0.44397260  0.29915947  0.78884265
   0.69029925  0.78747073  0.25540436
   0.93418990  0.13762145  0.83364368
   0.44230289  0.96052158  0.47747240
   0.56716938  0.72405906  0.87617354
   0.19205612  0.46055701  0.47750646
   0.93469765  0.28173483  0.12427357
   0.31140482  0.04149205  0.38840854
   0.06064841  0.04065651  0.65600715
   0.55892785  0.37483149  0.43305563
   0.68476803  0.46276438  0.74491132
   0.56030580  0.21265871  0.74484276
   0.94639151  0.12641461  0.70036927
   0.56015060  0.04102055  0.65578392
   0.55786912  0.53945697  0.52239012
   0.17874422  0.12375118  0.29955867
   0.44099215  0.11075843  0.16641402
   0.67877371  0.62341350  0.29947734
   0.92851022  0.12349927  0.29960418
   0.81625179  0.37497042  0.56689377
   0.05340966  0.87381273  0.29956873
   0.19136365  0.62490611  0.56686639
   0.94406378  0.79962621  0.78887052
   0.30883675  0.38735080  0.83363577
   0.93976483  0.46891091  0.87605132
   0.43412433  0.63770921  0.83362485
   0.06431682  0.20852838  0.34385293
   0.18959833  0.96841878  0.87604158
   0.93496268  0.78172268  0.12426779
   0.68632226  0.79133987  0.38841935
   0.93533035  0.79092867  0.65590606
   0.94082512  0.11233912  0.16655859
   0.81482957  0.53741405  0.25523945
   0.05477423  0.20109432  0.21127725
   0.67966358  0.95123556  0.21128403
   0.17879669  0.62365512  0.29956766
   0.82125068  0.87622003  0.70042650
   0.94603151  0.62648453  0.70050754
   0.19638139  0.12633376  0.70035617
   0.94210666  0.46027153  0.47729782
   0.81345040  0.20825418  0.61154698
   0.18410450  0.62508064  0.43310477
   0.42874293  0.12350424  0.29953074
   0.67861266  0.12363215  0.29950446
   0.56140686  0.54147864  0.38842392
   0.81411014  0.20876558  0.34385601
   0.43982146  0.46853551  0.87587605
   0.55900621  0.88744393  0.83360757
   0.31715135  0.21025688  0.47735168
   0.19209596  0.96050417  0.47752782
   0.05901962  0.88751678  0.83359615
   0.05796961  0.53940790  0.52243831
   0.94213138  0.96043715  0.47727758
   0.06326594  0.70833987  0.61156641
   0.55757255  0.03942008  0.52238570
   0.69460573  0.29901100  0.78879481
   0.81725136  0.36198832  0.16663816
   0.43392948  0.12488716  0.43296486
   0.06734669  0.21040585  0.47749168
   0.31074766  0.04156492  0.65597944
   0.43262424  0.78919839  0.52240309
   0.18411928  0.13763015  0.83367031
   0.18596047  0.28248611  0.12430540
   0.93944851  0.45906241  0.34405039
   0.56656783  0.86287900  0.16639585
   0.30458111  0.70077648  0.21126800
   0.94079717  0.61253249  0.16656525
   0.18832009  0.45839653  0.61148771
   0.07152653  0.87648583  0.70034741
   0.06043549  0.54114202  0.65595220
   0.30819779  0.52635470  0.12402788
   0.93643626  0.79143386  0.38843671
   0.94442102  0.29860910  0.78877039
   0.18524688  0.29078811  0.65587231
   0.93812894  0.95826607  0.61150435
   0.81036856  0.71215120  0.74483054
   0.69032064  0.28745074  0.25536587
   0.05993058  0.71248229  0.74491647
   0.67950559  0.45132370  0.21127846
   0.81723124  0.21046080  0.47750830
   0.56710236  0.71029649  0.47744036
   0.06706747  0.86308684  0.16657594
   0.93292177  0.28881237  0.52237031
   0.68532984  0.79072704  0.65594549
   0.05893256  0.87480513  0.43295426
   0.06782785  0.22275510  0.87612803
   0.81022593  0.04066626  0.65587365
   0.55986466  0.02713807  0.12403660
   0.30918048  0.37501867  0.43295750
   0.31624335  0.37478745  0.56680386
   0.31710739  0.71021240  0.47735392
   0.05779526  0.03936948  0.52245209
   0.32127632  0.87601525  0.70056271
   0.06508399  0.53729371  0.25529137
   0.68389441  0.13764338  0.83359881
   0.81491477  0.03727305  0.25522802
   0.18393050  0.12516555  0.43308967
   0.69610237  0.12656998  0.70047570
   0.18286477  0.28945518  0.52242968
   0.44031523  0.78731270  0.25525787
   0.44090514  0.61082358  0.16642652
   0.06325435  0.20839146  0.61152431
   0.18605394  0.79137345  0.38833708
   0.30750206  0.53930666  0.52238049
   0.82131878  0.37626545  0.70016285
   0.68645404  0.29139656  0.38842019
   0.19115801  0.12494921  0.56685793
   0.68968242  0.96886102  0.87603759
   0.69138827  0.12485523  0.56686621
   0.43932154  0.95864548  0.34401800
   0.18468880  0.96268517  0.74473398
   0.94053085  0.78755130  0.25534908
   0.55890352  0.87487025  0.43304271
   0.30898195  0.87494842  0.43292585
   0.80793234  0.53942953  0.52245663
   0.92964803  0.45149072  0.21127166
   0.31483514  0.53758434  0.25522291
   0.56161518  0.04149760  0.38844008
   0.93818897  0.45818133  0.61159746
   0.06136886  0.04145479  0.38841316
   0.06127469  0.54148942  0.38835140
   0.43617162  0.29138283  0.38836344
   0.69222631  0.46051362  0.47748183
   0.06626578  0.37498701  0.56686577
   0.55428162  0.70097501  0.21117686
   0.94044666  0.28737927  0.25533382
   0.81882328  0.04957900  0.78907270
   0.18940709  0.95871777  0.34400285
   0.55362674  0.87366322  0.29959051
   0.05901743  0.37485434  0.43291195
   0.31432731  0.70865810  0.34396957
   0.31441185  0.20883229  0.34401660
   0.94120516  0.12502823  0.56678882
   0.43848804  0.95862031  0.61156529
   0.56502543  0.03743138  0.25518869
   0.18611089  0.78245429  0.12433576
   0.06522947  0.03744919  0.25524557
   0.69130016  0.62498437  0.56688647
   0.05770085  0.52685662  0.12421050
   0.30766129  0.03889318  0.52227372
   0.68785451  0.28206972  0.12428135
   0.81721031  0.71048821  0.47749984
   0.43398460  0.13749737  0.83359388
   0.32165078  0.37625807  0.70039121
   0.68407702  0.63764543  0.83359274
   0.56020059  0.71212016  0.74482287
   0.93631322  0.29155494  0.38842424
   0.93960369  0.96893795  0.87604229
   0.56285277  0.20803573  0.61135587
   0.81623882  0.87499921  0.56687541
   0.80367516  0.87350812  0.29949615
   0.31502801  0.03754153  0.25522407
   0.43685084  0.28292382  0.12412492
   0.31346048  0.70855417  0.61153913
   0.43388214  0.62508570  0.43298983
   0.93367120  0.62533382  0.43311227
   0.31815252  0.86296039  0.16582654
   0.06998317  0.54920379  0.78870343
   0.93372084  0.12535868  0.43306573
   0.31793216  0.36292526  0.16580332
   0.93394511  0.96251966  0.74468869
   0.43512970  0.29124112  0.65597861
Direct configuration=     3
   0.05631135  0.70107220  0.21123159
   0.31680497  0.72185792  0.87596368
   0.68829482  0.95820186  0.61142753
   0.43820096  0.45812516  0.61150009
   0.43836821  0.28717950  0.25539154
   0.05996059  0.38747717  0.83389573
   0.31002449  0.88705729  0.83392949
   0.44416163  0.62618137  0.70034615
   0.06190622  0.21305311  0.74468318
   0.18080226  0.45144223  0.21132453
   0.56553279  0.20971616  0.47763896
   0.06521868  0.87477712  0.56687473
   0.56683382  0.22157303  0.87589560
   0.80932894  0.52945148  0.12428420
   0.43154662  0.95136936  0.21129232
   0.56525513  0.37473849  0.56672253
   0.81142288  0.04184915  0.38836016
   0.68431349  0.78998907  0.52220881
   0.44053679  0.45976760  0.47763301
   0.43617664  0.96253618  0.74468191
   0.44022974  0.62503109  0.56676521
   0.56912875  0.87625662  0.70042902
   0.30999401  0.02879912  0.12409154
   0.68790178  0.95836597  0.34400636
   0.68789751  0.78094244  0.12450213
   0.05558490  0.37352524  0.29960259
   0.68935003  0.46983870  0.87575043
   0.43142632  0.45135707  0.21127147
   0.80992623  0.37533819  0.43303215
   0.56334914  0.70828294  0.61152512
   0.56167577  0.54094482  0.65584437
   0.81594987  0.86275995  0.16637639
   0.56314912  0.53719148  0.25533954
   0.68787313  0.45834467  0.34401004
   0.18987284  0.61226592  0.16632414
   0.19285103  0.79925575  0.78880266
   0.44446728  0.12612620  0.70042529
   0.93055354  0.62331691  0.29962962
   0.31626457  0.22150507  0.87589659
   0.31502211  0.87485579  0.56676131
   0.81630238  0.22171887  0.87591584
   0.81145117  0.54165369  0.65582517
   0.55959552  0.52826428  0.12423995
   0.56789925  0.04962370  0.78900010
   0.18861355  0.28736887  0.25539542
   0.80991401  0.87536374  0.43301308
   0.56950284  0.37631616  0.70049147
   0.05948508  0.02810917  0.12437262
   0.31154353  0.54145365  0.65581034
   0.56305414  0.20844570  0.34409645
   0.18810583  0.95813817  0.61141089
   0.30569831  0.37372587  0.29962852
   0.43661882  0.79132877  0.65586261
   0.19306348  0.29868237  0.78887482
   0.06544381  0.36344210  0.16632304
   0.69411963  0.62645384  0.70044449
   0.31136206  0.54157973  0.38841328
   0.06626240  0.72135941  0.87603363
   0.93517387  0.63717512  0.83418078
   0.31840248  0.54961505  0.78896285
   0.30617303  0.20047407  0.21119434
   0.06557966  0.70971044  0.47766377
   0.55604509  0.20089186  0.21115533
   0.31196385  0.21301021  0.74465995
   0.06923017  0.37664091  0.70044100
   0.18495792  0.63714225  0.83385598
   0.06796368  0.04931788  0.78897371
   0.44016387  0.12493129  0.56683241
   0.93665292  0.29136417  0.65574871
   0.80600864  0.20116648  0.21117450
   0.93128378  0.95144903  0.21133921
   0.94018069  0.62501730  0.56679195
   0.80988198  0.38706848  0.83391408
   0.19406854  0.62653250  0.70036843
   0.81002498  0.88697892  0.83398216
   0.68700177  0.29127806  0.65591759
   0.31324623  0.20816230  0.61143746
   0.43668053  0.46267072  0.74462318
   0.43635889  0.79150229  0.38840812
   0.68626208  0.96266926  0.74466998
   0.80589699  0.70113337  0.21116666
   0.81329026  0.70814724  0.61148840
   0.43706650  0.78126618  0.12421043
   0.31150689  0.71248142  0.74462850
   0.31837649  0.04950742  0.78896468
   0.81135429  0.54183265  0.38837692
   0.68438387  0.29006255  0.52220471
   0.69321342  0.79936973  0.78889093
   0.18850824  0.78732494  0.25539420
   0.69023760  0.11298790  0.16640644
   0.69050477  0.95978417  0.47768897
   0.93816133  0.95884346  0.34406423
   0.80937124  0.03992313  0.52232396
   0.68444355  0.62504207  0.43297428
   0.43807125  0.45859175  0.34408080
   0.81196478  0.21264605  0.74455746
   0.43931097  0.96997200  0.87576452
   0.56525089  0.87468271  0.56675596
   0.80992443  0.02941433  0.12430144
   0.43067211  0.62349159  0.29959685
   0.81574222  0.72187735  0.87606389
   0.68802312  0.45797495  0.61143651
   0.56002807  0.38715874  0.83383841
   0.80563635  0.37346314  0.29953441
   0.18623555  0.29148308  0.38838056
   0.81803188  0.54942644  0.78900466
   0.18443680  0.79004532  0.52233153
   0.30560295  0.87374331  0.29962491
   0.18089071  0.95149264  0.21132194
   0.18668553  0.46289358  0.74470617
   0.43436835  0.28994627  0.52215254
   0.06298470  0.70850790  0.34399743
   0.18656419  0.79111827  0.65577905
   0.44301048  0.79937856  0.78880729
   0.68450674  0.12502987  0.43298273
   0.93439969  0.78959319  0.52226076
   0.69011136  0.61295087  0.16639147
   0.81294401  0.70857406  0.34405451
   0.93652669  0.46267192  0.74465746
   0.18814102  0.45845376  0.34407517
   0.56837581  0.54940170  0.78900587
   0.56599427  0.36343088  0.16612434
   0.56300911  0.70848842  0.34406248
   0.55567944  0.37351860  0.29962748
   0.18925785  0.46985389  0.87581382
   0.18997646  0.11230859  0.16631381
   0.44287252  0.29896370  0.78885229
   0.68844659  0.78731543  0.25542732
   0.93547009  0.13716914  0.83388760
   0.44053418  0.95986064  0.47761735
   0.56628439  0.72209062  0.87594855
   0.19039769  0.45982232  0.47765923
   0.93552913  0.28069992  0.12445052
   0.31140180  0.04157982  0.38840937
   0.06185627  0.04078571  0.65586760
   0.56003904  0.37507153  0.43304295
   0.68624828  0.46274389  0.74476914
   0.56189025  0.21312886  0.74466038
   0.94443982  0.12668947  0.70036194
   0.56168715  0.04116164  0.65577864
   0.55944936  0.54009669  0.52222083
   0.18071681  0.12349511  0.29958038
   0.43984829  0.11158832  0.16625011
   0.68055877  0.62331134  0.29956626
   0.93057686  0.12329875  0.29962917
   0.81518768  0.37484326  0.56687354
   0.05557597  0.87360068  0.29959247
   0.19019603  0.62482878  0.56687447
   0.94260541  0.79935050  0.78890350
   0.31006771  0.38703842  0.83391841
   0.93954027  0.47022160  0.87581398
   0.43537384  0.63727764  0.83389050
   0.06302405  0.20843003  0.34402220
   0.18923746  0.96979491  0.87577385
   0.93567485  0.78069075  0.12444469
   0.68635491  0.79157741  0.38839105
   0.93673228  0.79128374  0.65583959
   0.93971257  0.11289488  0.16639650
   0.81318747  0.53708197  0.25537835
   0.05649161  0.20112648  0.21121005
   0.68123960  0.95129597  0.21129155
   0.18073878  0.62344989  0.29957816
   0.81913120  0.87642110  0.70039776
   0.94414559  0.62666439  0.70046774
   0.19431057  0.12651281  0.70039226
   0.94062981  0.45957216  0.47755785
   0.81329032  0.20806919  0.61149085
   0.18540864  0.62513106  0.43304878
   0.43066395  0.12340565  0.29961025
   0.68053270  0.12338796  0.29957781
   0.56136347  0.54154920  0.38841452
   0.81299605  0.20856970  0.34403699
   0.43951309  0.46997313  0.87568310
   0.56010261  0.88701436  0.83392539
   0.31558334  0.20973584  0.47756276
   0.19035581  0.95976133  0.47765025
   0.05996389  0.88718728  0.83391274
   0.05952451  0.53992733  0.52223171
   0.94064329  0.95961683  0.47752086
   0.06330298  0.70811006  0.61149103
   0.55938351  0.04008007  0.52221472
   0.69323231  0.29885544  0.78880820
   0.81582755  0.36276476  0.16636388
   0.43481767  0.12492958  0.43300612
   0.06562220  0.20967961  0.47767447
   0.31191844  0.04129804  0.65587077
   0.43440536  0.78978230  0.52223160
   0.18541742  0.13731516  0.83390963
   0.18601999  0.28056397  0.12436475
   0.93810578  0.45884322  0.34405777
   0.56600461  0.86343739  0.16613696
   0.30600899  0.70040060  0.21119767
   0.93959478  0.61290394  0.16639725
   0.18830636  0.45819511  0.61145819
   0.06943954  0.87663907  0.70030276
   0.06173287  0.54157497  0.65590823
   0.30937945  0.52866226  0.12407108
   0.93628942  0.79179630  0.38841678
   0.94295629  0.29863297  0.78880741
   0.18639407  0.29124985  0.65583734
   0.93824395  0.95805202  0.61150623
   0.81189266  0.71266739  0.74469110
   0.68850403  0.28737509  0.25541118
   0.06180944  0.71281594  0.74469111
   0.68110740  0.45133852  0.21129526
   0.81556264  0.20968253  0.47767563