 288 288   0   0
  0.1280206E+02  0.9726678E-09  0.8423550E-09  0.4500000E-08  0.2500000E-15
  1.000000000000000E-004
  CAR 
 unknown system                          
      6.80336185     -6.02773891  301      4.31448281      1.00000000
     -6.028  0.0000E+00  0.0000E+00
     -5.985  0.0000E+00  0.0000E+00
     -5.942  0.0000E+00  0.0000E+00
     -5.899  0.0000E+00  0.0000E+00
     -5.857  0.0000E+00  0.0000E+00
     -5.814  0.0000E+00  0.0000E+00
     -5.771  0.0000E+00  0.0000E+00
     -5.728  0.0000E+00  0.0000E+00
     -5.686  0.0000E+00  0.0000E+00
     -5.643  0.0000E+00  0.0000E+00
     -5.600  0.0000E+00  0.0000E+00
     -5.557  0.0000E+00  0.0000E+00
     -5.514  0.0000E+00  0.0000E+00
     -5.472  0.0000E+00  0.0000E+00
     -5.429  0.0000E+00  0.0000E+00
     -5.386  0.1622E-15  0.6939E-17
     -5.343  0.4121E-14  0.1832E-15
     -5.301  0.8842E-13  0.3965E-14
     -5.258  0.1613E-11  0.7294E-13
     -5.215  0.2505E-10  0.1144E-11
     -5.172  0.3314E-09  0.1532E-10
     -5.130  0.3733E-08  0.1750E-09
     -5.087  0.3584E-07  0.1708E-08
     -5.044  0.2932E-06  0.1425E-07
     -5.001  0.2046E-05  0.1018E-06
     -4.958  0.1219E-04  0.6233E-06
     -4.916  0.6213E-04  0.3281E-05
     -4.873  0.2713E-03  0.1488E-04
     -4.830  0.1019E-02  0.5845E-04
     -4.787  0.3304E-02  0.1998E-03
     -4.745  0.9324E-02  0.5986E-03
     -4.702  0.2310E-01  0.1587E-02
     -4.659  0.5081E-01  0.3760E-02
     -4.616  0.1005E+00  0.8058E-02
     -4.574  0.1810E+00  0.1580E-01
     -4.531  0.3001E+00  0.2863E-01
     -4.488  0.4614E+00  0.4837E-01
     -4.445  0.6618E+00  0.7667E-01
     -4.402  0.8898E+00  0.1147E+00
     -4.360  0.1126E+01  0.1629E+00
     -4.317  0.1347E+01  0.2205E+00
     -4.274  0.1532E+01  0.2860E+00
     -4.231  0.1666E+01  0.3573E+00
     -4.189  0.1752E+01  0.4322E+00
     -4.146  0.1809E+01  0.5096E+00
     -4.103  0.1869E+01  0.5895E+00
     -4.060  0.1964E+01  0.6735E+00
     -4.018  0.2119E+01  0.7641E+00
     -3.975  0.2337E+01  0.8641E+00
     -3.932  0.2598E+01  0.9752E+00
     -3.889  0.2859E+01  0.1097E+01
     -3.846  0.3071E+01  0.1229E+01
     -3.804  0.3196E+01  0.1366E+01
     -3.761  0.3220E+01  0.1503E+01
     -3.718  0.3163E+01  0.1639E+01
     -3.675  0.3074E+01  0.1770E+01
     -3.633  0.3014E+01  0.1899E+01
     -3.590  0.3033E+01  0.2029E+01
     -3.547  0.3156E+01  0.2164E+01
     -3.504  0.3370E+01  0.2308E+01
     -3.462  0.3633E+01  0.2463E+01
     -3.419  0.3891E+01  0.2630E+01
     -3.376  0.4091E+01  0.2805E+01
     -3.333  0.4204E+01  0.2984E+01
     -3.290  0.4229E+01  0.3165E+01
     -3.248  0.4194E+01  0.3345E+01
     -3.205  0.4145E+01  0.3522E+01
     -3.162  0.4138E+01  0.3699E+01
     -3.119  0.4214E+01  0.3879E+01
     -3.077  0.4386E+01  0.4067E+01
     -3.034  0.4632E+01  0.4265E+01
     -2.991  0.4908E+01  0.4475E+01
     -2.948  0.5157E+01  0.4695E+01
     -2.906  0.5330E+01  0.4923E+01
     -2.863  0.5408E+01  0.5155E+01
     -2.820  0.5409E+01  0.5386E+01
     -2.777  0.5384E+01  0.5616E+01
     -2.734  0.5391E+01  0.5847E+01
     -2.692  0.5457E+01  0.6080E+01
     -2.649  0.5555E+01  0.6318E+01
     -2.606  0.5625E+01  0.6558E+01
     -2.563  0.5618E+01  0.6799E+01
     -2.521  0.5544E+01  0.7036E+01
     -2.478  0.5486E+01  0.7270E+01
     -2.435  0.5560E+01  0.7508E+01
     -2.392  0.5852E+01  0.7759E+01
     -2.349  0.6354E+01  0.8030E+01
     -2.307  0.6943E+01  0.8327E+01
     -2.264  0.7420E+01  0.8645E+01
     -2.221  0.7610E+01  0.8970E+01
     -2.178  0.7464E+01  0.9289E+01
     -2.136  0.7104E+01  0.9593E+01
     -2.093  0.6769E+01  0.9883E+01
     -2.050  0.6689E+01  0.1017E+02
     -2.007  0.6970E+01  0.1047E+02
     -1.965  0.7542E+01  0.1079E+02
     -1.922  0.8205E+01  0.1114E+02
     -1.879  0.8728E+01  0.1151E+02
     -1.836  0.8957E+01  0.1190E+02
     -1.793  0.8897E+01  0.1228E+02
     -1.751  0.8696E+01  0.1265E+02
     -1.708  0.8549E+01  0.1301E+02
     -1.665  0.8584E+01  0.1338E+02
     -1.622  0.8808E+01  0.1376E+02
     -1.580  0.9135E+01  0.1415E+02
     -1.537  0.9463E+01  0.1455E+02
     -1.494  0.9741E+01  0.1497E+02
     -1.451  0.9970E+01  0.1540E+02
     -1.409  0.1017E+02  0.1583E+02
     -1.366  0.1034E+02  0.1627E+02
     -1.323  0.1049E+02  0.1672E+02
     -1.280  0.1067E+02  0.1718E+02
     -1.237  0.1101E+02  0.1765E+02
     -1.195  0.1165E+02  0.1815E+02
     -1.152  0.1263E+02  0.1869E+02
     -1.109  0.1379E+02  0.1928E+02
     -1.066  0.1480E+02  0.1991E+02
     -1.024  0.1539E+02  0.2057E+02
     -0.981  0.1554E+02  0.2123E+02
     -0.938  0.1551E+02  0.2190E+02
     -0.895  0.1572E+02  0.2257E+02
     -0.853  0.1651E+02  0.2328E+02
     -0.810  0.1796E+02  0.2405E+02
     -0.767  0.1995E+02  0.2490E+02
     -0.724  0.2238E+02  0.2586E+02
     -0.681  0.2529E+02  0.2694E+02
     -0.639  0.2887E+02  0.2817E+02
     -0.596  0.3313E+02  0.2959E+02
     -0.553  0.3778E+02  0.3120E+02
     -0.510  0.4225E+02  0.3301E+02
     -0.468  0.4603E+02  0.3498E+02
     -0.425  0.4890E+02  0.3707E+02
     -0.382  0.5103E+02  0.3925E+02
     -0.339  0.5274E+02  0.4151E+02
     -0.297  0.5426E+02  0.4383E+02
     -0.254  0.5557E+02  0.4621E+02
     -0.211  0.5656E+02  0.4863E+02
     -0.168  0.5711E+02  0.5107E+02
     -0.125  0.5730E+02  0.5352E+02
     -0.083  0.5735E+02  0.5597E+02
     -0.040  0.5751E+02  0.5843E+02
      0.003  0.5799E+02  0.6091E+02
      0.046  0.5891E+02  0.6343E+02
      0.088  0.6039E+02  0.6602E+02
      0.131  0.6256E+02  0.6869E+02
      0.174  0.6544E+02  0.7149E+02
      0.217  0.6886E+02  0.7444E+02
      0.260  0.7245E+02  0.7753E+02
      0.302  0.7583E+02  0.8078E+02
      0.345  0.7877E+02  0.8415E+02
      0.388  0.8117E+02  0.8762E+02
      0.431  0.8310E+02  0.9117E+02
      0.473  0.8460E+02  0.9479E+02
      0.516  0.8569E+02  0.9846E+02
      0.559  0.8637E+02  0.1022E+03
      0.602  0.8662E+02  0.1059E+03
      0.644  0.8646E+02  0.1096E+03
      0.687  0.8588E+02  0.1132E+03
      0.730  0.8484E+02  0.1169E+03
      0.773  0.8330E+02  0.1204E+03
      0.816  0.8136E+02  0.1239E+03
      0.858  0.7934E+02  0.1273E+03
      0.901  0.7762E+02  0.1306E+03
      0.944  0.7647E+02  0.1339E+03
      0.987  0.7588E+02  0.1371E+03
      1.029  0.7562E+02  0.1404E+03
      1.072  0.7537E+02  0.1436E+03
      1.115  0.7491E+02  0.1468E+03
      1.158  0.7426E+02  0.1500E+03
      1.200  0.7361E+02  0.1531E+03
      1.243  0.7326E+02  0.1562E+03
      1.286  0.7328E+02  0.1594E+03
      1.329  0.7348E+02  0.1625E+03
      1.372  0.7343E+02  0.1657E+03
      1.414  0.7280E+02  0.1688E+03
      1.457  0.7154E+02  0.1718E+03
      1.500  0.7002E+02  0.1748E+03
      1.543  0.6884E+02  0.1778E+03
      1.585  0.6847E+02  0.1807E+03
      1.628  0.6914E+02  0.1837E+03
      1.671  0.7075E+02  0.1867E+03
      1.714  0.7298E+02  0.1898E+03
      1.756  0.7544E+02  0.1930E+03
      1.799  0.7783E+02  0.1964E+03
      1.842  0.8001E+02  0.1998E+03
      1.885  0.8196E+02  0.2033E+03
      1.928  0.8373E+02  0.2069E+03
      1.970  0.8539E+02  0.2105E+03
      2.013  0.8696E+02  0.2142E+03
      2.056  0.8847E+02  0.2180E+03
      2.099  0.8992E+02  0.2219E+03
      2.141  0.9132E+02  0.2258E+03
      2.184  0.9268E+02  0.2297E+03
      2.227  0.9410E+02  0.2338E+03
      2.270  0.9576E+02  0.2379E+03
      2.312  0.9794E+02  0.2421E+03
      2.355  0.1009E+03  0.2464E+03
      2.398  0.1047E+03  0.2508E+03
      2.441  0.1090E+03  0.2555E+03
      2.484  0.1136E+03  0.2604E+03
      2.526  0.1179E+03  0.2654E+03
      2.569  0.1217E+03  0.2706E+03
      2.612  0.1247E+03  0.2760E+03
      2.655  0.1268E+03  0.2814E+03
      2.697  0.1280E+03  0.2868E+03
      2.740  0.1286E+03  0.2923E+03
      2.783  0.1292E+03  0.2979E+03
      2.826  0.1304E+03  0.3035E+03
      2.868  0.1325E+03  0.3091E+03
      2.911  0.1354E+03  0.3149E+03
      2.954  0.1383E+03  0.3208E+03
      2.997  0.1398E+03  0.3268E+03
      3.040  0.1385E+03  0.3327E+03
      3.082  0.1339E+03  0.3385E+03
      3.125  0.1263E+03  0.3439E+03
      3.168  0.1172E+03  0.3489E+03
      3.211  0.1083E+03  0.3535E+03
      3.253  0.1008E+03  0.3578E+03
      3.296  0.9568E+02  0.3619E+03
      3.339  0.9277E+02  0.3659E+03
      3.382  0.9159E+02  0.3698E+03
      3.425  0.9135E+02  0.3737E+03
      3.467  0.9122E+02  0.3776E+03
      3.510  0.9052E+02  0.3815E+03
      3.553  0.8900E+02  0.3853E+03
      3.596  0.8695E+02  0.3890E+03
      3.638  0.8510E+02  0.3926E+03
      3.681  0.8431E+02  0.3962E+03
      3.724  0.8513E+02  0.3999E+03
      3.767  0.8748E+02  0.4036E+03
      3.809  0.9070E+02  0.4075E+03
      3.852  0.9394E+02  0.4115E+03
      3.895  0.9665E+02  0.4157E+03
      3.938  0.9873E+02  0.4199E+03
      3.981  0.1004E+03  0.4242E+03
      4.023  0.1017E+03  0.4285E+03
      4.066  0.1027E+03  0.4329E+03
      4.109  0.1030E+03  0.4373E+03
      4.152  0.1027E+03  0.4417E+03
      4.194  0.1017E+03  0.4461E+03
      4.237  0.1004E+03  0.4504E+03
      4.280  0.9923E+02  0.4546E+03
      4.323  0.9835E+02  0.4588E+03
      4.365  0.9800E+02  0.4630E+03
      4.408  0.9819E+02  0.4672E+03
      4.451  0.9871E+02  0.4714E+03
      4.494  0.9925E+02  0.4757E+03
      4.537  0.9946E+02  0.4799E+03
      4.579  0.9920E+02  0.4842E+03
      4.622  0.9863E+02  0.4884E+03
      4.665  0.9814E+02  0.4926E+03
      4.708  0.9822E+02  0.4968E+03
      4.750  0.9925E+02  0.5010E+03
      4.793  0.1013E+03  0.5054E+03
      4.836  0.1041E+03  0.5098E+03
      4.879  0.1072E+03  0.5144E+03
      4.921  0.1102E+03  0.5191E+03
      4.964  0.1125E+03  0.5239E+03
      5.007  0.1135E+03  0.5288E+03
      5.050  0.1124E+03  0.5336E+03
      5.093  0.1080E+03  0.5382E+03
      5.135  0.9928E+02  0.5424E+03
      5.178  0.8597E+02  0.5461E+03
      5.221  0.6911E+02  0.5491E+03
      5.264  0.5091E+02  0.5513E+03
      5.306  0.3397E+02  0.5527E+03
      5.349  0.2034E+02  0.5536E+03
      5.392  0.1084E+02  0.5540E+03
      5.435  0.5117E+01  0.5543E+03
      5.477  0.2127E+01  0.5544E+03
      5.520  0.7764E+00  0.5544E+03
      5.563  0.2480E+00  0.5544E+03
      5.606  0.6916E-01  0.5544E+03
      5.649  0.1681E-01  0.5544E+03
      5.691  0.3554E-02  0.5544E+03
      5.734  0.6528E-03  0.5544E+03
      5.777  0.1041E-03  0.5544E+03
      5.820  0.1438E-04  0.5544E+03
      5.862  0.1720E-05  0.5544E+03
      5.905  0.1779E-06  0.5544E+03
      5.948  0.1590E-07  0.5544E+03
      5.991  0.1227E-08  0.5544E+03
      6.033  0.8160E-10  0.5544E+03
      6.076  0.4674E-11  0.5544E+03
      6.119  0.2299E-12  0.5544E+03
      6.162  0.8891E-14  0.5544E+03
      6.205  0.1298E-15  0.5544E+03
      6.247  0.0000E+00  0.5544E+03
      6.290  0.0000E+00  0.5544E+03
      6.333  0.0000E+00  0.5544E+03
      6.376  0.0000E+00  0.5544E+03
      6.418  0.0000E+00  0.5544E+03
      6.461  0.0000E+00  0.5544E+03
      6.504  0.0000E+00  0.5544E+03
      6.547  0.0000E+00  0.5544E+03
      6.590  0.0000E+00  0.5544E+03
      6.632  0.0000E+00  0.5544E+03
      6.675  0.0000E+00  0.5544E+03
      6.718  0.0000E+00  0.5544E+03
      6.761  0.0000E+00  0.5544E+03
      6.803  0.0000E+00  0.5544E+03
