<?xml version="1.0" encoding="ISO-8859-1"?>
<modeling>
 <generator>
  <i name="program" type="string">vasp </i>
  <i name="version" type="string">5.4.4.18Apr17-6-g9f103f2a35  </i>
  <i name="subversion" type="string">(build Sep 27 2018 12:46:37) complex + VL-xray_ parallel </i>
  <i name="platform" type="string">LLNL_Quartz_ifc </i>
  <i name="date" type="string">2021 09 26 </i>
  <i name="time" type="string">23:19:29 </i>
 </generator>
 <incar>
  <i type="int" name="ISTART">     2</i>
  <i type="string" name="PREC">accurate</i>
  <i type="string" name="ALGO"> Fast</i>
  <i type="int" name="ICHARG">     2</i>
  <i type="int" name="INIWAV">     1</i>
  <i type="int" name="NELM">   100</i>
  <i type="int" name="NELMIN">     4</i>
  <i type="int" name="IBRION">     2</i>
  <i name="EDIFF">      0.00000100</i>
  <i type="int" name="NSW">     5</i>
  <i type="int" name="ISIF">     2</i>
  <i type="int" name="ISYM">     2</i>
  <i name="ENCUT">    450.00000000</i>
  <i name="POTIM">      0.25000000</i>
  <i type="string" name="LREAL"> Auto</i>
  <i type="int" name="ISMEAR">     0</i>
  <i name="SIGMA">      0.15000000</i>
  <i type="logical" name="LWAVE"> F  </i>
  <i type="logical" name="LCHARG"> F  </i>
  <i type="int" name="ICORELEVEL">     0</i>
  <i type="int" name="CLNT">     1</i>
  <i type="int" name="CLN">     1</i>
  <i type="int" name="INCAR     ">     0</i>
  <i name="CLZ">      0.00000000</i>
  <v type="int" name="KPOINT_BSE">    -1     0     0     0</v>
  <i type="int" name="NELM">   100</i>
 </incar>
 <structure name="primitive_cell" >
  <crystal>
   <varray name="basis" >
    <v>       9.72667804       0.00000000       0.00000000 </v>
    <v>       0.00000000       8.42355028       0.00000000 </v>
    <v>       0.00000000       0.00000000      45.00000000 </v>
   </varray>
   <i name="volume">   3686.99226691 </i>
   <varray name="rec_basis" >
    <v>       0.10281002       0.00000000       0.00000000 </v>
    <v>       0.00000000       0.11871479       0.00000000 </v>
    <v>       0.00000000       0.00000000       0.02222222 </v>
   </varray>
  </crystal>
  <varray name="positions" >
   <v>       0.06178373       0.03118998       0.12437911 </v>
   <v>       0.18309137       0.11214971       0.16663712 </v>
   <v>       0.05577795      -0.13439408       0.16678660 </v>
   <v>       0.18606267      -0.21154299       0.12426724 </v>
   <v>      -0.06632648      -0.21169915       0.12466928 </v>
   <v>      -0.06864670       0.11461464       0.16722327 </v>
   <v>      -0.18648153       0.03150705       0.12433626 </v>
   <v>       0.31129820       0.03152714       0.12443890 </v>
   <v>       0.18471563       0.28747830       0.12451373 </v>
   <v>      -0.06550773       0.28708453       0.12442413 </v>
   <v>       0.30528081      -0.13476356       0.16614557 </v>
   <v>       0.05542980       0.36561699       0.16679652 </v>
   <v>      -0.19310716      -0.13583122       0.16724087 </v>
   <v>       0.43216765       0.11233568       0.16670375 </v>
   <v>      -0.05911153      -0.04458914       0.21164975 </v>
   <v>       0.30687616       0.36469864       0.16688657 </v>
   <v>       0.43466320      -0.21230939       0.12452538 </v>
   <v>       0.18228344      -0.38624986       0.16668183 </v>
   <v>       0.19015106      -0.04358740       0.21203878 </v>
   <v>       0.06476837       0.20506209       0.21162764 </v>
   <v>      -0.06694790      -0.38711249       0.16685376 </v>
   <v>      -0.31577045      -0.21153671       0.12476232 </v>
   <v>       0.06177063      -0.46891572       0.12429681 </v>
   <v>      -0.19501715       0.36621229       0.16645494 </v>
   <v>       0.43455947       0.28743026       0.12455805 </v>
   <v>      -0.31765298       0.11437219       0.16719613 </v>
   <v>      -0.31366973       0.28720407       0.12437237 </v>
   <v>       0.06700111      -0.29450979       0.21167074 </v>
   <v>      -0.18485273       0.20487075       0.21166544 </v>
   <v>      -0.43737557       0.03260414       0.12460586 </v>
   <v>      -0.18746776      -0.46932551       0.12439420 </v>
   <v>       0.31248920      -0.46845867       0.12427139 </v>
   <v>       0.31566525       0.20523834       0.21162898 </v>
   <v>      -0.44445574      -0.13508351       0.16668543 </v>
   <v>      -0.18328226      -0.29480929       0.21170848 </v>
   <v>       0.43177103      -0.38631944       0.16664364 </v>
   <v>      -0.31021298      -0.04428767       0.21191302 </v>
   <v>       0.31525589      -0.29625026       0.21239410 </v>
   <v>       0.44016279      -0.04340313       0.21224504 </v>
   <v>       0.18955886       0.45498471       0.21163630 </v>
   <v>      -0.31765317      -0.38791725       0.16672464 </v>
   <v>      -0.05989948       0.45545573       0.21199934 </v>
   <v>      -0.44384032       0.36567324       0.16679020 </v>
   <v>       0.05876191       0.03831857       0.25607832 </v>
   <v>       0.18427642      -0.21080140       0.25594369 </v>
   <v>      -0.06670880      -0.21159389       0.25584121 </v>
   <v>      -0.43328948       0.20322529       0.21177263 </v>
   <v>       0.30914838       0.03804527       0.25585185 </v>
   <v>      -0.19083418       0.03828657       0.25614199 </v>
   <v>      -0.43711297      -0.46998403       0.12488731 </v>
   <v>       0.18417919       0.28925283       0.25614286 </v>
   <v>      -0.06577011       0.28919964       0.25608474 </v>
   <v>      -0.31036622       0.45553907       0.21202994 </v>
   <v>       0.43993998       0.45533519       0.21184307 </v>
   <v>      -0.43477979      -0.29544863       0.21178094 </v>
   <v>       0.05978675      -0.46180438       0.25596337 </v>
   <v>       0.43365141      -0.21062245       0.25604044 </v>
   <v>      -0.31608806      -0.21083097       0.25607798 </v>
   <v>       0.43375574       0.28935027       0.25608344 </v>
   <v>      -0.31601179       0.28913781       0.25614396 </v>
   <v>       0.30813198      -0.46150046       0.25569614 </v>
   <v>      -0.44067396       0.03876543       0.25590385 </v>
   <v>      -0.19124089      -0.46195532       0.25624112 </v>
   <v>       0.06933531      -0.12571790       0.30048073 </v>
   <v>      -0.05512012       0.12378973       0.30028532 </v>
   <v>       0.19445978       0.12454864       0.30045103 </v>
   <v>      -0.18062650      -0.12510665       0.30039368 </v>
   <v>       0.31903739      -0.12560341       0.30020022 </v>
   <v>       0.06897853       0.37498682       0.30040662 </v>
   <v>      -0.05550758      -0.37537621       0.30013496 </v>
   <v>      -0.44149566      -0.46173896       0.25611655 </v>
   <v>      -0.30492522       0.12394120       0.30038473 </v>
   <v>       0.19396735      -0.37532599       0.30043817 </v>
   <v>      -0.18069402       0.37465254       0.30035034 </v>
   <v>       0.44416949       0.12460781       0.30046556 </v>
   <v>       0.32012555       0.37322447       0.30027496 </v>
   <v>      -0.30595013      -0.37513443       0.30025709 </v>
   <v>      -0.43043782      -0.12594830       0.30047439 </v>
   <v>       0.44532770      -0.37545142       0.30040850 </v>
   <v>      -0.43064085       0.37366467       0.30039782 </v>
   <v>      -0.06595139      -0.04844541       0.34489867 </v>
   <v>       0.18389880      -0.04727887       0.34512141 </v>
   <v>       0.05879163       0.20290491       0.34502224 </v>
   <v>       0.05849824      -0.29784295       0.34496843 </v>
   <v>       0.30864483       0.20249242       0.34487818 </v>
   <v>      -0.19115733       0.20227410       0.34513080 </v>
   <v>       0.30882848      -0.29800069       0.34491679 </v>
   <v>       0.43358512      -0.04728578       0.34509828 </v>
   <v>      -0.19126838      -0.29732716       0.34506929 </v>
   <v>      -0.31649992      -0.04813946       0.34485355 </v>
   <v>      -0.06640832       0.45250409       0.34490296 </v>
   <v>       0.18372163       0.45273648       0.34510673 </v>
   <v>      -0.44133780       0.20251974       0.34491212 </v>
   <v>       0.43389536       0.45259077       0.34512533 </v>
   <v>      -0.31647617       0.45222569       0.34502935 </v>
   <v>       0.06471540       0.03964305      -0.12460785 </v>
   <v>      -0.44124218      -0.29769186       0.34496116 </v>
   <v>       0.18672049      -0.20531078      -0.12429472 </v>
   <v>      -0.06252567      -0.20610472      -0.12488425 </v>
   <v>       0.31401948       0.04153823      -0.12440012 </v>
   <v>      -0.18775585       0.04147900      -0.12452940 </v>
   <v>      -0.06374164       0.29368758      -0.12426559 </v>
   <v>       0.18811614       0.29408235      -0.12425251 </v>
   <v>       0.06638365       0.03797863       0.38910546 </v>
   <v>       0.43693129      -0.20465043      -0.12431251 </v>
   <v>       0.06320239      -0.46093614      -0.12442091 </v>
   <v>      -0.31437508      -0.20497947      -0.12448830 </v>
   <v>      -0.31342387       0.29616334      -0.12407218 </v>
   <v>       0.43683289       0.29597976      -0.12410607 </v>
   <v>      -0.05874595      -0.21248140       0.38905972 </v>
   <v>       0.19271728      -0.21264263       0.38897727 </v>
   <v>      -0.18194857       0.04002580       0.38919657 </v>
   <v>      -0.05886923       0.28675205       0.38895830 </v>
   <v>       0.31632147       0.03708206       0.38903162 </v>
   <v>       0.19129193       0.28769131       0.38906383 </v>
   <v>      -0.18579808      -0.46129689      -0.12443780 </v>
   <v>       0.31350502      -0.46076245      -0.12434647 </v>
   <v>      -0.43762905       0.03999121      -0.12412778 </v>
   <v>      -0.30833905      -0.21220212       0.38907616 </v>
   <v>       0.06750351      -0.46128496       0.38917478 </v>
   <v>      -0.30865935       0.28747654       0.38903507 </v>
   <v>       0.44147936      -0.21238903       0.38907085 </v>
   <v>       0.44147012       0.28765233       0.38910997 </v>
   <v>      -0.18364582      -0.46230447       0.38909804 </v>
   <v>      -0.43364017       0.03782921       0.38906686 </v>
   <v>       0.31626836      -0.46197482       0.38901777 </v>
   <v>      -0.43639786      -0.46064003      -0.12446577 </v>
   <v>      -0.05779598      -0.03673397      -0.16661069 </v>
   <v>       0.19114317      -0.03717424      -0.16659617 </v>
   <v>       0.06658872       0.21291938      -0.16645889 </v>
   <v>       0.06654081      -0.28556986      -0.16644388 </v>
   <v>      -0.18240547       0.21332101      -0.16672930 </v>
   <v>       0.31640271       0.21249976      -0.16664722 </v>
   <v>      -0.43365717      -0.46224085       0.38907637 </v>
   <v>      -0.18327254      -0.28604633      -0.16685290 </v>
   <v>      -0.30826028      -0.03812894      -0.16682658 </v>
   <v>       0.31765509      -0.28706923      -0.16716426 </v>
   <v>       0.44233749      -0.03763578      -0.16685233 </v>
   <v>      -0.05816716       0.46339799      -0.16662927 </v>
   <v>       0.19263644       0.46352993      -0.16686265 </v>
   <v>       0.06169381      -0.12926013       0.43445624 </v>
   <v>       0.18744741       0.11985537       0.43439054 </v>
   <v>      -0.06293668       0.12023899       0.43461319 </v>
   <v>      -0.43358585       0.21315467      -0.16687785 </v>
   <v>      -0.30844654       0.46257851      -0.16687318 </v>
   <v>       0.44175382       0.46249807      -0.16683536 </v>
   <v>      -0.43345200      -0.28735851      -0.16684404 </v>
   <v>      -0.18862003      -0.12951990       0.43435638 </v>
   <v>       0.31197585      -0.12972322       0.43449593 </v>
   <v>       0.06308131       0.37065662       0.43440824 </v>
   <v>      -0.06243564      -0.37973632       0.43446068 </v>
   <v>       0.18689702      -0.37996777       0.43447714 </v>
   <v>      -0.31224522       0.12052758       0.43438593 </v>
   <v>      -0.18847910       0.37129567       0.43418245 </v>
   <v>       0.43721364       0.12041956       0.43443960 </v>
   <v>       0.31245837       0.37027889       0.43444448 </v>
   <v>      -0.31255302      -0.37973681       0.43445965 </v>
   <v>       0.43710614      -0.37901022       0.43444846 </v>
   <v>      -0.43752042      -0.12969995       0.43444903 </v>
   <v>      -0.43804369       0.37044531       0.43443073 </v>
   <v>       0.05945050      -0.12738901      -0.21163868 </v>
   <v>       0.18391922       0.12225012      -0.21154066 </v>
   <v>      -0.06533009       0.12302689      -0.21156406 </v>
   <v>      -0.19021172      -0.12774393      -0.21168209 </v>
   <v>       0.31108131      -0.12841257      -0.21190177 </v>
   <v>       0.06063971       0.37315485      -0.21188632 </v>
   <v>       0.43498869       0.12173155      -0.21138757 </v>
   <v>      -0.06592711      -0.37782928      -0.21177039 </v>
   <v>       0.18528203      -0.37920153      -0.21192343 </v>
   <v>      -0.31585821       0.12222468      -0.21150065 </v>
   <v>       0.30987609       0.37219177      -0.21173417 </v>
   <v>      -0.19004527       0.37269401      -0.21175183 </v>
   <v>       0.43417340      -0.37789497      -0.21154348 </v>
   <v>      -0.44010316      -0.12764759      -0.21167110 </v>
   <v>      -0.31536415      -0.37828478      -0.21177116 </v>
   <v>      -0.06257621      -0.04453320       0.47866642 </v>
   <v>       0.18732367      -0.04429946       0.47865856 </v>
   <v>       0.06262801       0.20573030       0.47868933 </v>
   <v>      -0.43994973       0.37188828      -0.21160377 </v>
   <v>       0.06251334      -0.29421714       0.47851781 </v>
   <v>      -0.18776915       0.20576068       0.47868035 </v>
   <v>       0.31243017       0.20558913       0.47869072 </v>
   <v>      -0.18742996      -0.29418274       0.47858872 </v>
   <v>       0.31217728      -0.29420020       0.47865999 </v>
   <v>      -0.31267756      -0.04419791       0.47867202 </v>
   <v>       0.43724312      -0.04432988       0.47863735 </v>
   <v>      -0.06303245       0.45522786       0.47865549 </v>
   <v>       0.18726097       0.45572293       0.47863872 </v>
   <v>      -0.43783581       0.20568138       0.47865849 </v>
   <v>      -0.31285726       0.45551012       0.47862188 </v>
   <v>       0.43739149       0.45591601       0.47855937 </v>
   <v>      -0.43777474      -0.29416998       0.47862462 </v>
   <v>       0.06554394       0.03970936      -0.25602624 </v>
   <v>      -0.05955087      -0.20962185      -0.25602004 </v>
   <v>       0.19051982      -0.20962032      -0.25604465 </v>
   <v>      -0.18460819       0.04044683      -0.25613171 </v>
   <v>      -0.05978864       0.28980101      -0.25598872 </v>
   <v>       0.31557967       0.04073859      -0.25610802 </v>
   <v>       0.19105585       0.29020564      -0.25603316 </v>
   <v>       0.06535699      -0.45968192      -0.25598213 </v>
   <v>      -0.30996859      -0.20902825      -0.25598409 </v>
   <v>       0.43987359      -0.20939733      -0.25592007 </v>
   <v>      -0.30949197       0.29018518      -0.25604287 </v>
   <v>       0.43996717       0.29084990      -0.25599049 </v>
   <v>       0.31558099      -0.45948440      -0.25580808 </v>
   <v>      -0.18424668      -0.46003096      -0.25604655 </v>
   <v>      -0.43414225       0.04046254      -0.25607145 </v>
   <v>       0.06159852      -0.12869033      -0.47868394 </v>
   <v>       0.18668097       0.12164056      -0.47861705 </v>
   <v>      -0.06352828       0.12185270      -0.47851312 </v>
   <v>      -0.18845361      -0.12812133      -0.47867590 </v>
   <v>       0.31156316      -0.12833425      -0.47863996 </v>
   <v>       0.06138914       0.37219958      -0.47865695 </v>
   <v>      -0.06331494      -0.37833882      -0.47864070 </v>
   <v>       0.18669682      -0.37850692      -0.47859891 </v>
   <v>       0.43657697       0.12158441      -0.47863038 </v>
   <v>      -0.31336864       0.12168991      -0.47862613 </v>
   <v>      -0.18832847       0.37195244      -0.47863487 </v>
   <v>       0.31142979       0.37194950      -0.47860760 </v>
   <v>      -0.43441487      -0.45935328      -0.25608023 </v>
   <v>      -0.31375915      -0.37854881      -0.47877819 </v>
   <v>       0.43653888      -0.37804960      -0.47868341 </v>
   <v>      -0.43810654      -0.12808203      -0.47862767 </v>
   <v>      -0.43838337       0.37170039      -0.47864460 </v>
   <v>       0.18517476      -0.04175985      -0.30033760 </v>
   <v>      -0.06490920      -0.04182249      -0.30038012 </v>
   <v>       0.06024257       0.20790502      -0.30046132 </v>
   <v>       0.06044189      -0.29222845      -0.30043377 </v>
   <v>       0.31037674       0.20798487      -0.30037476 </v>
   <v>      -0.18956014       0.20775375      -0.30039330 </v>
   <v>       0.31037250      -0.29235497      -0.30041339 </v>
   <v>      -0.18960481      -0.29221353      -0.30042520 </v>
   <v>       0.43501605      -0.04199037      -0.30038991 </v>
   <v>      -0.31485170      -0.04189609      -0.30040338 </v>
   <v>       0.18498358       0.45797450      -0.30044444 </v>
   <v>      -0.06497263       0.45808407      -0.30040087 </v>
   <v>      -0.43956128       0.20781843      -0.30042522 </v>
   <v>       0.43539754       0.45797664      -0.30046148 </v>
   <v>      -0.31496457       0.45807020      -0.30039220 </v>
   <v>       0.18684396      -0.04300113      -0.43455644 </v>
   <v>      -0.06282226      -0.04287032      -0.43445845 </v>
   <v>       0.06213666       0.20716512      -0.43462948 </v>
   <v>      -0.43959411      -0.29231129      -0.30043187 </v>
   <v>       0.06213479      -0.29335783      -0.43442496 </v>
   <v>      -0.18851277       0.20678948      -0.43460938 </v>
   <v>       0.31136161       0.20661531      -0.43452003 </v>
   <v>      -0.18845287      -0.29364493      -0.43477163 </v>
   <v>       0.31146504      -0.29285022      -0.43452057 </v>
   <v>       0.43697788      -0.04290109      -0.43465263 </v>
   <v>      -0.31295776      -0.04324568      -0.43442223 </v>
   <v>       0.18694107       0.45716468      -0.43457317 </v>
   <v>      -0.06333470       0.45618637      -0.43431905 </v>
   <v>      -0.43773493       0.20711643      -0.43450246 </v>
   <v>       0.43690546       0.45701399      -0.43453881 </v>
   <v>      -0.31343264       0.45670054      -0.43450898 </v>
   <v>      -0.43797155      -0.29305039      -0.43446294 </v>
   <v>       0.06647284      -0.12523822      -0.34510836 </v>
   <v>      -0.05843705       0.12500136      -0.34509077 </v>
   <v>       0.19150987       0.12504263      -0.34511984 </v>
   <v>      -0.18361933      -0.12513622      -0.34508944 </v>
   <v>       0.31657249      -0.12496414      -0.34513522 </v>
   <v>       0.06638293       0.37480291      -0.34511072 </v>
   <v>      -0.05848857      -0.37474189      -0.34513763 </v>
   <v>       0.19148586      -0.37497728      -0.34508248 </v>
   <v>      -0.30860027       0.12491230      -0.34508626 </v>
   <v>      -0.18359277       0.37484174      -0.34507658 </v>
   <v>       0.44157751       0.12487358      -0.34516362 </v>
   <v>       0.31647724       0.37488295      -0.34509648 </v>
   <v>      -0.30872004      -0.37498349      -0.34507315 </v>
   <v>      -0.43350131      -0.12510681      -0.34513944 </v>
   <v>       0.44150686      -0.37499181      -0.34512066 </v>
   <v>      -0.43343405       0.37479329      -0.34511293 </v>
   <v>       0.05886447       0.03786958      -0.38918772 </v>
   <v>       0.18363241      -0.21194113      -0.38914390 </v>
   <v>      -0.06627615      -0.21242313      -0.38907652 </v>
   <v>      -0.19113392       0.03795318      -0.38919140 </v>
   <v>       0.30879696       0.03806095      -0.38902983 </v>
   <v>       0.18381461       0.28800302      -0.38908996 </v>
   <v>      -0.06630169       0.28787134      -0.38910027 </v>
   <v>       0.43384467      -0.21203299      -0.38917469 </v>
   <v>       0.05869312      -0.46215145      -0.38909983 </v>
   <v>       0.43381417       0.28792986      -0.38914923 </v>
   <v>      -0.31631851      -0.21209078      -0.38909072 </v>
   <v>      -0.31637969       0.28797301      -0.38906570 </v>
   <v>       0.30873875      -0.46206794      -0.38911848 </v>
   <v>      -0.19120539      -0.46208285      -0.38909768 </v>
   <v>      -0.44106448       0.03814076      -0.38905596 </v>
   <v>      -0.44140409      -0.46186632      -0.38916405 </v>
  </varray>
 </structure>
 <varray name="primitive_index" >
  <v type="int" >        1 </v>
  <v type="int" >      125 </v>
  <v type="int" >       60 </v>
  <v type="int" >       83 </v>
  <v type="int" >       44 </v>
  <v type="int" >       26 </v>
  <v type="int" >      202 </v>
  <v type="int" >      256 </v>
  <v type="int" >      111 </v>
  <v type="int" >      155 </v>
  <v type="int" >      277 </v>
  <v type="int" >       51 </v>
  <v type="int" >      102 </v>
  <v type="int" >      182 </v>
  <v type="int" >      212 </v>
  <v type="int" >      108 </v>
  <v type="int" >      170 </v>
  <v type="int" >       20 </v>
  <v type="int" >      146 </v>
  <v type="int" >       50 </v>
  <v type="int" >      104 </v>
  <v type="int" >      163 </v>
  <v type="int" >      176 </v>
  <v type="int" >      284 </v>
  <v type="int" >      117 </v>
  <v type="int" >      166 </v>
  <v type="int" >      145 </v>
  <v type="int" >      250 </v>
  <v type="int" >      167 </v>
  <v type="int" >      114 </v>
  <v type="int" >      205 </v>
  <v type="int" >       91 </v>
  <v type="int" >      249 </v>
  <v type="int" >      192 </v>
  <v type="int" >      213 </v>
  <v type="int" >      174 </v>
  <v type="int" >       92 </v>
  <v type="int" >      276 </v>
  <v type="int" >      229 </v>
  <v type="int" >      189 </v>
  <v type="int" >       97 </v>
  <v type="int" >      175 </v>
  <v type="int" >       30 </v>
  <v type="int" >      185 </v>
  <v type="int" >      200 </v>
  <v type="int" >       52 </v>
  <v type="int" >      103 </v>
  <v type="int" >      179 </v>
  <v type="int" >       24 </v>
  <v type="int" >      283 </v>
  <v type="int" >      112 </v>
  <v type="int" >      127 </v>
  <v type="int" >      261 </v>
  <v type="int" >      139 </v>
  <v type="int" >      243 </v>
  <v type="int" >      168 </v>
  <v type="int" >      137 </v>
  <v type="int" >      118 </v>
  <v type="int" >      265 </v>
  <v type="int" >       58 </v>
  <v type="int" >      275 </v>
  <v type="int" >      221 </v>
  <v type="int" >       81 </v>
  <v type="int" >      214 </v>
  <v type="int" >      135 </v>
  <v type="int" >      215 </v>
  <v type="int" >       72 </v>
  <v type="int" >       98 </v>
  <v type="int" >      226 </v>
  <v type="int" >      178 </v>
  <v type="int" >       28 </v>
  <v type="int" >      109 </v>
  <v type="int" >      263 </v>
  <v type="int" >      220 </v>
  <v type="int" >      159 </v>
  <v type="int" >      242 </v>
  <v type="int" >      130 </v>
  <v type="int" >      210 </v>
  <v type="int" >      101 </v>
  <v type="int" >      171 </v>
  <v type="int" >      194 </v>
  <v type="int" >      258 </v>
  <v type="int" >       47 </v>
  <v type="int" >      216 </v>
  <v type="int" >       86 </v>
  <v type="int" >      207 </v>
  <v type="int" >      208 </v>
  <v type="int" >      172 </v>
  <v type="int" >       73 </v>
  <v type="int" >       25 </v>
  <v type="int" >       12 </v>
  <v type="int" >      116 </v>
  <v type="int" >      219 </v>
  <v type="int" >      206 </v>
  <v type="int" >       48 </v>
  <v type="int" >      282 </v>
  <v type="int" >      164 </v>
  <v type="int" >      268 </v>
  <v type="int" >      281 </v>
  <v type="int" >      245 </v>
  <v type="int" >       14 </v>
  <v type="int" >      234 </v>
  <v type="int" >      120 </v>
  <v type="int" >      124 </v>
  <v type="int" >      150 </v>
  <v type="int" >      266 </v>
  <v type="int" >       29 </v>
  <v type="int" >      191 </v>
  <v type="int" >      255 </v>
  <v type="int" >      190 </v>
  <v type="int" >      287 </v>
  <v type="int" >      279 </v>
  <v type="int" >       13 </v>
  <v type="int" >      165 </v>
  <v type="int" >      248 </v>
  <v type="int" >      231 </v>
  <v type="int" >       18 </v>
  <v type="int" >      161 </v>
  <v type="int" >       45 </v>
  <v type="int" >      273 </v>
  <v type="int" >       84 </v>
  <v type="int" >      264 </v>
  <v type="int" >        4 </v>
  <v type="int" >      123 </v>
  <v type="int" >       16 </v>
  <v type="int" >       67 </v>
  <v type="int" >       64 </v>
  <v type="int" >       17 </v>
  <v type="int" >        7 </v>
  <v type="int" >      259 </v>
  <v type="int" >      134 </v>
  <v type="int" >        6 </v>
  <v type="int" >       39 </v>
  <v type="int" >      222 </v>
  <v type="int" >      253 </v>
  <v type="int" >       88 </v>
  <v type="int" >        5 </v>
  <v type="int" >      110 </v>
  <v type="int" >       36 </v>
  <v type="int" >      181 </v>
  <v type="int" >      285 </v>
  <v type="int" >      160 </v>
  <v type="int" >      158 </v>
  <v type="int" >      143 </v>
  <v type="int" >       82 </v>
  <v type="int" >       74 </v>
  <v type="int" >      241 </v>
  <v type="int" >      235 </v>
  <v type="int" >       23 </v>
  <v type="int" >      218 </v>
  <v type="int" >      131 </v>
  <v type="int" >      238 </v>
  <v type="int" >      257 </v>
  <v type="int" >       80 </v>
  <v type="int" >      201 </v>
  <v type="int" >      113 </v>
  <v type="int" >      232 </v>
  <v type="int" >      278 </v>
  <v type="int" >       69 </v>
  <v type="int" >      251 </v>
  <v type="int" >      197 </v>
  <v type="int" >        3 </v>
  <v type="int" >      149 </v>
  <v type="int" >       55 </v>
  <v type="int" >      224 </v>
  <v type="int" >      254 </v>
  <v type="int" >       49 </v>
  <v type="int" >      132 </v>
  <v type="int" >      272 </v>
  <v type="int" >      188 </v>
  <v type="int" >      138 </v>
  <v type="int" >       57 </v>
  <v type="int" >      184 </v>
  <v type="int" >       33 </v>
  <v type="int" >       66 </v>
  <v type="int" >      236 </v>
  <v type="int" >       94 </v>
  <v type="int" >      223 </v>
  <v type="int" >      106 </v>
  <v type="int" >      157 </v>
  <v type="int" >       21 </v>
  <v type="int" >      230 </v>
  <v type="int" >      280 </v>
  <v type="int" >       99 </v>
  <v type="int" >       75 </v>
  <v type="int" >      105 </v>
  <v type="int" >      269 </v>
  <v type="int" >      244 </v>
  <v type="int" >      237 </v>
  <v type="int" >      199 </v>
  <v type="int" >      156 </v>
  <v type="int" >      169 </v>
  <v type="int" >        9 </v>
  <v type="int" >       46 </v>
  <v type="int" >      262 </v>
  <v type="int" >      151 </v>
  <v type="int" >      187 </v>
  <v type="int" >      239 </v>
  <v type="int" >       11 </v>
  <v type="int" >      211 </v>
  <v type="int" >       43 </v>
  <v type="int" >       31 </v>
  <v type="int" >       19 </v>
  <v type="int" >       71 </v>
  <v type="int" >      288 </v>
  <v type="int" >       87 </v>
  <v type="int" >      267 </v>
  <v type="int" >       27 </v>
  <v type="int" >      140 </v>
  <v type="int" >      286 </v>
  <v type="int" >       10 </v>
  <v type="int" >      144 </v>
  <v type="int" >      107 </v>
  <v type="int" >      203 </v>
  <v type="int" >       68 </v>
  <v type="int" >      119 </v>
  <v type="int" >       34 </v>
  <v type="int" >      177 </v>
  <v type="int" >      183 </v>
  <v type="int" >      270 </v>
  <v type="int" >      195 </v>
  <v type="int" >      252 </v>
  <v type="int" >       77 </v>
  <v type="int" >      247 </v>
  <v type="int" >      173 </v>
  <v type="int" >      225 </v>
  <v type="int" >       37 </v>
  <v type="int" >      274 </v>
  <v type="int" >       63 </v>
  <v type="int" >      233 </v>
  <v type="int" >      154 </v>
  <v type="int" >      141 </v>
  <v type="int" >       38 </v>
  <v type="int" >       54 </v>
  <v type="int" >      246 </v>
  <v type="int" >      152 </v>
  <v type="int" >       53 </v>
  <v type="int" >      193 </v>
  <v type="int" >       76 </v>
  <v type="int" >      162 </v>
  <v type="int" >      129 </v>
  <v type="int" >       62 </v>
  <v type="int" >      133 </v>
  <v type="int" >       65 </v>
  <v type="int" >      271 </v>
  <v type="int" >       93 </v>
  <v type="int" >       32 </v>
  <v type="int" >       90 </v>
  <v type="int" >       56 </v>
  <v type="int" >       95 </v>
  <v type="int" >       59 </v>
  <v type="int" >       42 </v>
  <v type="int" >        8 </v>
  <v type="int" >       70 </v>
  <v type="int" >      228 </v>
  <v type="int" >      186 </v>
  <v type="int" >      196 </v>
  <v type="int" >      122 </v>
  <v type="int" >      121 </v>
  <v type="int" >       79 </v>
  <v type="int" >        2 </v>
  <v type="int" >      198 </v>
  <v type="int" >      240 </v>
  <v type="int" >      153 </v>
  <v type="int" >      209 </v>
  <v type="int" >       35 </v>
  <v type="int" >      204 </v>
  <v type="int" >       85 </v>
  <v type="int" >      227 </v>
  <v type="int" >       89 </v>
  <v type="int" >       40 </v>
  <v type="int" >       78 </v>
  <v type="int" >      142 </v>
  <v type="int" >       15 </v>
  <v type="int" >      136 </v>
  <v type="int" >      217 </v>
  <v type="int" >      148 </v>
  <v type="int" >       61 </v>
  <v type="int" >      100 </v>
  <v type="int" >       96 </v>
  <v type="int" >      126 </v>
  <v type="int" >      115 </v>
  <v type="int" >      180 </v>
  <v type="int" >      147 </v>
  <v type="int" >       41 </v>
  <v type="int" >       22 </v>
  <v type="int" >      260 </v>
  <v type="int" >      128 </v>
 </varray>
 <kpoints>
  <generation param="Gamma">
   <v type="int" name="divisions">       4        4        1 </v>
   <v name="usershift">      0.00000000       0.00000000       0.00000000 </v>
   <v name="genvec1">      0.25000000       0.00000000       0.00000000 </v>
   <v name="genvec2">      0.00000000       0.25000000       0.00000000 </v>
   <v name="genvec3">      0.00000000       0.00000000       1.00000000 </v>
   <v name="shift">      0.00000000       0.00000000       0.00000000 </v>
  </generation>
  <varray name="kpointlist" >
   <v>       0.00000000       0.00000000       0.00000000 </v>
   <v>       0.25000000       0.00000000       0.00000000 </v>
   <v>       0.50000000       0.00000000       0.00000000 </v>
   <v>       0.00000000       0.25000000       0.00000000 </v>
   <v>       0.25000000       0.25000000       0.00000000 </v>
   <v>       0.50000000       0.25000000       0.00000000 </v>
   <v>      -0.25000000       0.25000000       0.00000000 </v>
   <v>       0.00000000       0.50000000       0.00000000 </v>
   <v>       0.25000000       0.50000000       0.00000000 </v>
   <v>       0.50000000       0.50000000       0.00000000 </v>
  </varray>
  <varray name="weights" >
   <v>       0.06250000 </v>
   <v>       0.12500000 </v>
   <v>       0.06250000 </v>
   <v>       0.12500000 </v>
   <v>       0.12500000 </v>
   <v>       0.12500000 </v>
   <v>       0.12500000 </v>
   <v>       0.06250000 </v>
   <v>       0.12500000 </v>
   <v>       0.06250000 </v>
  </varray>
 </kpoints>
 <parameters>
  <separator name="general" >
   <i type="string" name="SYSTEM">unknown system</i>
   <i type="logical" name="LCOMPAT"> F  </i>
  </separator>
  <separator name="electronic" >
   <i type="string" name="PREC">accura</i>
   <i name="ENMAX">    450.00000000</i>
   <i name="ENAUG">    838.43500000</i>
   <i name="EDIFF">      0.00000100</i>
   <i type="int" name="IALGO">    68</i>
   <i type="int" name="IWAVPR">    11</i>
   <i type="int" name="NBANDS">  1386</i>
   <i name="NELECT">   2290.00000000</i>
   <i type="int" name="TURBO">     0</i>
   <i type="int" name="IRESTART">     0</i>
   <i type="int" name="NREBOOT">     0</i>
   <i type="int" name="NMIN">     0</i>
   <i name="EREF">      0.00000000</i>
   <separator name="electronic smearing" >
    <i type="int" name="ISMEAR">     0</i>
    <i name="SIGMA">      0.15000000</i>
    <i name="KSPACING">      0.50000000</i>
    <i type="logical" name="KGAMMA"> T  </i>
   </separator>
   <separator name="electronic projectors" >
    <i type="logical" name="LREAL"> T  </i>
    <v name="ROPT">     -0.00025000     -0.00025000</v>
    <i type="int" name="LMAXPAW">  -100</i>
    <i type="int" name="LMAXMIX">     2</i>
    <i type="logical" name="NLSPLINE"> F  </i>
   </separator>
   <separator name="electronic startup" >
    <i type="int" name="ISTART">     0</i>
    <i type="int" name="ICHARG">     2</i>
    <i type="int" name="INIWAV">     1</i>
   </separator>
   <separator name="electronic spin" >
    <i type="int" name="ISPIN">     1</i>
    <i type="logical" name="LNONCOLLINEAR"> F  </i>
    <v name="MAGMOM">      1.00000000      1.00000000      1.00000000      1.00000000      1.00000000      1.00000000      1.00000000      1.00000000      1.00000000      1.00000000      1.00000000      1.00000000      1.00000000      1.00000000      1.00000000      1.00000000      1.00000000      1.00000000      1.00000000      1.00000000
      1.00000000      1.00000000      1.00000000      1.00000000      1.00000000      1.00000000      1.00000000      1.00000000      1.00000000      1.00000000      1.00000000      1.00000000      1.00000000      1.00000000      1.00000000      1.00000000      1.00000000      1.00000000      1.00000000      1.00000000
      1.00000000      1.00000000      1.00000000      1.00000000      1.00000000      1.00000000      1.00000000      1.00000000      1.00000000      1.00000000      1.00000000      1.00000000      1.00000000      1.00000000      1.00000000      1.00000000      1.00000000      1.00000000      1.00000000      1.00000000
      1.00000000      1.00000000      1.00000000      1.00000000      1.00000000      1.00000000      1.00000000      1.00000000      1.00000000      1.00000000      1.00000000      1.00000000      1.00000000      1.00000000      1.00000000      1.00000000      1.00000000      1.00000000      1.00000000      1.00000000
      1.00000000      1.00000000      1.00000000      1.00000000      1.00000000      1.00000000      1.00000000      1.00000000      1.00000000      1.00000000      1.00000000      1.00000000      1.00000000      1.00000000      1.00000000      1.00000000      1.00000000      1.00000000      1.00000000      1.00000000
      1.00000000      1.00000000      1.00000000      1.00000000      1.00000000      1.00000000      1.00000000      1.00000000      1.00000000      1.00000000      1.00000000      1.00000000      1.00000000      1.00000000      1.00000000      1.00000000      1.00000000      1.00000000      1.00000000      1.00000000
      1.00000000      1.00000000      1.00000000      1.00000000      1.00000000      1.00000000      1.00000000      1.00000000      1.00000000      1.00000000      1.00000000      1.00000000      1.00000000      1.00000000      1.00000000      1.00000000      1.00000000      1.00000000      1.00000000      1.00000000
      1.00000000      1.00000000      1.00000000      1.00000000      1.00000000      1.00000000      1.00000000      1.00000000      1.00000000      1.00000000      1.00000000      1.00000000      1.00000000      1.00000000      1.00000000      1.00000000      1.00000000      1.00000000      1.00000000      1.00000000
      1.00000000      1.00000000      1.00000000      1.00000000      1.00000000      1.00000000      1.00000000      1.00000000      1.00000000      1.00000000      1.00000000      1.00000000      1.00000000      1.00000000      1.00000000      1.00000000      1.00000000      1.00000000      1.00000000      1.00000000
      1.00000000      1.00000000      1.00000000      1.00000000      1.00000000      1.00000000      1.00000000      1.00000000      1.00000000      1.00000000      1.00000000      1.00000000      1.00000000      1.00000000      1.00000000      1.00000000      1.00000000      1.00000000      1.00000000      1.00000000
      1.00000000      1.00000000      1.00000000      1.00000000      1.00000000      1.00000000      1.00000000      1.00000000      1.00000000      1.00000000      1.00000000      1.00000000      1.00000000      1.00000000      1.00000000      1.00000000      1.00000000      1.00000000      1.00000000      1.00000000
      1.00000000      1.00000000      1.00000000      1.00000000      1.00000000      1.00000000      1.00000000      1.00000000      1.00000000      1.00000000      1.00000000      1.00000000      1.00000000      1.00000000      1.00000000      1.00000000      1.00000000      1.00000000      1.00000000      1.00000000
      1.00000000      1.00000000      1.00000000      1.00000000      1.00000000      1.00000000      1.00000000      1.00000000      1.00000000      1.00000000      1.00000000      1.00000000      1.00000000      1.00000000      1.00000000      1.00000000      1.00000000      1.00000000      1.00000000      1.00000000
      1.00000000      1.00000000      1.00000000      1.00000000      1.00000000      1.00000000      1.00000000      1.00000000      1.00000000      1.00000000      1.00000000      1.00000000      1.00000000      1.00000000      1.00000000      1.00000000      1.00000000      1.00000000      1.00000000      1.00000000
      1.00000000      1.00000000      1.00000000      1.00000000      1.00000000      1.00000000      1.00000000      1.00000000</v>
    <i name="NUPDOWN">     -1.00000000</i>
    <i type="logical" name="LSORBIT"> F  </i>
    <v name="SAXIS">      0.00000000      0.00000000      1.00000000</v>
    <i type="logical" name="LSPIRAL"> F  </i>
    <v name="QSPIRAL">      0.00000000      0.00000000      0.00000000</v>
    <i type="logical" name="LZEROZ"> F  </i>
   </separator>
   <separator name="electronic exchange-correlation" >
    <i type="logical" name="LASPH"> F  </i>
    <i type="logical" name="LMETAGGA"> F  </i>
   </separator>
   <separator name="electronic convergence" >
    <i type="int" name="NELM">   100</i>
    <i type="int" name="NELMDL">     0</i>
    <i type="int" name="NELMIN">     4</i>
    <i name="ENINI">    450.00000000</i>
    <separator name="electronic convergence detail" >
     <i type="logical" name="LDIAG"> T  </i>
     <i type="logical" name="LSUBROT"> F  </i>
     <i name="WEIMIN">      0.00100000</i>
     <i name="EBREAK">      0.00000000</i>
     <i name="DEPER">      0.30000000</i>
     <i type="int" name="NRMM">     4</i>
     <i name="TIME">      0.40000000</i>
    </separator>
   </separator>
   <separator name="electronic mixer" >
    <i name="AMIX">      0.40000000</i>
    <i name="BMIX">      1.00000000</i>
    <i name="AMIN">      0.10000000</i>
    <i name="AMIX_MAG">      1.60000000</i>
    <i name="BMIX_MAG">      1.00000000</i>
    <separator name="electronic mixer details" >
     <i type="int" name="IMIX">     4</i>
     <i type="logical" name="MIXFIRST"> F  </i>
     <i type="int" name="MAXMIX">   -45</i>
     <i name="WC">    100.00000000</i>
     <i type="int" name="INIMIX">     1</i>
     <i type="int" name="MIXPRE">     1</i>
     <i type="int" name="MREMOVE">     5</i>
    </separator>
   </separator>
   <separator name="electronic dipolcorrection" >
    <i type="logical" name="LDIPOL"> F  </i>
    <i type="logical" name="LMONO"> F  </i>
    <i type="int" name="IDIPOL">     0</i>
    <i name="EPSILON">      1.00000000</i>
    <v name="DIPOL">   -100.00000000   -100.00000000   -100.00000000</v>
    <i name="EFIELD">      0.00000000</i>
   </separator>
  </separator>
  <separator name="grids" >
   <i type="int" name="NGX">    70</i>
   <i type="int" name="NGY">    60</i>
   <i type="int" name="NGZ">   320</i>
   <i type="int" name="NGXF">   140</i>
   <i type="int" name="NGYF">   120</i>
   <i type="int" name="NGZF">   640</i>
   <i type="logical" name="ADDGRID"> F  </i>
  </separator>
  <separator name="ionic" >
   <i type="int" name="NSW">     5</i>
   <i type="int" name="IBRION">     2</i>
   <i type="int" name="MDALGO">     0</i>
   <i type="int" name="ISIF">     2</i>
   <i name="PSTRESS">      0.00000000</i>
   <i name="EDIFFG">      0.00001000</i>
   <i type="int" name="NFREE">     1</i>
   <i name="POTIM">      0.25000000</i>
   <i name="SMASS">     -3.00000000</i>
   <i name="SCALEE">      1.00000000</i>
  </separator>
  <separator name="ionic md" >
   <i name="TEBEG">      0.00010000</i>
   <i name="TEEND">      0.00010000</i>
   <i type="int" name="NBLOCK">     1</i>
   <i type="int" name="KBLOCK">     5</i>
   <i type="int" name="NPACO">   256</i>
   <i name="APACO">     16.00000000</i>
  </separator>
  <separator name="symmetry" >
   <i type="int" name="ISYM">     2</i>
   <i name="SYMPREC">      0.00001000</i>
  </separator>
  <separator name="dos" >
   <i type="int" name="LORBIT">     0</i>
   <v name="RWIGS">     -1.00000000     -1.00000000</v>
   <i type="int" name="NEDOS">   301</i>
   <i name="EMIN">     10.00000000</i>
   <i name="EMAX">    -10.00000000</i>
   <i name="EFERMI">      0.00000000</i>
  </separator>
  <separator name="writing" >
   <i type="int" name="NWRITE">     2</i>
   <i type="logical" name="LWAVE"> F  </i>
   <i type="logical" name="LDOWNSAMPLE"> F  </i>
   <i type="logical" name="LCHARG"> F  </i>
   <i type="logical" name="LPARD"> F  </i>
   <i type="logical" name="LVTOT"> F  </i>
   <i type="logical" name="LVHAR"> F  </i>
   <i type="logical" name="LELF"> F  </i>
   <i type="logical" name="LOPTICS"> F  </i>
   <v name="STM">      0.00000000      0.00000000      0.00000000      0.00000000      0.00000000      0.00000000      0.00000000</v>
  </separator>
  <separator name="performance" >
   <i type="int" name="NPAR">    14</i>
   <i type="int" name="NSIM">     4</i>
   <i type="int" name="NBLK">    -1</i>
   <i type="logical" name="LPLANE"> T  </i>
   <i type="logical" name="LSCALAPACK"> T  </i>
   <i type="logical" name="LSCAAWARE"> T  </i>
   <i type="logical" name="LSCALU"> F  </i>
   <i type="logical" name="LASYNC"> F  </i>
   <i type="logical" name="LORBITALREAL"> F  </i>
  </separator>
  <separator name="miscellaneous" >
   <i type="int" name="IDIOT">     3</i>
   <i type="int" name="ISPECIAL">     0</i>
   <i type="logical" name="LMUSIC"> F  </i>
   <v name="POMASS">     55.84700000     54.93800000</v>
   <v name="DARWINR">      0.00000000      0.00000000</v>
   <v name="DARWINV">      1.00000000      1.00000000</v>
   <i type="logical" name="LCORR"> T  </i>
  </separator>
  <i type="logical" name="GGA_COMPAT"> T  </i>
  <i type="logical" name="LBERRY"> F  </i>
  <i type="int" name="ICORELEVEL">     0</i>
  <i type="logical" name="LDAU"> F  </i>
  <i type="int" name="I_CONSTRAINED_M">     0</i>
  <separator name="electronic exchange-correlation" >
   <i type="string" name="GGA">--</i>
   <i type="int" name="VOSKOWN">     0</i>
   <i type="logical" name="LHFCALC"> F  </i>
   <i type="string" name="PRECFOCK"></i>
   <i type="logical" name="LSYMGRAD"> F  </i>
   <i type="logical" name="LHFONE"> F  </i>
   <i type="logical" name="LRHFCALC"> F  </i>
   <i type="logical" name="LTHOMAS"> F  </i>
   <i type="logical" name="LMODELHF"> F  </i>
   <i name="ENCUT4O">     -1.00000000</i>
   <i type="int" name="EXXOEP">     0</i>
   <i type="int" name="FOURORBIT">     0</i>
   <i name="AEXX">      0.00000000</i>
   <i name="HFALPHA">      0.00000000</i>
   <i name="MCALPHA">      0.00000000</i>
   <i name="ALDAX">      1.00000000</i>
   <i name="AGGAX">      1.00000000</i>
   <i name="ALDAC">      1.00000000</i>
   <i name="AGGAC">      1.00000000</i>
   <i type="int" name="NKREDX">     1</i>
   <i type="int" name="NKREDY">     1</i>
   <i type="int" name="NKREDZ">     1</i>
   <i type="logical" name="SHIFTRED"> F  </i>
   <i type="logical" name="ODDONLY"> F  </i>
   <i type="logical" name="EVENONLY"> F  </i>
   <i type="int" name="LMAXFOCK">     0</i>
   <i type="int" name="NMAXFOCKAE">     0</i>
   <i type="logical" name="LFOCKAEDFT"> F  </i>
   <i name="HFSCREEN">      0.00000000</i>
   <i name="HFSCREENC">      0.00000000</i>
   <i type="int" name="NBANDSGWLOW">     0</i>
  </separator>
  <separator name="vdW DFT" >
   <i type="logical" name="LUSE_VDW"> F  </i>
   <i name="Zab_VDW">     -0.84910000</i>
   <i name="PARAM1">      0.12340000</i>
   <i name="PARAM2">      1.00000000</i>
   <i name="PARAM3">      0.00000000</i>
  </separator>
  <separator name="model GW" >
   <i type="int" name="MODEL_GW">     0</i>
   <i name="MODEL_EPS0">      7.68123389</i>
   <i name="MODEL_ALPHA">      1.00000000</i>
  </separator>
  <separator name="linear response parameters" >
   <i type="logical" name="LEPSILON"> F  </i>
   <i type="logical" name="LRPA"> F  </i>
   <i type="logical" name="LNABLA"> F  </i>
   <i type="logical" name="LVEL"> F  </i>
   <i type="int" name="KINTER">     0</i>
   <i name="CSHIFT">      0.10000000</i>
   <i name="OMEGAMAX">     -1.00000000</i>
   <i name="DEG_THRESHOLD">      0.00200000</i>
   <i name="RTIME">     -0.10000000</i>
   <i name="WPLASMAI">      0.00000000</i>
   <v name="DFIELD">      0.00000000      0.00000000      0.00000000</v>
   <v name="WPLASMA">      0.00000000      0.00000000      0.00000000      0.00000000      0.00000000      0.00000000      0.00000000      0.00000000      0.00000000</v>
  </separator>
  <separator name="orbital magnetization" >
   <i type="logical" name="NUCIND"> F  </i>
   <v name="MAGPOS">      0.00000000      0.00000000      0.00000000</v>
   <i type="logical" name="LNICSALL"> T  </i>
   <i type="logical" name="ORBITALMAG"> F  </i>
   <i type="logical" name="LMAGBLOCH"> F  </i>
   <i type="logical" name="LCHIMAG"> F  </i>
   <i type="logical" name="LGAUGE"> T  </i>
   <i type="int" name="MAGATOM">     0</i>
   <v name="MAGDIPOL">      0.00000000      0.00000000      0.00000000</v>
   <v name="AVECCONST">      0.00000000      0.00000000      0.00000000</v>
  </separator>
  <separator name="response functions" >
   <i type="logical" name="LADDER"> F  </i>
   <i type="logical" name="LRPAFORCE"> F  </i>
   <i type="logical" name="LFXC"> F  </i>
   <i type="logical" name="LHARTREE"> T  </i>
   <i type="int" name="IBSE">     0</i>
   <v type="int" name="KPOINT">    -1     0     0     0</v>
   <i type="logical" name="LTCTE"> F  </i>
   <i type="logical" name="LTETE"> F  </i>
   <i type="logical" name="LTRIPLET"> F  </i>
   <i type="logical" name="LFXCEPS"> F  </i>
   <i type="logical" name="LFXHEG"> F  </i>
   <i type="int" name="NATURALO">     2</i>
   <i type="logical" name="L2ORDER"> F  </i>
   <i type="logical" name="LMP2LT"> F  </i>
   <i type="logical" name="LUSEW"> F  </i>
   <i name="ENCUTGW">     -2.00000000</i>
   <i name="ENCUTGWSOFT">     -2.00000000</i>
   <i name="ENCUTLF">     -1.00000000</i>
   <i type="int" name="LMAXMP2">    -1</i>
   <i name="SCISSOR">      0.00000000</i>
   <i type="int" name="NOMEGA">     0</i>
   <i type="int" name="NOMEGAR">     0</i>
   <i type="int" name="NBANDSGW">    -1</i>
   <i type="int" name="NBANDSO">    -1</i>
   <i type="int" name="NBANDSV">    -1</i>
   <i type="int" name="NELM">   100</i>
   <i type="int" name="NELMHF">     1</i>
   <i type="int" name="DIM">     3</i>
   <i type="int" name="ANTIRES">     0</i>
   <i name="OMEGAMAX">    -30.00000000</i>
   <i name="OMEGAMIN">    -30.00000000</i>
   <i name="OMEGATL">   -200.00000000</i>
   <i type="int" name="OMEGAGRID">   140</i>
   <i name="CSHIFT">     -0.10000000</i>
   <i type="logical" name="SELFENERGY"> F  </i>
   <i type="logical" name="LSPECTRAL"> F  </i>
   <i type="logical" name="LSPECTRALGW"> F  </i>
   <i type="logical" name="LSINGLES"> F  </i>
   <i type="logical" name="LFERMIGW"> F  </i>
   <i type="logical" name="ODDONLYGW"> F  </i>
   <i type="logical" name="EVENONLYGW"> F  </i>
   <i type="int" name="NKREDLFX">     1</i>
   <i type="int" name="NKREDLFY">     1</i>
   <i type="int" name="NKREDLFZ">     1</i>
   <i type="int" name="MAXMEM">  2800</i>
   <i type="int" name="TELESCOPE">     0</i>
   <i type="int" name="TAUPAR">     1</i>
   <i type="int" name="OMEGAPAR">    -1</i>
   <i name="LAMBDA">      1.00000000</i>
  </separator>
  <separator name="External order field" >
   <i name="OFIELD_KAPPA">      0.00000000</i>
   <v name="OFIELD_K">      0.00000000      0.00000000      0.00000000</v>
   <i name="OFIELD_Q6_NEAR">      0.00000000</i>
   <i name="OFIELD_Q6_FAR">      0.00000000</i>
   <i name="OFIELD_A">      0.00000000</i>
  </separator>
 </parameters>
 <atominfo>
  <atoms>     288 </atoms>
  <types>       2 </types>
  <array name="atoms" >
   <dimension dim="1">ion</dimension>
   <field type="string">element</field>
   <field type="int">atomtype</field>
   <set>
    <rc><c>Fe</c><c>   1</c></rc>
    <rc><c>Fe</c><c>   1</c></rc>
    <rc><c>Fe</c><c>   1</c></rc>
    <rc><c>Fe</c><c>   1</c></rc>
    <rc><c>Fe</c><c>   1</c></rc>
    <rc><c>Fe</c><c>   1</c></rc>
    <rc><c>Fe</c><c>   1</c></rc>
    <rc><c>Fe</c><c>   1</c></rc>
    <rc><c>Fe</c><c>   1</c></rc>
    <rc><c>Fe</c><c>   1</c></rc>
    <rc><c>Fe</c><c>   1</c></rc>
    <rc><c>Fe</c><c>   1</c></rc>
    <rc><c>Fe</c><c>   1</c></rc>
    <rc><c>Fe</c><c>   1</c></rc>
    <rc><c>Fe</c><c>   1</c></rc>
    <rc><c>Fe</c><c>   1</c></rc>
    <rc><c>Fe</c><c>   1</c></rc>
    <rc><c>Fe</c><c>   1</c></rc>
    <rc><c>Fe</c><c>   1</c></rc>
    <rc><c>Fe</c><c>   1</c></rc>
    <rc><c>Fe</c><c>   1</c></rc>
    <rc><c>Fe</c><c>   1</c></rc>
    <rc><c>Fe</c><c>   1</c></rc>
    <rc><c>Fe</c><c>   1</c></rc>
    <rc><c>Fe</c><c>   1</c></rc>
    <rc><c>Fe</c><c>   1</c></rc>
    <rc><c>Fe</c><c>   1</c></rc>
    <rc><c>Fe</c><c>   1</c></rc>
    <rc><c>Fe</c><c>   1</c></rc>
    <rc><c>Fe</c><c>   1</c></rc>
    <rc><c>Fe</c><c>   1</c></rc>
    <rc><c>Fe</c><c>   1</c></rc>
    <rc><c>Fe</c><c>   1</c></rc>
    <rc><c>Fe</c><c>   1</c></rc>
    <rc><c>Fe</c><c>   1</c></rc>
    <rc><c>Fe</c><c>   1</c></rc>
    <rc><c>Fe</c><c>   1</c></rc>
    <rc><c>Fe</c><c>   1</c></rc>
    <rc><c>Fe</c><c>   1</c></rc>
    <rc><c>Fe</c><c>   1</c></rc>
    <rc><c>Fe</c><c>   1</c></rc>
    <rc><c>Fe</c><c>   1</c></rc>
    <rc><c>Fe</c><c>   1</c></rc>
    <rc><c>Fe</c><c>   1</c></rc>
    <rc><c>Fe</c><c>   1</c></rc>
    <rc><c>Fe</c><c>   1</c></rc>
    <rc><c>Fe</c><c>   1</c></rc>
    <rc><c>Fe</c><c>   1</c></rc>
    <rc><c>Fe</c><c>   1</c></rc>
    <rc><c>Fe</c><c>   1</c></rc>
    <rc><c>Fe</c><c>   1</c></rc>
    <rc><c>Fe</c><c>   1</c></rc>
    <rc><c>Fe</c><c>   1</c></rc>
    <rc><c>Fe</c><c>   1</c></rc>
    <rc><c>Fe</c><c>   1</c></rc>
    <rc><c>Fe</c><c>   1</c></rc>
    <rc><c>Fe</c><c>   1</c></rc>
    <rc><c>Fe</c><c>   1</c></rc>
    <rc><c>Fe</c><c>   1</c></rc>
    <rc><c>Fe</c><c>   1</c></rc>
    <rc><c>Fe</c><c>   1</c></rc>
    <rc><c>Fe</c><c>   1</c></rc>
    <rc><c>Fe</c><c>   1</c></rc>
    <rc><c>Fe</c><c>   1</c></rc>
    <rc><c>Fe</c><c>   1</c></rc>
    <rc><c>Fe</c><c>   1</c></rc>
    <rc><c>Fe</c><c>   1</c></rc>
    <rc><c>Fe</c><c>   1</c></rc>
    <rc><c>Fe</c><c>   1</c></rc>
    <rc><c>Fe</c><c>   1</c></rc>
    <rc><c>Fe</c><c>   1</c></rc>
    <rc><c>Fe</c><c>   1</c></rc>
    <rc><c>Fe</c><c>   1</c></rc>
    <rc><c>Fe</c><c>   1</c></rc>
    <rc><c>Fe</c><c>   1</c></rc>
    <rc><c>Fe</c><c>   1</c></rc>
    <rc><c>Fe</c><c>   1</c></rc>
    <rc><c>Fe</c><c>   1</c></rc>
    <rc><c>Fe</c><c>   1</c></rc>
    <rc><c>Fe</c><c>   1</c></rc>
    <rc><c>Fe</c><c>   1</c></rc>
    <rc><c>Fe</c><c>   1</c></rc>
    <rc><c>Fe</c><c>   1</c></rc>
    <rc><c>Fe</c><c>   1</c></rc>
    <rc><c>Fe</c><c>   1</c></rc>
    <rc><c>Fe</c><c>   1</c></rc>
    <rc><c>Fe</c><c>   1</c></rc>
    <rc><c>Fe</c><c>   1</c></rc>
    <rc><c>Fe</c><c>   1</c></rc>
    <rc><c>Fe</c><c>   1</c></rc>
    <rc><c>Fe</c><c>   1</c></rc>
    <rc><c>Fe</c><c>   1</c></rc>
    <rc><c>Fe</c><c>   1</c></rc>
    <rc><c>Fe</c><c>   1</c></rc>
    <rc><c>Fe</c><c>   1</c></rc>
    <rc><c>Fe</c><c>   1</c></rc>
    <rc><c>Fe</c><c>   1</c></rc>
    <rc><c>Fe</c><c>   1</c></rc>
    <rc><c>Fe</c><c>   1</c></rc>
    <rc><c>Fe</c><c>   1</c></rc>
    <rc><c>Fe</c><c>   1</c></rc>
    <rc><c>Fe</c><c>   1</c></rc>
    <rc><c>Fe</c><c>   1</c></rc>
    <rc><c>Fe</c><c>   1</c></rc>
    <rc><c>Fe</c><c>   1</c></rc>
    <rc><c>Fe</c><c>   1</c></rc>
    <rc><c>Fe</c><c>   1</c></rc>
    <rc><c>Fe</c><c>   1</c></rc>
    <rc><c>Fe</c><c>   1</c></rc>
    <rc><c>Fe</c><c>   1</c></rc>
    <rc><c>Fe</c><c>   1</c></rc>
    <rc><c>Fe</c><c>   1</c></rc>
    <rc><c>Fe</c><c>   1</c></rc>
    <rc><c>Fe</c><c>   1</c></rc>
    <rc><c>Fe</c><c>   1</c></rc>
    <rc><c>Fe</c><c>   1</c></rc>
    <rc><c>Fe</c><c>   1</c></rc>
    <rc><c>Fe</c><c>   1</c></rc>
    <rc><c>Fe</c><c>   1</c></rc>
    <rc><c>Fe</c><c>   1</c></rc>
    <rc><c>Fe</c><c>   1</c></rc>
    <rc><c>Fe</c><c>   1</c></rc>
    <rc><c>Fe</c><c>   1</c></rc>
    <rc><c>Fe</c><c>   1</c></rc>
    <rc><c>Fe</c><c>   1</c></rc>
    <rc><c>Fe</c><c>   1</c></rc>
    <rc><c>Fe</c><c>   1</c></rc>
    <rc><c>Fe</c><c>   1</c></rc>
    <rc><c>Fe</c><c>   1</c></rc>
    <rc><c>Fe</c><c>   1</c></rc>
    <rc><c>Fe</c><c>   1</c></rc>
    <rc><c>Fe</c><c>   1</c></rc>
    <rc><c>Fe</c><c>   1</c></rc>
    <rc><c>Fe</c><c>   1</c></rc>
    <rc><c>Fe</c><c>   1</c></rc>
    <rc><c>Fe</c><c>   1</c></rc>
    <rc><c>Fe</c><c>   1</c></rc>
    <rc><c>Fe</c><c>   1</c></rc>
    <rc><c>Fe</c><c>   1</c></rc>
    <rc><c>Fe</c><c>   1</c></rc>
    <rc><c>Fe</c><c>   1</c></rc>
    <rc><c>Fe</c><c>   1</c></rc>
    <rc><c>Fe</c><c>   1</c></rc>
    <rc><c>Fe</c><c>   1</c></rc>
    <rc><c>Fe</c><c>   1</c></rc>
    <rc><c>Fe</c><c>   1</c></rc>
    <rc><c>Fe</c><c>   1</c></rc>
    <rc><c>Fe</c><c>   1</c></rc>
    <rc><c>Fe</c><c>   1</c></rc>
    <rc><c>Fe</c><c>   1</c></rc>
    <rc><c>Fe</c><c>   1</c></rc>
    <rc><c>Fe</c><c>   1</c></rc>
    <rc><c>Fe</c><c>   1</c></rc>
    <rc><c>Fe</c><c>   1</c></rc>
    <rc><c>Fe</c><c>   1</c></rc>
    <rc><c>Fe</c><c>   1</c></rc>
    <rc><c>Fe</c><c>   1</c></rc>
    <rc><c>Fe</c><c>   1</c></rc>
    <rc><c>Fe</c><c>   1</c></rc>
    <rc><c>Fe</c><c>   1</c></rc>
    <rc><c>Fe</c><c>   1</c></rc>
    <rc><c>Fe</c><c>   1</c></rc>
    <rc><c>Fe</c><c>   1</c></rc>
    <rc><c>Fe</c><c>   1</c></rc>
    <rc><c>Fe</c><c>   1</c></rc>
    <rc><c>Fe</c><c>   1</c></rc>
    <rc><c>Fe</c><c>   1</c></rc>
    <rc><c>Fe</c><c>   1</c></rc>
    <rc><c>Fe</c><c>   1</c></rc>
    <rc><c>Fe</c><c>   1</c></rc>
    <rc><c>Fe</c><c>   1</c></rc>
    <rc><c>Fe</c><c>   1</c></rc>
    <rc><c>Fe</c><c>   1</c></rc>
    <rc><c>Fe</c><c>   1</c></rc>
    <rc><c>Fe</c><c>   1</c></rc>
    <rc><c>Fe</c><c>   1</c></rc>
    <rc><c>Fe</c><c>   1</c></rc>
    <rc><c>Fe</c><c>   1</c></rc>
    <rc><c>Fe</c><c>   1</c></rc>
    <rc><c>Fe</c><c>   1</c></rc>
    <rc><c>Fe</c><c>   1</c></rc>
    <rc><c>Fe</c><c>   1</c></rc>
    <rc><c>Fe</c><c>   1</c></rc>
    <rc><c>Fe</c><c>   1</c></rc>
    <rc><c>Fe</c><c>   1</c></rc>
    <rc><c>Fe</c><c>   1</c></rc>
    <rc><c>Fe</c><c>   1</c></rc>
    <rc><c>Fe</c><c>   1</c></rc>
    <rc><c>Fe</c><c>   1</c></rc>
    <rc><c>Fe</c><c>   1</c></rc>
    <rc><c>Fe</c><c>   1</c></rc>
    <rc><c>Fe</c><c>   1</c></rc>
    <rc><c>Fe</c><c>   1</c></rc>
    <rc><c>Fe</c><c>   1</c></rc>
    <rc><c>Fe</c><c>   1</c></rc>
    <rc><c>Fe</c><c>   1</c></rc>
    <rc><c>Fe</c><c>   1</c></rc>
    <rc><c>Fe</c><c>   1</c></rc>
    <rc><c>Fe</c><c>   1</c></rc>
    <rc><c>Fe</c><c>   1</c></rc>
    <rc><c>Fe</c><c>   1</c></rc>
    <rc><c>Fe</c><c>   1</c></rc>
    <rc><c>Fe</c><c>   1</c></rc>
    <rc><c>Fe</c><c>   1</c></rc>
    <rc><c>Fe</c><c>   1</c></rc>
    <rc><c>Fe</c><c>   1</c></rc>
    <rc><c>Fe</c><c>   1</c></rc>
    <rc><c>Fe</c><c>   1</c></rc>
    <rc><c>Fe</c><c>   1</c></rc>
    <rc><c>Fe</c><c>   1</c></rc>
    <rc><c>Fe</c><c>   1</c></rc>
    <rc><c>Fe</c><c>   1</c></rc>
    <rc><c>Fe</c><c>   1</c></rc>
    <rc><c>Fe</c><c>   1</c></rc>
    <rc><c>Fe</c><c>   1</c></rc>
    <rc><c>Fe</c><c>   1</c></rc>
    <rc><c>Fe</c><c>   1</c></rc>
    <rc><c>Fe</c><c>   1</c></rc>
    <rc><c>Fe</c><c>   1</c></rc>
    <rc><c>Fe</c><c>   1</c></rc>
    <rc><c>Fe</c><c>   1</c></rc>
    <rc><c>Fe</c><c>   1</c></rc>
    <rc><c>Fe</c><c>   1</c></rc>
    <rc><c>Fe</c><c>   1</c></rc>
    <rc><c>Fe</c><c>   1</c></rc>
    <rc><c>Fe</c><c>   1</c></rc>
    <rc><c>Fe</c><c>   1</c></rc>
    <rc><c>Fe</c><c>   1</c></rc>
    <rc><c>Fe</c><c>   1</c></rc>
    <rc><c>Fe</c><c>   1</c></rc>
    <rc><c>Fe</c><c>   1</c></rc>
    <rc><c>Fe</c><c>   1</c></rc>
    <rc><c>Fe</c><c>   1</c></rc>
    <rc><c>Fe</c><c>   1</c></rc>
    <rc><c>Fe</c><c>   1</c></rc>
    <rc><c>Fe</c><c>   1</c></rc>
    <rc><c>Fe</c><c>   1</c></rc>
    <rc><c>Fe</c><c>   1</c></rc>
    <rc><c>Fe</c><c>   1</c></rc>
    <rc><c>Fe</c><c>   1</c></rc>
    <rc><c>Fe</c><c>   1</c></rc>
    <rc><c>Fe</c><c>   1</c></rc>
    <rc><c>Fe</c><c>   1</c></rc>
    <rc><c>Fe</c><c>   1</c></rc>
    <rc><c>Fe</c><c>   1</c></rc>
    <rc><c>Fe</c><c>   1</c></rc>
    <rc><c>Fe</c><c>   1</c></rc>
    <rc><c>Fe</c><c>   1</c></rc>
    <rc><c>Fe</c><c>   1</c></rc>
    <rc><c>Fe</c><c>   1</c></rc>
    <rc><c>Fe</c><c>   1</c></rc>
    <rc><c>Fe</c><c>   1</c></rc>
    <rc><c>Fe</c><c>   1</c></rc>
    <rc><c>Fe</c><c>   1</c></rc>
    <rc><c>Fe</c><c>   1</c></rc>
    <rc><c>Fe</c><c>   1</c></rc>
    <rc><c>Fe</c><c>   1</c></rc>
    <rc><c>Fe</c><c>   1</c></rc>
    <rc><c>Fe</c><c>   1</c></rc>
    <rc><c>Fe</c><c>   1</c></rc>
    <rc><c>Fe</c><c>   1</c></rc>
    <rc><c>Fe</c><c>   1</c></rc>
    <rc><c>Fe</c><c>   1</c></rc>
    <rc><c>Fe</c><c>   1</c></rc>
    <rc><c>Fe</c><c>   1</c></rc>
    <rc><c>Fe</c><c>   1</c></rc>
    <rc><c>Fe</c><c>   1</c></rc>
    <rc><c>Fe</c><c>   1</c></rc>
    <rc><c>Fe</c><c>   1</c></rc>
    <rc><c>Fe</c><c>   1</c></rc>
    <rc><c>Fe</c><c>   1</c></rc>
    <rc><c>Fe</c><c>   1</c></rc>
    <rc><c>Fe</c><c>   1</c></rc>
    <rc><c>Fe</c><c>   1</c></rc>
    <rc><c>Mn</c><c>   2</c></rc>
    <rc><c>Mn</c><c>   2</c></rc>
    <rc><c>Mn</c><c>   2</c></rc>
    <rc><c>Mn</c><c>   2</c></rc>
    <rc><c>Mn</c><c>   2</c></rc>
    <rc><c>Mn</c><c>   2</c></rc>
    <rc><c>Mn</c><c>   2</c></rc>
    <rc><c>Mn</c><c>   2</c></rc>
    <rc><c>Mn</c><c>   2</c></rc>
    <rc><c>Mn</c><c>   2</c></rc>
    <rc><c>Mn</c><c>   2</c></rc>
    <rc><c>Mn</c><c>   2</c></rc>
    <rc><c>Mn</c><c>   2</c></rc>
    <rc><c>Mn</c><c>   2</c></rc>
   </set>
  </array>
  <array name="atomtypes" >
   <dimension dim="1">type</dimension>
   <field type="int">atomspertype</field>
   <field type="string">element</field>
   <field>mass</field>
   <field>valence</field>
   <field type="string">pseudopotential</field>
   <set>
    <rc><c> 274</c><c>Fe</c><c>     55.84700000</c><c>      8.00000000</c><c>  PAW_PBE Fe_GW 31Mar2010               </c></rc>
    <rc><c>  14</c><c>Mn</c><c>     54.93800000</c><c>      7.00000000</c><c>  PAW_PBE Mn_GW 31Mar2010               </c></rc>
   </set>
  </array>
 </atominfo>
 <structure name="initialpos" >
  <crystal>
   <varray name="basis" >
    <v>       9.72667804       0.00000000       0.00000000 </v>
    <v>       0.00000000       8.42355028       0.00000000 </v>
    <v>       0.00000000       0.00000000      45.00000000 </v>
   </varray>
   <i name="volume">   3686.99226691 </i>
   <varray name="rec_basis" >
    <v>       0.10281002       0.00000000       0.00000000 </v>
    <v>       0.00000000       0.11871479       0.00000000 </v>
    <v>       0.00000000       0.00000000       0.02222222 </v>
   </varray>
  </crystal>
  <varray name="positions" >
   <v>       0.06178373       0.03118998       0.12437911 </v>
   <v>       0.31657249       0.87503586       0.65486478 </v>
   <v>       0.18391922       0.12225012       0.78845934 </v>
   <v>       0.44147012       0.28765233       0.38910997 </v>
   <v>       0.31765509       0.71293077       0.83283574 </v>
   <v>       0.81759453       0.21332101       0.83327070 </v>
   <v>       0.19114317       0.96282576       0.83340383 </v>
   <v>       0.56226507       0.20711643       0.56549754 </v>
   <v>       0.06554394       0.03970936       0.74397376 </v>
   <v>       0.81154639       0.87187867       0.52132410 </v>
   <v>       0.19105585       0.29020564       0.74396684 </v>
   <v>       0.93359168       0.45250409       0.34490296 </v>
   <v>       0.94113077       0.28675205       0.38895830 </v>
   <v>       0.81224415       0.04147900       0.87547060 </v>
   <v>       0.18363241       0.78805887       0.61085610 </v>
   <v>       0.56635983       0.03782921       0.38906686 </v>
   <v>       0.94220402       0.96326603       0.83338931 </v>
   <v>       0.31350502       0.53923755       0.87565353 </v>
   <v>       0.69050803       0.29018518       0.74395713 </v>
   <v>       0.18228344       0.61375014       0.16668183 </v>
   <v>       0.81223085       0.20576068       0.47868035 </v>
   <v>       0.80879461       0.53791715       0.61090232 </v>
   <v>       0.31197585       0.87027678       0.43449593 </v>
   <v>       0.80916582       0.03828657       0.25614199 </v>
   <v>       0.68350008       0.95186054       0.34485355 </v>
   <v>       0.93135330       0.11461464       0.16722327 </v>
   <v>       0.06159852       0.87130967       0.52131606 </v>
   <v>       0.55850434       0.53826104       0.25611655 </v>
   <v>       0.68562492       0.79502053       0.87551170 </v>
   <v>       0.55615968       0.36567324       0.16679020 </v>
   <v>       0.43987359       0.79060267       0.74407993 </v>
   <v>       0.81154713       0.70635507       0.56522837 </v>
   <v>       0.55989684       0.87235241       0.78832890 </v>
   <v>       0.68663136       0.12168991       0.52137387 </v>
   <v>       0.81640723       0.37484174       0.65492342 </v>
   <v>       0.94183284       0.46339799       0.83337073 </v>
   <v>       0.06024257       0.20790502       0.69953868 </v>
   <v>       0.43501605       0.95800963       0.69961009 </v>
   <v>       0.31640271       0.21249976       0.83335278 </v>
   <v>       0.44150686       0.62500819       0.65487934 </v>
   <v>       0.30873875       0.53793206       0.61088152 </v>
   <v>       0.93666530       0.45618637       0.56568095 </v>
   <v>       0.69003141       0.79097175       0.74401591 </v>
   <v>       0.93367352       0.78830085       0.12466928 </v>
   <v>       0.69166095       0.78779788       0.38907616 </v>
   <v>       0.94044913       0.79037815       0.74397996 </v>
   <v>       0.05879163       0.20290491       0.34502224 </v>
   <v>       0.68352383       0.45222569       0.34502935 </v>
   <v>       0.43498869       0.12173155       0.78861243 </v>
   <v>       0.06476837       0.20506209       0.21162764 </v>
   <v>       0.05542980       0.36561699       0.16679652 </v>
   <v>       0.93329120       0.78840611       0.25584121 </v>
   <v>       0.56043872       0.20781843       0.69957478 </v>
   <v>       0.68514830       0.95810391       0.69959662 </v>
   <v>       0.80978828       0.87225607       0.78831791 </v>
   <v>       0.43697788       0.95709891       0.56534737 </v>
   <v>       0.80995473       0.37269401       0.78824817 </v>
   <v>       0.68398821       0.28913781       0.25614396 </v>
   <v>       0.18694107       0.45716468       0.56542683 </v>
   <v>       0.05577795       0.86560592       0.16678660 </v>
   <v>       0.18381461       0.28800302       0.61091004 </v>
   <v>       0.06213666       0.20716512       0.56537052 </v>
   <v>       0.31037674       0.20798487       0.69962524 </v>
   <v>       0.56360214       0.53935997       0.87553423 </v>
   <v>       0.06213479       0.70664217       0.56557504 </v>
   <v>       0.68463585       0.62171522       0.78822884 </v>
   <v>       0.31626836       0.53802518       0.38901777 </v>
   <v>       0.18669682       0.62149308       0.52140109 </v>
   <v>       0.56247958       0.87030005       0.43444903 </v>
   <v>       0.43690546       0.45701399       0.56546119 </v>
   <v>       0.43996717       0.29084990       0.74400951 </v>
   <v>       0.81937350       0.87489335       0.30039368 </v>
   <v>       0.80873162       0.70267284       0.34506929 </v>
   <v>       0.44175382       0.46249807       0.83316464 </v>
   <v>       0.68732244       0.95580209       0.47867202 </v>
   <v>       0.68503543       0.45807020       0.69960780 </v>
   <v>       0.56189346       0.87191797       0.52137233 </v>
   <v>       0.56656595       0.37479329       0.65488707 </v>
   <v>       0.81638067       0.87486378       0.65491056 </v>
   <v>       0.81152090       0.37129567       0.43418245 </v>
   <v>       0.80875911       0.53804468       0.25624112 </v>
   <v>       0.69155346       0.46257851       0.83312682 </v>
   <v>       0.18606267       0.78845701       0.12426724 </v>
   <v>       0.69134065       0.28747654       0.38903507 </v>
   <v>       0.31647724       0.37488295       0.65490352 </v>
   <v>       0.30864483       0.20249242       0.34487818 </v>
   <v>       0.81575332       0.53996904       0.74395345 </v>
   <v>       0.69173972       0.96187106       0.83317342 </v>
   <v>       0.56649869       0.87489319       0.65486056 </v>
   <v>       0.31146504       0.70714978       0.56547943 </v>
   <v>       0.31248920       0.53154133       0.12427139 </v>
   <v>       0.68978702       0.95571233       0.21191302 </v>
   <v>       0.31136161       0.20661531       0.56547997 </v>
   <v>       0.18732367       0.95570054       0.47865856 </v>
   <v>       0.68704224       0.95675432       0.56557777 </v>
   <v>       0.43384467       0.78796701       0.61082531 </v>
   <v>       0.68234683       0.61208275       0.16672464 </v>
   <v>       0.31903739       0.87439659       0.30020022 </v>
   <v>       0.31217728       0.70579980       0.47865999 </v>
   <v>       0.93369831       0.28787134       0.61089973 </v>
   <v>       0.44532770       0.62454858       0.30040850 </v>
   <v>       0.80689284       0.86416878       0.16724087 </v>
   <v>       0.56671052       0.20322529       0.21177263 </v>
   <v>       0.93305210       0.61288751       0.16685376 </v>
   <v>       0.43724312       0.95567012       0.47863735 </v>
   <v>       0.56005027       0.37188828       0.78839623 </v>
   <v>       0.06138914       0.37219958       0.52134305 </v>
   <v>       0.30687616       0.36469864       0.16688657 </v>
   <v>       0.69507478       0.12394120       0.30038473 </v>
   <v>       0.44233749       0.96236422       0.83314767 </v>
   <v>       0.18471563       0.28747830       0.12451373 </v>
   <v>       0.18417919       0.28925283       0.25614286 </v>
   <v>       0.31245837       0.37027889       0.43444448 </v>
   <v>       0.56262443       0.03260414       0.12460586 </v>
   <v>       0.43381417       0.28792986       0.61085077 </v>
   <v>       0.18372163       0.45273648       0.34510673 </v>
   <v>       0.43455947       0.28743026       0.12455805 </v>
   <v>       0.68391194       0.78916903       0.25607798 </v>
   <v>       0.43657697       0.12158441       0.52136962 </v>
   <v>       0.18811614       0.29408235       0.87574749 </v>
   <v>       0.19150987       0.12504263       0.65488016 </v>
   <v>       0.94156295       0.12500136       0.65490923 </v>
   <v>       0.81635418       0.53769553       0.38909804 </v>
   <v>       0.06638365       0.03797863       0.38910546 </v>
   <v>       0.18309137       0.11214971       0.16663712 </v>
   <v>       0.05869312       0.53784855       0.61090017 </v>
   <v>       0.93422989       0.28919964       0.25608474 </v>
   <v>       0.55859591       0.53813368       0.61083595 </v>
   <v>       0.93717774       0.95712968       0.56554155 </v>
   <v>       0.69404987       0.62486557       0.30025709 </v>
   <v>       0.93756436       0.62026368       0.43446068 </v>
   <v>       0.93407289       0.62217072       0.78822961 </v>
   <v>       0.56040589       0.70768871       0.69956813 </v>
   <v>       0.06654081       0.71443014       0.83355612 </v>
   <v>       0.94487988       0.12378973       0.30028532 </v>
   <v>       0.93372385       0.78757687       0.61092348 </v>
   <v>       0.43365141       0.78937755       0.25604044 </v>
   <v>       0.30987609       0.37219177       0.78826583 </v>
   <v>       0.43993998       0.45533519       0.21184307 </v>
   <v>       0.18668097       0.12164056       0.52138295 </v>
   <v>       0.81039519       0.70778647       0.69957480 </v>
   <v>       0.05886447       0.03786958       0.61081228 </v>
   <v>       0.56641415       0.21315467       0.83312215 </v>
   <v>       0.31156316       0.87166575       0.52136004 </v>
   <v>       0.68633027       0.28720407       0.12437237 </v>
   <v>       0.19015106       0.95641260       0.21203878 </v>
   <v>       0.68362031       0.28797301       0.61093430 </v>
   <v>       0.30879696       0.03806095       0.61097017 </v>
   <v>       0.93466991       0.12302689       0.78843594 </v>
   <v>       0.43693129       0.79534957       0.87568749 </v>
   <v>       0.81539181       0.04044683       0.74386829 </v>
   <v>       0.93502737       0.45808407       0.69959913 </v>
   <v>       0.19148586       0.62502272       0.65491752 </v>
   <v>       0.31037250       0.70764503       0.69958661 </v>
   <v>       0.93449227       0.28708453       0.12442413 </v>
   <v>       0.43739149       0.45591601       0.47855937 </v>
   <v>       0.06251334       0.70578286       0.47851781 </v>
   <v>       0.93706332       0.12023899       0.43461319 </v>
   <v>       0.44416949       0.12460781       0.30046556 </v>
   <v>       0.18744741       0.11985537       0.43439054 </v>
   <v>       0.56237095       0.03999121       0.87587222 </v>
   <v>       0.18684396       0.95699887       0.56544356 </v>
   <v>       0.68422955       0.78846329       0.12476232 </v>
   <v>       0.55875782       0.70230814       0.34496116 </v>
   <v>       0.31632147       0.03708206       0.38903162 </v>
   <v>       0.68234702       0.11437219       0.16719613 </v>
   <v>       0.81514727       0.20487075       0.21166544 </v>
   <v>       0.05978675       0.53819562       0.25596337 </v>
   <v>       0.56222526       0.70583002       0.47862462 </v>
   <v>       0.43466320       0.78769061       0.12452538 </v>
   <v>       0.56935915       0.37366467       0.30039782 </v>
   <v>       0.43358512       0.95271422       0.34509828 </v>
   <v>       0.18517476       0.95824015       0.69966240 </v>
   <v>       0.43177103       0.61368056       0.16664364 </v>
   <v>       0.94010052       0.45545573       0.21199934 </v>
   <v>       0.06177063       0.53108428       0.12429681 </v>
   <v>       0.81167153       0.37195244       0.52136513 </v>
   <v>       0.94449242       0.62462379       0.30013496 </v>
   <v>       0.30914838       0.03804527       0.25585185 </v>
   <v>       0.68368149       0.78790922       0.61090928 </v>
   <v>       0.19263644       0.46352993       0.83313735 </v>
   <v>       0.43216765       0.11233568       0.16670375 </v>
   <v>       0.31142979       0.37194950       0.52139240 </v>
   <v>       0.43417340       0.62210503       0.78845652 </v>
   <v>       0.05876191       0.03831857       0.25607832 </v>
   <v>       0.56202845       0.70694961       0.56553706 </v>
   <v>       0.94021136       0.28980101       0.74401128 </v>
   <v>       0.68414179       0.12222468       0.78849935 </v>
   <v>       0.18955886       0.45498471       0.21163630 </v>
   <v>       0.94125405       0.78751860       0.38905972 </v>
   <v>       0.68657613       0.29616334       0.87592782 </v>
   <v>       0.55554426       0.86491649       0.16668543 </v>
   <v>       0.43539754       0.45797664       0.69953852 </v>
   <v>       0.93404861       0.95155459       0.34489867 </v>
   <v>       0.68624085       0.62145119       0.52122181 </v>
   <v>       0.06647284       0.87476178       0.65489164 </v>
   <v>       0.05945050       0.87261099       0.78836132 </v>
   <v>       0.06638293       0.37480291       0.65488928 </v>
   <v>       0.68714274       0.45551012       0.47862188 </v>
   <v>       0.18427642       0.78919860       0.25594369 </v>
   <v>       0.43721364       0.12041956       0.43443960 </v>
   <v>       0.81351847       0.03150705       0.12433626 </v>
   <v>       0.93668506       0.62166118       0.52135930 </v>
   <v>       0.44157751       0.12487358       0.65483638 </v>
   <v>       0.81253224       0.53067449       0.12439420 </v>
   <v>       0.43389536       0.45259077       0.34512533 </v>
   <v>       0.80884267       0.20227410       0.34513080 </v>
   <v>       0.30882848       0.70199931       0.34491679 </v>
   <v>       0.69139973       0.12491230       0.65491374 </v>
   <v>       0.56956218       0.87405170       0.30047439 </v>
   <v>       0.06535699       0.54031808       0.74401787 </v>
   <v>       0.94088847       0.95541086       0.21164975 </v>
   <v>       0.81671774       0.70519071       0.21170848 </v>
   <v>       0.06933531       0.87428210       0.30048073 </v>
   <v>       0.19445978       0.12454864       0.30045103 </v>
   <v>       0.05849824       0.70215705       0.34496843 </v>
   <v>       0.80886608       0.03795318       0.61080860 </v>
   <v>       0.06308131       0.37065662       0.43440824 </v>
   <v>       0.55866220       0.20251974       0.34491212 </v>
   <v>       0.81930598       0.37465254       0.30035034 </v>
   <v>       0.55932604       0.03876543       0.25590385 </v>
   <v>       0.56634283       0.53775915       0.38907637 </v>
   <v>       0.06262801       0.20573030       0.47868933 </v>
   <v>       0.31108131       0.87158743       0.78809823 </v>
   <v>       0.93509080       0.95817751       0.69961988 </v>
   <v>       0.06897853       0.37498682       0.30040662 </v>
   <v>       0.69127996       0.62501651       0.65492685 </v>
   <v>       0.68656736       0.45670054       0.56549102 </v>
   <v>       0.44016279       0.95659687       0.21224504 </v>
   <v>       0.31243017       0.20558913       0.47869072 </v>
   <v>       0.81420192       0.53870311       0.87556220 </v>
   <v>       0.68744698       0.62026319       0.43445965 </v>
   <v>       0.81043986       0.20775375       0.69960670 </v>
   <v>       0.93625836       0.29368758       0.87573441 </v>
   <v>       0.81137997       0.87048010       0.43435638 </v>
   <v>       0.93742379       0.95546680       0.47866642 </v>
   <v>       0.56216419       0.20568138       0.47865849 </v>
   <v>       0.18689702       0.62003223       0.43447714 </v>
   <v>       0.31557967       0.04073859       0.74389198 </v>
   <v>       0.94151143       0.62525811       0.65486237 </v>
   <v>       0.56654800       0.71264149       0.83315596 </v>
   <v>       0.32012555       0.37322447       0.30027496 </v>
   <v>       0.56522021       0.70455137       0.21178094 </v>
   <v>       0.18726097       0.45572293       0.47863872 </v>
   <v>       0.31401948       0.04153823       0.87559988 </v>
   <v>       0.18498358       0.45797450       0.69955556 </v>
   <v>       0.56161663       0.37170039       0.52135540 </v>
   <v>       0.19129193       0.28769131       0.38906383 </v>
   <v>       0.31566525       0.20523834       0.21162898 </v>
   <v>       0.06700111       0.70549021       0.21167074 </v>
   <v>       0.56195631       0.37044531       0.43443073 </v>
   <v>       0.43653888       0.62195040       0.52131659 </v>
   <v>       0.81672746       0.71395367       0.83314710 </v>
   <v>       0.06063971       0.37315485       0.78811368 </v>
   <v>       0.43683289       0.29597976       0.87589393 </v>
   <v>       0.31129820       0.03152714       0.12443890 </v>
   <v>       0.68775478       0.12052758       0.43438593 </v>
   <v>       0.18389880       0.95272113       0.34512141 </v>
   <v>       0.06658872       0.21291938       0.83354111 </v>
   <v>       0.55893552       0.03814076       0.61094404 </v>
   <v>       0.68963378       0.45553907       0.21202994 </v>
   <v>       0.19051982       0.79037968       0.74395535 </v>
   <v>       0.19396735       0.62467401       0.30043817 </v>
   <v>       0.44147936       0.78761097       0.38907085 </v>
   <v>       0.43375574       0.28935027       0.25608344 </v>
   <v>       0.06320239       0.53906386       0.87557909 </v>
   <v>       0.56585775       0.04046254       0.74392855 </v>
   <v>       0.18672049       0.79468922       0.87570528 </v>
   <v>       0.93696755       0.45522786       0.47865549 </v>
   <v>       0.56558513       0.54064672       0.74391977 </v>
   <v>       0.81148723       0.20678948       0.56539062 </v>
   <v>       0.18528203       0.62079847       0.78807657 </v>
   <v>       0.06750351       0.53871504       0.38917478 </v>
   <v>       0.06044189       0.70777155       0.69956623 </v>
   <v>       0.30813198       0.53849954       0.25569614 </v>
   <v>       0.31525589       0.70374974       0.21239410 </v>
   <v>       0.30528081       0.86523644       0.16614557 </v>
   <v>       0.43710614       0.62098978       0.43444846 </v>
   <v>       0.81805143       0.04002580       0.38919657 </v>
   <v>       0.81257004       0.70581726       0.47858872 </v>
   <v>       0.93747433       0.79389528       0.87511575 </v>
   <v>       0.06471540       0.03964305       0.87539215 </v>
   <v>       0.56288703       0.53001597       0.12488731 </v>
   <v>       0.80498285       0.36621229       0.16645494 </v>
   <v>       0.06169381       0.87073987       0.43445624 </v>
   <v>       0.93647172       0.12185270       0.52148688 </v>
   <v>       0.19271728       0.78735737       0.38897727 </v>
   <v>       0.31558099       0.54051560       0.74419192 </v>
  </varray>
 </structure>
 <calculation>
  <scstep>
   <time name="dav">   54.50   54.51</time>
   <time name="total">   54.65   54.69</time>
   <energy>
    <i name="alphaZ">  16293.21160653 </i>
    <i name="ewald"> 730476.01684611 </i>
    <i name="hartreedc">-920976.31647470 </i>
    <i name="XCdc">  -6511.95925907 </i>
    <i name="pawpsdc"> 162273.92519768 </i>
    <i name="pawaedc">-159623.75899949 </i>
    <i name="eentropy">     -1.07124356 </i>
    <i name="bandstr">  38483.94808723 </i>
    <i name="atom"> 168671.76673737 </i>
    <i name="e_fr_energy">  29085.76249809 </i>
    <i name="e_wo_entrp">  29086.83374165 </i>
    <i name="e_0_energy">  29086.29811987 </i>
   </energy>
  </scstep>
  <scstep>
   <time name="dav">   53.84   53.86</time>
   <time name="total">   53.84   53.87</time>
   <energy>
    <i name="e_fr_energy">   1189.45866426 </i>
    <i name="e_wo_entrp">   1190.93335780 </i>
    <i name="e_0_energy">   1190.19601103 </i>
   </energy>
  </scstep>
  <scstep>
   <time name="dav">   70.68   70.73</time>
   <time name="total">   70.69   70.73</time>
   <energy>
    <i name="e_fr_energy">  -1950.04458191 </i>
    <i name="e_wo_entrp">  -1946.49261709 </i>
    <i name="e_0_energy">  -1948.26859950 </i>
   </energy>
  </scstep>
  <scstep>
   <time name="dav">   88.71   88.75</time>
   <time name="total">   88.72   88.76</time>
   <energy>
    <i name="e_fr_energy">  -2619.46632479 </i>
    <i name="e_wo_entrp">  -2615.94798905 </i>
    <i name="e_0_energy">  -2617.70715692 </i>
   </energy>
  </scstep>
  <scstep>
   <time name="dav">   85.01   85.05</time>
   <time name="total">   87.02   87.07</time>
   <energy>
    <i name="e_fr_energy">  -2739.15279677 </i>
    <i name="e_wo_entrp">  -2735.51618319 </i>
    <i name="e_0_energy">  -2737.33448998 </i>
   </energy>
  </scstep>
  <scstep>
   <time name="diag">    8.28    8.28</time>
   <time name="diis">   37.65   37.66</time>
   <time name="orth">    2.29    2.29</time>
   <time name="total">   50.43   50.44</time>
   <energy>
    <i name="e_fr_energy">  -5996.70196814 </i>
    <i name="e_wo_entrp">  -5993.88379255 </i>
    <i name="e_0_energy">  -5995.29288034 </i>
   </energy>
  </scstep>
  <scstep>
   <time name="diag">    8.30    8.30</time>
   <time name="diis">   30.56   30.56</time>
   <time name="orth">    2.29    2.29</time>
   <time name="total">   43.34   43.38</time>
[...]
       <r>     5.8624     0.0000  2772.0000 </r>
       <r>     5.9052     0.0000  2772.0000 </r>
       <r>     5.9480     0.0000  2772.0000 </r>
       <r>     5.9907     0.0000  2772.0000 </r>
       <r>     6.0335     0.0000  2772.0000 </r>
       <r>     6.0763     0.0000  2772.0000 </r>
       <r>     6.1190     0.0000  2772.0000 </r>
       <r>     6.1618     0.0000  2772.0000 </r>
       <r>     6.2046     0.0000  2772.0000 </r>
       <r>     6.2473     0.0000  2772.0000 </r>
       <r>     6.2901     0.0000  2772.0000 </r>
       <r>     6.3329     0.0000  2772.0000 </r>
       <r>     6.3757     0.0000  2772.0000 </r>
       <r>     6.4184     0.0000  2772.0000 </r>
       <r>     6.4612     0.0000  2772.0000 </r>
       <r>     6.5040     0.0000  2772.0000 </r>
       <r>     6.5467     0.0000  2772.0000 </r>
       <r>     6.5895     0.0000  2772.0000 </r>
       <r>     6.6323     0.0000  2772.0000 </r>
       <r>     6.6751     0.0000  2772.0000 </r>
       <r>     6.7178     0.0000  2772.0000 </r>
       <r>     6.7606     0.0000  2772.0000 </r>
       <r>     6.8034     0.0000  2772.0000 </r>
      </set>
     </set>
    </array>
   </total>
  </dos>
 </calculation>
 <structure name="finalpos" >
  <crystal>
   <varray name="basis" >
    <v>       9.72667804       0.00000000       0.00000000 </v>
    <v>       0.00000000       8.42355028       0.00000000 </v>
    <v>       0.00000000       0.00000000      45.00000000 </v>
   </varray>
   <i name="volume">   3686.99226691 </i>
   <varray name="rec_basis" >
    <v>       0.10281002       0.00000000       0.00000000 </v>
    <v>       0.00000000       0.11871479       0.00000000 </v>
    <v>       0.00000000       0.00000000       0.02222222 </v>
   </varray>
  </crystal>
  <varray name="positions" >
   <v>       0.06199764       0.03148233       0.12441264 </v>
   <v>       0.31632608       0.87527433       0.65500969 </v>
   <v>       0.18357813       0.12240793       0.78860192 </v>
   <v>       0.44140594       0.28788289       0.38918414 </v>
   <v>       0.31699762       0.71276413       0.83290672 </v>
   <v>       0.81779038       0.21332922       0.83318510 </v>
   <v>       0.19063364       0.96262051       0.83341527 </v>
   <v>       0.56244782       0.20732727       0.56557615 </v>
   <v>       0.06556346       0.03987791       0.74411586 </v>
   <v>       0.81161470       0.87201932       0.52138607 </v>
   <v>       0.19065730       0.29032335       0.74404686 </v>
   <v>       0.93367461       0.45247738       0.34490593 </v>
   <v>       0.94092269       0.28679148       0.38898304 </v>
   <v>       0.81297335       0.04173833       0.87542425 </v>
   <v>       0.18426643       0.78851188       0.61088601 </v>
   <v>       0.56610469       0.03769859       0.38913515 </v>
   <v>       0.94247008       0.96311546       0.83332909 </v>
   <v>       0.31381650       0.53916099       0.87564538 </v>
   <v>       0.69058235       0.29075830       0.74413109 </v>
   <v>       0.18178354       0.61355243       0.16672443 </v>
   <v>       0.81245643       0.20563707       0.47864900 </v>
   <v>       0.80806977       0.53788369       0.61087830 </v>
   <v>       0.31229917       0.87028941       0.43427780 </v>
   <v>       0.80907767       0.03827441       0.25615089 </v>
   <v>       0.68370121       0.95213714       0.34492062 </v>
   <v>       0.93213441       0.11419233       0.16707930 </v>
   <v>       0.06108704       0.87153771       0.52132934 </v>
   <v>       0.55872622       0.53826129       0.25609404 </v>
   <v>       0.68601293       0.79427122       0.87548158 </v>
   <v>       0.55596693       0.36468937       0.16666921 </v>
   <v>       0.44007650       0.79048452       0.74414480 </v>
   <v>       0.81151440       0.70622659       0.56518919 </v>
   <v>       0.56044256       0.87227580       0.78843344 </v>
   <v>       0.68692320       0.12161897       0.52141135 </v>
   <v>       0.81581647       0.37500176       0.65501822 </v>
   <v>       0.94182333       0.46331857       0.83323866 </v>
   <v>       0.06089335       0.20792710       0.69963760 </v>
   <v>       0.43488496       0.95811098       0.69958437 </v>
   <v>       0.31615683       0.21231193       0.83343567 </v>
   <v>       0.44145640       0.62488317       0.65496622 </v>
   <v>       0.30960269       0.53802103       0.61088330 </v>
   <v>       0.93653006       0.45647525       0.56561759 </v>
   <v>       0.68989097       0.79043178       0.74418972 </v>
   <v>       0.93366749       0.78789127       0.12476190 </v>
   <v>       0.69134292       0.78778769       0.38917064 </v>
   <v>       0.94055394       0.79013177       0.74422243 </v>
   <v>       0.05898063       0.20289879       0.34504148 </v>
   <v>       0.68364232       0.45223479       0.34505402 </v>
   <v>       0.43501312       0.12199906       0.78870179 </v>
   <v>       0.06467158       0.20510135       0.21144807 </v>
   <v>       0.05652078       0.36575592       0.16678892 </v>
   <v>       0.93302825       0.78878694       0.25588148 </v>
   <v>       0.56036347       0.20796989       0.69958551 </v>
   <v>       0.68496620       0.95799472       0.69960114 </v>
   <v>       0.81031324       0.87194412       0.78844089 </v>
   <v>       0.43709827       0.95672709       0.56549648 </v>
   <v>       0.81044093       0.37308765       0.78838931 </v>
   <v>       0.68430813       0.28889375       0.25613479 </v>
   <v>       0.18701122       0.45743520       0.56543595 </v>
   <v>       0.05595663       0.86555454       0.16674631 </v>
   <v>       0.18446190       0.28770902       0.61093138 </v>
   <v>       0.06206433       0.20702665       0.56533060 </v>
   <v>       0.31020347       0.20792145       0.69964318 </v>
   <v>       0.56324721       0.53941219       0.87558791 </v>
   <v>       0.06203491       0.70650431       0.56554310 </v>
   <v>       0.68531352       0.62147477       0.78826783 </v>
   <v>       0.31652105       0.53793727       0.38910211 </v>
   <v>       0.18628861       0.62138009       0.52150264 </v>
   <v>       0.56238583       0.87020809       0.43423748 </v>
   <v>       0.43711743       0.45723352       0.56561822 </v>
   <v>       0.43996027       0.29107608       0.74408480 </v>
   <v>       0.81908916       0.87487863       0.30024923 </v>
   <v>       0.80881302       0.70282499       0.34509151 </v>
   <v>       0.44173055       0.46222567       0.83335232 </v>
   <v>       0.68751168       0.95564956       0.47857926 </v>
   <v>       0.68465294       0.45803925       0.69972163 </v>
   <v>       0.56248085       0.87176574       0.52140188 </v>
   <v>       0.56622087       0.37484148       0.65496802 </v>
   <v>       0.81600664       0.87488398       0.65505248 </v>
   <v>       0.81123615       0.37139924       0.43404060 </v>
   <v>       0.80856978       0.53801761       0.25616952 </v>
   <v>       0.69169096       0.46260386       0.83309150 </v>
   <v>       0.18583871       0.78797459       0.12410716 </v>
   <v>       0.69097470       0.28755737       0.38909732 </v>
   <v>       0.31648439       0.37490821       0.65506884 </v>
   <v>       0.30903740       0.20244338       0.34492665 </v>
   <v>       0.81540250       0.53976862       0.74423585 </v>
   <v>       0.69203646       0.96186986       0.83312462 </v>
   <v>       0.56614159       0.87480563       0.65503006 </v>
   <v>       0.31141074       0.70673145       0.56560622 </v>
   <v>       0.31190392       0.53119485       0.12397321 </v>
   <v>       0.68968279       0.95544662       0.21190234 </v>
   <v>       0.31131541       0.20669508       0.56556167 </v>
   <v>       0.18706469       0.95582575       0.47855946 </v>
   <v>       0.68723320       0.95651901       0.56557732 </v>
   <v>       0.43393142       0.78783671       0.61085838 </v>
   <v>       0.68292036       0.61347518       0.16655755 </v>
   <v>       0.31883404       0.87430716       0.30018843 </v>
   <v>       0.31227048       0.70556506       0.47845922 </v>
   <v>       0.93339745       0.28778657       0.61088199 </v>
   <v>       0.44486706       0.62430039       0.30032129 </v>
   <v>       0.80689503       0.86441166       0.16719879 </v>
   <v>       0.56663272       0.20320612       0.21173135 </v>
   <v>       0.93375728       0.61398525       0.16683771 </v>
   <v>       0.43741447       0.95539486       0.47842340 </v>
   <v>       0.56065612       0.37228733       0.78845457 </v>
   <v>       0.06108890       0.37192189       0.52138087 </v>
   <v>       0.30627007       0.36399155       0.16685440 </v>
   <v>       0.69472134       0.12389920       0.30025759 </v>
   <v>       0.44191058       0.96236403       0.83314085 </v>
   <v>       0.18497573       0.28722952       0.12459035 </v>
   <v>       0.18459846       0.28919865       0.25618260 </v>
   <v>       0.31277909       0.37043839       0.43423299 </v>
   <v>       0.56202365       0.03257152       0.12447644 </v>
   <v>       0.43419652       0.28821310       0.61092185 </v>
   <v>       0.18417033       0.45290170       0.34513336 </v>
   <v>       0.43434447       0.28672438       0.12444011 </v>
   <v>       0.68427939       0.78935680       0.25608180 </v>
   <v>       0.43669550       0.12202349       0.52136538 </v>
   <v>       0.18828240       0.29398258       0.87572489 </v>
   <v>       0.19170751       0.12455110       0.65509378 </v>
   <v>       0.94166485       0.12478086       0.65506577 </v>
   <v>       0.81601143       0.53774841       0.38917523 </v>
   <v>       0.06637140       0.03813389       0.38915493 </v>
   <v>       0.18318907       0.11310796       0.16657943 </v>
   <v>       0.05884985       0.53796929       0.61083996 </v>
   <v>       0.93386582       0.28884244       0.25607179 </v>
   <v>       0.55874456       0.53797613       0.61084716 </v>
   <v>       0.93705937       0.95698149       0.56554142 </v>
   <v>       0.69370447       0.62473519       0.30017024 </v>
   <v>       0.93750671       0.62039894       0.43427283 </v>
   <v>       0.93414379       0.62200092       0.78842306 </v>
   <v>       0.56043209       0.70739162       0.69961584 </v>
   <v>       0.06624314       0.71428439       0.83346936 </v>
   <v>       0.94456850       0.12362766       0.30019291 </v>
   <v>       0.93361336       0.78793677       0.61087561 </v>
   <v>       0.43404923       0.78929788       0.25611809 </v>
   <v>       0.30956944       0.37216817       0.78838142 </v>
   <v>       0.43954449       0.45529641       0.21192141 </v>
   <v>       0.18621194       0.12189252       0.52140412 </v>
   <v>       0.81018447       0.70769404       0.69963827 </v>
   <v>       0.05926338       0.03772544       0.61082221 </v>
   <v>       0.56637678       0.21327637       0.83310381 </v>
   <v>       0.31142590       0.87185073       0.52142804 </v>
   <v>       0.68576882       0.28669767       0.12412765 </v>
   <v>       0.19013417       0.95611566       0.21193531 </v>
   <v>       0.68335583       0.28851748       0.61096301 </v>
   <v>       0.30912809       0.03803820       0.61107815 </v>
   <v>       0.93487682       0.12339761       0.78858737 </v>
   <v>       0.43673395       0.79448737       0.87562117 </v>
   <v>       0.81536432       0.04065621       0.74404146 </v>
   <v>       0.93543382       0.45780539       0.69969752 </v>
   <v>       0.19170016       0.62502039       0.65515063 </v>
   <v>       0.31030750       0.70764407       0.69955403 </v>
   <v>       0.93485717       0.28679373       0.12437430 </v>
   <v>       0.43764514       0.45584999       0.47845296 </v>
   <v>       0.06238718       0.70573274       0.47842957 </v>
   <v>       0.93707571       0.12005169       0.43451515 </v>
   <v>       0.44380671       0.12431225       0.30038821 </v>
   <v>       0.18771245       0.11984541       0.43418464 </v>
   <v>       0.56240769       0.04051221       0.87576110 </v>
   <v>       0.18659337       0.95695346       0.56552943 </v>
   <v>       0.68394631       0.78843088       0.12470526 </v>
   <v>       0.55876598       0.70236984       0.34502507 </v>
   <v>       0.31638877       0.03717928       0.38912959 </v>
   <v>       0.68210033       0.11354339       0.16706446 </v>
   <v>       0.81478432       0.20458939       0.21182608 </v>
   <v>       0.05991352       0.53803525       0.25596506 </v>
   <v>       0.56230888       0.70557649       0.47849217 </v>
   <v>       0.43514195       0.78805333       0.12415187 </v>
   <v>       0.56911172       0.37367815       0.30031865 </v>
   <v>       0.43378849       0.95277604       0.34511422 </v>
   <v>       0.18536987       0.95841860       0.69966498 </v>
   <v>       0.43174965       0.61370097       0.16645646 </v>
   <v>       0.94014004       0.45566334       0.21199257 </v>
   <v>       0.06184173       0.53124866       0.12429265 </v>
   <v>       0.81171823       0.37212142       0.52138738 </v>
   <v>       0.94425263       0.62456709       0.30010328 </v>
   <v>       0.30947732       0.03813769       0.25594820 </v>
   <v>       0.68353770       0.78758844       0.61090822 </v>
   <v>       0.19216884       0.46351058       0.83315101 </v>
   <v>       0.43230400       0.11294895       0.16661609 </v>
   <v>       0.31140657       0.37187180       0.52141762 </v>
   <v>       0.43466321       0.62188414       0.78852642 </v>
   <v>       0.05864370       0.03835801       0.25612723 </v>
   <v>       0.56219803       0.70651545       0.56564320 </v>
   <v>       0.94015108       0.29000876       0.74422128 </v>
   <v>       0.68475728       0.12274060       0.78862703 </v>
   <v>       0.18973681       0.45534128       0.21146996 </v>
   <v>       0.94088208       0.78756556       0.38914697 </v>
   <v>       0.68668857       0.29648016       0.87582659 </v>
   <v>       0.55637352       0.86610541       0.16665888 </v>
   <v>       0.43560599       0.45788802       0.69955920 </v>
   <v>       0.93417283       0.95188220       0.34493479 </v>
   <v>       0.68648137       0.62136879       0.52128035 </v>
   <v>       0.06678611       0.87484224       0.65508841 </v>
   <v>       0.05933133       0.87250318       0.78855777 </v>
   <v>       0.06667996       0.37466827       0.65518718 </v>
   <v>       0.68688673       0.45555657       0.47853052 </v>
   <v>       0.18468080       0.78920920       0.25600604 </v>
   <v>       0.43718936       0.12040522       0.43421939 </v>
   <v>       0.81325705       0.03146214       0.12442069 </v>
   <v>       0.93641670       0.62165090       0.52142197 </v>
   <v>       0.44116190       0.12482514       0.65494941 </v>
   <v>       0.81234086       0.53130503       0.12419751 </v>
   <v>       0.43416541       0.45274686       0.34520381 </v>
   <v>       0.80901348       0.20228201       0.34515488 </v>
   <v>       0.30926906       0.70216111       0.34493874 </v>
   <v>       0.69084115       0.12487991       0.65503900 </v>
   <v>       0.56911894       0.87403544       0.30036170 </v>
   <v>       0.06507890       0.54017970       0.74418881 </v>
   <v>       0.94044692       0.95516989       0.21156633 </v>
   <v>       0.81645360       0.70498785       0.21168768 </v>
   <v>       0.06919281       0.87417218       0.30042410 </v>
   <v>       0.19431651       0.12423372       0.30037306 </v>
   <v>       0.05881358       0.70237985       0.34493800 </v>
   <v>       0.80879462       0.03805794       0.61079404 </v>
   <v>       0.06323432       0.37069471       0.43427094 </v>
   <v>       0.55884551       0.20251938       0.34493742 </v>
   <v>       0.81893941       0.37459143       0.30028758 </v>
   <v>       0.55990420       0.03876795       0.25596022 </v>
   <v>       0.56590474       0.53773143       0.38917222 </v>
   <v>       0.06238349       0.20539486       0.47866216 </v>
   <v>       0.31056323       0.87175589       0.78822070 </v>
   <v>       0.93562524       0.95815318       0.69965272 </v>
   <v>       0.06875889       0.37485616       0.30037385 </v>
   <v>       0.69070373       0.62476714       0.65502062 </v>
   <v>       0.68641461       0.45704221       0.56556981 </v>
   <v>       0.44005880       0.95615687       0.21217278 </v>
   <v>       0.31234242       0.20573402       0.47855059 </v>
   <v>       0.81417711       0.53896034       0.87549273 </v>
   <v>       0.68719753       0.62034868       0.43427112 </v>
   <v>       0.81042062       0.20779129       0.69970444 </v>
   <v>       0.93663667       0.29358097       0.87568416 </v>
   <v>       0.81121741       0.87049875       0.43420441 </v>
   <v>       0.93734947       0.95571080       0.47861948 </v>
   <v>       0.56227047       0.20602425       0.47854945 </v>
   <v>       0.18722199       0.62016608       0.43430488 </v>
   <v>       0.31517037       0.04095908       0.74392612 </v>
   <v>       0.94130665       0.62538544       0.65503610 </v>
   <v>       0.56666059       0.71219725       0.83318237 </v>
   <v>       0.31989795       0.37343561       0.30019145 </v>
   <v>       0.56502549       0.70455655       0.21185689 </v>
   <v>       0.18733864       0.45565624       0.47850773 </v>
   <v>       0.31346861       0.04213233       0.87556461 </v>
   <v>       0.18517237       0.45766612       0.69958685 </v>
   <v>       0.56190398       0.37186406       0.52137200 </v>
   <v>       0.19149390       0.28765779       0.38913019 </v>
   <v>       0.31548941       0.20532720       0.21144901 </v>
   <v>       0.06694752       0.70508135       0.21147626 </v>
   <v>       0.56184686       0.37065226       0.43423917 </v>
   <v>       0.43693824       0.62180380       0.52130839 </v>
   <v>       0.81710067       0.71357013       0.83303133 </v>
   <v>       0.06023510       0.37335263       0.78826398 </v>
   <v>       0.43655062       0.29652199       0.87588629 </v>
   <v>       0.31145611       0.03224991       0.12428437 </v>
   <v>       0.68751458       0.12048289       0.43420872 </v>
   <v>       0.18423107       0.95284978       0.34510557 </v>
   <v>       0.06625619       0.21268533       0.83348792 </v>
   <v>       0.55880815       0.03840924       0.61097592 </v>
   <v>       0.68933944       0.45555639       0.21223477 </v>
   <v>       0.19005282       0.79056178       0.74407062 </v>
   <v>       0.19398923       0.62452705       0.30037386 </v>
   <v>       0.44145922       0.78750009       0.38917003 </v>
   <v>       0.43410279       0.28934213       0.25613010 </v>
   <v>       0.06335491       0.53931296       0.87550352 </v>
   <v>       0.56581845       0.04061321       0.74403534 </v>
   <v>       0.18661895       0.79450206       0.87562180 </v>
   <v>       0.93693516       0.45517460       0.47864258 </v>
   <v>       0.56592852       0.54061401       0.74401725 </v>
   <v>       0.81140843       0.20671952       0.56538257 </v>
   <v>       0.18459750       0.62091120       0.78821722 </v>
   <v>       0.06747440       0.53862333       0.38925345 </v>
   <v>       0.06098569       0.70781187       0.69960614 </v>
   <v>       0.30864627       0.53827993       0.25575397 </v>
   <v>       0.31473795       0.70349252       0.21226147 </v>
   <v>       0.30513519       0.86608864       0.16588711 </v>
   <v>       0.43715666       0.62104453       0.43418933 </v>
   <v>       0.81768578       0.03978097       0.38920589 </v>
   <v>       0.81255279       0.70584386       0.47854316 </v>
   <v>       0.93773546       0.79391757       0.87507027 </v>
   <v>       0.06468783       0.03992460       0.87532350 </v>
   <v>       0.56292959       0.52992828       0.12468263 </v>
   <v>       0.80558564       0.36608795       0.16615485 </v>
   <v>       0.06169298       0.87071879       0.43429955 </v>
   <v>       0.93651492       0.12182208       0.52145217 </v>
   <v>       0.19303279       0.78723873       0.38906281 </v>
   <v>       0.31539012       0.54015485       0.74428013 </v>
  </varray>
 </structure>
</modeling>
