 288 288   0   0
  0.1280206E+02  0.9726678E-09  0.8423550E-09  0.4500000E-08  0.2500000E-15
  1.000000000000000E-004
  CAR 
 unknown system                          
      6.77671876     -6.01722655  301      4.29544131      1.00000000
     -6.017  0.0000E+00  0.0000E+00
     -5.975  0.0000E+00  0.0000E+00
     -5.932  0.0000E+00  0.0000E+00
     -5.889  0.0000E+00  0.0000E+00
     -5.847  0.0000E+00  0.0000E+00
     -5.804  0.0000E+00  0.0000E+00
     -5.761  0.0000E+00  0.0000E+00
     -5.719  0.0000E+00  0.0000E+00
     -5.676  0.0000E+00  0.0000E+00
     -5.633  0.0000E+00  0.0000E+00
     -5.591  0.0000E+00  0.0000E+00
     -5.548  0.0000E+00  0.0000E+00
     -5.505  0.0000E+00  0.0000E+00
     -5.463  0.0000E+00  0.0000E+00
     -5.420  0.0000E+00  0.0000E+00
     -5.378  0.1627E-15  0.6939E-17
     -5.335  0.3547E-14  0.1582E-15
     -5.292  0.7693E-13  0.3439E-14
     -5.250  0.1404E-11  0.6332E-13
     -5.207  0.2187E-10  0.9959E-12
     -5.164  0.2904E-09  0.1338E-10
     -5.122  0.3290E-08  0.1537E-09
     -5.079  0.3182E-07  0.1511E-08
     -5.036  0.2628E-06  0.1272E-07
     -4.994  0.1855E-05  0.9183E-07
     -4.951  0.1121E-04  0.5698E-06
     -4.908  0.5806E-04  0.3046E-05
     -4.866  0.2584E-03  0.1407E-04
     -4.823  0.9913E-03  0.5634E-04
     -4.780  0.3293E-02  0.1968E-03
     -4.738  0.9525E-02  0.6030E-03
     -4.695  0.2418E-01  0.1634E-02
     -4.653  0.5435E-01  0.3952E-02
     -4.610  0.1094E+00  0.8617E-02
     -4.567  0.1994E+00  0.1712E-01
     -4.525  0.3324E+00  0.3129E-01
     -4.482  0.5113E+00  0.5310E-01
     -4.439  0.7304E+00  0.8425E-01
     -4.397  0.9737E+00  0.1258E+00
     -4.354  0.1217E+01  0.1777E+00
     -4.311  0.1433E+01  0.2388E+00
     -4.269  0.1601E+01  0.3070E+00
     -4.226  0.1711E+01  0.3800E+00
     -4.183  0.1776E+01  0.4557E+00
     -4.141  0.1823E+01  0.5335E+00
     -4.098  0.1894E+01  0.6143E+00
     -4.055  0.2023E+01  0.7006E+00
     -4.013  0.2224E+01  0.7954E+00
     -3.970  0.2484E+01  0.9013E+00
     -3.928  0.2761E+01  0.1019E+01
     -3.885  0.3002E+01  0.1147E+01
     -3.842  0.3158E+01  0.1282E+01
     -3.800  0.3205E+01  0.1418E+01
     -3.757  0.3160E+01  0.1553E+01
     -3.714  0.3075E+01  0.1684E+01
     -3.672  0.3014E+01  0.1813E+01
     -3.629  0.3033E+01  0.1942E+01
     -3.586  0.3156E+01  0.2077E+01
     -3.544  0.3367E+01  0.2220E+01
     -3.501  0.3617E+01  0.2375E+01
     -3.458  0.3847E+01  0.2539E+01
     -3.416  0.4013E+01  0.2710E+01
     -3.373  0.4103E+01  0.2885E+01
     -3.330  0.4132E+01  0.3061E+01
     -3.288  0.4134E+01  0.3237E+01
     -3.245  0.4143E+01  0.3414E+01
     -3.203  0.4186E+01  0.3593E+01
     -3.160  0.4279E+01  0.3775E+01
     -3.117  0.4421E+01  0.3964E+01
     -3.075  0.4603E+01  0.4160E+01
     -3.032  0.4804E+01  0.4365E+01
     -2.989  0.4997E+01  0.4578E+01
     -2.947  0.5157E+01  0.4798E+01
     -2.904  0.5267E+01  0.5023E+01
     -2.861  0.5333E+01  0.5250E+01
     -2.819  0.5378E+01  0.5479E+01
     -2.776  0.5434E+01  0.5711E+01
     -2.733  0.5523E+01  0.5947E+01
     -2.691  0.5633E+01  0.6187E+01
     -2.648  0.5712E+01  0.6430E+01
     -2.606  0.5699E+01  0.6673E+01
     -2.563  0.5580E+01  0.6911E+01
     -2.520  0.5424E+01  0.7143E+01
     -2.478  0.5364E+01  0.7372E+01
     -2.435  0.5532E+01  0.7607E+01
     -2.392  0.5968E+01  0.7862E+01
     -2.350  0.6586E+01  0.8143E+01
     -2.307  0.7192E+01  0.8450E+01
     -2.264  0.7583E+01  0.8773E+01
     -2.222  0.7639E+01  0.9099E+01
     -2.179  0.7396E+01  0.9414E+01
     -2.136  0.7031E+01  0.9714E+01
     -2.094  0.6776E+01  0.1000E+02
     -2.051  0.6806E+01  0.1029E+02
     -2.008  0.7155E+01  0.1060E+02
     -1.966  0.7716E+01  0.1093E+02
     -1.923  0.8297E+01  0.1128E+02
     -1.881  0.8717E+01  0.1165E+02
     -1.838  0.8887E+01  0.1203E+02
     -1.795  0.8843E+01  0.1241E+02
     -1.753  0.8717E+01  0.1278E+02
     -1.710  0.8652E+01  0.1315E+02
     -1.667  0.8725E+01  0.1352E+02
     -1.625  0.8924E+01  0.1390E+02
     -1.582  0.9187E+01  0.1429E+02
     -1.539  0.9463E+01  0.1470E+02
     -1.497  0.9734E+01  0.1511E+02
     -1.454  0.1000E+02  0.1554E+02
     -1.411  0.1024E+02  0.1598E+02
     -1.369  0.1042E+02  0.1642E+02
     -1.326  0.1051E+02  0.1687E+02
     -1.283  0.1064E+02  0.1732E+02
     -1.241  0.1098E+02  0.1779E+02
     -1.198  0.1171E+02  0.1829E+02
     -1.156  0.1281E+02  0.1884E+02
     -1.113  0.1406E+02  0.1944E+02
     -1.070  0.1506E+02  0.2008E+02
     -1.028  0.1556E+02  0.2074E+02
     -0.985  0.1560E+02  0.2141E+02
     -0.942  0.1550E+02  0.2207E+02
     -0.900  0.1570E+02  0.2274E+02
     -0.857  0.1648E+02  0.2344E+02
     -0.814  0.1789E+02  0.2420E+02
     -0.772  0.1980E+02  0.2505E+02
     -0.729  0.2217E+02  0.2599E+02
     -0.686  0.2514E+02  0.2707E+02
     -0.644  0.2891E+02  0.2830E+02
     -0.601  0.3347E+02  0.2973E+02
     -0.558  0.3842E+02  0.3136E+02
     -0.516  0.4309E+02  0.3320E+02
     -0.473  0.4694E+02  0.3520E+02
     -0.431  0.4981E+02  0.3733E+02
     -0.388  0.5191E+02  0.3954E+02
     -0.345  0.5359E+02  0.4183E+02
     -0.303  0.5500E+02  0.4417E+02
     -0.260  0.5610E+02  0.4656E+02
     -0.217  0.5678E+02  0.4899E+02
     -0.175  0.5702E+02  0.5142E+02
     -0.132  0.5695E+02  0.5385E+02
     -0.089  0.5683E+02  0.5627E+02
     -0.047  0.5691E+02  0.5870E+02
     -0.004  0.5744E+02  0.6115E+02
      0.039  0.5862E+02  0.6365E+02
      0.081  0.6052E+02  0.6623E+02
      0.124  0.6315E+02  0.6892E+02
      0.167  0.6639E+02  0.7175E+02
      0.209  0.7001E+02  0.7474E+02
      0.252  0.7378E+02  0.7788E+02
      0.294  0.7739E+02  0.8118E+02
      0.337  0.8054E+02  0.8462E+02
      0.380  0.8305E+02  0.8816E+02
      0.422  0.8492E+02  0.9178E+02
      0.465  0.8622E+02  0.9546E+02
      0.508  0.8705E+02  0.9917E+02
      0.550  0.8738E+02  0.1029E+03
      0.593  0.8723E+02  0.1066E+03
      0.636  0.8664E+02  0.1103E+03
      0.678  0.8568E+02  0.1140E+03
      0.721  0.8440E+02  0.1176E+03
      0.764  0.8275E+02  0.1211E+03
      0.806  0.8080E+02  0.1245E+03
      0.849  0.7877E+02  0.1279E+03
      0.892  0.7707E+02  0.1312E+03
      0.934  0.7603E+02  0.1344E+03
      0.977  0.7573E+02  0.1377E+03
      1.019  0.7595E+02  0.1409E+03
      1.062  0.7626E+02  0.1442E+03
      1.105  0.7629E+02  0.1474E+03
      1.147  0.7590E+02  0.1506E+03
      1.190  0.7519E+02  0.1538E+03
      1.233  0.7438E+02  0.1570E+03
      1.275  0.7363E+02  0.1602E+03
      1.318  0.7297E+02  0.1633E+03
      1.361  0.7226E+02  0.1664E+03
      1.403  0.7129E+02  0.1694E+03
      1.446  0.6993E+02  0.1724E+03
      1.489  0.6828E+02  0.1753E+03
      1.531  0.6673E+02  0.1781E+03
      1.574  0.6587E+02  0.1809E+03
      1.616  0.6618E+02  0.1838E+03
      1.659  0.6777E+02  0.1867E+03
      1.702  0.7036E+02  0.1897E+03
      1.744  0.7346E+02  0.1928E+03
      1.787  0.7664E+02  0.1961E+03
      1.830  0.7966E+02  0.1995E+03
      1.872  0.8242E+02  0.2030E+03
      1.915  0.8489E+02  0.2066E+03
      1.958  0.8707E+02  0.2103E+03
      2.000  0.8901E+02  0.2141E+03
      2.043  0.9077E+02  0.2180E+03
      2.086  0.9234E+02  0.2219E+03
      2.128  0.9366E+02  0.2259E+03
      2.171  0.9472E+02  0.2299E+03
      2.214  0.9575E+02  0.2340E+03
      2.256  0.9717E+02  0.2382E+03
      2.299  0.9940E+02  0.2424E+03
      2.341  0.1026E+03  0.2468E+03
      2.384  0.1067E+03  0.2513E+03
      2.427  0.1112E+03  0.2561E+03
      2.469  0.1155E+03  0.2610E+03
      2.512  0.1191E+03  0.2661E+03
      2.555  0.1219E+03  0.2713E+03
      2.597  0.1241E+03  0.2766E+03
      2.640  0.1260E+03  0.2819E+03
      2.683  0.1279E+03  0.2874E+03
      2.725  0.1299E+03  0.2929E+03
      2.768  0.1322E+03  0.2986E+03
      2.811  0.1349E+03  0.3043E+03
      2.853  0.1378E+03  0.3102E+03
      2.896  0.1405E+03  0.3162E+03
      2.939  0.1420E+03  0.3223E+03
      2.981  0.1414E+03  0.3283E+03
      3.024  0.1382E+03  0.3342E+03
      3.066  0.1322E+03  0.3398E+03
      3.109  0.1241E+03  0.3451E+03
      3.152  0.1151E+03  0.3500E+03
      3.194  0.1064E+03  0.3546E+03
      3.237  0.9894E+02  0.3588E+03
      3.280  0.9323E+02  0.3628E+03
      3.322  0.8930E+02  0.3666E+03
      3.365  0.8683E+02  0.3703E+03
      3.408  0.8539E+02  0.3739E+03
      3.450  0.8458E+02  0.3775E+03
      3.493  0.8402E+02  0.3811E+03
      3.536  0.8345E+02  0.3847E+03
      3.578  0.8283E+02  0.3882E+03
      3.621  0.8244E+02  0.3917E+03
      3.664  0.8281E+02  0.3952E+03
      3.706  0.8443E+02  0.3988E+03
      3.749  0.8744E+02  0.4026E+03
      3.791  0.9150E+02  0.4065E+03
      3.834  0.9597E+02  0.4106E+03
      3.877  0.1002E+03  0.4148E+03
      3.919  0.1037E+03  0.4193E+03
      3.962  0.1064E+03  0.4238E+03
      4.005  0.1081E+03  0.4284E+03
      4.047  0.1089E+03  0.4330E+03
      4.090  0.1088E+03  0.4377E+03
      4.133  0.1080E+03  0.4423E+03
      4.175  0.1069E+03  0.4468E+03
      4.218  0.1056E+03  0.4514E+03
      4.261  0.1043E+03  0.4558E+03
      4.303  0.1032E+03  0.4602E+03
      4.346  0.1023E+03  0.4646E+03
      4.389  0.1018E+03  0.4689E+03
      4.431  0.1014E+03  0.4732E+03
      4.474  0.1010E+03  0.4775E+03
      4.516  0.1002E+03  0.4818E+03
      4.559  0.9898E+02  0.4860E+03
      4.602  0.9766E+02  0.4902E+03
      4.644  0.9683E+02  0.4943E+03
      4.687  0.9697E+02  0.4985E+03
      4.730  0.9826E+02  0.5027E+03
      4.772  0.1005E+03  0.5069E+03
      4.815  0.1033E+03  0.5113E+03
      4.858  0.1060E+03  0.5159E+03
      4.900  0.1082E+03  0.5205E+03
      4.943  0.1095E+03  0.5251E+03
      4.986  0.1095E+03  0.5298E+03
      5.028  0.1078E+03  0.5344E+03
      5.071  0.1033E+03  0.5388E+03
      5.114  0.9507E+02  0.5429E+03
      5.156  0.8263E+02  0.5464E+03
      5.199  0.6672E+02  0.5492E+03
      5.241  0.4932E+02  0.5514E+03
      5.284  0.3299E+02  0.5528E+03
      5.327  0.1978E+02  0.5536E+03
      5.369  0.1056E+02  0.5541E+03
      5.412  0.4993E+01  0.5543E+03
      5.455  0.2081E+01  0.5544E+03
      5.497  0.7619E+00  0.5544E+03
      5.540  0.2444E+00  0.5544E+03
      5.583  0.6855E-01  0.5544E+03
      5.625  0.1677E-01  0.5544E+03
      5.668  0.3572E-02  0.5544E+03
      5.711  0.6613E-03  0.5544E+03
      5.753  0.1063E-03  0.5544E+03
      5.796  0.1481E-04  0.5544E+03
      5.838  0.1786E-05  0.5544E+03
      5.881  0.1863E-06  0.5544E+03
      5.924  0.1679E-07  0.5544E+03
      5.966  0.1305E-08  0.5544E+03
      6.009  0.8745E-10  0.5544E+03
      6.052  0.5046E-11  0.5544E+03
      6.094  0.2491E-12  0.5544E+03
      6.137  0.9893E-14  0.5544E+03
      6.180  0.1952E-15  0.5544E+03
      6.222  0.0000E+00  0.5544E+03
      6.265  0.0000E+00  0.5544E+03
      6.308  0.0000E+00  0.5544E+03
      6.350  0.0000E+00  0.5544E+03
      6.393  0.0000E+00  0.5544E+03
      6.436  0.0000E+00  0.5544E+03
      6.478  0.0000E+00  0.5544E+03
      6.521  0.0000E+00  0.5544E+03
      6.563  0.0000E+00  0.5544E+03
      6.606  0.0000E+00  0.5544E+03
      6.649  0.0000E+00  0.5544E+03
      6.691  0.0000E+00  0.5544E+03
      6.734  0.0000E+00  0.5544E+03
      6.777  0.0000E+00  0.5544E+03
