unknown system                          
           1
     9.726678    0.000000    0.000000
     0.000000    8.423550    0.000000
     0.000000    0.000000   45.000000
   Fe   Mn
 281   7
Direct configuration=     1
   0.05410844  0.70112183  0.21131202
   0.31779837  0.72420656  0.87632199
   0.68808194  0.95872237  0.61152798
   0.43845019  0.45852598  0.61159939
   0.44084959  0.28734493  0.25518658
   0.05858669  0.38799347  0.83350974
   0.30838828  0.88768332  0.83352753
   0.44692471  0.62624400  0.70040961
   0.05976923  0.21311871  0.74489266
   0.17849854  0.45119187  0.21131092
   0.56777728  0.21054965  0.47748300
   0.06661278  0.87491959  0.56689592
   0.81517379  0.53756536  0.25515752
   0.80800535  0.52800022  0.12393067
   0.42935045  0.95132440  0.21137457
   0.56670617  0.37499380  0.56683099
   0.81104706  0.04157529  0.38828626
   0.68186365  0.78883119  0.52241562
   0.44268877  0.46079015  0.47748337
   0.43416362  0.96265678  0.74473327
   0.44162601  0.62478786  0.56694059
   0.57172194  0.87644420  0.70051630
   0.30890447  0.02588826  0.12392714
   0.68992958  0.95889792  0.34395953
   0.68807161  0.78218459  0.12421210
   0.05276642  0.37399019  0.29951684
   0.69018886  0.46627306  0.87610812
   0.42926775  0.45117486  0.21136135
   0.80846510  0.37529542  0.43308752
   0.56332668  0.70863265  0.61155514
   0.55978643  0.54075777  0.65590379
   0.81777546  0.86170345  0.16668655
   0.56534720  0.53753078  0.25502316
   0.68986615  0.45885915  0.34396443
   0.19177068  0.61155501  0.16641474
   0.19442471  0.79953775  0.78883900
   0.44704915  0.12625044  0.70037603
   0.92794455  0.62354820  0.29963625
   0.31653399  0.22393122  0.87618533
   0.31651789  0.87479528  0.56687040
   0.81761620  0.22471019  0.87596698
   0.80964974  0.54081299  0.65582909
   0.55866724  0.52645388  0.12391169
   0.56948775  0.04961092  0.78887438
   0.19095043  0.28744085  0.25525886
   0.80871802  0.87516917  0.43306226
   0.57224317  0.37624998  0.70037932
   0.05723527  0.02618176  0.12411780
   0.30979853  0.54072467  0.65593461
   0.56516604  0.20905486  0.34393710
   0.18800717  0.95851168  0.61141530
   0.30283438  0.37398020  0.29959659
   0.43475109  0.79064963  0.65592289
   0.19453111  0.29911835  0.78877036
   0.06741088  0.36291912  0.16662252
   0.69701471  0.62651222  0.70042413
   0.31139708  0.54123925  0.38841429
   0.06795785  0.72369486  0.87621936
   0.93380905  0.63771174  0.83381224
   0.31995354  0.54977860  0.78898926
   0.30443850  0.20042340  0.21126970
   0.06800051  0.71074464  0.47748423
   0.55440316  0.20074520  0.21117286
   0.30966685  0.21257540  0.74494944
   0.07199129  0.37649226  0.70059438
   0.18314440  0.63753955  0.83353099
   0.06969734  0.04903866  0.78894847
   0.44179824  0.12501499  0.56689985
   0.93480482  0.29072429  0.65582643
   0.80411623  0.20138220  0.21119347
   0.92939752  0.95112233  0.21130834
   0.94158246  0.62521530  0.56683785
   0.80743501  0.38686087  0.83344959
   0.19703465  0.62633664  0.70033904
   0.80870367  0.88767700  0.83351688
   0.68492880  0.29085877  0.65602712
   0.31317066  0.20826098  0.61150729
   0.43451772  0.46270622  0.74492249
   0.43648767  0.79124391  0.38836045
   0.68434557  0.96279712  0.74479768
   0.80404510  0.70133874  0.21118384
   0.81343878  0.70853130  0.61159660
   0.43678093  0.78342463  0.12401535
   0.30961991  0.71240867  0.74490736
   0.31992744  0.04924514  0.78879170
   0.81103403  0.54169302  0.38831609
   0.68201603  0.28879544  0.52243046
   0.69498445  0.79959516  0.78880766
   0.19069593  0.78737321  0.25520755
   0.69171163  0.11239097  0.16659672
   0.69272322  0.96066050  0.47741543
   0.94011974  0.95934291  0.34402314
   0.80715230  0.03913215  0.52255236
   0.68360083  0.62491963  0.43297900
   0.44000734  0.45867652  0.34400201
   0.81010934  0.21246877  0.74457124
   0.43981084  0.96641809  0.87604533
   0.56657489  0.87496025  0.56687357
   0.80921333  0.02776782  0.12393177
   0.42794924  0.62365343  0.29949629
   0.81779659  0.72380581  0.87631857
   0.68829119  0.45843535  0.61155376
   0.55849285  0.38735783  0.83353282
   0.80287374  0.37355523  0.29947249
   0.18608056  0.29106888  0.38830909
   0.82009061  0.54942053  0.78892060
   0.18225507  0.78935255  0.52255662
   0.30283793  0.87411144  0.29958945
   0.17857934  0.95129699  0.21134219
   0.18472484  0.46247118  0.74489475
   0.43220094  0.28891897  0.52237330
   0.06477282  0.70865875  0.34383380
   0.18485414  0.79068245  0.65592287
   0.44463700  0.79962478  0.78873032
   0.68364396  0.12492464  0.43295925
   0.93192006  0.78860215  0.52243733
   0.69170958  0.61260457  0.16673117
   0.81472586  0.70883030  0.34386554
   0.93443233  0.46254979  0.74496896
   0.19020945  0.45903268  0.34402464
   0.57044810  0.55058375  0.78881758
   0.56643076  0.36257256  0.16645971
   0.56509179  0.70905084  0.34392731
   0.55304810  0.37368651  0.29957012
   0.18940833  0.46722063  0.87621337
   0.19179269  0.11154342  0.16643946
   0.44464214  0.29909653  0.78880274
   0.69084908  0.78767671  0.25536661
   0.93376041  0.13765197  0.83351886
   0.44283331  0.96080011  0.47751016
   0.56746745  0.72400310  0.87624711
   0.19258305  0.46075063  0.47748911
   0.93422982  0.28204409  0.12411645
   0.31147250  0.04124660  0.38840791
   0.06020253  0.04054548  0.65608153
   0.55851176  0.37490244  0.43310591
   0.68436929  0.46280419  0.74491672
   0.56004785  0.21276298  0.74484540
   0.94706009  0.12641169  0.70038662
   0.55974377  0.04089942  0.65587557
   0.55720594  0.53923521  0.52254824
   0.17801523  0.12385865  0.29954853
   0.44142953  0.11035873  0.16640692
   0.67790267  0.62349544  0.29945998
   0.92789213  0.12363306  0.29961777
   0.81664330  0.37506880  0.56693568
   0.05260250  0.87381702  0.29953401
   0.19172801  0.62486726  0.56690853
   0.94434412  0.79987753  0.78886948
   0.30859702  0.38744792  0.83356402
   0.93976947  0.46831979  0.87616175
   0.43387876  0.63863507  0.83361711
   0.06485892  0.20863921  0.34386644
   0.18972895  0.96698131  0.87613339
   0.93454134  0.78199065  0.12416901
   0.68648094  0.79123910  0.38838625
   0.93485971  0.79077178  0.65597301
   0.94135062  0.11212754  0.16654512
   0.43494996  0.29085925  0.65606540
   0.05422969  0.20111310  0.21127216
   0.67913622  0.95119211  0.21126502
   0.17799642  0.62371230  0.29955657
   0.82227244  0.87584258  0.70048114
   0.94680812  0.62649052  0.70051614
   0.19714989  0.12617094  0.70037870
   0.94266677  0.46057887  0.47731312
   0.81334034  0.20849010  0.61157344
   0.18323021  0.62502626  0.43312381
   0.42790155  0.12371600  0.29948805
   0.67818075  0.12360227  0.29947072
   0.56158435  0.54142976  0.38841108
   0.81451720  0.20883246  0.34386130
   0.43900823  0.46725699  0.87591767
   0.55851745  0.88786500  0.83358347
   0.31770095  0.21034617  0.47731650
   0.19253562  0.96094697  0.47750369
   0.05837692  0.88757930  0.83349511
   0.05720304  0.53914576  0.52252605
   0.94266837  0.96059152  0.47729287
   0.06321555  0.70820017  0.61162431
   0.55715808  0.03913345  0.52243013
   0.69489001  0.29927554  0.78873627
   0.81765330  0.36176178  0.16669160
   0.43350538  0.12494804  0.43309964
   0.06798947  0.21065474  0.47745674
   0.30988287  0.04078436  0.65597109
   0.43218076  0.78885336  0.52235418
   0.18348020  0.13761701  0.83357444
   0.18596411  0.28281249  0.12421259
   0.94022401  0.45915412  0.34402886
   0.56657663  0.86253019  0.16647313
   0.30426229  0.70060518  0.21126862
   0.94132193  0.61232652  0.16660100
   0.18829532  0.45867305  0.61149230
   0.07232655  0.87647625  0.70031346
   0.05996677  0.54066322  0.65591070
   0.30764584  0.52580951  0.12400165
   0.93652192  0.79146960  0.38844233
   0.94490428  0.29879313  0.78877379
   0.18459982  0.29055416  0.65589080
   0.93811735  0.95858317  0.61150192
   0.80997112  0.71238973  0.74479485
   0.69088169  0.28751226  0.25531192
   0.05944393  0.71261927  0.74497936
   0.67902922  0.45114702  0.21130319
   0.81773004  0.21071115  0.47749240
   0.56775509  0.71053022  0.47746907
   0.06768524  0.86317661  0.16664596
   0.93223046  0.28836366  0.52239083
   0.68458352  0.79056196  0.65587765
   0.05843822  0.87488401  0.43309378
   0.06788136  0.22313904  0.87631473
   0.80998322  0.04069828  0.65596323
   0.55959604  0.02644523  0.12384076
   0.30863295  0.37501056  0.43301558
   0.31654626  0.37503135  0.56687549
   0.31768796  0.71026566  0.47729583
   0.05706288  0.03908193  0.52251388
   0.32211965  0.87612614  0.70054822
   0.06524808  0.53751278  0.25510261
   0.68315023  0.13924916  0.83366467
   0.81519004  0.03747347  0.25518513
   0.18330821  0.12502709  0.43312233
   0.69735073  0.12634221  0.70040429
   0.18222385  0.28908116  0.52254717
   0.44086750  0.78740059  0.25522948
   0.44138452  0.61053089  0.16647603
   0.06336847  0.20862823  0.61157325
   0.18627437  0.79118658  0.38832591
   0.30699704  0.53889020  0.52249238
   0.82202675  0.37654082  0.70030774
   0.68646416  0.29119421  0.38840829
   0.19176796  0.12494826  0.56688731
   0.68902918  0.96694874  0.87590561
   0.69171704  0.12503125  0.56689938
   0.44018697  0.95864398  0.34402457
   0.18435093  0.96274733  0.74481738
   0.94133819  0.78740421  0.25525658
   0.55850675  0.87481438  0.43311907
   0.30869695  0.87515168  0.43301227
   0.80720758  0.53925399  0.52258323
   0.92923212  0.45135315  0.21129695
   0.31523029  0.53764791  0.25511526
   0.56172739  0.04153540  0.38844020
   0.93833281  0.45834432  0.61164382
   0.06151633  0.04126648  0.38839324
   0.06120868  0.54139476  0.38840421
   0.43625618  0.29112714  0.38836615
   0.69282629  0.46077003  0.47745540
   0.06679878  0.37518837  0.56690114
   0.55400753  0.70111516  0.21117136
   0.94123170  0.28750133  0.25526383
   0.82030969  0.04898875  0.78877460
   0.19016046  0.95899311  0.34401754
   0.55294206  0.87378223  0.29960556
   0.05854567  0.37481158  0.43305388
   0.31498108  0.70902595  0.34396821
   0.31511352  0.20900086  0.34398919
   0.94142886  0.12511119  0.56683968
   0.43848725  0.95870312  0.61158628
   0.56535043  0.03748340  0.25503940
   0.18597481  0.78268464  0.12424848
   0.06542262  0.03745771  0.25516085
   0.69157284  0.62500853  0.56691467
   0.05694517  0.52606725  0.12414574
   0.30700328  0.03866539  0.52236125
   0.68763971  0.28223064  0.12414841
   0.81771914  0.71080678  0.47747317
   0.43357026  0.13903699  0.83366320
   0.32223331  0.37658975  0.70043632
   0.68351071  0.63844512  0.83345660
   0.55968936  0.71229616  0.74492052
   0.93645659  0.29132345  0.38841929
   0.93943710  0.96729820  0.87613602
   0.56285176  0.20808124  0.61135862
   0.81661622  0.87513072  0.56685686
   0.80283432  0.87352849  0.29947456
   0.31520256  0.03784707  0.25513208
   0.43658597  0.28351887  0.12407885
   0.31349257  0.70871994  0.61157151
   0.43364893  0.62496404  0.43308549
   0.93315814  0.62544191  0.43315090
   0.31834210  0.86301461  0.16580284
   0.07093742  0.54862909  0.78891705
   0.93331176  0.12534840  0.43315158
   0.31817957  0.36295774  0.16578754
   0.93345017  0.96242251  0.74472298
   0.56849524  0.22480080  0.87567185
Direct configuration=     2
   0.05468294  0.70110884  0.21127962
   0.31755422  0.72359777  0.87624891
   0.68814339  0.95862931  0.61151337
   0.43843064  0.45844901  0.61158305
   0.44023700  0.28731675  0.25523543
   0.05889953  0.38779087  0.83362114
   0.30878209  0.88756106  0.83362580
   0.44627056  0.62628714  0.70040766
   0.06033898  0.21315524  0.74484815
   0.17908763  0.45122323  0.21130508
   0.56721905  0.21035392  0.47753618
   0.06625396  0.87491333  0.56689448
   0.81464181  0.53745183  0.25521554
   0.80828494  0.52834500  0.12401505
   0.42988865  0.95131247  0.21134632
   0.56635621  0.37494074  0.56682312
   0.81115654  0.04163690  0.38831386
   0.68245351  0.78912605  0.52238374
   0.44214304  0.46053927  0.47753312
   0.43473671  0.96271120  0.74469423
   0.44125894  0.62479018  0.56692294
   0.57110071  0.87649444  0.70048008
   0.30914574  0.02657169  0.12395747
   0.68945930  0.95877360  0.34397427
   0.68799920  0.78181920  0.12427820
   0.05347281  0.37389407  0.29953301
   0.69009945  0.46705498  0.87601697
   0.42981103  0.45119607  0.21133169
   0.80880061  0.37531698  0.43307733
   0.56332880  0.70855048  0.61154878
   0.56023608  0.54084756  0.65589172
   0.81730017  0.86196077  0.16659944
   0.56475342  0.53746152  0.25509935
   0.68941112  0.45875531  0.34397680
   0.19128272  0.61172884  0.16638520
   0.19405457  0.79943916  0.78883213
   0.44640057  0.12630214  0.70037833
   0.92858841  0.62349094  0.29963500
   0.31626312  0.22328950  0.87611867
   0.31617042  0.87478838  0.56685812
   0.81740740  0.22398966  0.87593503
   0.81011865  0.54096046  0.65582129
   0.55885920  0.52688073  0.12398987
   0.56909915  0.04964019  0.78888980
   0.19035339  0.28742652  0.25529068
   0.80900244  0.87522221  0.43305329
   0.57152184  0.37631059  0.70038736
   0.05777617  0.02661467  0.12416784
   0.31025477  0.54081408  0.65591403
   0.56466269  0.20891816  0.34397204
   0.18805979  0.95843755  0.61142011
   0.30352962  0.37393006  0.29960412
   0.43520513  0.79078610  0.65591190
   0.19414119  0.29898976  0.78877518
   0.06688793  0.36303317  0.16653683
   0.69631570  0.62653350  0.70041236
   0.31141955  0.54130922  0.38842261
   0.06758385  0.72309712  0.87617236
   0.93416746  0.63758522  0.83387987
   0.31961651  0.54979150  0.78897943
   0.30488363  0.20042845  0.21124248
   0.06741639  0.71047518  0.47754255
   0.55482787  0.20077352  0.21116021
   0.31025369  0.21272973  0.74487375
   0.07133336  0.37654671  0.70055992
   0.18360976  0.63742483  0.83360683
   0.06931788  0.04911649  0.78895098
   0.44138503  0.12496263  0.56688890
   0.93527431  0.29088288  0.65581191
   0.80460704  0.20130183  0.21117480
   0.92986060  0.95119246  0.21130813
   0.94122129  0.62517483  0.56683244
   0.80790206  0.38684754  0.83356348
   0.19635056  0.62639800  0.70034443
   0.80907300  0.88751907  0.83360838
   0.68537116  0.29094725  0.65599742
   0.31320137  0.20823245  0.61150894
   0.43506292  0.46273134  0.74484774
   0.43649244  0.79129213  0.38838149
   0.68484494  0.96282609  0.74475141
   0.80452802  0.70128215  0.21117356
   0.81341250  0.70847501  0.61157386
   0.43681045  0.78285150  0.12405584
   0.31012896  0.71247031  0.74484484
   0.31953228  0.04924226  0.78880080
   0.81113934  0.54172273  0.38833755
   0.68259564  0.28911415  0.52239522
   0.69458787  0.79958908  0.78881852
   0.19016371  0.78736865  0.25525608
   0.69132646  0.11253317  0.16653213
   0.69216045  0.96045305  0.47748319
   0.93968030  0.95923732  0.34403172
   0.80769944  0.03932633  0.52249197
   0.68379386  0.62494552  0.43298757
   0.43957324  0.45865568  0.34402621
   0.81055239  0.21260531  0.74455930
   0.43964535  0.96709030  0.87597006
   0.56623236  0.87489353  0.56685782
   0.80936652  0.02813882  0.12400940
   0.42861068  0.62360738  0.29951703
   0.81742509  0.72327663  0.87625310
   0.68828312  0.45837942  0.61153266
   0.55879972  0.38727851  0.83360742
   0.80356236  0.37354196  0.29948827
   0.18613954  0.29116776  0.38833289
   0.81959122  0.54947841  0.78893215
   0.18281694  0.78953111  0.52250874
   0.30352320  0.87402565  0.29959686
   0.17916208  0.95132807  0.21133132
   0.18529155  0.46258034  0.74483578
   0.43273609  0.28917893  0.52233259
   0.06436982  0.70864183  0.34388235
   0.18532643  0.79076090  0.65589306
   0.44415722  0.79961315  0.78873744
   0.68383573  0.12495703  0.43297292
   0.93253139  0.78883945  0.52240615
   0.69130250  0.61267959  0.16664666
   0.81433534  0.70877766  0.34391490
   0.93500662  0.46264172  0.74489253
   0.18973828  0.45891772  0.34404228
   0.56998464  0.55050921  0.78881878
   0.56629414  0.36277191  0.16636944
   0.56460832  0.70890930  0.34396306
   0.55370638  0.37365381  0.29957783
   0.18930836  0.46782043  0.87612417
   0.19133891  0.11172105  0.16639801
   0.44422429  0.29906406  0.78880504
   0.69024586  0.78761063  0.25537940
   0.93426606  0.13741093  0.83358054
   0.44225800  0.96053721  0.47755347
   0.56718731  0.72334925  0.87618243
   0.19202833  0.46052331  0.47754079
   0.93450542  0.28167631  0.12419006
   0.31148445  0.04131268  0.38841675
   0.06058551  0.04063675  0.65603553
   0.55887403  0.37495508  0.43309575
   0.68484744  0.46278817  0.74484761
   0.56052686  0.21287947  0.74478943
   0.94642132  0.12648421  0.70038627
   0.56022205  0.04094105  0.65586564
   0.55774113  0.53944896  0.52248607
   0.17866944  0.12376908  0.29955520
   0.44103055  0.11064855  0.16635274
   0.67854813  0.62345481  0.29947907
   0.92855126  0.12356295  0.29961921
   0.81628089  0.37502724  0.56692626
   0.05333857  0.87375935  0.29954718
   0.19133735  0.62487656  0.56690743
   0.94392995  0.79967347  0.78886683
   0.30901688  0.38731894  0.83368829
   0.93965583  0.46882762  0.87606909
   0.43427937  0.63848281  0.83368506
   0.06443847  0.20862527  0.34390905
   0.18959964  0.96759408  0.87603744
   0.93480705  0.78160010  0.12423186
   0.68647677  0.79132091  0.38839521
   0.93532225  0.79087982  0.65594346
   0.94092592  0.11231572  0.16649411
   0.43535409  0.29096101  0.65603311
   0.05480591  0.20109701  0.21125043
   0.67967082  0.95122180  0.21126193
   0.17865492  0.62365856  0.29955932
   0.82152770  0.87599671  0.70045979
   0.94620642  0.62653257  0.70050373
   0.19644395  0.12626932  0.70037957
   0.94214671  0.46034355  0.47738919
   0.81332107  0.20840335  0.61155702
   0.18374221  0.62504832  0.43310972
   0.42858725  0.12364969  0.29951243
   0.67876450  0.12353990  0.29948716
   0.56153890  0.54145214  0.38841843
   0.81417481  0.20879166  0.34391041
   0.43882961  0.46794892  0.87585295
   0.55887892  0.88776156  0.83368333
   0.31717039  0.21020168  0.47739443
   0.19198293  0.96065757  0.47754804
   0.05873557  0.88745889  0.83360284
   0.05775447  0.53933649  0.52246197
   0.94214516  0.96034943  0.47736920
   0.06323121  0.70819189  0.61159894
   0.55770435  0.03936509  0.52238662
   0.69444584  0.29921523  0.78872583
   0.81717388  0.36200042  0.16659769
   0.43382724  0.12495831  0.43308632
   0.06739682  0.21040982  0.47752109
   0.31034549  0.04086764  0.65594386
   0.43271158  0.78910598  0.52231883
   0.18389699  0.13749240  0.83365839
   0.18595576  0.28221892  0.12424266
   0.93973826  0.45908227  0.34403683
   0.56640648  0.86275378  0.16637683
   0.30473630  0.70055510  0.21124436
   0.94087542  0.61245178  0.16654387
   0.18829769  0.45857446  0.61148840
   0.07164152  0.87651062  0.70030208
   0.06040157  0.54077991  0.65590793
   0.30803175  0.52651074  0.12401310
   0.93649346  0.79154218  0.38844505
   0.94443187  0.29872767  0.78877282
   0.18508690  0.29070713  0.65588653
   0.93816203  0.95848027  0.61150299
   0.81049012  0.71246741  0.74476832
   0.69028688  0.28746890  0.25533545
   0.06006468  0.71268240  0.74491214
   0.67956222  0.45117982  0.21129364
   0.81717485  0.21046009  0.47754168
   0.56718645  0.71032446  0.47752492
   0.06712702  0.86325451  0.16655836
   0.93278191  0.28869487  0.52236648
   0.68503449  0.79070045  0.65586408
   0.05885651  0.87489042  0.43307787
   0.06754955  0.22255079  0.87623807
   0.81041122  0.04077369  0.65593319
   0.55966154  0.02685650  0.12392787
   0.30892603  0.37501523  0.43302036
   0.31619683  0.37495719  0.56686238
   0.31714654  0.71012909  0.47737538
   0.05764476  0.03929207  0.52245247
   0.32143702  0.87620354  0.70052396
   0.06472759  0.53743482  0.25517033
   0.68355283  0.13897712  0.83371002
   0.81467030  0.03737906  0.25523527
   0.18381166  0.12504722  0.43310519
   0.69662802  0.12637254  0.70039225
   0.18279738  0.28933156  0.52250237
   0.44023293  0.78737202  0.25527270
   0.44096331  0.61079636  0.16642000
   0.06334999  0.20853894  0.61154892
   0.18630215  0.79124680  0.38834747
   0.30759752  0.53917317  0.52243624
   0.82133612  0.37658490  0.70030508
   0.68646342  0.29129855  0.38841323
   0.19138980  0.12491299  0.56688256
   0.68902318  0.96754099  0.87584914
   0.69133063  0.12499258  0.56689534
   0.43970819  0.95864348  0.34404469
   0.18494425  0.96278917  0.74477516
   0.94061893  0.78738487  0.25530188
   0.55887072  0.87487519  0.43310384
   0.30898262  0.87510883  0.43301660
   0.80774918  0.53941261  0.52251947
   0.92972451  0.45135678  0.21129420
   0.31467970  0.53751923  0.25518587
   0.56166427  0.04154301  0.38844295
   0.93832776  0.45827561  0.61161844
   0.06150596  0.04135124  0.38840023
   0.06125531  0.54145159  0.38841076
   0.43630861  0.29120521  0.38838532
   0.69224347  0.46053686  0.47751789
   0.06640870  0.37511131  0.56690096
   0.55448215  0.70106961  0.21116193
   0.94054159  0.28745685  0.25530417
   0.81979211  0.04902595  0.78877437
   0.18970059  0.95887649  0.34403560
   0.55360952  0.87373358  0.29960706
   0.05892749  0.37484243  0.43304242
   0.31452812  0.70888306  0.34399740
   0.31463590  0.20885755  0.34401439
   0.94110241  0.12508360  0.56683403
   0.43842730  0.95862558  0.61157051
   0.56477232  0.03741292  0.25511376
   0.18600775  0.78214950  0.12427652
   0.06485702  0.03740850  0.25521838
   0.69122330  0.62497222  0.56691132
   0.05746215  0.52651581  0.12419120
   0.30759307  0.03899654  0.52232830
   0.68761991  0.28187081  0.12422343
   0.81716222  0.71052817  0.47752962
   0.43401106  0.13871088  0.83371278
   0.32157044  0.37656006  0.70042509
   0.68397492  0.63831231  0.83352917
   0.56020616  0.71232679  0.74485998
   0.93642916  0.29142727  0.38842796
   0.93935177  0.96782094  0.87603968
   0.56294356  0.20810886  0.61137493
   0.81625266  0.87508610  0.56686441
   0.80352825  0.87351207  0.29949320
   0.31466559  0.03766724  0.25520072
   0.43662621  0.28292123  0.12410332
   0.31344811  0.70862020  0.61155744
   0.43392292  0.62497126  0.43307387
   0.93352840  0.62538370  0.43314366
   0.31787685  0.86302095  0.16576475
   0.07043312  0.54874027  0.78889884
   0.93363752  0.12531486  0.43314286
   0.31772000  0.36296391  0.16576254
   0.93404302  0.96255488  0.74471345
   0.56813752  0.22405447  0.87566196
Direct configuration=     3
   0.05640647  0.70106988  0.21118242
   0.31682180  0.72177143  0.87602967
   0.68832773  0.95835012  0.61146952
   0.43837197  0.45821812  0.61153404
   0.43839925  0.28723220  0.25538199
   0.05983805  0.38718306  0.83395534
   0.30996353  0.88719426  0.83392059
   0.44430811  0.62641656  0.70040178
   0.06204822  0.21326484  0.74471463
   0.18085491  0.45131729  0.21128758
   0.56554437  0.20976675  0.47769574
   0.06517750  0.87489454  0.56689016
   0.81304585  0.53711123  0.25538962
   0.80912371  0.52937934  0.12426818
   0.43150323  0.95127670  0.21126158
   0.56530634  0.37478157  0.56679952
   0.81148496  0.04182174  0.38839667
   0.68422309  0.79001063  0.52228808
   0.44050584  0.45978662  0.47768236
   0.43645597  0.96287444  0.74457710
   0.44015774  0.62479712  0.56686998
   0.56923703  0.87664516  0.70037144
   0.30986954  0.02862198  0.12404846
   0.68804847  0.95840066  0.34401848
   0.68778197  0.78072302  0.12447651
   0.05559199  0.37360569  0.29958151
   0.68983120  0.46940076  0.87574351
   0.43144088  0.45125969  0.21124269
   0.80980714  0.37538169  0.43304676
   0.56333518  0.70830398  0.61152970
   0.56158503  0.54111691  0.65585550
   0.81587431  0.86273272  0.16633812
   0.56297207  0.53725376  0.25532792
   0.68804605  0.45844381  0.34401393
   0.18981883  0.61225033  0.16629657
   0.19294415  0.79914340  0.78881155
   0.44445484  0.12645722  0.70038522
   0.93051998  0.62331914  0.29963123
   0.31545049  0.22136433  0.87591870
   0.31512801  0.87476767  0.56682128
   0.81678098  0.22182805  0.87583919
   0.81152539  0.54140289  0.65579789
   0.55943506  0.52816126  0.12422440
   0.56793336  0.04972801  0.78893605
   0.18856225  0.28738353  0.25538613
   0.80985569  0.87538131  0.43302638
   0.56935783  0.37649241  0.70041147
   0.05939886  0.02791342  0.12431797
   0.31162349  0.54108229  0.65585231
   0.56315263  0.20850808  0.34407685
   0.18821765  0.95821517  0.61143452
   0.30561534  0.37377962  0.29962671
   0.43656725  0.79119552  0.65587892
   0.19297143  0.29860398  0.78878964
   0.06531908  0.36337533  0.16627976
   0.69421867  0.62659733  0.70037706
   0.31148696  0.54151912  0.38844757
   0.06646185  0.72130392  0.87603138
   0.93524271  0.63720567  0.83408276
   0.31860544  0.54983019  0.78894993
   0.30621900  0.20044362  0.21116082
   0.06566403  0.70966680  0.47771753
   0.55610200  0.20085848  0.21112227
   0.31201420  0.21319271  0.74464668
   0.06935956  0.37671004  0.70045655
   0.18500587  0.63708067  0.83383433
   0.06817952  0.04934997  0.78895851
   0.44014539  0.12480556  0.56685605
   0.93668277  0.29135864  0.65576837
   0.80607946  0.20106072  0.21111880
   0.93124984  0.95140285  0.21130750
   0.94013780  0.62505340  0.56681624
   0.80930320  0.38680756  0.83390516
   0.19429826  0.62658207  0.70036061
   0.81018099  0.88704527  0.83388287
   0.68669824  0.29121268  0.65590831
   0.31329353  0.20814686  0.61151392
   0.43669854  0.46280670  0.74462348
   0.43650676  0.79143679  0.38844460
   0.68634305  0.96291300  0.74461261
   0.80597678  0.70111239  0.21114274
   0.81333366  0.70830615  0.61150565
   0.43689900  0.78113212  0.12417731
   0.31165609  0.71265523  0.74465729
   0.31834681  0.04923362  0.78882809
   0.81145528  0.54181186  0.38840191
   0.68433448  0.29007027  0.52228950
   0.69339812  0.79957083  0.78885108
   0.18856705  0.78735496  0.25540167
   0.69017094  0.11295976  0.16633835
   0.69047216  0.95983069  0.47768646
   0.93836196  0.95892055  0.34405746
   0.80934084  0.03990886  0.52231081
   0.68437294  0.62502318  0.43301329
   0.43827095  0.45859317  0.34409881
   0.81188155  0.21301494  0.74452347
   0.43914890  0.96910694  0.87574422
   0.56520475  0.87469336  0.56681058
   0.80982606  0.02925183  0.12424231
   0.43059501  0.62346923  0.29957926
   0.81631059  0.72168909  0.87605670
   0.68825890  0.45821165  0.61146934
   0.55972036  0.38704057  0.83383123
   0.80562820  0.37350214  0.29953562
   0.18631647  0.29146442  0.38840430
   0.81809303  0.54965202  0.78896681
   0.18450254  0.79006680  0.52236508
   0.30557903  0.87376830  0.29961909
   0.18091033  0.95142130  0.21129872
   0.18699169  0.46290781  0.74465887
   0.43434152  0.28995881  0.52221046
   0.06316082  0.70859109  0.34402802
   0.18674331  0.79099623  0.65580364
   0.44271787  0.79957825  0.78875881
   0.68441107  0.12505421  0.43301393
   0.93436537  0.78955134  0.52231259
   0.69008127  0.61290463  0.16639314
   0.81316377  0.70861974  0.34406295
   0.93672949  0.46291751  0.74466325
   0.18832477  0.45857283  0.34409520
   0.56859426  0.55028557  0.78882239
   0.56588431  0.36336996  0.16609865
   0.56315791  0.70848467  0.34407033
   0.55568124  0.37355570  0.29960097
   0.18900843  0.46961981  0.87585655
   0.18997759  0.11225395  0.16627367
   0.44297074  0.29896665  0.78881195
   0.68843620  0.78741240  0.25541778
   0.93578299  0.13668779  0.83376560
   0.44053205  0.95974851  0.47768341
   0.56634689  0.72138768  0.87598840
   0.19036417  0.45984134  0.47769582
   0.93533222  0.28057298  0.12441090
   0.31152029  0.04151091  0.38844327
   0.06173444  0.04091057  0.65589753
   0.55996083  0.37511299  0.43306527
   0.68628189  0.46274012  0.74464027
   0.56196392  0.21322893  0.74462150
   0.94450503  0.12670175  0.70038522
   0.56165692  0.04106594  0.65583586
   0.55934668  0.54009024  0.52229954
   0.18063205  0.12350038  0.29957521
   0.43983361  0.11151803  0.16619022
   0.68048450  0.62333294  0.29953633
   0.93052864  0.12335260  0.29962351
   0.81519364  0.37490258  0.56689801
   0.05554676  0.87358634  0.29958671
   0.19016534  0.62490448  0.56690412
   0.94268744  0.79906128  0.78885889
   0.31027644  0.38693200  0.83406110
   0.93931491  0.47035113  0.87579112
   0.43548119  0.63802602  0.83388891
   0.06317711  0.20858346  0.34403688
   0.18921169  0.96943240  0.87574960
   0.93560418  0.78042844  0.12442042
   0.68646425  0.79156636  0.38842208
   0.93670986  0.79120392  0.65585482
   0.93965182  0.11288026  0.16634107
   0.43656649  0.29126630  0.65593626
   0.05653457  0.20104871  0.21118524
   0.68127464  0.95131087  0.21125268
   0.18063042  0.62349734  0.29956759
   0.81929350  0.87645910  0.70039576
   0.94440131  0.62665871  0.70046652
   0.19432611  0.12656448  0.70038219
   0.94058654  0.45963761  0.47761741
   0.81326326  0.20814310  0.61150774
   0.18527820  0.62511449  0.43306744
   0.43064437  0.12345077  0.29958555
   0.68051577  0.12335279  0.29953650
   0.56140256  0.54151929  0.38844051
   0.81314762  0.20866927  0.34405774
   0.43829375  0.47002472  0.87565880
   0.55996334  0.88745124  0.83398291
   0.31557873  0.20976821  0.47762823
   0.19032487  0.95978935  0.47768110
   0.05981154  0.88709768  0.83392603
   0.05940876  0.53990868  0.52226973
   0.94057552  0.95962318  0.47759821
   0.06327820  0.70816703  0.61152285
   0.55934315  0.04005999  0.52225610
   0.69311330  0.29903428  0.78869452
   0.81573562  0.36271634  0.16631598
   0.43479283  0.12498914  0.43304639
   0.06561887  0.20967505  0.47771415
   0.31173336  0.04111748  0.65586216
   0.43430405  0.78986383  0.52221275
   0.18514738  0.13711854  0.83391023
   0.18593073  0.28043820  0.12433288
   0.93828100  0.45886673  0.34406076
   0.56589604  0.86342452  0.16608790
   0.30615832  0.70040484  0.21117156
   0.93953588  0.61282759  0.16637249
   0.18830483  0.45827868  0.61147670
   0.06958645  0.87661374  0.70026795
   0.06170598  0.54112998  0.65589962
   0.30918946  0.52861445  0.12404746
   0.93640809  0.79175991  0.38845321
   0.94301466  0.29853129  0.78876991
   0.18654813  0.29116603  0.65587374
   0.93829604  0.95817158  0.61150619
   0.81204711  0.71270046  0.74468872
   0.68850246  0.28733884  0.25540604
   0.06192695  0.71287180  0.74471049
   0.68116120  0.45127821  0.21126499
   0.81550925  0.20970692  0.47768950