unknown system                          
            1
     9.726678    0.000000    0.000000
     0.000000    8.423550    0.000000
     0.000000    0.000000   45.000000
   Fe   Mn
 273  15
Direct configuration=     1
   0.18800394  0.62527432  0.65484598
   0.43686367  0.79792943  0.87524396
   0.43728035  0.45689678  0.56567301
   0.06266897  0.03732829  0.38933742
   0.43760011  0.28291723  0.25611010
   0.68744348  0.79801309  0.87521309
   0.43730259  0.29139051  0.61072773
   0.81191121  0.70977395  0.69963565
   0.93686499  0.28227837  0.25614131
   0.43835598  0.77968557  0.12452190
   0.56299363  0.19758417  0.21183290
   0.06270979  0.86757485  0.30058005
   0.81320170  0.52980494  0.12475389
   0.56241063  0.20515175  0.47846407
   0.06287927  0.87489880  0.65482140
   0.31217894  0.38051550  0.78812359
   0.06216940  0.36495715  0.16704076
   0.56218090  0.71007063  0.69953654
   0.68739471  0.45292974  0.34509195
   0.18772504  0.46344445  0.83309492
   0.43728648  0.78265375  0.25612810
   0.06262777  0.53678075  0.38938568
   0.18797130  0.11697468  0.30037847
   0.93818189  0.11726561  0.30041062
   0.06294820  0.04510537  0.74379889
   0.43796960  0.44694567  0.21167896
   0.68821103  0.44784595  0.21163578
   0.43787427  0.79542728  0.74383472
   0.56252912  0.37275831  0.52157622
   0.18804183  0.94735619  0.21178728
   0.68754935  0.12097388  0.43438482
   0.31224192  0.03230873  0.25611733
   0.81240647  0.87259809  0.52155329
   0.18734175  0.61435764  0.16686618
   0.31236061  0.20525757  0.47849056
   0.93719976  0.45279336  0.34514062
   0.43735258  0.61749449  0.30042208
   0.56203671  0.88051700  0.78812151
   0.31294629  0.21295458  0.83294682
   0.68689133  0.61503364  0.16689185
   0.31276254  0.37074299  0.43443916
   0.68733017  0.11401599  0.16699472
   0.31318697  0.02982166  0.12478566
   0.93691594  0.78233614  0.25610432
   0.68675172  0.29829985  0.87536432
   0.18698466  0.45254754  0.34516695
   0.18785254  0.12236563  0.52162833
   0.81186994  0.70292675  0.34510074
   0.81304246  0.37477339  0.65475433
   0.81222588  0.86457325  0.16687081
   0.06248571  0.20714619  0.56564463
   0.81221469  0.88065724  0.78821805
   0.56207619  0.03673680  0.38924637
   0.06288592  0.54511397  0.74373633
   0.06355244  0.69710571  0.21178184
   0.68729394  0.13007165  0.78808295
   0.81200455  0.03246918  0.25608474
   0.56197006  0.04853831  0.87531612
   0.68842895  0.94809880  0.21178447
   0.81222503  0.37114713  0.43442478
   0.06264091  0.54151095  0.61075468
   0.18750382  0.29177662  0.61090096
   0.81207617  0.54846516  0.87517230
   0.81329642  0.71357954  0.83310619
   0.93711210  0.95342656  0.34521486
   0.18737207  0.12063318  0.43437272
   0.43742000  0.45522539  0.47843591
   0.68710661  0.78265660  0.25603961
   0.18723511  0.79124039  0.61064530
   0.06270954  0.20535055  0.47852484
   0.93842483  0.61735235  0.30041878
   0.18805654  0.12532394  0.65489533
   0.18819713  0.44682086  0.21182915
   0.43711999  0.46057995  0.69955067
   0.93723079  0.96005905  0.69961144
   0.06255221  0.21369804  0.83296833
   0.06246698  0.70526063  0.47846568
   0.18727688  0.95543690  0.47851047
   0.56214471  0.36424970  0.16695386
   0.43786641  0.94759150  0.21183410
   0.43764112  0.27963152  0.12471563
   0.31238271  0.20279326  0.34511923
   0.06232502  0.04151649  0.61067607
   0.93752823  0.78661855  0.38938167
   0.31200098  0.36463894  0.16694078
   0.81222907  0.87055063  0.43431073
   0.93765834  0.96340044  0.83319733
   0.43725029  0.12083291  0.43439878
   0.31222849  0.04167354  0.61076140
   0.31250866  0.04524396  0.74380465
   0.81166694  0.38035929  0.78812048
   0.31250945  0.87071232  0.43441393
   0.93745766  0.11511192  0.16695221
   0.81267902  0.36421999  0.16690823
   0.93726297  0.45992709  0.69952201
   0.18734277  0.28682897  0.38933360
   0.43760144  0.78711064  0.38951283
   0.31258155  0.04797687  0.87522066
   0.93745366  0.62261884  0.52155836
   0.06204770  0.21039606  0.69966582
   0.31204878  0.88067948  0.78818302
   0.31288814  0.36727248  0.30042796
   0.56259613  0.53002657  0.12474115
   0.06245004  0.37293431  0.52160003
   0.56247622  0.37063386  0.43443868
   0.68732889  0.62088853  0.43440070
   0.18759589  0.96295064  0.83304275
   0.68707655  0.28262655  0.25615713
   0.06347741  0.52940613  0.12469294
   0.81309242  0.19758121  0.21175573
   0.93751940  0.45509481  0.47855534
   0.68744062  0.45684254  0.56558615
   0.93745850  0.62071956  0.43440883
   0.56223526  0.87086248  0.43446807
   0.18760203  0.77927414  0.12475144
   0.31233258  0.87248069  0.52150780
   0.06344906  0.19721498  0.21181126
   0.93755886  0.46369015  0.83302147
   0.56262053  0.71342610  0.83295272
   0.81301295  0.87477282  0.65492052
   0.43746657  0.62263442  0.52153545
   0.56181523  0.54145325  0.61070736
   0.06194417  0.04822010  0.87519565
   0.06210464  0.38043458  0.78813224
   0.93783771  0.79531256  0.74385463
   0.43713475  0.95686051  0.56560938
   0.93765548  0.28669082  0.38945919
   0.81256811  0.37303241  0.52158986
   0.56257531  0.36732574  0.30034703
   0.43687924  0.63056878  0.78814359
   0.06209949  0.54815951  0.87520449
   0.93733768  0.12077392  0.43466151
   0.06220069  0.86436724  0.16692308
   0.31212156  0.54846544  0.87516042
   0.68724190  0.29090260  0.61076993
   0.56213263  0.54767062  0.87515531
   0.56281531  0.04551718  0.74381453
   0.93773592  0.29525027  0.74382102
   0.93810845  0.12484171  0.65492771
   0.18744118  0.95689270  0.56569655
   0.43742978  0.79137369  0.61060850
   0.31262561  0.20727665  0.56573327
   0.06256088  0.70682642  0.56557744
   0.93746546  0.95488752  0.47843752
   0.93724043  0.29092083  0.61070907
   0.18705302  0.46049372  0.69954879
   0.93797108  0.95650513  0.56564341
   0.06227077  0.53296399  0.25605961
   0.06209776  0.71003554  0.69952093
   0.93715033  0.63089366  0.78813896
   0.43732083  0.62075799  0.43448581
   0.31230360  0.37264227  0.52158528
   0.56200246  0.04124564  0.61074631
   0.56267567  0.86758231  0.30048350
   0.31261469  0.70683928  0.56555433
   0.68718271  0.12262286  0.52161836
   0.18662289  0.95253279  0.34514880
   0.81228417  0.20741142  0.56573074
   0.06308845  0.37513652  0.65495073
   0.18726578  0.11542131  0.16690970
   0.93810166  0.44729378  0.21168889
   0.56236583  0.53662417  0.38934208
   0.43742031  0.95554566  0.47847883
   0.31296438  0.86727754  0.30045248
   0.43785202  0.62503056  0.65473882
   0.18717376  0.13066452  0.78814930
   0.93687463  0.61449875  0.16669977
   0.43813576  0.46295342  0.83299263
   0.06235180  0.03245536  0.25618623
   0.93831829  0.94714065  0.21169436
   0.43702991  0.45288636  0.34514160
   0.31321815  0.52901523  0.12470773
   0.43754679  0.29806405  0.87537902
   0.43694980  0.13027846  0.78812801
   0.81196182  0.20337017  0.34522078
   0.43777738  0.61461569  0.16678009
   0.68735312  0.78598171  0.38943760
   0.68727891  0.96030310  0.69959896
   0.18816702  0.27901520  0.12463845
   0.06260559  0.71325369  0.83295153
   0.18700104  0.28255417  0.25623058
   0.81288859  0.03061554  0.12473318
   0.68766004  0.28646882  0.38947916
   0.68766775  0.77972151  0.12446865
   0.81259691  0.21299008  0.83293543
   0.31222054  0.71029296  0.69956149
   0.06200986  0.70260300  0.34516647
   0.43701941  0.11419609  0.16694676
   0.56298804  0.69702737  0.21182890
   0.18738470  0.79832103  0.87526891
   0.81252048  0.70735024  0.56563978
   0.31209771  0.21034596  0.69953984
   0.43775260  0.12544199  0.65497448
   0.31230483  0.70307635  0.34520098
   0.68736532  0.63038904  0.78812774
   0.43746405  0.12271690  0.52161427
   0.56252618  0.70518029  0.47853945
   0.56201761  0.03279562  0.25623313
   0.68788195  0.62464679  0.65489522
   0.06277863  0.87265522  0.52154360
   0.31218639  0.71364443  0.83310423
   0.93716854  0.79137717  0.61072464
   0.31185043  0.53288682  0.25616745
   0.56208907  0.53264854  0.25610907
   0.93716154  0.13066973  0.78825001
   0.18772087  0.29502409  0.74380905
   0.31323802  0.19729723  0.21173754
   0.43724094  0.96026889  0.69961401
   0.43740544  0.96375687  0.83318627
   0.68852117  0.27977404  0.12471986
   0.68722722  0.95243269  0.34513865
   0.18744565  0.45512847  0.47845414
   0.18757116  0.61725433  0.30043482
   0.56231933  0.70716859  0.56567906
   0.81234684  0.54133580  0.61068188
   0.56312668  0.02954105  0.12465529
   0.68777369  0.12505123  0.65489815
   0.18767323  0.78724905  0.38932021
   0.93786865  0.45655310  0.56569705
   0.81229429  0.21015903  0.69958506
   0.31286117  0.37513415  0.65477061
   0.31242434  0.03700490  0.38940240
   0.18750664  0.62062434  0.43437520
   0.81307130  0.03684970  0.38934165
   0.68731280  0.46043038  0.69949921
   0.93793869  0.27948146  0.12464931
   0.43769364  0.28651742  0.38937064
   0.81208870  0.04801777  0.87522436
   0.43809752  0.29580542  0.74379351
   0.56216361  0.70265807  0.34521889
   0.93693352  0.79830126  0.87530836
   0.31272168  0.54501669  0.74374678
   0.43742887  0.11733590  0.30047944
   0.56177481  0.20282517  0.34513571
   0.31243480  0.86459689  0.16704703
   0.81296546  0.54511976  0.74374736
   0.68716888  0.62264263  0.52166824
   0.56182646  0.21081411  0.69968757
   0.56241953  0.87250022  0.52156806
   0.68742931  0.45511886  0.47849869
   0.93856871  0.77939993  0.12465913
   0.81306013  0.36709978  0.30053918
   0.68778201  0.96331956  0.83304762
   0.68773420  0.29534943  0.74386040
   0.81223877  0.53240345  0.25607555
   0.81280385  0.86757080  0.30036158
   0.06305479  0.02987038  0.12481186
   0.31284182  0.53679254  0.38931380
   0.06277289  0.36704507  0.30030229
   0.31351499  0.69726819  0.21182580
   0.81224381  0.20529420  0.47854319
   0.18723286  0.96027117  0.69958478
   0.93772932  0.29831874  0.87516782
   0.18767820  0.62253045  0.52153499
   0.81304928  0.04499825  0.74381421
   0.56267607  0.20718196  0.56561067
   0.18661963  0.29857727  0.87513465
   0.56304799  0.87539635  0.65477220
   0.81234387  0.70509567  0.47850712
   0.31305253  0.87518355  0.65487153
   0.68737159  0.79155624  0.61068107
   0.18701240  0.63081439  0.78809260
   0.18751553  0.45680466  0.56557774
   0.06251969  0.87024678  0.43438502
   0.06199032  0.88093176  0.78824318
   0.93775389  0.62463555  0.65468520
   0.68762586  0.95538084  0.47859828
   0.31243111  0.70533546  0.47846238
   0.56217940  0.38061486  0.78809247
   0.68710606  0.46280722  0.83306935
   0.56290405  0.37508583  0.65483998
   0.31232833  0.54159241  0.61067292
   0.06210931  0.37085568  0.43431832
   0.56263068  0.54468721  0.74385083
   0.81290937  0.69732388  0.21205747
   0.68773483  0.79586930  0.74393965
   0.18759977  0.79547477  0.74391622
   0.68776964  0.61720476  0.30035210
   0.56225478  0.86412441  0.16616473
   0.68760125  0.95682412  0.56554571
   0.81254118  0.53680144  0.38931366
   0.81259337  0.04175907  0.61092928
   0.68768645  0.11714274  0.30048183
   0.06226162  0.20346847  0.34531518
   0.56258130  0.21314843  0.83371882
   0.18705784  0.78250539  0.25599066
   0.43744147  0.95251937  0.34511272
   0.93731824  0.12247468  0.52151370
Direct configuration=     2
   0.18795388  0.62533024  0.65483437
   0.43686069  0.79783560  0.87522873
   0.43727519  0.45690034  0.56568017
   0.06264906  0.03730060  0.38935311
   0.43763981  0.28292867  0.25611314
   0.68747801  0.79792161  0.87519957
   0.43732394  0.29138852  0.61071279
   0.81195656  0.70979492  0.69961827
   0.93689737  0.28229956  0.25614272
   0.43831758  0.77979015  0.12453426
   0.56294235  0.19761409  0.21183396
   0.06267496  0.86758977  0.30059759
   0.81318259  0.52981121  0.12475733
   0.56240712  0.20512557  0.47846967
   0.06285003  0.87496630  0.65481150
   0.31221528  0.38042653  0.78811733
   0.06221326  0.36489936  0.16704461
   0.56221415  0.71009640  0.69951742
   0.68741397  0.45285554  0.34510500
   0.18769097  0.46349934  0.83307771
   0.43734331  0.78265536  0.25613467
   0.06262551  0.53675845  0.38939765
   0.18793818  0.11698412  0.30039525
   0.93819057  0.11726230  0.30042415
   0.06290238  0.04512305  0.74379904
   0.43794251  0.44701530  0.21169472
   0.68816272  0.44789708  0.21165115
   0.43782906  0.79540243  0.74382783
   0.56253588  0.37276779  0.52156578
   0.18800846  0.94744301  0.21180088
   0.68753260  0.12101013  0.43437832
   0.31228532  0.03234478  0.25611288
   0.81241142  0.87260226  0.52154453
   0.18736875  0.61428866  0.16688193
   0.31236815  0.20522572  0.47849837
   0.93720130  0.45276595  0.34515246
   0.43730005  0.61750769  0.30044196
   0.56206363  0.88046007  0.78811322
   0.31291753  0.21301873  0.83294354
   0.68693579  0.61493239  0.16690006
   0.31274446  0.37078486  0.43443170
   0.68738303  0.11394761  0.16700270
   0.31314753  0.02985300  0.12479133
   0.93694458  0.78236448  0.25611042
   0.68675999  0.29821467  0.87535229
   0.18701388  0.45252638  0.34518219
   0.18784598  0.12237652  0.52161688
   0.81191415  0.70286956  0.34511824
   0.81301444  0.37481962  0.65474694
   0.81228278  0.86452763  0.16687438
   0.06247508  0.20714285  0.56564807
   0.81224019  0.88059817  0.78819982
   0.56209576  0.03675023  0.38927829
   0.06283784  0.54508924  0.74374185
   0.06350546  0.69716278  0.21179533
   0.68732977  0.12998676  0.78806998
   0.81206399  0.03250497  0.25608461
   0.56197879  0.04851062  0.87531615
   0.68840065  0.94818054  0.21180366
   0.81222300  0.37118237  0.43441591
   0.06267868  0.54147041  0.61073552
   0.18751672  0.29177006  0.61088000
   0.81211179  0.54844383  0.87516667
   0.81327106  0.71362075  0.83309813
   0.93710998  0.95335113  0.34523062
   0.18737196  0.12067070  0.43437096
   0.43741599  0.45520600  0.47844054
   0.68715961  0.78267518  0.25605177
   0.18727045  0.79120873  0.61063236
   0.06271383  0.20532382  0.47853308
   0.93839443  0.61736310  0.30043344
   0.18800929  0.12536426  0.65487804
   0.18813697  0.44694705  0.21184312
   0.43713443  0.46060622  0.69953017
   0.93727094  0.96007288  0.69959705
   0.06252857  0.21372102  0.83296395
   0.06248090  0.70524789  0.47847395
   0.18728912  0.95542059  0.47851931
   0.56219566  0.36419249  0.16695071
   0.43781279  0.94767717  0.21184648
   0.43761133  0.27973982  0.12473265
   0.31244443  0.20273321  0.34513876
   0.06235533  0.04148846  0.61065572
   0.93752975  0.78663107  0.38940393
   0.31202487  0.36460204  0.16694473
   0.81224417  0.87058119  0.43430598
   0.93766045  0.96345904  0.83318241
   0.43725972  0.12086488  0.43439349
   0.31226943  0.04163721  0.61073987
   0.31245440  0.04522992  0.74380634
   0.81171758  0.38027885  0.78811126
   0.31249315  0.87074291  0.43440870
   0.93749251  0.11503086  0.16696325
   0.81272749  0.36417662  0.16691335
   0.93729135  0.45995159  0.69950996
   0.18732953  0.28679665  0.38935131
   0.43758235  0.78711416  0.38952502
   0.31259074  0.04792862  0.87521043
   0.93746378  0.62264152  0.52154779
   0.06211649  0.21039614  0.69964601
   0.31207448  0.88061974  0.78816610
   0.31282335  0.36728230  0.30044660
   0.56255739  0.53006010  0.12474749
   0.06244578  0.37294905  0.52158996
   0.56249269  0.37066776  0.43443566
   0.68732351  0.62093702  0.43439958
   0.18756861  0.96301923  0.83302752
   0.68713507  0.28264183  0.25616472
   0.06344746  0.52946121  0.12469916
   0.81307088  0.19763319  0.21176652
   0.93753058  0.45507139  0.47856069
   0.68742357  0.45683818  0.56559318
   0.93745248  0.62075177  0.43440983
   0.56225670  0.87088402  0.43446315
   0.18756707  0.77941849  0.12476256
   0.31234161  0.87251907  0.52150376
   0.06339330  0.19728573  0.21182188
   0.93755629  0.46375361  0.83300549
   0.56259255  0.71349080  0.83294838
   0.81293416  0.87483073  0.65491056
   0.43746159  0.62267510  0.52152726
   0.56185010  0.54144185  0.61069039
   0.06196056  0.04816285  0.87518380
   0.06213660  0.38034970  0.78811442
   0.93781882  0.79531189  0.74384691
   0.43714127  0.95684312  0.56561928
   0.93763441  0.28667134  0.38947898
   0.81257810  0.37303628  0.52157900
   0.56253287  0.36733066  0.30036557
   0.43690686  0.63050201  0.78813325
   0.06212681  0.54811078  0.87520269
   0.93735018  0.12079838  0.43465739
   0.06225027  0.86433966  0.16693249
   0.31213096  0.54844939  0.87515543
   0.68724664  0.29092252  0.61075131
   0.56214939  0.54762551  0.87515373
   0.56276672  0.04552525  0.74381186
   0.93773619  0.29523690  0.74381992
   0.93806315  0.12491296  0.65491793
   0.18741782  0.95688292  0.56570617
   0.43744064  0.79134721  0.61059263
   0.31262566  0.20726555  0.56573707
   0.06254775  0.70678078  0.56558534
   0.93747227  0.95487453  0.47845478
   0.93727953  0.29093543  0.61069375
   0.18710286  0.46051388  0.69953675
   0.93797631  0.95649023  0.56564134
   0.06227616  0.53293536  0.25606513
   0.06213307  0.71007593  0.69950404
   0.93718554  0.63079208  0.78812317
   0.43732859  0.62077508  0.43447910
   0.31229808  0.37266750  0.52157470
   0.56200136  0.04124552  0.61073168
   0.56261996  0.86757131  0.30049902
   0.31262423  0.70680634  0.56556846
   0.68718336  0.12264150  0.52160286
   0.18666031  0.95248324  0.34516062
   0.81228096  0.20740232  0.56573178
   0.06302576  0.37520296  0.65493106
   0.18729041  0.11533557  0.16691936
   0.93809844  0.44737081  0.21170240
   0.56234639  0.53661677  0.38936454
   0.43741604  0.95550883  0.47848752
   0.31292913  0.86729783  0.30047004
   0.43782396  0.62507195  0.65472619
   0.18720578  0.13056982  0.78813196
   0.93692846  0.61442260  0.16671521
   0.43809699  0.46305379  0.83298202
   0.06237376  0.03247021  0.25618951
   0.93827633  0.94723200  0.21170727
   0.43706706  0.45285473  0.34516034
   0.31316651  0.52904454  0.12471494
   0.43756909  0.29795280  0.87537065
   0.43693971  0.13019838  0.78811306
   0.81197929  0.20332599  0.34523605
   0.43783335  0.61454029  0.16678864
   0.68733693  0.78602095  0.38945566
   0.68729379  0.96032991  0.69957912
   0.18812738  0.27910852  0.12465892
   0.06258612  0.71330283  0.83294401
   0.18704664  0.28256895  0.25623012
   0.81286302  0.03063184  0.12474267
   0.68763956  0.28646801  0.38949387
   0.68766863  0.77982067  0.12447463
   0.81258399  0.21304833  0.83293406
   0.31224543  0.71029019  0.69954399
   0.06203670  0.70254631  0.34518358
   0.43705968  0.11411325  0.16695647
   0.56293417  0.69706192  0.21183706
   0.18738537  0.79822707  0.87525276
   0.81252295  0.70729288  0.56564610
   0.31213126  0.21036387  0.69951975
   0.43769602  0.12546585  0.65495466
   0.31232063  0.70299538  0.34521570
   0.68737470  0.63033588  0.78811591
   0.43746148  0.12272575  0.52160480
   0.56251359  0.70516113  0.47854113
   0.56207805  0.03281955  0.25622771
   0.68784472  0.62471149  0.65488251
   0.06277411  0.87267002  0.52153288
   0.31214270  0.71368235  0.83309666
   0.93720353  0.79134410  0.61071073
   0.31192873  0.53285696  0.25616808
   0.56216999  0.53266698  0.25610717
   0.93717109  0.13058437  0.78823124
   0.18767234  0.29501118  0.74380794
   0.31318632  0.19736110  0.21175017
   0.43726244  0.96029354  0.69959644
   0.43736635  0.96385498  0.83317423
   0.68849741  0.27987621  0.12473669
   0.68728105  0.95236687  0.34515421
   0.18744613  0.45513179  0.47846605
   0.18755482  0.61726845  0.30045252
   0.56231324  0.70712905  0.56568384
   0.81234983  0.54132917  0.61066921
   0.56308733  0.02958274  0.12465129
   0.68773648  0.12512112  0.65488466
   0.18766335  0.78720326  0.38934015
   0.93787571  0.45656025  0.56570393
   0.81233126  0.21017828  0.69956477
   0.31280642  0.37517666  0.65475700
   0.31240434  0.03701378  0.38942160
   0.18750798  0.62066169  0.43437767
   0.81303591  0.03683050  0.38936105
   0.68733534  0.46045942  0.69948142
   0.93792774  0.27958535  0.12466799
   0.43767897  0.28650570  0.38938467
   0.81212747  0.04796868  0.87521591
   0.43804638  0.29575698  0.74378580
   0.56223423  0.70258717  0.34523673
   0.93697368  0.79819115  0.87529232
   0.31265360  0.54499053  0.74374931
   0.43738169  0.11734790  0.30049489
   0.56183511  0.20276961  0.34515650
   0.31243564  0.86457770  0.16704645
   0.81292227  0.54511959  0.74374783
   0.68717421  0.62267516  0.52165405
   0.56187420  0.21081926  0.69966623
   0.56241978  0.87251996  0.52155985
   0.68741542  0.45510565  0.47850709
   0.93854548  0.77953986  0.12467242
   0.81306408  0.36708297  0.30055178
   0.68776486  0.96341217  0.83303845
   0.68770662  0.29531902  0.74385548
   0.81229663  0.53239129  0.25607809
   0.81280596  0.86757077  0.30038011
   0.06304109  0.02991114  0.12481597
   0.31281982  0.53678755  0.38933765
   0.06274873  0.36704514  0.30032464
   0.31344385  0.69732969  0.21183353
   0.81224588  0.20526590  0.47854819
   0.18723406  0.96028418  0.69956500
   0.93776506  0.29818360  0.87515638
   0.18768354  0.62255439  0.52152755
   0.81302323  0.04499374  0.74381433
   0.56266420  0.20716545  0.56561893
   0.18661917  0.29846768  0.87511987
   0.56301121  0.87543386  0.65476366
   0.81232569  0.70508912  0.47851168
   0.31298968  0.87522725  0.65485339
   0.68737506  0.79151565  0.61066378
   0.18703506  0.63070748  0.78807797
   0.18751959  0.45680854  0.56559099
   0.06251872  0.87027527  0.43437484
   0.06202753  0.88084182  0.78822815
   0.93773369  0.62470015  0.65467786
   0.68761415  0.95533851  0.47860006
   0.31244504  0.70531119  0.47846967
   0.56220053  0.38055986  0.78808043
   0.68708823  0.46289589  0.83306282
   0.56284832  0.37513727  0.65482568
   0.31234031  0.54156659  0.61065362
   0.06212292  0.37088587  0.43430870
   0.56258357  0.54462186  0.74384631
   0.81285834  0.69740554  0.21206834
   0.68775593  0.79583825  0.74393242
   0.18760806  0.79547759  0.74390493
   0.68776143  0.61719586  0.30037391
   0.56231301  0.86409164  0.16618099
   0.68757579  0.95681718  0.56554851
   0.81251595  0.53679181  0.38932851
   0.81264815  0.04173478  0.61091645
   0.68763400  0.11716229  0.30049858
   0.06227114  0.20339256  0.34532432
   0.56253280  0.21319575  0.83370540
   0.18709215  0.78249888  0.25599458
   0.43748951  0.95247619  0.34513498
   0.93732861  0.12248871  0.52150585
Direct configuration=     3
   0.18780370  0.62549801  0.65479955
   0.43685174  0.79755411  0.87518304
   0.43725968  0.45691104  0.56570167
   0.06258933  0.03721754  0.38940019
   0.43775890  0.28296299  0.25612227
   0.68758161  0.79764717  0.87515901
   0.43738800  0.29138254  0.61066795
   0.81209259  0.70985785  0.69956616
   0.93699450  0.28236312  0.25614695
   0.43820239  0.78010387  0.12457136
   0.56278849  0.19770386  0.21183714
   0.06257047  0.86763454  0.30065019
   0.81312529  0.52983001  0.12476765
   0.56239660  0.20504701  0.47848647
   0.06276230  0.87516882  0.65478179
   0.31232429  0.38015960  0.78809855
   0.06234483  0.36472602  0.16705616
   0.56231392  0.71017370  0.69946007
   0.68747175  0.45263293  0.34514415
   0.18758877  0.46366400  0.83302610
   0.43751383  0.78266018  0.25615438
   0.06261874  0.53669156  0.38943358
   0.18783882  0.11701243  0.30044560
   0.93821659  0.11725238  0.30046477
   0.06276494  0.04517609  0.74379950
   0.43786127  0.44722418  0.21174202
   0.68801779  0.44805046  0.21169724
   0.43769343  0.79532791  0.74380717
   0.56255618  0.37279623  0.52153445
   0.18790836  0.94770349  0.21184165
   0.68748232  0.12111889  0.43435879
   0.31241552  0.03245294  0.25609953
   0.81242628  0.87261479  0.52151826
   0.18744977  0.61408173  0.16692917
   0.31239078  0.20513019  0.47852180
   0.93720591  0.45268373  0.34518798
   0.43714243  0.61754728  0.30050159
   0.56214440  0.88028930  0.78808837
   0.31283125  0.21321118  0.83293367
   0.68706916  0.61462862  0.16692468
   0.31269021  0.37091046  0.43440933
   0.68754162  0.11374248  0.16702665
   0.31302920  0.02994702  0.12480831
   0.93703050  0.78244951  0.25612872
   0.68678482  0.29795913  0.87531619
   0.18710156  0.45246288  0.34522792
   0.18782632  0.12240918  0.52158256
   0.81204678  0.70269800  0.34517077
   0.81293038  0.37495830  0.65472478
   0.81245349  0.86439078  0.16688507
   0.06244318  0.20713283  0.56565840
   0.81231670  0.88042096  0.78814512
   0.56215448  0.03679051  0.38937404
   0.06269358  0.54501505  0.74375844
   0.06336453  0.69733398  0.21183582
   0.68743725  0.12973209  0.78803107
   0.81224230  0.03261235  0.25608421
   0.56200495  0.04842758  0.87531624
   0.68831575  0.94842578  0.21186124
   0.81221691  0.37128812  0.43438930
   0.06279198  0.54134879  0.61067804
   0.18755542  0.29175037  0.61081712
   0.81221865  0.54837984  0.87514978
   0.81319497  0.71374437  0.83307396
   0.93710362  0.95312486  0.34527788
   0.18737164  0.12078325  0.43436569
   0.43740397  0.45514781  0.47845442
   0.68731860  0.78273092  0.25608827
   0.18737648  0.79111375  0.61059353
   0.06272669  0.20524364  0.47855780
   0.93830323  0.61739536  0.30047741
   0.18786752  0.12548522  0.65482619
   0.18795647  0.44732560  0.21188505
   0.43717777  0.46068504  0.69946868
   0.93739138  0.96011438  0.69955390
   0.06245765  0.21378993  0.83295081
   0.06252264  0.70520969  0.47849877
   0.18732586  0.95537166  0.47854586
   0.56234852  0.36402084  0.16694127
   0.43765191  0.94793420  0.21188360
   0.43752198  0.28006472  0.12478370
   0.31262957  0.20255308  0.34519734
   0.06244627  0.04140434  0.61059466
   0.93753431  0.78666863  0.38947072
   0.31209653  0.36449133  0.16695660
   0.81228946  0.87067286  0.43429173
   0.93766679  0.96363482  0.83313763
   0.43728800  0.12096078  0.43437762
   0.31239222  0.04152821  0.61067529
   0.31229162  0.04518781  0.74381140
   0.81186949  0.38003752  0.78808359
   0.31244427  0.87083466  0.43439302
   0.93759706  0.11478767  0.16699638
   0.81287288  0.36404651  0.16692871
   0.93737648  0.46002509  0.69947379
   0.18728982  0.28669968  0.38940442
   0.43752506  0.78712473  0.38956158
   0.31261830  0.04778386  0.87517976
   0.93749411  0.62270958  0.52151609
   0.06232285  0.21039639  0.69958658
   0.31215160  0.88044052  0.78811535
   0.31262897  0.36731177  0.30050251
   0.56244117  0.53016071  0.12476650
   0.06243299  0.37299326  0.52155975
   0.56254210  0.37076948  0.43442659
   0.68730735  0.62108248  0.43439622
   0.18748677  0.96322499  0.83298183
   0.68731063  0.28268766  0.25618747
   0.06335761  0.52962646  0.12471782
   0.81300627  0.19778914  0.21179890
   0.93756411  0.45500111  0.47857673
   0.68737241  0.45682509  0.56561427
   0.93743439  0.62084839  0.43441282
   0.56232101  0.87094864  0.43444836
   0.18746219  0.77985154  0.12479590
   0.31236870  0.87263419  0.52149164
   0.06322603  0.19749799  0.21185374
   0.93754859  0.46394401  0.83295753
   0.56250861  0.71368490  0.83293534
   0.81269780  0.87500448  0.65488067
   0.43744663  0.62279715  0.52150271
   0.56195471  0.54140764  0.61063947
   0.06200972  0.04799109  0.87514823
   0.06223247  0.38009506  0.78806098
   0.93776213  0.79530988  0.74382376
   0.43716084  0.95679094  0.56564900
   0.93757120  0.28661292  0.38953836
   0.81260806  0.37304790  0.52154641
   0.56240554  0.36734543  0.30042119
   0.43698969  0.63030172  0.78810221
   0.06220878  0.54796457  0.87519730
   0.93738766  0.12087178  0.43464502
   0.06239899  0.86425690  0.16696072
   0.31215915  0.54840123  0.87514046
   0.68726085  0.29098229  0.61069547
   0.56219967  0.54749019  0.87514898
   0.56262093  0.04554945  0.74380386
   0.93773700  0.29519677  0.74381662
   0.93792726  0.12512672  0.65488860
   0.18734771  0.95685357  0.56573503
   0.43747322  0.79126778  0.61054500
   0.31262579  0.20723226  0.56574846
   0.06250836  0.70664388  0.56560906
   0.93749270  0.95483554  0.47850655
   0.93739683  0.29097921  0.61064781
   0.18725239  0.46057437  0.69950065
   0.93799197  0.95644550  0.56563512
   0.06229234  0.53284948  0.25608170
   0.06223898  0.71019713  0.69945340
   0.93729116  0.63048733  0.78807582
   0.43735188  0.62082635  0.43445897
   0.31228153  0.37274321  0.52154296
   0.56199805  0.04124517  0.61068778
   0.56245283  0.86753832  0.30054557
   0.31265285  0.70670753  0.56561084
   0.68718531  0.12269742  0.52155637
   0.18677258  0.95233457  0.34519607
   0.81227132  0.20737501  0.56573489
   0.06283769  0.37540228  0.65487207
   0.18736429  0.11507836  0.16694836
   0.93808876  0.44760188  0.21174291
   0.56228806  0.53659457  0.38943193
   0.43740325  0.95539834  0.47851361
   0.31282335  0.86735869  0.30052272
   0.43773980  0.62519613  0.65468830
   0.18730186  0.13028574  0.78807994
   0.93708993  0.61419413  0.16676155
   0.43798067  0.46335488  0.83295018
   0.06243963  0.03251478  0.25619935
   0.93815044  0.94750603  0.21174599
   0.43717852  0.45275983  0.34521657
   0.31301160  0.52913246  0.12473658
   0.43763598  0.29761908  0.87534555
   0.43690943  0.12995815  0.78806823
   0.81203170  0.20319346  0.34528188
   0.43800128  0.61431409  0.16681432
   0.68728834  0.78613865  0.38950986
   0.68733844  0.96041032  0.69951963
   0.18800846  0.27938850  0.12472031
   0.06252772  0.71345027  0.83292145
   0.18718344  0.28261329  0.25622876
   0.81278630  0.03068073  0.12477114
   0.68757810  0.28646556  0.38953802
   0.68767125  0.78011817  0.12449257
   0.81254522  0.21322310  0.83292997
   0.31232010  0.71028190  0.69949149
   0.06211721  0.70237625  0.34523492
   0.43718051  0.11386471  0.16698561
   0.56277256  0.69716557  0.21186155
   0.18738738  0.79794518  0.87520433
   0.81253036  0.70712077  0.56566504
   0.31223192  0.21041759  0.69945948
   0.43752628  0.12553745  0.65489519
   0.31236804  0.70275249  0.34525987
   0.68740284  0.63017639  0.78808039
   0.43745376  0.12275231  0.52157638
   0.56247583  0.70510364  0.47854618
   0.56225937  0.03289132  0.25621144
   0.68773304  0.62490558  0.65484438
   0.06276054  0.87271444  0.52150071
   0.31201165  0.71379609  0.83307395
   0.93730850  0.79124490  0.61066899
   0.31216363  0.53276738  0.25616996
   0.56241272  0.53272230  0.25610147
   0.93719974  0.13032829  0.78817490
   0.18752678  0.29497248  0.74380458