<?xml version="1.0" encoding="ISO-8859-1"?>
<modeling>
 <generator>
  <i name="program" type="string">vasp </i>
  <i name="version" type="string">5.4.4.18Apr17-6-g9f103f2a35  </i>
  <i name="subversion" type="string">(build Sep 27 2018 12:46:37) complex + VL-xray_ parallel </i>
  <i name="platform" type="string">LLNL_Quartz_ifc </i>
  <i name="date" type="string">2021 09 26 </i>
  <i name="time" type="string">23:23:34 </i>
 </generator>
 <incar>
  <i type="int" name="ISTART">     2</i>
  <i type="string" name="PREC">accurate</i>
  <i type="string" name="ALGO"> Fast</i>
  <i type="int" name="ICHARG">     2</i>
  <i type="int" name="INIWAV">     1</i>
  <i type="int" name="NELM">   100</i>
  <i type="int" name="NELMIN">     4</i>
  <i type="int" name="IBRION">     2</i>
  <i name="EDIFF">      0.00000100</i>
  <i type="int" name="NSW">     5</i>
  <i type="int" name="ISIF">     2</i>
  <i type="int" name="ISYM">     2</i>
  <i name="ENCUT">    450.00000000</i>
  <i name="POTIM">      0.25000000</i>
  <i type="string" name="LREAL"> Auto</i>
  <i type="int" name="ISMEAR">     0</i>
  <i name="SIGMA">      0.15000000</i>
  <i type="logical" name="LWAVE"> F  </i>
  <i type="logical" name="LCHARG"> F  </i>
  <i type="int" name="ICORELEVEL">     0</i>
  <i type="int" name="CLNT">     1</i>
  <i type="int" name="CLN">     1</i>
  <i type="int" name="INCAR     ">     0</i>
  <i name="CLZ">      0.00000000</i>
  <v type="int" name="KPOINT_BSE">    -1     0     0     0</v>
  <i type="int" name="NELM">   100</i>
 </incar>
 <structure name="primitive_cell" >
  <crystal>
   <varray name="basis" >
    <v>       9.72667804       0.00000000       0.00000000 </v>
    <v>       0.00000000       8.42355028       0.00000000 </v>
    <v>       0.00000000       0.00000000      45.00000000 </v>
   </varray>
   <i name="volume">   3686.99226691 </i>
   <varray name="rec_basis" >
    <v>       0.10281002       0.00000000       0.00000000 </v>
    <v>       0.00000000       0.11871479       0.00000000 </v>
    <v>       0.00000000       0.00000000       0.02222222 </v>
   </varray>
  </crystal>
  <varray name="positions" >
   <v>       0.06195767       0.03106282       0.12427182 </v>
   <v>       0.18285975       0.11237860       0.16659781 </v>
   <v>       0.05603678      -0.13443526       0.16683991 </v>
   <v>       0.18603216      -0.21216050       0.12412090 </v>
   <v>      -0.06558505      -0.21245310       0.12459713 </v>
   <v>      -0.06861763       0.11478160       0.16719749 </v>
   <v>      -0.18700679       0.03078255       0.12446389 </v>
   <v>       0.31108937       0.03147873       0.12438570 </v>
   <v>       0.18485256       0.28781565       0.12459981 </v>
   <v>      -0.06571557       0.28786780       0.12457535 </v>
   <v>       0.30544707      -0.13413108       0.16592790 </v>
   <v>       0.05544958       0.36578825       0.16677565 </v>
   <v>      -0.19487562      -0.13429190       0.16701210 </v>
   <v>       0.43260639       0.11206418       0.16659879 </v>
   <v>       0.30619147       0.36399551       0.16700105 </v>
   <v>      -0.05907928      -0.04443088       0.21163669 </v>
   <v>       0.43390808      -0.21319507       0.12440060 </v>
   <v>       0.18287433      -0.38644958       0.16667427 </v>
   <v>       0.18970661      -0.04344064       0.21205837 </v>
   <v>      -0.31466060      -0.21211554       0.12450455 </v>
   <v>       0.06482515       0.20511197       0.21168653 </v>
   <v>      -0.06729784      -0.38730514       0.16688239 </v>
   <v>       0.06194343      -0.46884453       0.12443493 </v>
   <v>      -0.19439921       0.36535305       0.16655727 </v>
   <v>      -0.31749199       0.11295285       0.16691512 </v>
   <v>       0.43494454       0.28827139       0.12458910 </v>
   <v>      -0.31471898       0.28853714       0.12449384 </v>
   <v>       0.06695985      -0.29442635       0.21161653 </v>
   <v>      -0.18401663       0.20538655       0.21176054 </v>
   <v>      -0.43703981       0.03008444       0.12503850 </v>
   <v>       0.31195239      -0.46792562       0.12430531 </v>
   <v>      -0.18774447      -0.46893185       0.12430613 </v>
   <v>       0.31468148       0.20590438       0.21178523 </v>
   <v>      -0.44467423      -0.13474573       0.16680701 </v>
   <v>      -0.18416456      -0.29502832       0.21154218 </v>
   <v>       0.43051818      -0.38492259       0.16675767 </v>
   <v>      -0.31048250      -0.04425126       0.21184281 </v>
   <v>       0.31586287      -0.29674093       0.21225824 </v>
   <v>       0.44056292      -0.04323778       0.21216825 </v>
   <v>      -0.31742835      -0.38764322       0.16684006 </v>
   <v>      -0.06005350       0.45533149       0.21194586 </v>
   <v>       0.18952692       0.45501514       0.21163690 </v>
   <v>      -0.44271435       0.36383625       0.16661426 </v>
   <v>       0.05834266       0.03838034       0.25604452 </v>
   <v>       0.18427035      -0.21032890       0.25601249 </v>
   <v>      -0.43369705       0.20466297       0.21149577 </v>
   <v>      -0.06646102      -0.21099631       0.25600611 </v>
   <v>       0.30939713       0.03785668       0.25595358 </v>
   <v>      -0.43687399      -0.46746785       0.12435111 </v>
   <v>       0.18430511       0.28909413       0.25604542 </v>
   <v>      -0.19079543       0.03836870       0.25625423 </v>
   <v>      -0.06575102       0.28896814       0.25598753 </v>
   <v>      -0.31007261       0.45595592       0.21219248 </v>
   <v>       0.43960973       0.45568928       0.21194396 </v>
   <v>      -0.43464158      -0.29627371       0.21207857 </v>
   <v>       0.43348632      -0.21061827       0.25606775 </v>
   <v>       0.05967255      -0.46189727       0.25603754 </v>
   <v>      -0.31577922      -0.21068765       0.25611557 </v>
   <v>       0.43390327       0.28955131       0.25609612 </v>
   <v>      -0.31640764       0.28915460       0.25611549 </v>
   <v>       0.30890434      -0.46137748       0.25556299 </v>
   <v>      -0.19093696      -0.46164928       0.25623737 </v>
   <v>      -0.44061567       0.03895808       0.25606844 </v>
   <v>       0.06910209      -0.12578658       0.30039130 </v>
   <v>      -0.05513901       0.12381721       0.30028246 </v>
   <v>       0.19453142       0.12467958       0.30043384 </v>
   <v>      -0.18062304      -0.12525917       0.30040954 </v>
   <v>       0.31886899      -0.12608400       0.30024460 </v>
   <v>       0.06910977       0.37496419       0.30046308 </v>
   <v>      -0.44183039      -0.46154398       0.25577474 </v>
   <v>      -0.05539090      -0.37564998       0.30017315 </v>
   <v>      -0.30505498       0.12391089       0.30035902 </v>
   <v>       0.19419878      -0.37561195       0.30045867 </v>
   <v>      -0.18060696       0.37478090       0.30039682 </v>
   <v>       0.44418944       0.12469701       0.30048007 </v>
   <v>       0.31985455       0.37382182       0.30037807 </v>
   <v>      -0.30568973      -0.37504126       0.30036925 </v>
   <v>      -0.43052776      -0.12590452       0.30048610 </v>
   <v>       0.44507153      -0.37520097       0.30046487 </v>
   <v>      -0.43086837       0.37396364       0.30043057 </v>
   <v>       0.18370378      -0.04734479       0.34512818 </v>
   <v>      -0.06612162      -0.04827934       0.34498345 </v>
   <v>       0.05876415       0.20288450       0.34504958 </v>
   <v>       0.05858436      -0.29787233       0.34495604 </v>
   <v>       0.30861946       0.20240943       0.34487797 </v>
   <v>      -0.19107858       0.20254238       0.34510707 </v>
   <v>       0.30885706      -0.29796332       0.34493661 </v>
   <v>       0.43352457      -0.04717158       0.34509487 </v>
   <v>      -0.19142788      -0.29723986       0.34506649 </v>
   <v>      -0.31637563      -0.04828044       0.34490108 </v>
   <v>      -0.06633749       0.45224284       0.34488325 </v>
   <v>       0.18361251       0.45274473       0.34503440 </v>
   <v>      -0.44109860       0.20268628       0.34496236 </v>
   <v>       0.43385415       0.45258719       0.34514685 </v>
   <v>      -0.31640479       0.45233778       0.34504486 </v>
   <v>       0.06553147       0.03766664      -0.12463957 </v>
   <v>      -0.44129703      -0.29764848       0.34500111 </v>
   <v>       0.18747077      -0.20459703      -0.12428427 </v>
   <v>      -0.06240801      -0.20628970      -0.12479399 </v>
   <v>      -0.18691685       0.03997576      -0.12458075 </v>
   <v>       0.31454692       0.04034569      -0.12441136 </v>
   <v>       0.18832889       0.29442287      -0.12423363 </v>
   <v>      -0.06476740       0.29610563      -0.12470818 </v>
   <v>       0.06650524       0.03789369       0.38910140 </v>
   <v>       0.43693410      -0.20464127      -0.12428356 </v>
   <v>       0.06464001      -0.46124961      -0.12444901 </v>
   <v>      -0.31553867      -0.20430967      -0.12456124 </v>
   <v>       0.43663741       0.29643900      -0.12394638 </v>
   <v>      -0.31398199       0.29774095      -0.12425449 </v>
   <v>      -0.05874939      -0.21241874       0.38905329 </v>
   <v>       0.19263377      -0.21247941       0.38902543 </v>
   <v>      -0.18197805       0.03884299       0.38921725 </v>
   <v>      -0.05875439       0.28670354       0.38901004 </v>
   <v>       0.31629579       0.03694838       0.38900555 </v>
   <v>       0.31410627      -0.46115496      -0.12420155 </v>
   <v>       0.19125279       0.28772066       0.38905443 </v>
   <v>      -0.18670984      -0.46137164      -0.12439538 </v>
   <v>      -0.43673092       0.03921603      -0.12419062 </v>
   <v>      -0.30830824      -0.21225706       0.38907596 </v>
   <v>       0.06699547      -0.46138553       0.38922600 </v>
   <v>      -0.30871080       0.28750303       0.38906668 </v>
   <v>       0.44136096      -0.21241676       0.38909675 </v>
   <v>       0.44162674       0.28772406       0.38912638 </v>
   <v>      -0.18375759      -0.46241779       0.38907351 </v>
   <v>      -0.43363395       0.03778870       0.38909607 </v>
   <v>       0.31615515      -0.46212216       0.38906958 </v>
   <v>      -0.43646185      -0.46072878      -0.12431817 </v>
   <v>      -0.05818052      -0.03667905      -0.16641984 </v>
   <v>       0.19120808      -0.03734814      -0.16669329 </v>
   <v>       0.06656819       0.21364956      -0.16636107 </v>
   <v>       0.06598190      -0.28475326      -0.16635530 </v>
   <v>      -0.18217423       0.21394373      -0.16664558 </v>
   <v>       0.31691136       0.21193030      -0.16667346 </v>
   <v>      -0.43366840      -0.46238585       0.38909118 </v>
   <v>      -0.18315820      -0.28569260      -0.16695151 </v>
   <v>      -0.30852111      -0.03798979      -0.16686082 </v>
   <v>       0.31773026      -0.28733646      -0.16719600 </v>
   <v>       0.44266215      -0.03818211      -0.16685074 </v>
   <v>      -0.05830520       0.46284166      -0.16647812 </v>
   <v>       0.19177205       0.46257110      -0.16682143 </v>
   <v>       0.06211839      -0.12914795       0.43445561 </v>
   <v>       0.18744194       0.11997218       0.43441123 </v>
   <v>      -0.06307370       0.11985256       0.43460458 </v>
   <v>      -0.43391505       0.21297562      -0.16698797 </v>
   <v>      -0.30818235       0.46156058      -0.16692852 </v>
   <v>       0.44162556       0.46233385      -0.16685929 </v>
   <v>      -0.43368793      -0.28716371      -0.16690385 </v>
   <v>      -0.18827278      -0.12914695       0.43427178 </v>
   <v>       0.31208903      -0.12963279       0.43449861 </v>
   <v>       0.06273588       0.37114393       0.43439578 </v>
   <v>       0.18696237      -0.37997472       0.43444303 </v>
   <v>      -0.06255984      -0.37987209       0.43447043 </v>
   <v>      -0.31226926       0.11975765       0.43440475 </v>
   <v>       0.43703648       0.12069278       0.43439918 </v>
   <v>      -0.18833386       0.37111529       0.43423684 </v>
   <v>       0.31248831       0.37032558       0.43445957 </v>
   <v>       0.43688494      -0.37922411       0.43442793 </v>
   <v>      -0.31224273      -0.37974085       0.43447801 </v>
   <v>      -0.43755648      -0.12974336       0.43445719 </v>
   <v>      -0.43795295       0.37059561       0.43441261 </v>
   <v>       0.05988832      -0.12710989      -0.21175660 </v>
   <v>       0.18482700       0.12176033      -0.21171883 </v>
   <v>      -0.06504939       0.12262976      -0.21164504 </v>
   <v>      -0.19017007      -0.12763321      -0.21176386 </v>
   <v>       0.31112389      -0.12851723      -0.21192931 </v>
   <v>       0.06079103       0.37308039      -0.21187664 </v>
   <v>       0.43499156       0.12133764      -0.21135898 </v>
   <v>       0.18544778      -0.37923974      -0.21188397 </v>
   <v>      -0.06626930      -0.37700226      -0.21198448 </v>
   <v>      -0.31669614       0.12219540      -0.21166628 </v>
   <v>       0.31055341       0.37207788      -0.21178931 </v>
   <v>      -0.18982253       0.37329077      -0.21179346 </v>
   <v>       0.43384966      -0.37820927      -0.21148114 </v>
   <v>      -0.44010112      -0.12771363      -0.21168882 </v>
   <v>      -0.31515353      -0.37840609      -0.21179178 </v>
   <v>      -0.06272222      -0.04493909       0.47872921 </v>
   <v>       0.18729390      -0.04427596       0.47872589 </v>
   <v>       0.06248424       0.20576756       0.47866809 </v>
   <v>      -0.43979675       0.37189398      -0.21164898 </v>
   <v>       0.06221832      -0.29425751       0.47858581 </v>
   <v>      -0.18779023       0.20577725       0.47870189 </v>
   <v>       0.31227663       0.20566591       0.47869076 </v>
   <v>      -0.18766124      -0.29431682       0.47865843 </v>
   <v>       0.31221410      -0.29420119       0.47867603 </v>
   <v>       0.43722121      -0.04427315       0.47863462 </v>
   <v>      -0.31261594      -0.04430869       0.47867109 </v>
   <v>      -0.06271886       0.45560761       0.47865942 </v>
   <v>       0.18735372       0.45572477       0.47865016 </v>
   <v>      -0.43773332       0.20562707       0.47863004 </v>
   <v>       0.43732619       0.45585782       0.47860430 </v>
   <v>      -0.31296888       0.45568513       0.47864292 </v>
   <v>      -0.43776222      -0.29433542       0.47862018 </v>
   <v>       0.06555562       0.03975585      -0.25605551 </v>
   <v>      -0.05941772      -0.20984719      -0.25583452 </v>
   <v>       0.19042023      -0.20968114      -0.25600465 </v>
   <v>      -0.18456524       0.04031362      -0.25612022 </v>
   <v>      -0.06000048       0.28955415      -0.25599831 </v>
   <v>       0.31532372       0.04068002      -0.25612560 </v>
   <v>       0.19114410       0.29043875      -0.25609160 </v>
   <v>      -0.30995398      -0.20892368      -0.25595259 </v>
   <v>       0.06553091      -0.46004827      -0.25600290 </v>
   <v>       0.43987030      -0.20920994      -0.25595349 </v>
   <v>      -0.30936983       0.29040096      -0.25607779 </v>
   <v>       0.43987534       0.29111709      -0.25595310 </v>
   <v>       0.31555414      -0.45986077      -0.25584069 </v>
   <v>      -0.18445306      -0.46011254      -0.25605046 </v>
   <v>      -0.43409490       0.04038033      -0.25610020 </v>
   <v>       0.06166824      -0.12869939      -0.47860859 </v>
   <v>       0.18670066       0.12142341      -0.47860610 </v>
   <v>      -0.06360814       0.12149936      -0.47855776 </v>
   <v>       0.31168095      -0.12845466      -0.47861665 </v>
   <v>      -0.18849794      -0.12867958      -0.47862688 </v>
   <v>       0.06140963       0.37203672      -0.47864549 </v>
   <v>      -0.06344794      -0.37853637      -0.47859778 </v>
   <v>       0.18673149      -0.37873507      -0.47856218 </v>
   <v>       0.43659786       0.12152896      -0.47862662 </v>
   <v>      -0.31337360       0.12151594      -0.47861527 </v>
   <v>      -0.43431233      -0.45942127      -0.25611390 </v>
   <v>       0.31149185       0.37165243      -0.47861087 </v>
   <v>      -0.18819919       0.37189358      -0.47862481 </v>
   <v>       0.43664720      -0.37826965      -0.47868449 </v>
   <v>      -0.31345250      -0.37869353      -0.47871496 </v>
   <v>      -0.43820229      -0.12802719      -0.47861289 </v>
   <v>      -0.43837683       0.37152904      -0.47860577 </v>
   <v>       0.18519361      -0.04193027      -0.30030460 </v>
   <v>      -0.06474350      -0.04174886      -0.30042776 </v>
   <v>       0.06039473       0.20802209      -0.30045014 </v>
   <v>       0.06045288      -0.29224383      -0.30044262 </v>
   <v>       0.31045332       0.20798766      -0.30035385 </v>
   <v>      -0.18949004       0.20786781      -0.30037147 </v>
   <v>       0.31028004      -0.29228986      -0.30040508 </v>
   <v>      -0.18974352      -0.29201752      -0.30043295 </v>
   <v>       0.43513736      -0.04199645      -0.30046061 </v>
   <v>      -0.31503905      -0.04197708      -0.30039688 </v>
   <v>       0.18495349       0.45802447      -0.30043176 </v>
   <v>      -0.06499942       0.45810229      -0.30038624 </v>
   <v>      -0.43955758       0.20773039      -0.30042573 </v>
   <v>       0.43537523       0.45801444      -0.30044812 </v>
   <v>      -0.31500503       0.45802989      -0.30038607 </v>
   <v>       0.18696893      -0.04274292      -0.43456772 </v>
   <v>      -0.06313202      -0.04261471      -0.43455758 </v>
   <v>      -0.43960208      -0.29230038      -0.30042539 </v>
   <v>       0.06233773       0.20721889      -0.43464163 </v>
   <v>       0.06190226      -0.29364194      -0.43446390 </v>
   <v>      -0.18873929       0.20690897      -0.43455509 </v>
   <v>       0.31141016       0.20663266      -0.43451247 </v>
   <v>       0.31147153      -0.29273742      -0.43456037 </v>
   <v>      -0.18854120      -0.29341736      -0.43452365 </v>
   <v>       0.43705096      -0.04272878      -0.43463069 </v>
   <v>      -0.31258474      -0.04281519      -0.43452869 </v>
   <v>       0.18733227       0.45716138      -0.43452647 </v>
   <v>      -0.06335868       0.45662534      -0.43442285 </v>
   <v>      -0.43772638       0.20711134      -0.43449665 </v>
   <v>      -0.31308560       0.45703112      -0.43459960 </v>
   <v>       0.43691945       0.45704614      -0.43450456 </v>
   <v>      -0.43787013      -0.29283242      -0.43450748 </v>
   <v>       0.06644475      -0.12513974      -0.34512541 </v>
   <v>      -0.05844041       0.12498061      -0.34510029 </v>
   <v>       0.19147900       0.12499281      -0.34511066 </v>
   <v>      -0.18356937      -0.12504555      -0.34506452 </v>
   <v>       0.31653390      -0.12504126      -0.34510167 </v>
   <v>       0.06636879       0.37486593      -0.34508934 </v>
   <v>      -0.05848741      -0.37479849      -0.34513106 </v>
   <v>       0.19128574      -0.37500401      -0.34509749 </v>
   <v>      -0.30860929       0.12491836      -0.34505647 </v>
   <v>      -0.18345382       0.37483124      -0.34509808 </v>
   <v>       0.44166150       0.12489227      -0.34517147 </v>
   <v>       0.31651292       0.37492339      -0.34511265 </v>
   <v>      -0.30854811      -0.37503605      -0.34502851 </v>
   <v>      -0.43372678      -0.12505967      -0.34508310 </v>
   <v>       0.44143320      -0.37508054      -0.34510470 </v>
   <v>      -0.43344515       0.37488360      -0.34510074 </v>
   <v>       0.05871380       0.03790464      -0.38914520 </v>
   <v>       0.18349860      -0.21192930      -0.38916204 </v>
   <v>      -0.06632902      -0.21230126      -0.38908214 </v>
   <v>       0.30868931       0.03791376      -0.38903044 </v>
   <v>      -0.19114397       0.03788430      -0.38913819 </v>
   <v>       0.18374105       0.28802030      -0.38907734 </v>
   <v>      -0.06633455       0.28788909      -0.38909801 </v>
   <v>       0.43373761      -0.21187149      -0.38916637 </v>
   <v>       0.05863683      -0.46218814      -0.38908281 </v>
   <v>       0.43367253       0.28807363      -0.38914173 </v>
   <v>      -0.31638671      -0.21199995      -0.38910931 </v>
   <v>      -0.31636812       0.28817186      -0.38908779 </v>
   <v>       0.30876640      -0.46215770      -0.38912129 </v>
   <v>      -0.19117819      -0.46201767      -0.38908625 </v>
   <v>      -0.44111131       0.03813333      -0.38904466 </v>
   <v>      -0.44139675      -0.46202264      -0.38911971 </v>
  </varray>
 </structure>
 <varray name="primitive_index" >
  <v type="int" >        1 </v>
  <v type="int" >      125 </v>
  <v type="int" >       60 </v>
  <v type="int" >       83 </v>
  <v type="int" >       44 </v>
  <v type="int" >       26 </v>
  <v type="int" >      202 </v>
  <v type="int" >      256 </v>
  <v type="int" >      111 </v>
  <v type="int" >      155 </v>
  <v type="int" >      277 </v>
  <v type="int" >       51 </v>
  <v type="int" >      102 </v>
  <v type="int" >      182 </v>
  <v type="int" >      108 </v>
  <v type="int" >      212 </v>
  <v type="int" >      170 </v>
  <v type="int" >       20 </v>
  <v type="int" >      146 </v>
  <v type="int" >      163 </v>
  <v type="int" >       50 </v>
  <v type="int" >      104 </v>
  <v type="int" >      176 </v>
  <v type="int" >      284 </v>
  <v type="int" >      166 </v>
  <v type="int" >      117 </v>
  <v type="int" >      145 </v>
  <v type="int" >      250 </v>
  <v type="int" >      167 </v>
  <v type="int" >      283 </v>
  <v type="int" >       91 </v>
  <v type="int" >      205 </v>
  <v type="int" >      249 </v>
  <v type="int" >      192 </v>
  <v type="int" >      213 </v>
  <v type="int" >      174 </v>
  <v type="int" >       92 </v>
  <v type="int" >      276 </v>
  <v type="int" >      229 </v>
  <v type="int" >       97 </v>
  <v type="int" >      175 </v>
  <v type="int" >      189 </v>
  <v type="int" >       30 </v>
  <v type="int" >      185 </v>
  <v type="int" >      200 </v>
  <v type="int" >      103 </v>
  <v type="int" >       52 </v>
  <v type="int" >      179 </v>
  <v type="int" >      114 </v>
  <v type="int" >      112 </v>
  <v type="int" >       24 </v>
  <v type="int" >      127 </v>
  <v type="int" >      261 </v>
  <v type="int" >      139 </v>
  <v type="int" >      243 </v>
  <v type="int" >      137 </v>
  <v type="int" >      168 </v>
  <v type="int" >      118 </v>
  <v type="int" >      265 </v>
  <v type="int" >       58 </v>
  <v type="int" >      275 </v>
  <v type="int" >       81 </v>
  <v type="int" >      221 </v>
  <v type="int" >      214 </v>
  <v type="int" >      135 </v>
  <v type="int" >      215 </v>
  <v type="int" >       72 </v>
  <v type="int" >       98 </v>
  <v type="int" >      226 </v>
  <v type="int" >       28 </v>
  <v type="int" >      178 </v>
  <v type="int" >      109 </v>
  <v type="int" >      263 </v>
  <v type="int" >      220 </v>
  <v type="int" >      159 </v>
  <v type="int" >      242 </v>
  <v type="int" >      130 </v>
  <v type="int" >      210 </v>
  <v type="int" >      101 </v>
  <v type="int" >      171 </v>
  <v type="int" >      258 </v>
  <v type="int" >      194 </v>
  <v type="int" >       47 </v>
  <v type="int" >      216 </v>
  <v type="int" >       86 </v>
  <v type="int" >      207 </v>
  <v type="int" >      208 </v>
  <v type="int" >      172 </v>
  <v type="int" >       73 </v>
  <v type="int" >       25 </v>
  <v type="int" >       12 </v>
  <v type="int" >      116 </v>
  <v type="int" >      219 </v>
  <v type="int" >      206 </v>
  <v type="int" >       48 </v>
  <v type="int" >      282 </v>
  <v type="int" >      164 </v>
  <v type="int" >      268 </v>
  <v type="int" >      281 </v>
  <v type="int" >       14 </v>
  <v type="int" >      245 </v>
  <v type="int" >      120 </v>
  <v type="int" >      280 </v>
  <v type="int" >      124 </v>
  <v type="int" >      150 </v>
  <v type="int" >      266 </v>
  <v type="int" >       29 </v>
  <v type="int" >      255 </v>
  <v type="int" >      191 </v>
  <v type="int" >      190 </v>
  <v type="int" >      287 </v>
  <v type="int" >      279 </v>
  <v type="int" >       13 </v>
  <v type="int" >      165 </v>
  <v type="int" >       18 </v>
  <v type="int" >      248 </v>
  <v type="int" >      231 </v>
  <v type="int" >      161 </v>
  <v type="int" >       45 </v>
  <v type="int" >      273 </v>
  <v type="int" >       84 </v>
  <v type="int" >      264 </v>
  <v type="int" >        4 </v>
  <v type="int" >      123 </v>
  <v type="int" >       16 </v>
  <v type="int" >       67 </v>
  <v type="int" >       64 </v>
  <v type="int" >       17 </v>
  <v type="int" >        7 </v>
  <v type="int" >      259 </v>
  <v type="int" >      134 </v>
  <v type="int" >        6 </v>
  <v type="int" >       39 </v>
  <v type="int" >      222 </v>
  <v type="int" >      253 </v>
  <v type="int" >       88 </v>
  <v type="int" >        5 </v>
  <v type="int" >      110 </v>
  <v type="int" >       36 </v>
  <v type="int" >      181 </v>
  <v type="int" >      285 </v>
  <v type="int" >      160 </v>
  <v type="int" >      158 </v>
  <v type="int" >      143 </v>
  <v type="int" >       82 </v>
  <v type="int" >       74 </v>
  <v type="int" >      241 </v>
  <v type="int" >      235 </v>
  <v type="int" >       23 </v>
  <v type="int" >      218 </v>
  <v type="int" >      238 </v>
  <v type="int" >      131 </v>
  <v type="int" >      257 </v>
  <v type="int" >      201 </v>
  <v type="int" >       80 </v>
  <v type="int" >      113 </v>
  <v type="int" >      278 </v>
  <v type="int" >      232 </v>
  <v type="int" >       69 </v>
  <v type="int" >      251 </v>
  <v type="int" >      197 </v>
  <v type="int" >        3 </v>
  <v type="int" >      149 </v>
  <v type="int" >       55 </v>
  <v type="int" >      224 </v>
  <v type="int" >      254 </v>
  <v type="int" >       49 </v>
  <v type="int" >      272 </v>
  <v type="int" >      132 </v>
  <v type="int" >      188 </v>
  <v type="int" >      138 </v>
  <v type="int" >       57 </v>
  <v type="int" >      184 </v>
  <v type="int" >       33 </v>
  <v type="int" >       66 </v>
  <v type="int" >      236 </v>
  <v type="int" >       94 </v>
  <v type="int" >      223 </v>
  <v type="int" >      106 </v>
  <v type="int" >      157 </v>
  <v type="int" >       21 </v>
  <v type="int" >      230 </v>
  <v type="int" >      234 </v>
  <v type="int" >       99 </v>
  <v type="int" >      105 </v>
  <v type="int" >       75 </v>
  <v type="int" >      269 </v>
  <v type="int" >      244 </v>
  <v type="int" >      237 </v>
  <v type="int" >      156 </v>
  <v type="int" >      199 </v>
  <v type="int" >      169 </v>
  <v type="int" >        9 </v>
  <v type="int" >       46 </v>
  <v type="int" >      262 </v>
  <v type="int" >      151 </v>
  <v type="int" >      187 </v>
  <v type="int" >      239 </v>
  <v type="int" >       11 </v>
  <v type="int" >       43 </v>
  <v type="int" >      211 </v>
  <v type="int" >       31 </v>
  <v type="int" >       19 </v>
  <v type="int" >       71 </v>
  <v type="int" >      288 </v>
  <v type="int" >       87 </v>
  <v type="int" >      267 </v>
  <v type="int" >       27 </v>
  <v type="int" >      140 </v>
  <v type="int" >      286 </v>
  <v type="int" >      144 </v>
  <v type="int" >       10 </v>
  <v type="int" >      107 </v>
  <v type="int" >      203 </v>
  <v type="int" >       68 </v>
  <v type="int" >      119 </v>
  <v type="int" >       34 </v>
  <v type="int" >      270 </v>
  <v type="int" >      183 </v>
  <v type="int" >      177 </v>
  <v type="int" >      252 </v>
  <v type="int" >      195 </v>
  <v type="int" >       77 </v>
  <v type="int" >      247 </v>
  <v type="int" >      173 </v>
  <v type="int" >      225 </v>
  <v type="int" >       37 </v>
  <v type="int" >      274 </v>
  <v type="int" >       63 </v>
  <v type="int" >      233 </v>
  <v type="int" >      154 </v>
  <v type="int" >      141 </v>
  <v type="int" >       38 </v>
  <v type="int" >       54 </v>
  <v type="int" >      246 </v>
  <v type="int" >      152 </v>
  <v type="int" >       53 </v>
  <v type="int" >      193 </v>
  <v type="int" >       76 </v>
  <v type="int" >      162 </v>
  <v type="int" >      129 </v>
  <v type="int" >      133 </v>
  <v type="int" >       62 </v>
  <v type="int" >       65 </v>
  <v type="int" >      271 </v>
  <v type="int" >       93 </v>
  <v type="int" >       90 </v>
  <v type="int" >       32 </v>
  <v type="int" >       56 </v>
  <v type="int" >       95 </v>
  <v type="int" >       59 </v>
  <v type="int" >       42 </v>
  <v type="int" >        8 </v>
  <v type="int" >      228 </v>
  <v type="int" >       70 </v>
  <v type="int" >      186 </v>
  <v type="int" >      196 </v>
  <v type="int" >      122 </v>
  <v type="int" >      121 </v>
  <v type="int" >       79 </v>
  <v type="int" >        2 </v>
  <v type="int" >      198 </v>
  <v type="int" >      240 </v>
  <v type="int" >      153 </v>
  <v type="int" >      209 </v>
  <v type="int" >       35 </v>
  <v type="int" >      204 </v>
  <v type="int" >       85 </v>
  <v type="int" >      227 </v>
  <v type="int" >       89 </v>
  <v type="int" >       40 </v>
  <v type="int" >       78 </v>
  <v type="int" >      142 </v>
  <v type="int" >       15 </v>
  <v type="int" >      136 </v>
  <v type="int" >      148 </v>
  <v type="int" >      217 </v>
  <v type="int" >       61 </v>
  <v type="int" >      100 </v>
  <v type="int" >       96 </v>
  <v type="int" >      126 </v>
  <v type="int" >      115 </v>
  <v type="int" >      180 </v>
  <v type="int" >      147 </v>
  <v type="int" >       41 </v>
  <v type="int" >       22 </v>
  <v type="int" >      260 </v>
  <v type="int" >      128 </v>
 </varray>
 <kpoints>
  <generation param="Gamma">
   <v type="int" name="divisions">       4        4        1 </v>
   <v name="usershift">      0.00000000       0.00000000       0.00000000 </v>
   <v name="genvec1">      0.25000000       0.00000000       0.00000000 </v>
   <v name="genvec2">      0.00000000       0.25000000       0.00000000 </v>
   <v name="genvec3">      0.00000000       0.00000000       1.00000000 </v>
   <v name="shift">      0.00000000       0.00000000       0.00000000 </v>
  </generation>
  <varray name="kpointlist" >
   <v>       0.00000000       0.00000000       0.00000000 </v>
   <v>       0.25000000       0.00000000       0.00000000 </v>
   <v>       0.50000000       0.00000000       0.00000000 </v>
   <v>       0.00000000       0.25000000       0.00000000 </v>
   <v>       0.25000000       0.25000000       0.00000000 </v>
   <v>       0.50000000       0.25000000       0.00000000 </v>
   <v>      -0.25000000       0.25000000       0.00000000 </v>
   <v>       0.00000000       0.50000000       0.00000000 </v>
   <v>       0.25000000       0.50000000       0.00000000 </v>
   <v>       0.50000000       0.50000000       0.00000000 </v>
  </varray>
  <varray name="weights" >
   <v>       0.06250000 </v>
   <v>       0.12500000 </v>
   <v>       0.06250000 </v>
   <v>       0.12500000 </v>
   <v>       0.12500000 </v>
   <v>       0.12500000 </v>
   <v>       0.12500000 </v>
   <v>       0.06250000 </v>
   <v>       0.12500000 </v>
   <v>       0.06250000 </v>
  </varray>
 </kpoints>
 <parameters>
  <separator name="general" >
   <i type="string" name="SYSTEM">unknown system</i>
   <i type="logical" name="LCOMPAT"> F  </i>
  </separator>
  <separator name="electronic" >
   <i type="string" name="PREC">accura</i>
   <i name="ENMAX">    450.00000000</i>
   <i name="ENAUG">    838.43500000</i>
   <i name="EDIFF">      0.00000100</i>
   <i type="int" name="IALGO">    68</i>
   <i type="int" name="IWAVPR">    11</i>
   <i type="int" name="NBANDS">  1386</i>
   <i name="NELECT">   2290.00000000</i>
   <i type="int" name="TURBO">     0</i>
   <i type="int" name="IRESTART">     0</i>
   <i type="int" name="NREBOOT">     0</i>
   <i type="int" name="NMIN">     0</i>
   <i name="EREF">      0.00000000</i>
   <separator name="electronic smearing" >
    <i type="int" name="ISMEAR">     0</i>
    <i name="SIGMA">      0.15000000</i>
    <i name="KSPACING">      0.50000000</i>
    <i type="logical" name="KGAMMA"> T  </i>
   </separator>
   <separator name="electronic projectors" >
    <i type="logical" name="LREAL"> T  </i>
    <v name="ROPT">     -0.00025000     -0.00025000</v>
    <i type="int" name="LMAXPAW">  -100</i>
    <i type="int" name="LMAXMIX">     2</i>
    <i type="logical" name="NLSPLINE"> F  </i>
   </separator>
   <separator name="electronic startup" >
    <i type="int" name="ISTART">     0</i>
    <i type="int" name="ICHARG">     2</i>
    <i type="int" name="INIWAV">     1</i>
   </separator>
   <separator name="electronic spin" >
    <i type="int" name="ISPIN">     1</i>
    <i type="logical" name="LNONCOLLINEAR"> F  </i>
    <v name="MAGMOM">      1.00000000      1.00000000      1.00000000      1.00000000      1.00000000      1.00000000      1.00000000      1.00000000      1.00000000      1.00000000      1.00000000      1.00000000      1.00000000      1.00000000      1.00000000      1.00000000      1.00000000      1.00000000      1.00000000      1.00000000
      1.00000000      1.00000000      1.00000000      1.00000000      1.00000000      1.00000000      1.00000000      1.00000000      1.00000000      1.00000000      1.00000000      1.00000000      1.00000000      1.00000000      1.00000000      1.00000000      1.00000000      1.00000000      1.00000000      1.00000000
      1.00000000      1.00000000      1.00000000      1.00000000      1.00000000      1.00000000      1.00000000      1.00000000      1.00000000      1.00000000      1.00000000      1.00000000      1.00000000      1.00000000      1.00000000      1.00000000      1.00000000      1.00000000      1.00000000      1.00000000
      1.00000000      1.00000000      1.00000000      1.00000000      1.00000000      1.00000000      1.00000000      1.00000000      1.00000000      1.00000000      1.00000000      1.00000000      1.00000000      1.00000000      1.00000000      1.00000000      1.00000000      1.00000000      1.00000000      1.00000000
      1.00000000      1.00000000      1.00000000      1.00000000      1.00000000      1.00000000      1.00000000      1.00000000      1.00000000      1.00000000      1.00000000      1.00000000      1.00000000      1.00000000      1.00000000      1.00000000      1.00000000      1.00000000      1.00000000      1.00000000
      1.00000000      1.00000000      1.00000000      1.00000000      1.00000000      1.00000000      1.00000000      1.00000000      1.00000000      1.00000000      1.00000000      1.00000000      1.00000000      1.00000000      1.00000000      1.00000000      1.00000000      1.00000000      1.00000000      1.00000000
      1.00000000      1.00000000      1.00000000      1.00000000      1.00000000      1.00000000      1.00000000      1.00000000      1.00000000      1.00000000      1.00000000      1.00000000      1.00000000      1.00000000      1.00000000      1.00000000      1.00000000      1.00000000      1.00000000      1.00000000
      1.00000000      1.00000000      1.00000000      1.00000000      1.00000000      1.00000000      1.00000000      1.00000000      1.00000000      1.00000000      1.00000000      1.00000000      1.00000000      1.00000000      1.00000000      1.00000000      1.00000000      1.00000000      1.00000000      1.00000000
      1.00000000      1.00000000      1.00000000      1.00000000      1.00000000      1.00000000      1.00000000      1.00000000      1.00000000      1.00000000      1.00000000      1.00000000      1.00000000      1.00000000      1.00000000      1.00000000      1.00000000      1.00000000      1.00000000      1.00000000
      1.00000000      1.00000000      1.00000000      1.00000000      1.00000000      1.00000000      1.00000000      1.00000000      1.00000000      1.00000000      1.00000000      1.00000000      1.00000000      1.00000000      1.00000000      1.00000000      1.00000000      1.00000000      1.00000000      1.00000000
      1.00000000      1.00000000      1.00000000      1.00000000      1.00000000      1.00000000      1.00000000      1.00000000      1.00000000      1.00000000      1.00000000      1.00000000      1.00000000      1.00000000      1.00000000      1.00000000      1.00000000      1.00000000      1.00000000      1.00000000
      1.00000000      1.00000000      1.00000000      1.00000000      1.00000000      1.00000000      1.00000000      1.00000000      1.00000000      1.00000000      1.00000000      1.00000000      1.00000000      1.00000000      1.00000000      1.00000000      1.00000000      1.00000000      1.00000000      1.00000000
      1.00000000      1.00000000      1.00000000      1.00000000      1.00000000      1.00000000      1.00000000      1.00000000      1.00000000      1.00000000      1.00000000      1.00000000      1.00000000      1.00000000      1.00000000      1.00000000      1.00000000      1.00000000      1.00000000      1.00000000
      1.00000000      1.00000000      1.00000000      1.00000000      1.00000000      1.00000000      1.00000000      1.00000000      1.00000000      1.00000000      1.00000000      1.00000000      1.00000000      1.00000000      1.00000000      1.00000000      1.00000000      1.00000000      1.00000000      1.00000000
      1.00000000      1.00000000      1.00000000      1.00000000      1.00000000      1.00000000      1.00000000      1.00000000</v>
    <i name="NUPDOWN">     -1.00000000</i>
    <i type="logical" name="LSORBIT"> F  </i>
    <v name="SAXIS">      0.00000000      0.00000000      1.00000000</v>
    <i type="logical" name="LSPIRAL"> F  </i>
    <v name="QSPIRAL">      0.00000000      0.00000000      0.00000000</v>
    <i type="logical" name="LZEROZ"> F  </i>
   </separator>
   <separator name="electronic exchange-correlation" >
    <i type="logical" name="LASPH"> F  </i>
    <i type="logical" name="LMETAGGA"> F  </i>
   </separator>
   <separator name="electronic convergence" >
    <i type="int" name="NELM">   100</i>
    <i type="int" name="NELMDL">     0</i>
    <i type="int" name="NELMIN">     4</i>
    <i name="ENINI">    450.00000000</i>
    <separator name="electronic convergence detail" >
     <i type="logical" name="LDIAG"> T  </i>
     <i type="logical" name="LSUBROT"> F  </i>
     <i name="WEIMIN">      0.00100000</i>
     <i name="EBREAK">      0.00000000</i>
     <i name="DEPER">      0.30000000</i>
     <i type="int" name="NRMM">     4</i>
     <i name="TIME">      0.40000000</i>
    </separator>
   </separator>
   <separator name="electronic mixer" >
    <i name="AMIX">      0.40000000</i>
    <i name="BMIX">      1.00000000</i>
    <i name="AMIN">      0.10000000</i>
    <i name="AMIX_MAG">      1.60000000</i>
    <i name="BMIX_MAG">      1.00000000</i>
    <separator name="electronic mixer details" >
     <i type="int" name="IMIX">     4</i>
     <i type="logical" name="MIXFIRST"> F  </i>
     <i type="int" name="MAXMIX">   -45</i>
     <i name="WC">    100.00000000</i>
     <i type="int" name="INIMIX">     1</i>
     <i type="int" name="MIXPRE">     1</i>
     <i type="int" name="MREMOVE">     5</i>
    </separator>
   </separator>
   <separator name="electronic dipolcorrection" >
    <i type="logical" name="LDIPOL"> F  </i>
    <i type="logical" name="LMONO"> F  </i>
    <i type="int" name="IDIPOL">     0</i>
    <i name="EPSILON">      1.00000000</i>
    <v name="DIPOL">   -100.00000000   -100.00000000   -100.00000000</v>
    <i name="EFIELD">      0.00000000</i>
   </separator>
  </separator>
  <separator name="grids" >
   <i type="int" name="NGX">    70</i>
   <i type="int" name="NGY">    60</i>
   <i type="int" name="NGZ">   320</i>
   <i type="int" name="NGXF">   140</i>
   <i type="int" name="NGYF">   120</i>
   <i type="int" name="NGZF">   640</i>
   <i type="logical" name="ADDGRID"> F  </i>
  </separator>
  <separator name="ionic" >
   <i type="int" name="NSW">     5</i>
   <i type="int" name="IBRION">     2</i>
   <i type="int" name="MDALGO">     0</i>
   <i type="int" name="ISIF">     2</i>
   <i name="PSTRESS">      0.00000000</i>
   <i name="EDIFFG">      0.00001000</i>
   <i type="int" name="NFREE">     1</i>
   <i name="POTIM">      0.25000000</i>
   <i name="SMASS">     -3.00000000</i>
   <i name="SCALEE">      1.00000000</i>
  </separator>
  <separator name="ionic md" >
   <i name="TEBEG">      0.00010000</i>
   <i name="TEEND">      0.00010000</i>
   <i type="int" name="NBLOCK">     1</i>
   <i type="int" name="KBLOCK">     5</i>
   <i type="int" name="NPACO">   256</i>
   <i name="APACO">     16.00000000</i>
  </separator>
  <separator name="symmetry" >
   <i type="int" name="ISYM">     2</i>
   <i name="SYMPREC">      0.00001000</i>
  </separator>
  <separator name="dos" >
   <i type="int" name="LORBIT">     0</i>
   <v name="RWIGS">     -1.00000000     -1.00000000</v>
   <i type="int" name="NEDOS">   301</i>
   <i name="EMIN">     10.00000000</i>
   <i name="EMAX">    -10.00000000</i>
   <i name="EFERMI">      0.00000000</i>
  </separator>
  <separator name="writing" >
   <i type="int" name="NWRITE">     2</i>
   <i type="logical" name="LWAVE"> F  </i>
   <i type="logical" name="LDOWNSAMPLE"> F  </i>
   <i type="logical" name="LCHARG"> F  </i>
   <i type="logical" name="LPARD"> F  </i>
   <i type="logical" name="LVTOT"> F  </i>
   <i type="logical" name="LVHAR"> F  </i>
   <i type="logical" name="LELF"> F  </i>
   <i type="logical" name="LOPTICS"> F  </i>
   <v name="STM">      0.00000000      0.00000000      0.00000000      0.00000000      0.00000000      0.00000000      0.00000000</v>
  </separator>
  <separator name="performance" >
   <i type="int" name="NPAR">    14</i>
   <i type="int" name="NSIM">     4</i>
   <i type="int" name="NBLK">    -1</i>
   <i type="logical" name="LPLANE"> T  </i>
   <i type="logical" name="LSCALAPACK"> T  </i>
   <i type="logical" name="LSCAAWARE"> T  </i>
   <i type="logical" name="LSCALU"> F  </i>
   <i type="logical" name="LASYNC"> F  </i>
   <i type="logical" name="LORBITALREAL"> F  </i>
  </separator>
  <separator name="miscellaneous" >
   <i type="int" name="IDIOT">     3</i>
   <i type="int" name="ISPECIAL">     0</i>
   <i type="logical" name="LMUSIC"> F  </i>
   <v name="POMASS">     55.84700000     54.93800000</v>
   <v name="DARWINR">      0.00000000      0.00000000</v>
   <v name="DARWINV">      1.00000000      1.00000000</v>
   <i type="logical" name="LCORR"> T  </i>
  </separator>
  <i type="logical" name="GGA_COMPAT"> T  </i>
  <i type="logical" name="LBERRY"> F  </i>
  <i type="int" name="ICORELEVEL">     0</i>
  <i type="logical" name="LDAU"> F  </i>
  <i type="int" name="I_CONSTRAINED_M">     0</i>
  <separator name="electronic exchange-correlation" >
   <i type="string" name="GGA">--</i>
   <i type="int" name="VOSKOWN">     0</i>
   <i type="logical" name="LHFCALC"> F  </i>
   <i type="string" name="PRECFOCK"></i>
   <i type="logical" name="LSYMGRAD"> F  </i>
   <i type="logical" name="LHFONE"> F  </i>
   <i type="logical" name="LRHFCALC"> F  </i>
   <i type="logical" name="LTHOMAS"> F  </i>
   <i type="logical" name="LMODELHF"> F  </i>
   <i name="ENCUT4O">     -1.00000000</i>
   <i type="int" name="EXXOEP">     0</i>
   <i type="int" name="FOURORBIT">     0</i>
   <i name="AEXX">      0.00000000</i>
   <i name="HFALPHA">      0.00000000</i>
   <i name="MCALPHA">      0.00000000</i>
   <i name="ALDAX">      1.00000000</i>
   <i name="AGGAX">      1.00000000</i>
   <i name="ALDAC">      1.00000000</i>
   <i name="AGGAC">      1.00000000</i>
   <i type="int" name="NKREDX">     1</i>
   <i type="int" name="NKREDY">     1</i>
   <i type="int" name="NKREDZ">     1</i>
   <i type="logical" name="SHIFTRED"> F  </i>
   <i type="logical" name="ODDONLY"> F  </i>
   <i type="logical" name="EVENONLY"> F  </i>
   <i type="int" name="LMAXFOCK">     0</i>
   <i type="int" name="NMAXFOCKAE">     0</i>
   <i type="logical" name="LFOCKAEDFT"> F  </i>
   <i name="HFSCREEN">      0.00000000</i>
   <i name="HFSCREENC">      0.00000000</i>
   <i type="int" name="NBANDSGWLOW">     0</i>
  </separator>
  <separator name="vdW DFT" >
   <i type="logical" name="LUSE_VDW"> F  </i>
   <i name="Zab_VDW">     -0.84910000</i>
   <i name="PARAM1">      0.12340000</i>
   <i name="PARAM2">      1.00000000</i>
   <i name="PARAM3">      0.00000000</i>
  </separator>
  <separator name="model GW" >
   <i type="int" name="MODEL_GW">     0</i>
   <i name="MODEL_EPS0">      7.68123389</i>
   <i name="MODEL_ALPHA">      1.00000000</i>
  </separator>
  <separator name="linear response parameters" >
   <i type="logical" name="LEPSILON"> F  </i>
   <i type="logical" name="LRPA"> F  </i>
   <i type="logical" name="LNABLA"> F  </i>
   <i type="logical" name="LVEL"> F  </i>
   <i type="int" name="KINTER">     0</i>
   <i name="CSHIFT">      0.10000000</i>
   <i name="OMEGAMAX">     -1.00000000</i>
   <i name="DEG_THRESHOLD">      0.00200000</i>
   <i name="RTIME">     -0.10000000</i>
   <i name="WPLASMAI">      0.00000000</i>
   <v name="DFIELD">      0.00000000      0.00000000      0.00000000</v>
   <v name="WPLASMA">      0.00000000      0.00000000      0.00000000      0.00000000      0.00000000      0.00000000      0.00000000      0.00000000      0.00000000</v>
  </separator>
  <separator name="orbital magnetization" >
   <i type="logical" name="NUCIND"> F  </i>
   <v name="MAGPOS">      0.00000000      0.00000000      0.00000000</v>
   <i type="logical" name="LNICSALL"> T  </i>
   <i type="logical" name="ORBITALMAG"> F  </i>
   <i type="logical" name="LMAGBLOCH"> F  </i>
   <i type="logical" name="LCHIMAG"> F  </i>
   <i type="logical" name="LGAUGE"> T  </i>
   <i type="int" name="MAGATOM">     0</i>
   <v name="MAGDIPOL">      0.00000000      0.00000000      0.00000000</v>
   <v name="AVECCONST">      0.00000000      0.00000000      0.00000000</v>
  </separator>
  <separator name="response functions" >
   <i type="logical" name="LADDER"> F  </i>
   <i type="logical" name="LRPAFORCE"> F  </i>
   <i type="logical" name="LFXC"> F  </i>
   <i type="logical" name="LHARTREE"> T  </i>
   <i type="int" name="IBSE">     0</i>
   <v type="int" name="KPOINT">    -1     0     0     0</v>
   <i type="logical" name="LTCTE"> F  </i>
   <i type="logical" name="LTETE"> F  </i>
   <i type="logical" name="LTRIPLET"> F  </i>
   <i type="logical" name="LFXCEPS"> F  </i>
   <i type="logical" name="LFXHEG"> F  </i>
   <i type="int" name="NATURALO">     2</i>
   <i type="logical" name="L2ORDER"> F  </i>
   <i type="logical" name="LMP2LT"> F  </i>
   <i type="logical" name="LUSEW"> F  </i>
   <i name="ENCUTGW">     -2.00000000</i>
   <i name="ENCUTGWSOFT">     -2.00000000</i>
   <i name="ENCUTLF">     -1.00000000</i>
   <i type="int" name="LMAXMP2">    -1</i>
   <i name="SCISSOR">      0.00000000</i>
   <i type="int" name="NOMEGA">     0</i>
   <i type="int" name="NOMEGAR">     0</i>
   <i type="int" name="NBANDSGW">    -1</i>
   <i type="int" name="NBANDSO">    -1</i>
   <i type="int" name="NBANDSV">    -1</i>
   <i type="int" name="NELM">   100</i>
   <i type="int" name="NELMHF">     1</i>
   <i type="int" name="DIM">     3</i>
   <i type="int" name="ANTIRES">     0</i>
   <i name="OMEGAMAX">    -30.00000000</i>
   <i name="OMEGAMIN">    -30.00000000</i>
   <i name="OMEGATL">   -200.00000000</i>
   <i type="int" name="OMEGAGRID">   140</i>
   <i name="CSHIFT">     -0.10000000</i>
   <i type="logical" name="SELFENERGY"> F  </i>
   <i type="logical" name="LSPECTRAL"> F  </i>
   <i type="logical" name="LSPECTRALGW"> F  </i>
   <i type="logical" name="LSINGLES"> F  </i>
   <i type="logical" name="LFERMIGW"> F  </i>
   <i type="logical" name="ODDONLYGW"> F  </i>
   <i type="logical" name="EVENONLYGW"> F  </i>
   <i type="int" name="NKREDLFX">     1</i>
   <i type="int" name="NKREDLFY">     1</i>
   <i type="int" name="NKREDLFZ">     1</i>
   <i type="int" name="MAXMEM">  2800</i>
   <i type="int" name="TELESCOPE">     0</i>
   <i type="int" name="TAUPAR">     1</i>
   <i type="int" name="OMEGAPAR">    -1</i>
   <i name="LAMBDA">      1.00000000</i>
  </separator>
  <separator name="External order field" >
   <i name="OFIELD_KAPPA">      0.00000000</i>
   <v name="OFIELD_K">      0.00000000      0.00000000      0.00000000</v>
   <i name="OFIELD_Q6_NEAR">      0.00000000</i>
   <i name="OFIELD_Q6_FAR">      0.00000000</i>
   <i name="OFIELD_A">      0.00000000</i>
  </separator>
 </parameters>
 <atominfo>
  <atoms>     288 </atoms>
  <types>       2 </types>
  <array name="atoms" >
   <dimension dim="1">ion</dimension>
   <field type="string">element</field>
   <field type="int">atomtype</field>
   <set>
    <rc><c>Fe</c><c>   1</c></rc>
    <rc><c>Fe</c><c>   1</c></rc>
    <rc><c>Fe</c><c>   1</c></rc>
    <rc><c>Fe</c><c>   1</c></rc>
    <rc><c>Fe</c><c>   1</c></rc>
    <rc><c>Fe</c><c>   1</c></rc>
    <rc><c>Fe</c><c>   1</c></rc>
    <rc><c>Fe</c><c>   1</c></rc>
    <rc><c>Fe</c><c>   1</c></rc>
    <rc><c>Fe</c><c>   1</c></rc>
    <rc><c>Fe</c><c>   1</c></rc>
    <rc><c>Fe</c><c>   1</c></rc>
    <rc><c>Fe</c><c>   1</c></rc>
    <rc><c>Fe</c><c>   1</c></rc>
    <rc><c>Fe</c><c>   1</c></rc>
    <rc><c>Fe</c><c>   1</c></rc>
    <rc><c>Fe</c><c>   1</c></rc>
    <rc><c>Fe</c><c>   1</c></rc>
    <rc><c>Fe</c><c>   1</c></rc>
    <rc><c>Fe</c><c>   1</c></rc>
    <rc><c>Fe</c><c>   1</c></rc>
    <rc><c>Fe</c><c>   1</c></rc>
    <rc><c>Fe</c><c>   1</c></rc>
    <rc><c>Fe</c><c>   1</c></rc>
    <rc><c>Fe</c><c>   1</c></rc>
    <rc><c>Fe</c><c>   1</c></rc>
    <rc><c>Fe</c><c>   1</c></rc>
    <rc><c>Fe</c><c>   1</c></rc>
    <rc><c>Fe</c><c>   1</c></rc>
    <rc><c>Fe</c><c>   1</c></rc>
    <rc><c>Fe</c><c>   1</c></rc>
    <rc><c>Fe</c><c>   1</c></rc>
    <rc><c>Fe</c><c>   1</c></rc>
    <rc><c>Fe</c><c>   1</c></rc>
    <rc><c>Fe</c><c>   1</c></rc>
    <rc><c>Fe</c><c>   1</c></rc>
    <rc><c>Fe</c><c>   1</c></rc>
    <rc><c>Fe</c><c>   1</c></rc>
    <rc><c>Fe</c><c>   1</c></rc>
    <rc><c>Fe</c><c>   1</c></rc>
    <rc><c>Fe</c><c>   1</c></rc>
    <rc><c>Fe</c><c>   1</c></rc>
    <rc><c>Fe</c><c>   1</c></rc>
    <rc><c>Fe</c><c>   1</c></rc>
    <rc><c>Fe</c><c>   1</c></rc>
    <rc><c>Fe</c><c>   1</c></rc>
    <rc><c>Fe</c><c>   1</c></rc>
    <rc><c>Fe</c><c>   1</c></rc>
    <rc><c>Fe</c><c>   1</c></rc>
    <rc><c>Fe</c><c>   1</c></rc>
    <rc><c>Fe</c><c>   1</c></rc>
    <rc><c>Fe</c><c>   1</c></rc>
    <rc><c>Fe</c><c>   1</c></rc>
    <rc><c>Fe</c><c>   1</c></rc>
    <rc><c>Fe</c><c>   1</c></rc>
    <rc><c>Fe</c><c>   1</c></rc>
    <rc><c>Fe</c><c>   1</c></rc>
    <rc><c>Fe</c><c>   1</c></rc>
    <rc><c>Fe</c><c>   1</c></rc>
    <rc><c>Fe</c><c>   1</c></rc>
    <rc><c>Fe</c><c>   1</c></rc>
    <rc><c>Fe</c><c>   1</c></rc>
    <rc><c>Fe</c><c>   1</c></rc>
    <rc><c>Fe</c><c>   1</c></rc>
    <rc><c>Fe</c><c>   1</c></rc>
    <rc><c>Fe</c><c>   1</c></rc>
    <rc><c>Fe</c><c>   1</c></rc>
    <rc><c>Fe</c><c>   1</c></rc>
    <rc><c>Fe</c><c>   1</c></rc>
    <rc><c>Fe</c><c>   1</c></rc>
    <rc><c>Fe</c><c>   1</c></rc>
    <rc><c>Fe</c><c>   1</c></rc>
    <rc><c>Fe</c><c>   1</c></rc>
    <rc><c>Fe</c><c>   1</c></rc>
    <rc><c>Fe</c><c>   1</c></rc>
    <rc><c>Fe</c><c>   1</c></rc>
    <rc><c>Fe</c><c>   1</c></rc>
    <rc><c>Fe</c><c>   1</c></rc>
    <rc><c>Fe</c><c>   1</c></rc>
    <rc><c>Fe</c><c>   1</c></rc>
    <rc><c>Fe</c><c>   1</c></rc>
    <rc><c>Fe</c><c>   1</c></rc>
    <rc><c>Fe</c><c>   1</c></rc>
    <rc><c>Fe</c><c>   1</c></rc>
    <rc><c>Fe</c><c>   1</c></rc>
    <rc><c>Fe</c><c>   1</c></rc>
    <rc><c>Fe</c><c>   1</c></rc>
    <rc><c>Fe</c><c>   1</c></rc>
    <rc><c>Fe</c><c>   1</c></rc>
    <rc><c>Fe</c><c>   1</c></rc>
    <rc><c>Fe</c><c>   1</c></rc>
    <rc><c>Fe</c><c>   1</c></rc>
    <rc><c>Fe</c><c>   1</c></rc>
    <rc><c>Fe</c><c>   1</c></rc>
    <rc><c>Fe</c><c>   1</c></rc>
    <rc><c>Fe</c><c>   1</c></rc>
    <rc><c>Fe</c><c>   1</c></rc>
    <rc><c>Fe</c><c>   1</c></rc>
    <rc><c>Fe</c><c>   1</c></rc>
    <rc><c>Fe</c><c>   1</c></rc>
    <rc><c>Fe</c><c>   1</c></rc>
    <rc><c>Fe</c><c>   1</c></rc>
    <rc><c>Fe</c><c>   1</c></rc>
    <rc><c>Fe</c><c>   1</c></rc>
    <rc><c>Fe</c><c>   1</c></rc>
    <rc><c>Fe</c><c>   1</c></rc>
    <rc><c>Fe</c><c>   1</c></rc>
    <rc><c>Fe</c><c>   1</c></rc>
    <rc><c>Fe</c><c>   1</c></rc>
    <rc><c>Fe</c><c>   1</c></rc>
    <rc><c>Fe</c><c>   1</c></rc>
    <rc><c>Fe</c><c>   1</c></rc>
    <rc><c>Fe</c><c>   1</c></rc>
    <rc><c>Fe</c><c>   1</c></rc>
    <rc><c>Fe</c><c>   1</c></rc>
    <rc><c>Fe</c><c>   1</c></rc>
    <rc><c>Fe</c><c>   1</c></rc>
    <rc><c>Fe</c><c>   1</c></rc>
    <rc><c>Fe</c><c>   1</c></rc>
    <rc><c>Fe</c><c>   1</c></rc>
    <rc><c>Fe</c><c>   1</c></rc>
    <rc><c>Fe</c><c>   1</c></rc>
    <rc><c>Fe</c><c>   1</c></rc>
    <rc><c>Fe</c><c>   1</c></rc>
    <rc><c>Fe</c><c>   1</c></rc>
    <rc><c>Fe</c><c>   1</c></rc>
    <rc><c>Fe</c><c>   1</c></rc>
    <rc><c>Fe</c><c>   1</c></rc>
    <rc><c>Fe</c><c>   1</c></rc>
    <rc><c>Fe</c><c>   1</c></rc>
    <rc><c>Fe</c><c>   1</c></rc>
    <rc><c>Fe</c><c>   1</c></rc>
    <rc><c>Fe</c><c>   1</c></rc>
    <rc><c>Fe</c><c>   1</c></rc>
    <rc><c>Fe</c><c>   1</c></rc>
    <rc><c>Fe</c><c>   1</c></rc>
    <rc><c>Fe</c><c>   1</c></rc>
    <rc><c>Fe</c><c>   1</c></rc>
    <rc><c>Fe</c><c>   1</c></rc>
    <rc><c>Fe</c><c>   1</c></rc>
    <rc><c>Fe</c><c>   1</c></rc>
    <rc><c>Fe</c><c>   1</c></rc>
    <rc><c>Fe</c><c>   1</c></rc>
    <rc><c>Fe</c><c>   1</c></rc>
    <rc><c>Fe</c><c>   1</c></rc>
    <rc><c>Fe</c><c>   1</c></rc>
    <rc><c>Fe</c><c>   1</c></rc>
    <rc><c>Fe</c><c>   1</c></rc>
    <rc><c>Fe</c><c>   1</c></rc>
    <rc><c>Fe</c><c>   1</c></rc>
    <rc><c>Fe</c><c>   1</c></rc>
    <rc><c>Fe</c><c>   1</c></rc>
    <rc><c>Fe</c><c>   1</c></rc>
    <rc><c>Fe</c><c>   1</c></rc>
    <rc><c>Fe</c><c>   1</c></rc>
    <rc><c>Fe</c><c>   1</c></rc>
    <rc><c>Fe</c><c>   1</c></rc>
    <rc><c>Fe</c><c>   1</c></rc>
    <rc><c>Fe</c><c>   1</c></rc>
    <rc><c>Fe</c><c>   1</c></rc>
    <rc><c>Fe</c><c>   1</c></rc>
    <rc><c>Fe</c><c>   1</c></rc>
    <rc><c>Fe</c><c>   1</c></rc>
    <rc><c>Fe</c><c>   1</c></rc>
    <rc><c>Fe</c><c>   1</c></rc>
    <rc><c>Fe</c><c>   1</c></rc>
    <rc><c>Fe</c><c>   1</c></rc>
    <rc><c>Fe</c><c>   1</c></rc>
    <rc><c>Fe</c><c>   1</c></rc>
    <rc><c>Fe</c><c>   1</c></rc>
    <rc><c>Fe</c><c>   1</c></rc>
    <rc><c>Fe</c><c>   1</c></rc>
    <rc><c>Fe</c><c>   1</c></rc>
    <rc><c>Fe</c><c>   1</c></rc>
    <rc><c>Fe</c><c>   1</c></rc>
    <rc><c>Fe</c><c>   1</c></rc>
    <rc><c>Fe</c><c>   1</c></rc>
    <rc><c>Fe</c><c>   1</c></rc>
    <rc><c>Fe</c><c>   1</c></rc>
    <rc><c>Fe</c><c>   1</c></rc>
    <rc><c>Fe</c><c>   1</c></rc>
    <rc><c>Fe</c><c>   1</c></rc>
    <rc><c>Fe</c><c>   1</c></rc>
    <rc><c>Fe</c><c>   1</c></rc>
    <rc><c>Fe</c><c>   1</c></rc>
    <rc><c>Fe</c><c>   1</c></rc>
    <rc><c>Fe</c><c>   1</c></rc>
    <rc><c>Fe</c><c>   1</c></rc>
    <rc><c>Fe</c><c>   1</c></rc>
    <rc><c>Fe</c><c>   1</c></rc>
    <rc><c>Fe</c><c>   1</c></rc>
    <rc><c>Fe</c><c>   1</c></rc>
    <rc><c>Fe</c><c>   1</c></rc>
    <rc><c>Fe</c><c>   1</c></rc>
    <rc><c>Fe</c><c>   1</c></rc>
    <rc><c>Fe</c><c>   1</c></rc>
    <rc><c>Fe</c><c>   1</c></rc>
    <rc><c>Fe</c><c>   1</c></rc>
    <rc><c>Fe</c><c>   1</c></rc>
    <rc><c>Fe</c><c>   1</c></rc>
    <rc><c>Fe</c><c>   1</c></rc>
    <rc><c>Fe</c><c>   1</c></rc>
    <rc><c>Fe</c><c>   1</c></rc>
    <rc><c>Fe</c><c>   1</c></rc>
    <rc><c>Fe</c><c>   1</c></rc>
    <rc><c>Fe</c><c>   1</c></rc>
    <rc><c>Fe</c><c>   1</c></rc>
    <rc><c>Fe</c><c>   1</c></rc>
    <rc><c>Fe</c><c>   1</c></rc>
    <rc><c>Fe</c><c>   1</c></rc>
    <rc><c>Fe</c><c>   1</c></rc>
    <rc><c>Fe</c><c>   1</c></rc>
    <rc><c>Fe</c><c>   1</c></rc>
    <rc><c>Fe</c><c>   1</c></rc>
    <rc><c>Fe</c><c>   1</c></rc>
    <rc><c>Fe</c><c>   1</c></rc>
    <rc><c>Fe</c><c>   1</c></rc>
    <rc><c>Fe</c><c>   1</c></rc>
    <rc><c>Fe</c><c>   1</c></rc>
    <rc><c>Fe</c><c>   1</c></rc>
    <rc><c>Fe</c><c>   1</c></rc>
    <rc><c>Fe</c><c>   1</c></rc>
    <rc><c>Fe</c><c>   1</c></rc>
    <rc><c>Fe</c><c>   1</c></rc>
    <rc><c>Fe</c><c>   1</c></rc>
    <rc><c>Fe</c><c>   1</c></rc>
    <rc><c>Fe</c><c>   1</c></rc>
    <rc><c>Fe</c><c>   1</c></rc>
    <rc><c>Fe</c><c>   1</c></rc>
    <rc><c>Fe</c><c>   1</c></rc>
    <rc><c>Fe</c><c>   1</c></rc>
    <rc><c>Fe</c><c>   1</c></rc>
    <rc><c>Fe</c><c>   1</c></rc>
    <rc><c>Fe</c><c>   1</c></rc>
    <rc><c>Fe</c><c>   1</c></rc>
    <rc><c>Fe</c><c>   1</c></rc>
    <rc><c>Fe</c><c>   1</c></rc>
    <rc><c>Fe</c><c>   1</c></rc>
    <rc><c>Fe</c><c>   1</c></rc>
    <rc><c>Fe</c><c>   1</c></rc>
    <rc><c>Fe</c><c>   1</c></rc>
    <rc><c>Fe</c><c>   1</c></rc>
    <rc><c>Fe</c><c>   1</c></rc>
    <rc><c>Fe</c><c>   1</c></rc>
    <rc><c>Fe</c><c>   1</c></rc>
    <rc><c>Fe</c><c>   1</c></rc>
    <rc><c>Fe</c><c>   1</c></rc>
    <rc><c>Fe</c><c>   1</c></rc>
    <rc><c>Fe</c><c>   1</c></rc>
    <rc><c>Fe</c><c>   1</c></rc>
    <rc><c>Fe</c><c>   1</c></rc>
    <rc><c>Fe</c><c>   1</c></rc>
    <rc><c>Fe</c><c>   1</c></rc>
    <rc><c>Fe</c><c>   1</c></rc>
    <rc><c>Fe</c><c>   1</c></rc>
    <rc><c>Fe</c><c>   1</c></rc>
    <rc><c>Fe</c><c>   1</c></rc>
    <rc><c>Fe</c><c>   1</c></rc>
    <rc><c>Fe</c><c>   1</c></rc>
    <rc><c>Fe</c><c>   1</c></rc>
    <rc><c>Fe</c><c>   1</c></rc>
    <rc><c>Fe</c><c>   1</c></rc>
    <rc><c>Fe</c><c>   1</c></rc>
    <rc><c>Fe</c><c>   1</c></rc>
    <rc><c>Fe</c><c>   1</c></rc>
    <rc><c>Fe</c><c>   1</c></rc>
    <rc><c>Fe</c><c>   1</c></rc>
    <rc><c>Fe</c><c>   1</c></rc>
    <rc><c>Fe</c><c>   1</c></rc>
    <rc><c>Fe</c><c>   1</c></rc>
    <rc><c>Fe</c><c>   1</c></rc>
    <rc><c>Fe</c><c>   1</c></rc>
    <rc><c>Fe</c><c>   1</c></rc>
    <rc><c>Fe</c><c>   1</c></rc>
    <rc><c>Mn</c><c>   2</c></rc>
    <rc><c>Mn</c><c>   2</c></rc>
    <rc><c>Mn</c><c>   2</c></rc>
    <rc><c>Mn</c><c>   2</c></rc>
    <rc><c>Mn</c><c>   2</c></rc>
    <rc><c>Mn</c><c>   2</c></rc>
    <rc><c>Mn</c><c>   2</c></rc>
    <rc><c>Mn</c><c>   2</c></rc>
    <rc><c>Mn</c><c>   2</c></rc>
    <rc><c>Mn</c><c>   2</c></rc>
    <rc><c>Mn</c><c>   2</c></rc>
    <rc><c>Mn</c><c>   2</c></rc>
    <rc><c>Mn</c><c>   2</c></rc>
    <rc><c>Mn</c><c>   2</c></rc>
   </set>
  </array>
  <array name="atomtypes" >
   <dimension dim="1">type</dimension>
   <field type="int">atomspertype</field>
   <field type="string">element</field>
   <field>mass</field>
   <field>valence</field>
   <field type="string">pseudopotential</field>
   <set>
    <rc><c> 274</c><c>Fe</c><c>     55.84700000</c><c>      8.00000000</c><c>  PAW_PBE Fe_GW 31Mar2010               </c></rc>
    <rc><c>  14</c><c>Mn</c><c>     54.93800000</c><c>      7.00000000</c><c>  PAW_PBE Mn_GW 31Mar2010               </c></rc>
   </set>
  </array>
 </atominfo>
 <structure name="initialpos" >
  <crystal>
   <varray name="basis" >
    <v>       9.72667804       0.00000000       0.00000000 </v>
    <v>       0.00000000       8.42355028       0.00000000 </v>
    <v>       0.00000000       0.00000000      45.00000000 </v>
   </varray>
   <i name="volume">   3686.99226691 </i>
   <varray name="rec_basis" >
    <v>       0.10281002       0.00000000       0.00000000 </v>
    <v>       0.00000000       0.11871479       0.00000000 </v>
    <v>       0.00000000       0.00000000       0.02222222 </v>
   </varray>
  </crystal>
  <varray name="positions" >
   <v>       0.06195767       0.03106282       0.12427182 </v>
   <v>       0.31653390       0.87495874       0.65489833 </v>
   <v>       0.18482700       0.12176033       0.78828117 </v>
   <v>       0.44162674       0.28772406       0.38912638 </v>
   <v>       0.31773026       0.71266354       0.83280400 </v>
   <v>       0.81782577       0.21394373       0.83335442 </v>
   <v>       0.19120808       0.96265186       0.83330671 </v>
   <v>       0.56227362       0.20711134       0.56550335 </v>
   <v>       0.06555562       0.03975585       0.74394449 </v>
   <v>       0.81150206       0.87132042       0.52137312 </v>
   <v>       0.19114410       0.29043875       0.74390840 </v>
   <v>       0.93366251       0.45224284       0.34488325 </v>
   <v>       0.94124561       0.28670354       0.38901004 </v>
   <v>       0.81308315       0.03997576       0.87541925 </v>
   <v>       0.18349860       0.78807070       0.61083796 </v>
   <v>       0.56636605       0.03778870       0.38909607 </v>
   <v>       0.94181948       0.96332095       0.83358016 </v>
   <v>       0.31410627       0.53884504       0.87579845 </v>
   <v>       0.69063017       0.29040096       0.74392221 </v>
   <v>       0.18287433       0.61355042       0.16667427 </v>
   <v>       0.81220977       0.20577725       0.47870189 </v>
   <v>       0.80882181       0.53798233       0.61091375 </v>
   <v>       0.31208903       0.87036721       0.43449861 </v>
   <v>       0.80920457       0.03836870       0.25625423 </v>
   <v>       0.68362437       0.95171956       0.34490108 </v>
   <v>       0.93138237       0.11478160       0.16719749 </v>
   <v>       0.06166824       0.87130061       0.52139141 </v>
   <v>       0.55816961       0.53845602       0.25577474 </v>
   <v>       0.68446133       0.79569033       0.87543876 </v>
   <v>       0.55728565       0.36383625       0.16661426 </v>
   <v>       0.43987030       0.79079006       0.74404651 </v>
   <v>       0.81145880       0.70658264       0.56547635 </v>
   <v>       0.55989888       0.87228637       0.78831118 </v>
   <v>       0.68662640       0.12151594       0.52138473 </v>
   <v>       0.81654618       0.37483124       0.65490192 </v>
   <v>       0.94169480       0.46284166       0.83352188 </v>
   <v>       0.06039473       0.20802209       0.69954986 </v>
   <v>       0.43513736       0.95800355       0.69953939 </v>
   <v>       0.31691136       0.21193030       0.83332654 </v>
   <v>       0.44143320       0.62491946       0.65489530 </v>
   <v>       0.30876640       0.53784230       0.61087871 </v>
   <v>       0.93664132       0.45662534       0.56557715 </v>
   <v>       0.69004602       0.79107632       0.74404741 </v>
   <v>       0.93441495       0.78754690       0.12459713 </v>
   <v>       0.69169176       0.78774294       0.38907596 </v>
   <v>       0.94058228       0.79015281       0.74416548 </v>
   <v>       0.05876415       0.20288450       0.34504958 </v>
   <v>       0.68359521       0.45233778       0.34504486 </v>
   <v>       0.43499156       0.12133764       0.78864102 </v>
   <v>       0.06482515       0.20511197       0.21168653 </v>
   <v>       0.05544958       0.36578825       0.16677565 </v>
   <v>       0.93353898       0.78900369       0.25600611 </v>
   <v>       0.56044242       0.20773039       0.69957427 </v>
   <v>       0.68496095       0.95802292       0.69960312 </v>
   <v>       0.80982993       0.87236679       0.78823614 </v>
   <v>       0.43705096       0.95727122       0.56536931 </v>
   <v>       0.81017747       0.37329077       0.78820654 </v>
   <v>       0.68359236       0.28915460       0.25611549 </v>
   <v>       0.18733227       0.45716138       0.56547353 </v>
   <v>       0.05603678       0.86556474       0.16683991 </v>
   <v>       0.18374105       0.28802030       0.61092266 </v>
   <v>       0.06233773       0.20721889       0.56535837 </v>
   <v>       0.31045332       0.20798766       0.69964615 </v>
   <v>       0.56353815       0.53927122       0.87568183 </v>
   <v>       0.06190226       0.70635806       0.56553610 </v>
   <v>       0.68484647       0.62159391       0.78820822 </v>
   <v>       0.31615515       0.53787784       0.38906958 </v>
   <v>       0.18673149       0.62126493       0.52143782 </v>
   <v>       0.56244352       0.87025664       0.43445719 </v>
   <v>       0.43691945       0.45704614       0.56549544 </v>
   <v>       0.43987534       0.29111709       0.74404690 </v>
   <v>       0.81937696       0.87474083       0.30040954 </v>
   <v>       0.80857212       0.70276014       0.34506649 </v>
   <v>       0.44162556       0.46233385       0.83314071 </v>
   <v>       0.68738406       0.95569131       0.47867109 </v>
   <v>       0.68499497       0.45802989       0.69961393 </v>
   <v>       0.56179771       0.87197281       0.52138711 </v>
   <v>       0.56655485       0.37488360       0.65489926 </v>
   <v>       0.81643063       0.87495445       0.65493548 </v>
   <v>       0.81166614       0.37111529       0.43423684 </v>
   <v>       0.80906304       0.53835072       0.25623737 </v>
   <v>       0.69181765       0.46156058       0.83307148 </v>
   <v>       0.18603216       0.78783950       0.12412090 </v>
   <v>       0.69128920       0.28750303       0.38906668 </v>
   <v>       0.31651292       0.37492339       0.65488735 </v>
   <v>       0.30861946       0.20240943       0.34487797 </v>
   <v>       0.81554694       0.53988746       0.74394954 </v>
   <v>       0.69147889       0.96201021       0.83313918 </v>
   <v>       0.56627322       0.87494033       0.65491690 </v>
   <v>       0.31147153       0.70726258       0.56543963 </v>
   <v>       0.31195239       0.53207438       0.12430531 </v>
   <v>       0.68951750       0.95574874       0.21184281 </v>
   <v>       0.31141016       0.20663266       0.56548753 </v>
   <v>       0.18729390       0.95572404       0.47872589 </v>
   <v>       0.68741526       0.95718481       0.56547131 </v>
   <v>       0.43373761       0.78812851       0.61083363 </v>
   <v>       0.68257165       0.61235678       0.16684006 </v>
   <v>       0.31886899       0.87391600       0.30024460 </v>
   <v>       0.31221410       0.70579881       0.47867603 </v>
   <v>       0.93366545       0.28788909       0.61090199 </v>
   <v>       0.44507153       0.62479903       0.30046487 </v>
   <v>       0.80512438       0.86570810       0.16701210 </v>
   <v>       0.56630295       0.20466297       0.21149577 </v>
   <v>       0.93270216       0.61269486       0.16688239 </v>
   <v>       0.43722121       0.95572685       0.47863462 </v>
   <v>       0.56020325       0.37189398       0.78835102 </v>
   <v>       0.06140963       0.37203672       0.52135451 </v>
   <v>       0.30619147       0.36399551       0.16700105 </v>
   <v>       0.69494502       0.12391089       0.30035902 </v>
   <v>       0.44266215       0.96181789       0.83314926 </v>
   <v>       0.18485256       0.28781565       0.12459981 </v>
   <v>       0.18430511       0.28909413       0.25604542 </v>
   <v>       0.31248831       0.37032558       0.43445957 </v>
   <v>       0.56312601       0.53253215       0.12435111 </v>
   <v>       0.43367253       0.28807363       0.61085827 </v>
   <v>       0.18361251       0.45274473       0.34503440 </v>
   <v>       0.43494454       0.28827139       0.12458910 </v>
   <v>       0.68422078       0.78931235       0.25611557 </v>
   <v>       0.43659786       0.12152896       0.52137338 </v>
   <v>       0.18832889       0.29442287       0.87576637 </v>
   <v>       0.19147900       0.12499281       0.65488934 </v>
   <v>       0.94155959       0.12498061       0.65489971 </v>
   <v>       0.81624241       0.53758221       0.38907351 </v>
   <v>       0.06650524       0.03789369       0.38910140 </v>
   <v>       0.18285975       0.11237860       0.16659781 </v>
   <v>       0.05863683       0.53781186       0.61091719 </v>
   <v>       0.93424898       0.28896814       0.25598753 </v>
   <v>       0.55860325       0.53797736       0.61088029 </v>
   <v>       0.93686798       0.95738529       0.56544242 </v>
   <v>       0.69431027       0.62495874       0.30036925 </v>
   <v>       0.93744016       0.62012791       0.43447043 </v>
   <v>       0.93373070       0.62299774       0.78801552 </v>
   <v>       0.56039792       0.70769962       0.69957461 </v>
   <v>       0.06598190       0.71524674       0.83364470 </v>
   <v>       0.94486099       0.12381721       0.30028246 </v>
   <v>       0.93367098       0.78769874       0.61091786 </v>
   <v>       0.43348632       0.78938173       0.25606775 </v>
   <v>       0.31055341       0.37207788       0.78821069 </v>
   <v>       0.43960973       0.45568928       0.21194396 </v>
   <v>       0.18670066       0.12142341       0.52139390 </v>
   <v>       0.81025648       0.70798248       0.69956705 </v>
   <v>       0.05871380       0.03790464       0.61085480 </v>
   <v>       0.56608495       0.21297562       0.83301203 </v>
   <v>       0.31168095       0.87154534       0.52138335 </v>
   <v>       0.68528102       0.28853714       0.12449384 </v>
   <v>       0.18970661       0.95655936       0.21205837 </v>
   <v>       0.68363188       0.28817186       0.61091221 </v>
   <v>       0.30868931       0.03791376       0.61096956 </v>
   <v>       0.93495061       0.12262976       0.78835496 </v>
   <v>       0.43693410       0.79535873       0.87571644 </v>
   <v>       0.81543476       0.04031362       0.74387978 </v>
   <v>       0.93500058       0.45810229       0.69961376 </v>
   <v>       0.19128574       0.62499599       0.65490251 </v>
   <v>       0.31028004       0.70771014       0.69959492 </v>
   <v>       0.93428443       0.28786780       0.12457535 </v>
   <v>       0.43732619       0.45585782       0.47860430 </v>
   <v>       0.06221832       0.70574249       0.47858581 </v>
   <v>       0.93692630       0.11985256       0.43460458 </v>
   <v>       0.44418944       0.12469701       0.30048007 </v>
   <v>       0.18744194       0.11997218       0.43441123 </v>
   <v>       0.56326908       0.03921603       0.87580938 </v>
   <v>       0.18696893       0.95725708       0.56543228 </v>
   <v>       0.68533940       0.78788446       0.12450455 </v>
   <v>       0.55870297       0.70235152       0.34500111 </v>
   <v>       0.31629579       0.03694838       0.38900555 </v>
   <v>       0.68250801       0.11295285       0.16691512 </v>
   <v>       0.81598337       0.20538655       0.21176054 </v>
   <v>       0.05967255       0.53810273       0.25603754 </v>
   <v>       0.56223778       0.70566458       0.47862018 </v>
   <v>       0.43390808       0.78680493       0.12440060 </v>
   <v>       0.56913163       0.37396364       0.30043057 </v>
   <v>       0.43352457       0.95282842       0.34509487 </v>
   <v>       0.18519361       0.95806973       0.69969540 </v>
   <v>       0.43051818       0.61507741       0.16675767 </v>
   <v>       0.93994650       0.45533149       0.21194586 </v>
   <v>       0.06194343       0.53115547       0.12443493 </v>
   <v>       0.81180081       0.37189358       0.52137519 </v>
   <v>       0.94460910       0.62435002       0.30017315 </v>
   <v>       0.30939713       0.03785668       0.25595358 </v>
   <v>       0.68361329       0.78800005       0.61089069 </v>
   <v>       0.19177205       0.46257110       0.83317857 </v>
   <v>       0.43260639       0.11206418       0.16659879 </v>
   <v>       0.31149185       0.37165243       0.52138913 </v>
   <v>       0.43384966       0.62179073       0.78851886 </v>
   <v>       0.05834266       0.03838034       0.25604452 </v>
   <v>       0.56212987       0.70716758       0.56549252 </v>
   <v>       0.93999952       0.28955415       0.74400169 </v>
   <v>       0.68330386       0.12219540       0.78833372 </v>
   <v>       0.18952692       0.45501514       0.21163690 </v>
   <v>       0.94125061       0.78758126       0.38905329 </v>
   <v>       0.68601801       0.29774095       0.87574551 </v>
   <v>       0.55532577       0.86525427       0.16680701 </v>
   <v>       0.43537523       0.45801444       0.69955188 </v>
   <v>       0.93387838       0.95172066       0.34498345 </v>
   <v>       0.68654750       0.62130647       0.52128504 </v>
   <v>       0.06644475       0.87486026       0.65487459 </v>
   <v>       0.05988832       0.87289011       0.78824340 </v>
   <v>       0.06636879       0.37486593       0.65491066 </v>
   <v>       0.68703112       0.45568513       0.47864292 </v>
   <v>       0.18427035       0.78967110       0.25601249 </v>
   <v>       0.43703648       0.12069278       0.43439918 </v>
   <v>       0.81299321       0.03078255       0.12446389 </v>
   <v>       0.93655206       0.62146363       0.52140222 </v>
   <v>       0.44166150       0.12489227       0.65482853 </v>
   <v>       0.81225553       0.53106815       0.12430613 </v>
   <v>       0.43385415       0.45258719       0.34514685 </v>
   <v>       0.80892142       0.20254238       0.34510707 </v>
   <v>       0.30885706       0.70203668       0.34493661 </v>
   <v>       0.69139071       0.12491836       0.65494353 </v>
   <v>       0.56947224       0.87409548       0.30048610 </v>
   <v>       0.06553091       0.53995173       0.74399710 </v>
   <v>       0.94092072       0.95556912       0.21163669 </v>
   <v>       0.81583544       0.70497168       0.21154218 </v>
   <v>       0.06910209       0.87421342       0.30039130 </v>
   <v>       0.19453142       0.12467958       0.30043384 </v>
   <v>       0.05858436       0.70212767       0.34495604 </v>
   <v>       0.80885603       0.03788430       0.61086181 </v>
   <v>       0.06273588       0.37114393       0.43439578 </v>
   <v>       0.55890140       0.20268628       0.34496236 </v>
   <v>       0.81939304       0.37478090       0.30039682 </v>
   <v>       0.55938433       0.03895808       0.25606844 </v>
   <v>       0.56633160       0.53761415       0.38909118 </v>
   <v>       0.06248424       0.20576756       0.47866809 </v>
   <v>       0.31112389       0.87148277       0.78807069 </v>
   <v>       0.93525650       0.95825114       0.69957224 </v>
   <v>       0.06910977       0.37496419       0.30046308 </v>
   <v>       0.69145189       0.62496395       0.65497149 </v>
   <v>       0.68691440       0.45703112       0.56540040 </v>
   <v>       0.44056292       0.95676222       0.21216825 </v>
   <v>       0.31227663       0.20566591       0.47869076 </v>
   <v>       0.81329016       0.53862836       0.87560462 </v>
   <v>       0.68775727       0.62025915       0.43447801 </v>
   <v>       0.81050996       0.20786781       0.69962853 </v>
   <v>       0.81233876       0.70568318       0.47865843 </v>
   <v>       0.81172722       0.87085305       0.43427178 </v>
   <v>       0.93727778       0.95506091       0.47872921 </v>
   <v>       0.56226668       0.20562707       0.47863004 </v>
   <v>       0.18696237       0.62002528       0.43444303 </v>
   <v>       0.31532372       0.04068002       0.74387440 </v>
   <v>       0.94151259       0.62520151       0.65486894 </v>
   <v>       0.56631207       0.71283629       0.83309615 </v>
   <v>       0.31985455       0.37382182       0.30037807 </v>
   <v>       0.56535842       0.70372629       0.21207857 </v>
   <v>       0.18735372       0.45572477       0.47865016 </v>
   <v>       0.31454692       0.04034569       0.87558864 </v>
   <v>       0.18495349       0.45802447       0.69956824 </v>
   <v>       0.56162317       0.37152904       0.52139423 </v>
   <v>       0.19125279       0.28772066       0.38905443 </v>
   <v>       0.31468148       0.20590438       0.21178523 </v>
   <v>       0.06695985       0.70557365       0.21161653 </v>
   <v>       0.56204705       0.37059561       0.43441261 </v>
   <v>       0.43664720       0.62173035       0.52131551 </v>
   <v>       0.81684180       0.71430740       0.83304849 </v>
   <v>       0.06079103       0.37308039       0.78812336 </v>
   <v>       0.43663741       0.29643900       0.87605362 </v>
   <v>       0.31108937       0.03147873       0.12438570 </v>
   <v>       0.68773074       0.11975765       0.43440475 </v>
   <v>       0.18370378       0.95265521       0.34512818 </v>
   <v>       0.06656819       0.21364956       0.83363893 </v>
   <v>       0.55888869       0.03813333       0.61095534 </v>
   <v>       0.68992739       0.45595592       0.21219248 </v>
   <v>       0.19042023       0.79031886       0.74399535 </v>
   <v>       0.19419878       0.62438805       0.30045867 </v>
   <v>       0.44136096       0.78758324       0.38909675 </v>
   <v>       0.43390327       0.28955131       0.25609612 </v>
   <v>       0.06464001       0.53875039       0.87555099 </v>
   <v>       0.56590510       0.04038033       0.74389980 </v>
   <v>       0.18747077       0.79540297       0.87571573 </v>
   <v>       0.93728114       0.45560761       0.47865942 </v>
   <v>       0.56568767       0.54057873       0.74388610 </v>
   <v>       0.81126071       0.20690897       0.56544491 </v>
   <v>       0.18544778       0.62076026       0.78811603 </v>
   <v>       0.06699547       0.53861447       0.38922600 </v>
   <v>       0.06045288       0.70775617       0.69955738 </v>
   <v>       0.30890434       0.53862252       0.25556299 </v>
   <v>       0.31586287       0.70325907       0.21225824 </v>
   <v>       0.30544707       0.86586892       0.16592790 </v>
   <v>       0.43688494       0.62077589       0.43442793 </v>
   <v>       0.81802195       0.03884299       0.38921725 </v>
   <v>       0.93523260       0.29610563       0.87529182 </v>
   <v>       0.93759199       0.79371030       0.87520601 </v>
   <v>       0.06553147       0.03766664       0.87536043 </v>
   <v>       0.56296019       0.03008444       0.12503850 </v>
   <v>       0.80560079       0.36535305       0.16655727 </v>
   <v>       0.06211839       0.87085205       0.43445561 </v>
   <v>       0.93639186       0.12149936       0.52144224 </v>
   <v>       0.19263377       0.78752059       0.38902543 </v>
   <v>       0.31555414       0.54013923       0.74415931 </v>
  </varray>
 </structure>
 <calculation>
  <scstep>
   <time name="dav">   54.55   54.56</time>
   <time name="total">   54.69   54.74</time>
   <energy>
    <i name="alphaZ">  16293.21160653 </i>
    <i name="ewald"> 734629.51487857 </i>
    <i name="hartreedc">-925129.79780994 </i>
    <i name="XCdc">  -6511.94363186 </i>
    <i name="pawpsdc"> 162273.92519768 </i>
    <i name="pawaedc">-159623.75899949 </i>
    <i name="eentropy">     -1.07534555 </i>
    <i name="bandstr">  38484.27494445 </i>
    <i name="atom"> 168671.76673737 </i>
    <i name="e_fr_energy">  29086.11757776 </i>
    <i name="e_wo_entrp">  29087.19292331 </i>
    <i name="e_0_energy">  29086.65525053 </i>
   </energy>
  </scstep>
  <scstep>
   <time name="dav">   54.02   54.04</time>
   <time name="total">   54.03   54.04</time>
   <energy>
    <i name="e_fr_energy">   1190.23982153 </i>
    <i name="e_wo_entrp">   1191.72662626 </i>
    <i name="e_0_energy">   1190.98322389 </i>
   </energy>
  </scstep>
  <scstep>
   <time name="dav">   70.98   71.02</time>
   <time name="total">   70.99   71.03</time>
   <energy>
    <i name="e_fr_energy">  -1948.95343487 </i>
    <i name="e_wo_entrp">  -1945.40088396 </i>
    <i name="e_0_energy">  -1947.17715942 </i>
   </energy>
  </scstep>
  <scstep>
   <time name="dav">   89.26   89.31</time>
   <time name="total">   89.27   89.32</time>
   <energy>
    <i name="e_fr_energy">  -2619.02801336 </i>
    <i name="e_wo_entrp">  -2615.51040608 </i>
    <i name="e_0_energy">  -2617.26920972 </i>
   </energy>
  </scstep>
  <scstep>
   <time name="dav">   84.85   84.89</time>
   <time name="total">   86.92   86.96</time>
   <energy>
    <i name="e_fr_energy">  -2738.53136934 </i>
    <i name="e_wo_entrp">  -2734.89263754 </i>
    <i name="e_0_energy">  -2736.71200344 </i>
   </energy>
  </scstep>
  <scstep>
   <time name="diag">    8.24    8.24</time>
   <time name="diis">   37.35   37.36</time>
   <time name="orth">    2.30    2.30</time>
   <time name="total">   50.12   50.17</time>
   <energy>
    <i name="e_fr_energy">  -5476.32260429 </i>
    <i name="e_wo_entrp">  -5473.72040892 </i>
    <i name="e_0_energy">  -5475.02150661 </i>
   </energy>
  </scstep>
  <scstep>
   <time name="diag">    8.32    8.32</time>
   <time name="diis">   22.15   22.15</time>
   <time name="orth">    2.31    2.31</time>
   <time name="total">   34.89   34.93</time>
[...]
       <r>     5.8776     0.0000  2772.0000 </r>
       <r>     5.9205     0.0000  2772.0000 </r>
       <r>     5.9633     0.0000  2772.0000 </r>
       <r>     6.0062     0.0000  2772.0000 </r>
       <r>     6.0490     0.0000  2772.0000 </r>
       <r>     6.0919     0.0000  2772.0000 </r>
       <r>     6.1347     0.0000  2772.0000 </r>
       <r>     6.1775     0.0000  2772.0000 </r>
       <r>     6.2204     0.0000  2772.0000 </r>
       <r>     6.2632     0.0000  2772.0000 </r>
       <r>     6.3061     0.0000  2772.0000 </r>
       <r>     6.3489     0.0000  2772.0000 </r>
       <r>     6.3918     0.0000  2772.0000 </r>
       <r>     6.4346     0.0000  2772.0000 </r>
       <r>     6.4774     0.0000  2772.0000 </r>
       <r>     6.5203     0.0000  2772.0000 </r>
       <r>     6.5631     0.0000  2772.0000 </r>
       <r>     6.6060     0.0000  2772.0000 </r>
       <r>     6.6488     0.0000  2772.0000 </r>
       <r>     6.6917     0.0000  2772.0000 </r>
       <r>     6.7345     0.0000  2772.0000 </r>
       <r>     6.7773     0.0000  2772.0000 </r>
       <r>     6.8202     0.0000  2772.0000 </r>
      </set>
     </set>
    </array>
   </total>
  </dos>
 </calculation>
 <structure name="finalpos" >
  <crystal>
   <varray name="basis" >
    <v>       9.72667804       0.00000000       0.00000000 </v>
    <v>       0.00000000       8.42355028       0.00000000 </v>
    <v>       0.00000000       0.00000000      45.00000000 </v>
   </varray>
   <i name="volume">   3686.99226691 </i>
   <varray name="rec_basis" >
    <v>       0.10281002       0.00000000       0.00000000 </v>
    <v>       0.00000000       0.11871479       0.00000000 </v>
    <v>       0.00000000       0.00000000       0.02222222 </v>
   </varray>
  </crystal>
  <varray name="positions" >
   <v>       0.06109176       0.03381990       0.12470883 </v>
   <v>       0.31355957       0.87415978       0.65473397 </v>
   <v>       0.18723893       0.12360171       0.78820021 </v>
   <v>       0.44001855       0.28797452       0.38947640 </v>
   <v>       0.31497834       0.71030273       0.83322834 </v>
   <v>       0.81560732       0.21120506       0.83345635 </v>
   <v>       0.18916253       0.96090959       0.83350250 </v>
   <v>       0.56177701       0.20609645       0.56565558 </v>
   <v>       0.06328317       0.04054222       0.74392702 </v>
   <v>       0.81130392       0.87224217       0.52167921 </v>
   <v>       0.18860838       0.29072445       0.74395920 </v>
   <v>       0.93715575       0.45426560       0.34511403 </v>
   <v>       0.93901225       0.28756209       0.38936285 </v>
   <v>       0.81238297       0.04381569       0.87534227 </v>
   <v>       0.18587861       0.78904150       0.61040877 </v>
   <v>       0.56421850       0.03810873       0.38944519 </v>
   <v>       0.94095448       0.96137910       0.83357002 </v>
   <v>       0.31421676       0.54317814       0.87536532 </v>
   <v>       0.68861701       0.29039438       0.74400424 </v>
   <v>       0.18446388       0.61691693       0.16668105 </v>
   <v>       0.81199253       0.20511195       0.47841240 </v>
   <v>       0.81096506       0.53923767       0.61047311 </v>
   <v>       0.31295692       0.87140345       0.43434040 </v>
   <v>       0.81192990       0.03786162       0.25621014 </v>
   <v>       0.68708325       0.95409612       0.34509336 </v>
   <v>       0.93405140       0.11740079       0.16691482 </v>
   <v>       0.06224661       0.87232309       0.52158270 </v>
   <v>       0.56168460       0.53872493       0.25617158 </v>
   <v>       0.68691323       0.79339762       0.87538358 </v>
   <v>       0.55881426       0.36694293       0.16653890 </v>
   <v>       0.43877368       0.79126885       0.74401723 </v>
   <v>       0.81189433       0.70618993       0.56568140 </v>
   <v>       0.56207784       0.87347192       0.78821642 </v>
   <v>       0.68656038       0.12204194       0.52159210 </v>
   <v>       0.81362815       0.37422408       0.65474561 </v>
   <v>       0.94030046       0.46104493       0.83349333 </v>
   <v>       0.06187661       0.20730249       0.69945128 </v>
   <v>       0.43688843       0.95719120       0.69944109 </v>
   <v>       0.31475489       0.20983402       0.83359743 </v>
   <v>       0.43854834       0.62416025       0.65471508 </v>
   <v>       0.31095078       0.53939851       0.61043162 </v>
   <v>       0.93685026       0.45585304       0.56571462 </v>
   <v>       0.68870169       0.79138021       0.74402070 </v>
   <v>       0.93430488       0.78355612       0.12494159 </v>
   <v>       0.68967676       0.78775394       0.38937504 </v>
   <v>       0.93871629       0.79100104       0.74396383 </v>
   <v>       0.06224112       0.20447795       0.34505339 </v>
   <v>       0.68762531       0.45400780       0.34505328 </v>
   <v>       0.43692355       0.12351397       0.78837799 </v>
   <v>       0.06309805       0.20417594       0.21173691 </v>
   <v>       0.05780916       0.36724157       0.16668053 </v>
   <v>       0.93678877       0.78822094       0.25604149 </v>
   <v>       0.56185629       0.20719074       0.69947316 </v>
   <v>       0.68694206       0.95713736       0.69954276 </v>
   <v>       0.81123777       0.87405641       0.78814473 </v>
   <v>       0.43682166       0.95609073       0.56567057 </v>
   <v>       0.81173994       0.37364739       0.78816020 </v>
   <v>       0.68675257       0.28805537       0.25621922 </v>
   <v>       0.18652038       0.45615226       0.56567221 </v>
   <v>       0.05897280       0.86718544       0.16665961 </v>
   <v>       0.18607839       0.28932714       0.61053584 </v>
   <v>       0.06166621       0.20611782       0.56563828 </v>
   <v>       0.31210686       0.20735590       0.69947960 </v>
   <v>       0.56453743       0.54399009       0.87532370 </v>
   <v>       0.06162607       0.70598953       0.56567336 </v>
   <v>       0.68627265       0.62399097       0.78818105 </v>
   <v>       0.31437148       0.53759778       0.38944110 </v>
   <v>       0.18704803       0.62245020       0.52166912 </v>
   <v>       0.56263189       0.87138061       0.43427640 </v>
   <v>       0.43675656       0.45620369       0.56569653 </v>
   <v>       0.43887599       0.29105362       0.74398112 </v>
   <v>       0.81533594       0.87299495       0.30043319 </v>
   <v>       0.81211977       0.70355247       0.34513165 </v>
   <v>       0.44045100       0.45990782       0.83344652 </v>
   <v>       0.68752440       0.95477066       0.47839833 </v>
   <v>       0.68688484       0.45729996       0.69947512 </v>
   <v>       0.56194450       0.87244296       0.52159106 </v>
   <v>       0.56383467       0.37388138       0.65465451 </v>
   <v>       0.81359891       0.87386132       0.65475998 </v>
   <v>       0.81205161       0.37075785       0.43415500 </v>
   <v>       0.81197199       0.53814736       0.25619836 </v>
   <v>       0.69032319       0.46039365       0.83342147 </v>
   <v>       0.18535693       0.78365649       0.12433883 </v>
   <v>       0.68927203       0.28753428       0.38938234 </v>
   <v>       0.31338666       0.37413017       0.65468086 </v>
   <v>       0.31237628       0.20416134       0.34518003 </v>
   <v>       0.81377129       0.54078550       0.74388162 </v>
   <v>       0.69012589       0.96061277       0.83344965 </v>
   <v>       0.56356776       0.87391696       0.65477206 </v>
   <v>       0.31163928       0.70622268       0.56567149 </v>
   <v>       0.31026882       0.53430286       0.12453309 </v>
   <v>       0.68789277       0.95429651       0.21200393 </v>
   <v>       0.31173322       0.20633479       0.56565028 </v>
   <v>       0.18728295       0.95497173       0.47841666 </v>
   <v>       0.68718064       0.95610377       0.56572910 </v>
   <v>       0.43589583       0.78913132       0.61041639 </v>
   <v>       0.68362852       0.61512210       0.16691215 </v>
   <v>       0.31521441       0.87265006       0.30039141 </v>
   <v>       0.31197251       0.70491328       0.47831128 </v>
   <v>       0.93595618       0.28903146       0.61040696 </v>
   <v>       0.44053082       0.62242576       0.30046890 </v>
   <v>       0.80800130       0.86608239       0.16671686 </v>
   <v>       0.56365941       0.20414494       0.21186635 </v>
   <v>       0.93441942       0.61533718       0.16693206 </v>
   <v>       0.43736302       0.95467178       0.47836669 </v>
   <v>       0.56183350       0.37322120       0.78832064 </v>
   <v>       0.06172519       0.37282444       0.52157249 </v>
   <v>       0.30780262       0.36584207       0.16679576 </v>
   <v>       0.69043420       0.12292231       0.30057564 </v>
   <v>       0.44078990       0.96006833       0.83341885 </v>
   <v>       0.18502671       0.28447944       0.12488213 </v>
   <v>       0.18679876       0.28759443       0.25611835 </v>
   <v>       0.31276088       0.37096719       0.43427735 </v>
   <v>       0.56120853       0.53339483       0.12461463 </v>
   <v>       0.43590527       0.28929125       0.61041451 </v>
   <v>       0.18707599       0.45415662       0.34514042 </v>
   <v>       0.43390277       0.28472975       0.12488449 </v>
   <v>       0.68690601       0.78830769       0.25624741 </v>
   <v>       0.43683671       0.12268522       0.52152901 </v>
   <v>       0.18963209       0.29208216       0.87561286 </v>
   <v>       0.18861749       0.12402818       0.65481424 </v>
   <v>       0.93870290       0.12377908       0.65474141 </v>
   <v>       0.81435102       0.53745485       0.38936045 </v>
   <v>       0.06438358       0.03806031       0.38940680 </v>
   <v>       0.18354275       0.11639093       0.16680773 </v>
   <v>       0.06085791       0.53918580       0.61042539 </v>
   <v>       0.93662265       0.28805913       0.25608037 </v>
   <v>       0.56101297       0.53945392       0.61040355 </v>
   <v>       0.93680209       0.95564808       0.56567551 </v>
   <v>       0.69051972       0.62300463       0.30054496 </v>
   <v>       0.93752326       0.62111953       0.43422810 </v>
   <v>       0.93651201       0.62504239       0.78813986 </v>
   <v>       0.56161638       0.70706206       0.69944650 </v>
   <v>       0.06413029       0.71230102       0.83354191 </v>
   <v>       0.94022237       0.12310292       0.30046871 </v>
   <v>       0.93589102       0.78884246       0.61048499 </v>
   <v>       0.43693595       0.78838687       0.25626536 </v>
   <v>       0.31206538       0.37301134       0.78820786 </v>
   <v>       0.43855492       0.45364087       0.21189690 </v>
   <v>       0.18698775       0.12236335       0.52160307 </v>
   <v>       0.81192119       0.70753137       0.69948891 </v>
   <v>       0.06072820       0.03921099       0.61036295 </v>
   <v>       0.56447417       0.21003804       0.83324207 </v>
   <v>       0.31182158       0.87243114       0.52167211 </v>
   <v>       0.68540272       0.28469681       0.12464425 </v>
   <v>       0.18773319       0.95525675       0.21201040 </v>
   <v>       0.68585964       0.28942574       0.61055031 </v>
   <v>       0.31084482       0.03897229       0.61047930 </v>
   <v>       0.93671395       0.12474286       0.78823773 </v>
   <v>       0.43820468       0.79242610       0.87540652 </v>
   <v>       0.81367016       0.04080852       0.74390033 </v>
   <v>       0.93694369       0.45729671       0.69943697 </v>
   <v>       0.18866211       0.62414747       0.65473654 </v>
   <v>       0.31194886       0.70743974       0.69943180 </v>
   <v>       0.93445737       0.28411962       0.12471810 </v>
   <v>       0.43728577       0.45440023       0.47830248 </v>
   <v>       0.06228339       0.70423522       0.47839520 </v>
   <v>       0.93739731       0.12107604       0.43454793 </v>
   <v>       0.44059219       0.12237506       0.30056588 </v>
   <v>       0.18736940       0.12097901       0.43414219 </v>
   <v>       0.56463438       0.04362379       0.87546859 </v>
   <v>       0.18636609       0.95608327       0.56572485 </v>
   <v>       0.68585818       0.78396427       0.12497350 </v>
   <v>       0.56255625       0.70389452       0.34519984 </v>
   <v>       0.31449820       0.03780418       0.38943388 </v>
   <v>       0.68390522       0.11609326       0.16690711 </v>
   <v>       0.81398534       0.20419786       0.21200924 </v>
   <v>       0.06150435       0.53848421       0.25603394 </v>
   <v>       0.56254469       0.70498232       0.47832136 </v>
   <v>       0.43309939       0.78313692       0.12450148 </v>
   <v>       0.56521661       0.37245122       0.30048125 </v>
   <v>       0.43716955       0.95412352       0.34507354 </v>
   <v>       0.18692335       0.95745601       0.69950092 </v>
   <v>       0.43329329       0.61636339       0.16666315 </v>
   <v>       0.93863058       0.45482447       0.21200177 </v>
   <v>       0.06039437       0.53280105       0.12462618 </v>
   <v>       0.81183755       0.37272739       0.52158018 </v>
   <v>       0.94027938       0.62320805       0.30034826 </v>
   <v>       0.31173645       0.03797605       0.25612934 </v>
   <v>       0.68609584       0.78904052       0.61044875 </v>
   <v>       0.19000392       0.46060572       0.83352993 </v>
   <v>       0.43442284       0.11591980       0.16683890 </v>
   <v>       0.31149789       0.37260178       0.52159511 </v>
   <v>       0.43718240       0.62365368       0.78835432 </v>
   <v>       0.06142841       0.03813862       0.25605185 </v>
   <v>       0.56181564       0.70614690       0.56566955 </v>
   <v>       0.93872913       0.29020160       0.74395998 </v>
   <v>       0.68637826       0.12380171       0.78814919 </v>
   <v>       0.18732799       0.45449301       0.21173723 </v>
   <v>       0.93890605       0.78744651       0.38939435 </v>
   <v>       0.68716920       0.29286903       0.87551571 </v>
   <v>       0.55772633       0.86736540       0.16671799 </v>
   <v>       0.43693020       0.45729585       0.69947400 </v>
   <v>       0.93761654       0.95402154       0.34515713 </v>
   <v>       0.68663316       0.62242067       0.52159799 </v>
   <v>       0.06364369       0.87387706       0.65477312 </v>
   <v>       0.06209686       0.87402047       0.78826774 </v>
   <v>       0.06351703       0.37402758       0.65472661 </v>
   <v>       0.68721308       0.45466303       0.47821465 </v>
   <v>       0.18641365       0.78840125       0.25622801 </v>
   <v>       0.43749612       0.12119824       0.43431595 </v>
   <v>       0.81187271       0.03443049       0.12481166 </v>
   <v>       0.93660521       0.62239735       0.52160544 </v>
   <v>       0.43866204       0.12384193       0.65475806 </v>
   <v>       0.81122337       0.53337605       0.12450972 </v>
   <v>       0.43749798       0.45403044       0.34513485 </v>
   <v>       0.81223056       0.20382167       0.34512934 </v>
   <v>       0.31256982       0.70398362       0.34511512 </v>
   <v>       0.68858497       0.12389651       0.65474504 </v>
   <v>       0.56556070       0.87286566       0.30047252 </v>
   <v>       0.06336341       0.54042705       0.74387592 </v>
   <v>       0.93874505       0.95443142       0.21193175 </v>
   <v>       0.81378395       0.70373572       0.21187781 </v>
   <v>       0.06501615       0.87289690       0.30048155 </v>
   <v>       0.19009915       0.12298291       0.30036550 </v>
   <v>       0.06208178       0.70411265       0.34513031 </v>
   <v>       0.81123804       0.03910452       0.61039699 </v>
   <v>       0.06268890       0.37071376       0.43418523 </v>
   <v>       0.56256084       0.20386942       0.34516920 </v>
   <v>       0.81519107       0.37311579       0.30037868 </v>
   <v>       0.56213670       0.03826321       0.25617584 </v>
   <v>       0.56406319       0.53730169       0.38939816 </v>
   <v>       0.06250362       0.20486751       0.47840548 </v>
   <v>       0.31241298       0.87308042       0.78805147 </v>
   <v>       0.93690964       0.95737249       0.69944532 </v>
   <v>       0.06563735       0.37300342       0.30055428 </v>
   <v>       0.68860405       0.62420413       0.65475612 </v>
   <v>       0.68685464       0.45623852       0.56566281 </v>
   <v>       0.43848647       0.95547063       0.21207457 </v>
   <v>       0.31213124       0.20468206       0.47834592 </v>
   <v>       0.81298069       0.54333827       0.87533013 </v>
   <v>       0.68810249       0.62076559       0.43421994 </v>
   <v>       0.81203234       0.20714991       0.69947725 </v>
   <v>       0.81238378       0.70478220       0.47835106 </v>
   <v>       0.81181735       0.87119767       0.43426445 </v>
   <v>       0.93715716       0.95443300       0.47846211 </v>
   <v>       0.56239986       0.20465722       0.47837643 </v>
   <v>       0.18716584       0.62068750       0.43431250 </v>
   <v>       0.31359832       0.04108697       0.74396274 </v>
   <v>       0.93856146       0.62424235       0.65471482 </v>
   <v>       0.56486217       0.71033866       0.83325665 </v>
   <v>       0.31525254       0.37255774       0.30051184 </v>
   <v>       0.56397586       0.70346068       0.21211559 </v>
   <v>       0.18741723       0.45467528       0.47834422 </v>
   <v>       0.31556509       0.04470513       0.87536015 </v>
   <v>       0.18675004       0.45744209       0.69941534 </v>
   <v>       0.56219883       0.37261242       0.52156214 </v>
   <v>       0.18896364       0.28784132       0.38945107 </v>
   <v>       0.31308816       0.20464620       0.21190132 </v>
   <v>       0.06315088       0.70406433       0.21176588 </v>
   <v>       0.56254901       0.37101321       0.43428642 </v>
   <v>       0.43678971       0.62263336       0.52147610 </v>
   <v>       0.81495336       0.71139959       0.83320167 </v>
   <v>       0.06220492       0.37429502       0.78816254 </v>
   <v>       0.43800536       0.29278773       0.87560731 </v>
   <v>       0.30960544       0.03437341       0.12430609 </v>
   <v>       0.68785826       0.12150135       0.43423079 </v>
   <v>       0.18709610       0.95389890       0.34512735 </v>
   <v>       0.06439024       0.21074255       0.83343059 </v>
   <v>       0.56110457       0.03913069       0.61044357 </v>
   <v>       0.68833058       0.45415141       0.21196486 </v>
   <v>       0.18850674       0.79085844       0.74392487 </v>
   <v>       0.19026370       0.62263803       0.30039809 </v>
   <v>       0.43978160       0.78756658       0.38941533 </v>
   <v>       0.43670688       0.28795643       0.25609789 </v>
   <v>       0.06529491       0.54302351       0.87540557 </v>
   <v>       0.56426690       0.04099959       0.74406375 </v>
   <v>       0.18877656       0.79266954       0.87553434 </v>
   <v>       0.93715512       0.45436725       0.47830962 </v>
   <v>       0.56400823       0.54123338       0.74391779 </v>
   <v>       0.81177106       0.20623778       0.56564971 </v>
   <v>       0.18720037       0.62402646       0.78816401 </v>
   <v>       0.06484447       0.53795626       0.38948621 </v>
   <v>       0.06206289       0.70756916       0.69944337 </v>
   <v>       0.31103889       0.53798019       0.25599901 </v>
   <v>       0.31345284       0.70409617       0.21206828 </v>
   <v>       0.30759586       0.86723397       0.16588618 </v>
   <v>       0.43709874       0.62075031       0.43423809 </v>
   <v>       0.81519177       0.03792481       0.38939169 </v>
   <v>       0.93634091       0.29324675       0.87541715 </v>
   <v>       0.93725437       0.79102928       0.87534691 </v>
   <v>       0.06522138       0.04262584       0.87525732 </v>
   <v>       0.56094118       0.03367938       0.12501092 </v>
   <v>       0.80855975       0.36677830       0.16634694 </v>
   <v>       0.06205796       0.87139219       0.43428098 </v>
   <v>       0.93689886       0.12265149       0.52149149 </v>
   <v>       0.19007953       0.78695103       0.38921485 </v>
   <v>       0.31400932       0.54082902       0.74411839 </v>
  </varray>
 </structure>
</modeling>
