 288 288   0   0
  0.1280206E+02  0.9726678E-09  0.8423550E-09  0.4500000E-08  0.2500000E-15
  1.000000000000000E-004
  CAR 
 unknown system                          
      6.75963518     -6.05239177  301      4.29938745      1.00000000
     -6.052  0.0000E+00  0.0000E+00
     -6.010  0.0000E+00  0.0000E+00
     -5.967  0.0000E+00  0.0000E+00
     -5.924  0.0000E+00  0.0000E+00
     -5.882  0.0000E+00  0.0000E+00
     -5.839  0.0000E+00  0.0000E+00
     -5.796  0.0000E+00  0.0000E+00
     -5.753  0.0000E+00  0.0000E+00
     -5.711  0.0000E+00  0.0000E+00
     -5.668  0.0000E+00  0.0000E+00
     -5.625  0.0000E+00  0.0000E+00
     -5.583  0.0000E+00  0.0000E+00
     -5.540  0.0000E+00  0.0000E+00
     -5.497  0.0000E+00  0.0000E+00
     -5.454  0.0000E+00  0.0000E+00
     -5.412  0.1625E-15  0.6939E-17
     -5.369  0.3834E-14  0.1707E-15
     -5.326  0.8205E-13  0.3675E-14
     -5.284  0.1497E-11  0.6760E-13
     -5.241  0.2326E-10  0.1061E-11
     -5.198  0.3079E-09  0.1421E-10
     -5.156  0.3473E-08  0.1625E-09
     -5.113  0.3339E-07  0.1588E-08
     -5.070  0.2737E-06  0.1328E-07
     -5.027  0.1914E-05  0.9504E-07
     -4.985  0.1144E-04  0.5835E-06
     -4.942  0.5844E-04  0.3079E-05
     -4.899  0.2559E-03  0.1401E-04
     -4.857  0.9636E-03  0.5516E-04
     -4.814  0.3135E-02  0.1890E-03
     -4.771  0.8867E-02  0.5677E-03
     -4.728  0.2201E-01  0.1508E-02
     -4.686  0.4850E-01  0.3579E-02
     -4.643  0.9609E-01  0.7683E-02
     -4.600  0.1733E+00  0.1509E-01
     -4.558  0.2879E+00  0.2738E-01
     -4.515  0.4438E+00  0.4633E-01
     -4.472  0.6386E+00  0.7361E-01
     -4.430  0.8618E+00  0.1104E+00
     -4.387  0.1096E+01  0.1572E+00
     -4.344  0.1318E+01  0.2135E+00
     -4.301  0.1508E+01  0.2779E+00
     -4.259  0.1651E+01  0.3484E+00
     -4.216  0.1748E+01  0.4230E+00
     -4.173  0.1816E+01  0.5006E+00
     -4.131  0.1881E+01  0.5809E+00
     -4.088  0.1976E+01  0.6653E+00
     -4.045  0.2122E+01  0.7560E+00
     -4.002  0.2326E+01  0.8553E+00
     -3.960  0.2569E+01  0.9650E+00
     -3.917  0.2815E+01  0.1085E+01
     -3.874  0.3020E+01  0.1214E+01
     -3.832  0.3149E+01  0.1349E+01
     -3.789  0.3189E+01  0.1485E+01
     -3.746  0.3157E+01  0.1620E+01
     -3.704  0.3095E+01  0.1752E+01
     -3.661  0.3058E+01  0.1882E+01
     -3.618  0.3091E+01  0.2014E+01
     -3.575  0.3214E+01  0.2152E+01
     -3.533  0.3415E+01  0.2298E+01
     -3.490  0.3657E+01  0.2454E+01
     -3.447  0.3891E+01  0.2620E+01
     -3.405  0.4072E+01  0.2794E+01
     -3.362  0.4176E+01  0.2972E+01
     -3.319  0.4206E+01  0.3152E+01
     -3.276  0.4189E+01  0.3331E+01
     -3.234  0.4167E+01  0.3509E+01
     -3.191  0.4186E+01  0.3687E+01
     -3.148  0.4279E+01  0.3870E+01
     -3.106  0.4450E+01  0.4060E+01
     -3.063  0.4676E+01  0.4260E+01
     -3.020  0.4915E+01  0.4470E+01
     -2.978  0.5122E+01  0.4689E+01
     -2.935  0.5264E+01  0.4913E+01
     -2.892  0.5333E+01  0.5141E+01
     -2.849  0.5350E+01  0.5370E+01
     -2.807  0.5364E+01  0.5599E+01
     -2.764  0.5420E+01  0.5830E+01
     -2.721  0.5530E+01  0.6066E+01
     -2.679  0.5652E+01  0.6308E+01
     -2.636  0.5717E+01  0.6552E+01
     -2.593  0.5676E+01  0.6794E+01
     -2.550  0.5549E+01  0.7031E+01
     -2.508  0.5435E+01  0.7263E+01
     -2.465  0.5466E+01  0.7497E+01
     -2.422  0.5736E+01  0.7742E+01
     -2.380  0.6243E+01  0.8008E+01
     -2.337  0.6865E+01  0.8302E+01
     -2.294  0.7398E+01  0.8617E+01
     -2.251  0.7654E+01  0.8944E+01
     -2.209  0.7562E+01  0.9267E+01
     -2.166  0.7227E+01  0.9576E+01
     -2.123  0.6872E+01  0.9869E+01
     -2.081  0.6727E+01  0.1016E+02
     -2.038  0.6914E+01  0.1045E+02
     -1.995  0.7394E+01  0.1077E+02
     -1.953  0.8005E+01  0.1111E+02
     -1.910  0.8540E+01  0.1147E+02
     -1.867  0.8847E+01  0.1185E+02
     -1.824  0.8899E+01  0.1223E+02
     -1.782  0.8793E+01  0.1261E+02
     -1.739  0.8683E+01  0.1298E+02
     -1.696  0.8682E+01  0.1335E+02
     -1.654  0.8814E+01  0.1373E+02
     -1.611  0.9040E+01  0.1411E+02
     -1.568  0.9307E+01  0.1451E+02
     -1.525  0.9589E+01  0.1492E+02
     -1.483  0.9877E+01  0.1534E+02
     -1.440  0.1015E+02  0.1577E+02
     -1.397  0.1038E+02  0.1622E+02
     -1.355  0.1053E+02  0.1667E+02
     -1.312  0.1064E+02  0.1712E+02
     -1.269  0.1088E+02  0.1759E+02
     -1.227  0.1143E+02  0.1807E+02
     -1.184  0.1236E+02  0.1860E+02
     -1.141  0.1352E+02  0.1918E+02
     -1.098  0.1461E+02  0.1980E+02
     -1.056  0.1531E+02  0.2046E+02
     -1.013  0.1553E+02  0.2112E+02
     -0.970  0.1547E+02  0.2178E+02
     -0.928  0.1556E+02  0.2245E+02
     -0.885  0.1618E+02  0.2314E+02
     -0.842  0.1747E+02  0.2388E+02
     -0.799  0.1932E+02  0.2471E+02
     -0.757  0.2160E+02  0.2563E+02
     -0.714  0.2429E+02  0.2667E+02
     -0.671  0.2757E+02  0.2785E+02
     -0.629  0.3158E+02  0.2919E+02
     -0.586  0.3613E+02  0.3074E+02
     -0.543  0.4075E+02  0.3248E+02
     -0.501  0.4485E+02  0.3439E+02
     -0.458  0.4811E+02  0.3645E+02
     -0.415  0.5056E+02  0.3861E+02
     -0.372  0.5248E+02  0.4085E+02
     -0.330  0.5411E+02  0.4316E+02
     -0.287  0.5553E+02  0.4553E+02
     -0.244  0.5663E+02  0.4795E+02
     -0.202  0.5733E+02  0.5040E+02
     -0.159  0.5761E+02  0.5286E+02
     -0.116  0.5765E+02  0.5532E+02
     -0.073  0.5771E+02  0.5778E+02
     -0.031  0.5799E+02  0.6026E+02
      0.012  0.5867E+02  0.6277E+02
      0.055  0.5991E+02  0.6532E+02
      0.097  0.6188E+02  0.6797E+02
      0.140  0.6465E+02  0.7073E+02
      0.183  0.6806E+02  0.7364E+02
      0.226  0.7173E+02  0.7670E+02
      0.268  0.7526E+02  0.7991E+02
      0.311  0.7838E+02  0.8326E+02
      0.354  0.8100E+02  0.8672E+02
      0.396  0.8314E+02  0.9027E+02
      0.439  0.8481E+02  0.9389E+02
      0.482  0.8598E+02  0.9756E+02
      0.524  0.8661E+02  0.1013E+03
      0.567  0.8669E+02  0.1050E+03
      0.610  0.8634E+02  0.1087E+03
      0.653  0.8568E+02  0.1123E+03
      0.695  0.8473E+02  0.1159E+03
      0.738  0.8341E+02  0.1195E+03
      0.781  0.8169E+02  0.1230E+03
      0.823  0.7979E+02  0.1264E+03
      0.866  0.7811E+02  0.1297E+03
      0.909  0.7701E+02  0.1330E+03
      0.952  0.7653E+02  0.1363E+03
      0.994  0.7642E+02  0.1395E+03
      1.037  0.7625E+02  0.1428E+03
      1.080  0.7571E+02  0.1460E+03
      1.122  0.7479E+02  0.1492E+03
      1.165  0.7382E+02  0.1524E+03
      1.208  0.7324E+02  0.1555E+03
      1.250  0.7327E+02  0.1586E+03
      1.293  0.7371E+02  0.1618E+03
      1.336  0.7393E+02  0.1649E+03
      1.379  0.7339E+02  0.1681E+03
      1.421  0.7194E+02  0.1711E+03
      1.464  0.7002E+02  0.1741E+03
      1.507  0.6835E+02  0.1771E+03
      1.549  0.6752E+02  0.1799E+03
      1.592  0.6777E+02  0.1828E+03
      1.635  0.6902E+02  0.1858E+03
      1.678  0.7100E+02  0.1888E+03
      1.720  0.7340E+02  0.1920E+03
      1.763  0.7593E+02  0.1952E+03
      1.806  0.7839E+02  0.1985E+03
      1.848  0.8067E+02  0.2020E+03
      1.891  0.8270E+02  0.2055E+03
      1.934  0.8451E+02  0.2091E+03
      1.976  0.8617E+02  0.2128E+03
      2.019  0.8776E+02  0.2166E+03
      2.062  0.8934E+02  0.2204E+03
      2.105  0.9092E+02  0.2243E+03
      2.147  0.9250E+02  0.2282E+03
      2.190  0.9410E+02  0.2322E+03
      2.233  0.9581E+02  0.2363E+03
      2.275  0.9788E+02  0.2405E+03
      2.318  0.1006E+03  0.2448E+03
      2.361  0.1040E+03  0.2492E+03
      2.404  0.1082E+03  0.2539E+03
      2.446  0.1127E+03  0.2587E+03
      2.489  0.1171E+03  0.2637E+03
      2.532  0.1212E+03  0.2688E+03
      2.574  0.1246E+03  0.2742E+03
      2.617  0.1271E+03  0.2796E+03
      2.660  0.1288E+03  0.2851E+03
      2.702  0.1297E+03  0.2906E+03
      2.745  0.1304E+03  0.2962E+03
      2.788  0.1315E+03  0.3018E+03
      2.831  0.1335E+03  0.3075E+03
      2.873  0.1366E+03  0.3134E+03
      2.916  0.1401E+03  0.3193E+03
      2.959  0.1425E+03  0.3254E+03
      3.001  0.1423E+03  0.3315E+03
      3.044  0.1383E+03  0.3374E+03
      3.087  0.1309E+03  0.3430E+03
      3.130  0.1214E+03  0.3482E+03
      3.172  0.1116E+03  0.3529E+03
      3.215  0.1032E+03  0.3574E+03
      3.258  0.9703E+02  0.3615E+03
      3.300  0.9312E+02  0.3655E+03
      3.343  0.9110E+02  0.3694E+03
      3.386  0.9031E+02  0.3732E+03
      3.429  0.8996E+02  0.3771E+03
      3.471  0.8930E+02  0.3809E+03
      3.514  0.8788E+02  0.3846E+03
      3.557  0.8583E+02  0.3883E+03
      3.599  0.8382E+02  0.3919E+03
      3.642  0.8275E+02  0.3954E+03
      3.685  0.8326E+02  0.3990E+03
      3.727  0.8536E+02  0.4026E+03
      3.770  0.8848E+02  0.4064E+03
      3.813  0.9184E+02  0.4103E+03
      3.856  0.9487E+02  0.4144E+03
      3.898  0.9735E+02  0.4185E+03
      3.941  0.9937E+02  0.4228E+03
      3.984  0.1011E+03  0.4271E+03
      4.026  0.1024E+03  0.4315E+03
      4.069  0.1034E+03  0.4359E+03
      4.112  0.1038E+03  0.4403E+03
      4.155  0.1035E+03  0.4447E+03
      4.197  0.1026E+03  0.4491E+03
      4.240  0.1015E+03  0.4534E+03
      4.283  0.1004E+03  0.4577E+03
      4.325  0.9972E+02  0.4620E+03
      4.368  0.9957E+02  0.4662E+03
      4.411  0.9990E+02  0.4705E+03
      4.453  0.1004E+03  0.4748E+03
      4.496  0.1007E+03  0.4791E+03
      4.539  0.1004E+03  0.4834E+03
      4.582  0.9966E+02  0.4876E+03
      4.624  0.9877E+02  0.4919E+03
      4.667  0.9833E+02  0.4961E+03
      4.710  0.9884E+02  0.5003E+03
      4.752  0.1005E+03  0.5046E+03
      4.795  0.1031E+03  0.5090E+03
      4.838  0.1063E+03  0.5135E+03
      4.881  0.1093E+03  0.5182E+03
      4.923  0.1119E+03  0.5230E+03
      4.966  0.1133E+03  0.5278E+03
      5.009  0.1128E+03  0.5326E+03
      5.051  0.1091E+03  0.5373E+03
      5.094  0.1013E+03  0.5416E+03
      5.137  0.8887E+02  0.5454E+03
      5.179  0.7269E+02  0.5485E+03
      5.222  0.5468E+02  0.5508E+03
      5.265  0.3740E+02  0.5524E+03
      5.308  0.2303E+02  0.5534E+03
      5.350  0.1267E+02  0.5540E+03
      5.393  0.6179E+01  0.5542E+03
      5.436  0.2660E+01  0.5543E+03
      5.478  0.1006E+01  0.5544E+03
      5.521  0.3330E+00  0.5544E+03
      5.564  0.9628E-01  0.5544E+03
      5.607  0.2424E-01  0.5544E+03
      5.649  0.5306E-02  0.5544E+03
      5.692  0.1008E-02  0.5544E+03
      5.735  0.1658E-03  0.5544E+03
      5.777  0.2360E-04  0.5544E+03
      5.820  0.2901E-05  0.5544E+03
      5.863  0.3078E-06  0.5544E+03
      5.906  0.2814E-07  0.5544E+03
      5.948  0.2215E-08  0.5544E+03
      5.991  0.1499E-09  0.5544E+03
      6.034  0.8719E-11  0.5544E+03
      6.076  0.4343E-12  0.5544E+03
      6.119  0.1748E-13  0.5544E+03
      6.162  0.3250E-15  0.5544E+03
      6.204  0.0000E+00  0.5544E+03
      6.247  0.0000E+00  0.5544E+03
      6.290  0.0000E+00  0.5544E+03
      6.333  0.0000E+00  0.5544E+03
      6.375  0.0000E+00  0.5544E+03
      6.418  0.0000E+00  0.5544E+03
      6.461  0.0000E+00  0.5544E+03
      6.503  0.0000E+00  0.5544E+03
      6.546  0.0000E+00  0.5544E+03
      6.589  0.0000E+00  0.5544E+03
      6.632  0.0000E+00  0.5544E+03
      6.674  0.0000E+00  0.5544E+03
      6.717  0.0000E+00  0.5544E+03
      6.760  0.0000E+00  0.5544E+03
