       N       E                     dE             d eps       ncg     rms          rms(c)
DAV:   1     0.292342523736E+05    0.29234E+05   -0.86592E+05 27944   0.197E+03
DAV:   2     0.119756269228E+04   -0.28037E+05   -0.27424E+05 27720   0.605E+02
DAV:   3    -0.194106929225E+04   -0.31386E+04   -0.27273E+04 39144   0.280E+02
DAV:   4    -0.261087223274E+04   -0.66980E+03   -0.61004E+03 50848   0.978E+01
DAV:   5    -0.273098925798E+04   -0.12012E+03   -0.11252E+03 48286   0.399E+01    0.203E+02
RMM:   6    -0.613177829528E+04   -0.34008E+04   -0.12639E+04 48607   0.253E+02    0.669E+02
RMM:   7    -0.396726812743E+04    0.21645E+04   -0.35186E+03 47673   0.102E+02    0.390E+02
RMM:   8    -0.119822847892E+05   -0.80150E+04   -0.22762E+04 48223   0.405E+02    0.133E+03
RMM:   9    -0.144071761711E+05   -0.24249E+04   -0.17555E+04 49925   0.220E+02    0.965E+02
RMM:  10    -0.968890554305E+04    0.47183E+04   -0.78401E+03 45962   0.184E+02    0.812E+02
RMM:  11    -0.110801276752E+05   -0.13912E+04   -0.15026E+04 48411   0.206E+02    0.847E+02
RMM:  12    -0.116215299862E+05   -0.54140E+03   -0.11692E+04 48890   0.125E+02    0.714E+02
RMM:  13    -0.898556353048E+04    0.26360E+04   -0.10811E+04 37459   0.249E+02    0.664E+02
RMM:  14    -0.444683647202E+04    0.45387E+04   -0.70719E+03 34455   0.153E+02    0.471E+02
RMM:  15    -0.529678556488E+04   -0.84995E+03   -0.26373E+03 34303   0.123E+02    0.460E+02
RMM:  16    -0.290043634754E+04    0.23963E+04   -0.11006E+03 27956   0.666E+01    0.284E+02
RMM:  17    -0.291730951842E+04   -0.16873E+02   -0.11241E+03 37620   0.415E+01    0.300E+02
RMM:  18    -0.332533717115E+04   -0.40803E+03   -0.30986E+03 47785   0.954E+01    0.292E+02
RMM:  19    -0.311653446486E+04    0.20880E+03   -0.22427E+03 49039   0.700E+01    0.240E+02
RMM:  20    -0.292095201064E+04    0.19558E+03   -0.15093E+03 45536   0.411E+01    0.222E+02
RMM:  21    -0.268643392781E+04    0.23452E+03   -0.83051E+02 36786   0.389E+01    0.197E+02
RMM:  22    -0.244626447253E+04    0.24017E+03   -0.55452E+02 39784   0.265E+01    0.141E+02
RMM:  23    -0.241256331478E+04    0.33701E+02   -0.36688E+02 38051   0.207E+01    0.121E+02
RMM:  24    -0.241690985006E+04   -0.43465E+01   -0.29865E+02 38517   0.189E+01    0.117E+02
RMM:  25    -0.237710303900E+04    0.39807E+02   -0.13095E+02 41413   0.105E+01    0.972E+01
RMM:  26    -0.241624065933E+04   -0.39138E+02   -0.71768E+01 36820   0.770E+00    0.121E+02
RMM:  27    -0.237556395778E+04    0.40677E+02   -0.38211E+01 40885   0.530E+00    0.992E+01
RMM:  28    -0.237362811578E+04    0.19358E+01   -0.25619E+01 31478   0.784E+00    0.974E+01
RMM:  29    -0.234821754730E+04    0.25411E+02   -0.20434E+01 41692   0.392E+00    0.746E+01
RMM:  30    -0.235082111754E+04   -0.26036E+01   -0.14080E+01 30197   0.634E+00    0.792E+01
RMM:  31    -0.237288429612E+04   -0.22063E+02   -0.23360E+01 36761   0.505E+00    0.955E+01
RMM:  32    -0.236935977173E+04    0.35245E+01   -0.12763E+01 43655   0.199E+00    0.934E+01
RMM:  33    -0.236676296040E+04    0.25968E+01   -0.52432E+00 44302   0.926E-01    0.922E+01
RMM:  34    -0.236117092807E+04    0.55920E+01   -0.46744E+00 31014   0.328E+00    0.869E+01
RMM:  35    -0.235039453070E+04    0.10776E+02   -0.10205E+01 41734   0.234E+00    0.754E+01
RMM:  36    -0.234612824189E+04    0.42663E+01   -0.34293E+00 33578   0.224E+00    0.709E+01
RMM:  37    -0.234658760001E+04   -0.45936E+00   -0.19773E+00 35151   0.165E+00    0.713E+01
RMM:  38    -0.234535365324E+04    0.12339E+01   -0.12674E+00 43494   0.704E-01    0.700E+01
RMM:  39    -0.233684916906E+04    0.85045E+01   -0.11228E+00 30482   0.176E+00    0.602E+01
RMM:  40    -0.232740541056E+04    0.94438E+01   -0.41821E+00 29941   0.364E+00    0.464E+01
RMM:  41    -0.232361364639E+04    0.37918E+01   -0.93921E+00 33443   0.386E+00    0.409E+01
RMM:  42    -0.232183749158E+04    0.17762E+01   -0.67513E+00 42132   0.203E+00    0.351E+01
RMM:  43    -0.232340141768E+04   -0.15639E+01   -0.18762E+00 31951   0.198E+00    0.376E+01
RMM:  44    -0.232346330101E+04   -0.61883E-01   -0.21093E+00 33436   0.195E+00    0.369E+01
RMM:  45    -0.232191068054E+04    0.15526E+01   -0.17256E+00 40323   0.121E+00    0.340E+01
RMM:  46    -0.232113757639E+04    0.77310E+00   -0.81574E-01 32486   0.128E+00    0.325E+01
RMM:  47    -0.232132772863E+04   -0.19015E+00   -0.62647E-01 28483   0.164E+00    0.314E+01
RMM:  48    -0.232017217825E+04    0.11556E+01   -0.17330E+00 33629   0.178E+00    0.310E+01
RMM:  49    -0.231988436127E+04    0.28782E+00   -0.13364E+00 34482   0.148E+00    0.311E+01
RMM:  50    -0.232015742205E+04   -0.27306E+00   -0.11827E+00 37077   0.124E+00    0.313E+01
RMM:  51    -0.235452400884E+04   -0.34367E+02   -0.60789E+01 30565   0.128E+01    0.815E+01
RMM:  52    -0.235220856443E+04    0.23154E+01   -0.24555E+01 27851   0.103E+01    0.742E+01
RMM:  53    -0.236478632156E+04   -0.12578E+02   -0.46544E+01 34561   0.929E+00    0.894E+01
RMM:  54    -0.237260735082E+04   -0.78210E+01   -0.22708E+01 29534   0.879E+00    0.957E+01
RMM:  55    -0.238331975473E+04   -0.10712E+02   -0.32933E+01 34433   0.714E+00    0.103E+02
RMM:  56    -0.239977264073E+04   -0.16453E+02   -0.85740E+01 33094   0.114E+01    0.960E+01
RMM:  57    -0.239627689581E+04    0.34957E+01   -0.73346E+01 40989   0.709E+00    0.101E+02
RMM:  58    -0.238859815194E+04    0.76787E+01   -0.35647E+01 39774   0.488E+00    0.104E+02
RMM:  59    -0.237695591291E+04    0.11642E+02   -0.14042E+01 34897   0.382E+00    0.102E+02
RMM:  60    -0.235959282415E+04    0.17363E+02   -0.73322E+00 31552   0.416E+00    0.930E+01
RMM:  61    -0.237835062953E+04   -0.18758E+02   -0.52079E+01 30901   0.111E+01    0.107E+02
RMM:  62    -0.236901347385E+04    0.93372E+01   -0.31658E+01 35509   0.705E+00    0.100E+02
RMM:  63    -0.236652819776E+04    0.24853E+01   -0.14475E+01 33572   0.501E+00    0.989E+01
RMM:  64    -0.235641892578E+04    0.10109E+02   -0.88361E+00 30046   0.521E+00    0.881E+01
RMM:  65    -0.233600980586E+04    0.20409E+02   -0.13155E+01 28126   0.749E+00    0.614E+01
RMM:  66    -0.235388523373E+04   -0.17875E+02   -0.30060E+01 28824   0.108E+01    0.825E+01
RMM:  67    -0.232872095460E+04    0.25164E+02   -0.19420E+01 29651   0.772E+00    0.457E+01
RMM:  68    -0.232225152263E+04    0.64694E+01   -0.92951E+00 31567   0.456E+00    0.319E+01
RMM:  69    -0.232275240405E+04   -0.50088E+00   -0.72255E+00 34057   0.332E+00    0.335E+01
RMM:  70    -0.232093058014E+04    0.18218E+01   -0.71169E+00 35811   0.295E+00    0.257E+01
RMM:  71    -0.233265289423E+04   -0.11722E+02   -0.12843E+01 30346   0.613E+00    0.529E+01
RMM:  72    -0.232622975700E+04    0.64231E+01   -0.60418E+00 28378   0.559E+00    0.390E+01
RMM:  73    -0.232373098826E+04    0.24988E+01   -0.46492E+00 32358   0.282E+00    0.321E+01
RMM:  74    -0.232369263397E+04    0.38354E-01   -0.31263E+00 39807   0.152E+00    0.323E+01
RMM:  75    -0.232308681734E+04    0.60582E+00   -0.98606E-01 32727   0.138E+00    0.309E+01
RMM:  76    -0.232479308711E+04   -0.17063E+01   -0.19193E+00 30042   0.236E+00    0.354E+01
RMM:  77    -0.232192163168E+04    0.28715E+01   -0.10473E+00 28292   0.214E+00    0.274E+01
RMM:  78    -0.231895876453E+04    0.29629E+01   -0.11751E+00 32589   0.152E+00    0.143E+01
RMM:  79    -0.231865806889E+04    0.30070E+00   -0.59972E-01 31329   0.125E+00    0.127E+01
RMM:  80    -0.231901095044E+04   -0.35288E+00   -0.45919E-01 29887   0.121E+00    0.148E+01
RMM:  81    -0.232329422003E+04   -0.42833E+01   -0.36053E+00 27977   0.391E+00    0.309E+01
RMM:  82    -0.231926512774E+04    0.40291E+01   -0.15390E+00 27720   0.336E+00    0.159E+01
RMM:  83    -0.231847618985E+04    0.78894E+00   -0.48432E-01 28260   0.150E+00    0.110E+01
RMM:  84    -0.231822946595E+04    0.24672E+00   -0.49118E-01 28594   0.137E+00    0.872E+00
RMM:  85    -0.231807738771E+04    0.15208E+00   -0.36003E-01 29529   0.111E+00    0.655E+00
RMM:  86    -0.231848121439E+04   -0.40383E+00   -0.42690E-01 27858   0.141E+00    0.109E+01
RMM:  87    -0.231796817043E+04    0.51304E+00   -0.21429E-01 27951   0.109E+00    0.466E+00
RMM:  88    -0.231795149000E+04    0.16680E-01   -0.27576E-01 35557   0.574E-01    0.409E+00
RMM:  89    -0.231793501298E+04    0.16477E-01   -0.84234E-02 36861   0.338E-01    0.347E+00
RMM:  90    -0.231792079611E+04    0.14217E-01   -0.43872E-02 31830   0.310E-01    0.308E+00
RMM:  91    -0.231798068612E+04   -0.59890E-01   -0.17075E-01 28874   0.791E-01    0.441E+00
RMM:  92    -0.231790697618E+04    0.73710E-01   -0.65537E-02 27733   0.662E-01    0.243E+00
RMM:  93    -0.231789828422E+04    0.86920E-02   -0.26157E-02 29522   0.313E-01    0.208E+00
RMM:  94    -0.231789737242E+04    0.91180E-03   -0.41720E-02 32186   0.299E-01    0.195E+00
RMM:  95    -0.231789946040E+04   -0.20880E-02   -0.16633E-02 28301   0.270E-01    0.206E+00
RMM:  96    -0.231788866859E+04    0.10792E-01   -0.23991E-02 33208   0.215E-01    0.140E+00
RMM:  97    -0.231788629328E+04    0.23753E-02   -0.96445E-03 29474   0.183E-01    0.122E+00
RMM:  98    -0.231788670258E+04   -0.40930E-03   -0.12814E-02 33957   0.147E-01    0.120E+00
RMM:  99    -0.231788584998E+04    0.85260E-03   -0.63133E-03 30730   0.131E-01    0.111E+00
RMM: 100    -0.231788360019E+04    0.22498E-02   -0.53134E-03 33887   0.977E-02
   1 F= -.23178836E+04 E0= -.23150977E+04  d E =-.231788E+04
       N       E                     dE             d eps       ncg     rms          rms(c)
DAV:   1    -0.231803718360E+04   -0.15133E+00   -0.37030E+01 28840   0.638E+00    0.147E+00
RMM:   2    -0.234651160167E+04   -0.28474E+02   -0.36274E+00 31432   0.278E+00    0.712E+01
RMM:   3    -0.231988811125E+04    0.26623E+02   -0.90695E-01 28474   0.192E+00    0.160E+01
RMM:   4    -0.232598813277E+04   -0.61000E+01   -0.71822E-01 29906   0.142E+00    0.381E+01
RMM:   5    -0.231892858342E+04    0.70595E+01   -0.38424E-01 28862   0.113E+00    0.113E+01
RMM:   6    -0.231884729736E+04    0.81286E-01   -0.56823E-01 28825   0.137E+00    0.122E+01
RMM:   7    -0.232100154156E+04   -0.21542E+01   -0.15648E+00 34950   0.153E+00    0.228E+01
RMM:   8    -0.231830274228E+04    0.26988E+01   -0.43070E-01 27724   0.147E+00    0.571E+00
RMM:   9    -0.231814315082E+04    0.15959E+00   -0.16107E-01 28357   0.838E-01    0.398E+00
RMM:  10    -0.231814750171E+04   -0.43509E-02   -0.15759E-01 33926   0.530E-01    0.378E+00
RMM:  11    -0.231812456786E+04    0.22934E-01   -0.10957E-01 31852   0.481E-01    0.315E+00
RMM:  12    -0.231808616535E+04    0.38403E-01   -0.40628E-02 28985   0.374E-01    0.164E+00
RMM:  13    -0.231807383641E+04    0.12329E-01   -0.28223E-02 31473   0.257E-01    0.742E-01
RMM:  14    -0.231807460827E+04   -0.77186E-03   -0.25788E-02 38176   0.160E-01    0.661E-01
RMM:  15    -0.231807493005E+04   -0.32178E-03   -0.10387E-02 34555   0.128E-01    0.629E-01
RMM:  16    -0.231807424651E+04    0.68354E-03   -0.49391E-03 34077   0.893E-02    0.479E-01
RMM:  17    -0.231807397838E+04    0.26813E-03   -0.36472E-03 37333   0.694E-02    0.404E-01
RMM:  18    -0.231807371418E+04    0.26421E-03   -0.13092E-03 29422   0.692E-02    0.344E-01
RMM:  19    -0.231807391749E+04   -0.20332E-03   -0.11872E-03 31881   0.531E-02    0.386E-01
RMM:  20    -0.231807405820E+04   -0.14071E-03   -0.12583E-03 32576   0.520E-02    0.401E-01
RMM:  21    -0.231807370257E+04    0.35563E-03   -0.40967E-04 28193   0.451E-02    0.295E-01
RMM:  22    -0.231807360614E+04    0.96433E-04   -0.34778E-04 32517   0.270E-02    0.256E-01
RMM:  23    -0.231807347569E+04    0.13045E-03   -0.41899E-04 35321   0.255E-02    0.190E-01
RMM:  24    -0.231807335749E+04    0.11820E-03   -0.17487E-04 30618   0.224E-02    0.105E-01
RMM:  25    -0.231807335044E+04    0.70466E-05   -0.20222E-04 39562   0.135E-02    0.833E-02
RMM:  26    -0.231807333316E+04    0.17287E-04   -0.92034E-05 33738   0.117E-02    0.433E-02
RMM:  27    -0.231807333362E+04   -0.46773E-06   -0.52173E-05 34946   0.789E-03    0.325E-02
RMM:  28    -0.231807333778E+04   -0.41582E-05   -0.30317E-05 32496   0.425E-03    0.319E-02
RMM:  29    -0.231807334214E+04   -0.43551E-05   -0.80027E-06 22860   0.402E-03    0.246E-02
RMM:  30    -0.231807334408E+04   -0.19405E-05   -0.36264E-06 18743   0.379E-03    0.175E-02
RMM:  31    -0.231807334719E+04   -0.31111E-05   -0.27160E-06 18149   0.290E-03    0.164E-02
RMM:  32    -0.231807335486E+04   -0.76664E-05   -0.25728E-06 17447   0.344E-03    0.982E-03
RMM:  33    -0.231807335668E+04   -0.18294E-05   -0.14354E-06 16458   0.210E-03    0.693E-03
RMM:  34    -0.231807335944E+04   -0.27523E-05   -0.11911E-06 15879   0.177E-03    0.649E-03
RMM:  35    -0.231807336343E+04   -0.39934E-05   -0.10478E-06 15690   0.185E-03    0.398E-03
RMM:  36    -0.231807336470E+04   -0.12717E-05   -0.78426E-07 15550   0.124E-03    0.342E-03
RMM:  37    -0.231807336763E+04   -0.29287E-05   -0.73413E-07 15499   0.128E-03    0.394E-03
RMM:  38    -0.231807336962E+04   -0.19873E-05   -0.63489E-07 15427   0.120E-03    0.340E-03
RMM:  39    -0.231807337164E+04   -0.20215E-05   -0.59045E-07 15313   0.104E-03    0.302E-03
RMM:  40    -0.231807337397E+04   -0.23264E-05   -0.56417E-07 15325   0.962E-04    0.195E-03
RMM:  41    -0.231807337518E+04   -0.12092E-05   -0.46869E-07 14960   0.826E-04    0.181E-03
RMM:  42    -0.231807337658E+04   -0.14055E-05   -0.44371E-07 15086   0.820E-04    0.158E-03
RMM:  43    -0.231807337720E+04   -0.62116E-06   -0.36497E-07 14727   0.664E-04
   2 F= -.23180734E+04 E0= -.23152855E+04  d E =-.189777E+00
       N       E                     dE             d eps       ncg     rms          rms(c)
DAV:   1    -0.231799148820E+04    0.81888E-01   -0.33292E+02 27720   0.192E+01    0.363E+00
RMM:   2    -0.233325342053E+04   -0.15262E+02   -0.92809E+00 27883   0.643E+00    0.521E+01
RMM:   3    -0.233193754500E+04    0.13159E+01   -0.42683E+00 38214   0.254E+00    0.474E+01
RMM:   4    -0.234175581008E+04   -0.98183E+01   -0.18111E+00 28843   0.261E+00    0.637E+01
RMM:   5    -0.232033647581E+04    0.21419E+02   -0.13117E+00 30742   0.196E+00    0.162E+01
RMM:   6    -0.232229239819E+04   -0.19559E+01   -0.21433E+00 29963   0.239E+00    0.261E+01
RMM:   7    -0.232294480855E+04   -0.65241E+00   -0.17871E+00 28988   0.241E+00    0.290E+01
RMM:   8    -0.231969039081E+04    0.32544E+01   -0.89311E-01 28065   0.193E+00    0.147E+01
RMM:   9    -0.231879004257E+04    0.90035E+00   -0.49869E-01 27741   0.166E+00    0.753E+00
RMM:  10    -0.231900632277E+04   -0.21628E+00   -0.56117E-01 28834   0.137E+00    0.103E+01
RMM:  11    -0.231868195986E+04    0.32436E+00   -0.32709E-01 27875   0.118E+00    0.639E+00
RMM:  12    -0.231847668991E+04    0.20527E+00   -0.14229E-01 27783   0.888E-01    0.257E+00
RMM:  13    -0.231845735473E+04    0.19335E-01   -0.97591E-02 32031   0.441E-01    0.184E+00
RMM:  14    -0.231846009528E+04   -0.27405E-02   -0.80524E-02 35131   0.349E-01    0.178E+00
RMM:  15    -0.231846170945E+04   -0.16142E-02   -0.43370E-02 32009   0.308E-01    0.183E+00
RMM:  16    -0.231845284451E+04    0.88649E-02   -0.18068E-02 29757   0.248E-01    0.134E+00
RMM:  17    -0.231845218836E+04    0.65615E-03   -0.23707E-02 37154   0.173E-01    0.117E+00
RMM:  18    -0.231844786253E+04    0.43258E-02   -0.11649E-02 30813   0.180E-01    0.773E-01
RMM:  19    -0.231844790320E+04   -0.40670E-04   -0.66294E-03 30811   0.138E-01    0.783E-01
RMM:  20    -0.231844713739E+04    0.76581E-03   -0.64475E-03 34732   0.103E-01    0.654E-01
RMM:  21    -0.231844555465E+04    0.15827E-02   -0.20410E-03 29472   0.858E-02    0.383E-01
RMM:  22    -0.231844550518E+04    0.49476E-04   -0.21480E-03 38976   0.464E-02    0.337E-01
RMM:  23    -0.231844543430E+04    0.70873E-04   -0.10313E-03 34148   0.419E-02    0.298E-01
RMM:  24    -0.231844511843E+04    0.31588E-03   -0.40275E-04 30146   0.375E-02    0.169E-01
RMM:  25    -0.231844510475E+04    0.13671E-04   -0.43666E-04 33930   0.275E-02    0.152E-01
RMM:  26    -0.231844511286E+04   -0.81077E-05   -0.29565E-04 32552   0.245E-02    0.153E-01
RMM:  27    -0.231844508763E+04    0.25237E-04   -0.15373E-04 32043   0.186E-02    0.132E-01
RMM:  28    -0.231844508256E+04    0.50656E-05   -0.15184E-04 41319   0.915E-03    0.119E-01
RMM:  29    -0.231844504343E+04    0.39126E-04   -0.44577E-05 33597   0.812E-03    0.747E-02
RMM:  30    -0.231844502555E+04    0.17887E-04   -0.21446E-05 30400   0.704E-03    0.447E-02
RMM:  31    -0.231844502349E+04    0.20571E-05   -0.25604E-05 33053   0.621E-03    0.375E-02
RMM:  32    -0.231844501839E+04    0.50966E-05   -0.11271E-05 26339   0.558E-03    0.219E-02
RMM:  33    -0.231844501781E+04    0.58606E-06   -0.61822E-06 21719   0.353E-03
   3 F= -.23184450E+04 E0= -.23156460E+04  d E =-.561418E+00
       N       E                     dE             d eps       ncg     rms          rms(c)
DAV:   1    -0.231585043425E+04    0.25946E+01   -0.13307E+03 27720   0.389E+01    0.798E+00
RMM:   2    -0.239304129161E+04   -0.77191E+02   -0.51229E+01 28135   0.143E+01    0.114E+02
RMM:   3    -0.239424498277E+04   -0.12037E+01   -0.22218E+01 38037   0.581E+00    0.109E+02
RMM:   4    -0.243428395032E+04   -0.40039E+02   -0.13340E+01 30171   0.602E+00    0.135E+02
RMM:   5    -0.232505124680E+04    0.10923E+03   -0.63900E+00 30116   0.447E+00    0.328E+01
RMM:   6    -0.233214449993E+04   -0.70933E+01   -0.83516E+00 31520   0.442E+00    0.482E+01
RMM:   7    -0.233542361540E+04   -0.32791E+01   -0.81293E+00 29852   0.488E+00    0.520E+01
RMM:   8    -0.232511993236E+04    0.10304E+02   -0.48231E+00 28008   0.451E+00    0.352E+01
RMM:   9    -0.232053523814E+04    0.45847E+01   -0.26984E+00 27736   0.383E+00    0.197E+01
RMM:  10    -0.232079792067E+04   -0.26268E+00   -0.24518E+00 28144   0.312E+00    0.216E+01
RMM:  11    -0.231923694438E+04    0.15610E+01   -0.11032E+00 27751   0.233E+00    0.132E+01
RMM:  12    -0.231848239431E+04    0.75455E+00   -0.64634E-01 28098   0.170E+00    0.643E+00
RMM:  13    -0.231841559740E+04    0.66797E-01   -0.65418E-01 31859   0.116E+00    0.559E+00
RMM:  14    -0.231837244987E+04    0.43148E-01   -0.39472E-01 31249   0.978E-01    0.480E+00
RMM:  15    -0.231835441250E+04    0.18037E-01   -0.18372E-01 29645   0.766E-01    0.460E+00
RMM:  16    -0.231836786525E+04   -0.13453E-01   -0.18752E-01 39970   0.365E-01    0.467E+00
RMM:  17    -0.231836265245E+04    0.52128E-02   -0.67222E-02 43856   0.155E-01    0.440E+00
RMM:  18    -0.231835616324E+04    0.64892E-02   -0.21968E-02 31560   0.218E-01    0.422E+00
RMM:  19    -0.231830145728E+04    0.54706E-01   -0.36443E-02 29534   0.342E-01    0.249E+00
RMM:  20    -0.231828146474E+04    0.19993E-01   -0.27307E-02 28199   0.365E-01    0.156E+00
RMM:  21    -0.231828771921E+04   -0.62545E-02   -0.30536E-02 30405   0.289E-01    0.195E+00
RMM:  22    -0.231829507412E+04   -0.73549E-02   -0.17800E-02 31005   0.212E-01    0.231E+00
RMM:  23    -0.231829330636E+04    0.17678E-02   -0.12012E-02 32839   0.152E-01    0.222E+00
RMM:  24    -0.231828473076E+04    0.85756E-02   -0.97756E-03 31137   0.158E-01    0.173E+00
RMM:  25    -0.231827591035E+04    0.88204E-02   -0.44082E-03 28695   0.140E-01    0.108E+00
RMM:  26    -0.231827320580E+04    0.27045E-02   -0.60074E-03 33981   0.102E-01    0.783E-01
RMM:  27    -0.231827077909E+04    0.24267E-02   -0.29363E-03 31428   0.854E-02    0.419E-01
RMM:  28    -0.231827078023E+04   -0.11370E-05   -0.15698E-03 31805   0.607E-02    0.422E-01
RMM:  29    -0.231827093719E+04   -0.15696E-03   -0.15877E-03 35945   0.484E-02    0.437E-01
RMM:  30    -0.231827060867E+04    0.32852E-03   -0.55156E-04 29813   0.435E-02    0.345E-01
RMM:  31    -0.231827049289E+04    0.11578E-03   -0.55912E-04 36513   0.278E-02    0.293E-01
RMM:  32    -0.231827032415E+04    0.16874E-03   -0.45209E-04 31318   0.334E-02    0.205E-01
RMM:  33    -0.231827021050E+04    0.11365E-03   -0.21340E-04 28984   0.296E-02    0.144E-01
RMM:  34    -0.231827020684E+04    0.36510E-05   -0.22295E-04 35427   0.171E-02    0.134E-01
RMM:  35    -0.231827017980E+04    0.27043E-04   -0.11657E-04 31752   0.165E-02    0.107E-01
RMM:  36    -0.231827015312E+04    0.26680E-04   -0.58808E-05 31223   0.122E-02    0.768E-02
RMM:  37    -0.231827015215E+04    0.97504E-06   -0.68759E-05 39677   0.666E-03    0.661E-02
RMM:  38    -0.231827013964E+04    0.12504E-04   -0.28798E-05 32623   0.703E-03    0.361E-02
RMM:  39    -0.231827013474E+04    0.48989E-05   -0.15134E-05 28328   0.551E-03    0.170E-02
RMM:  40    -0.231827013560E+04   -0.85044E-06   -0.10719E-05 25287   0.348E-03    0.182E-02
RMM:  41    -0.231827013643E+04   -0.83147E-06   -0.46948E-06 20466   0.383E-03
   4 F= -.23182701E+04 E0= -.23154574E+04  d E =-.386536E+00
       N       E                     dE             d eps       ncg     rms          rms(c)
DAV:   1    -0.231767156915E+04    0.59857E+00   -0.55189E+02 27720   0.248E+01    0.454E+00
RMM:   2    -0.232685963965E+04   -0.91881E+01   -0.14689E+01 27862   0.778E+00    0.392E+01
RMM:   3    -0.233786543095E+04   -0.11006E+02   -0.58112E+00 39767   0.274E+00    0.593E+01
RMM:   4    -0.233733739493E+04    0.52804E+00   -0.21886E+00 27966   0.304E+00    0.589E+01
RMM:   5    -0.232364459394E+04    0.13693E+02   -0.20179E+00 35268   0.196E+00    0.289E+01
RMM:   6    -0.232311127562E+04    0.53332E+00   -0.28585E+00 29071   0.294E+00    0.283E+01
RMM:   7    -0.232043377652E+04    0.26775E+01   -0.16811E+00 27796   0.276E+00    0.182E+01
RMM:   8    -0.232089953804E+04   -0.46576E+00   -0.73048E-01 28027   0.173E+00    0.213E+01
RMM:   9    -0.231912904970E+04    0.17705E+01   -0.50845E-01 27835   0.153E+00    0.102E+01
RMM:  10    -0.231902360023E+04    0.10545E+00   -0.71865E-01 27832   0.177E+00    0.915E+00
RMM:  11    -0.231888752583E+04    0.13607E+00   -0.40608E-01 28000   0.131E+00    0.815E+00
RMM:  12    -0.231860588242E+04    0.28164E+00   -0.17201E-01 27779   0.969E-01    0.403E+00
RMM:  13    -0.231856073680E+04    0.45146E-01   -0.11701E-01 29300   0.627E-01    0.294E+00
RMM:  14    -0.231856533945E+04   -0.46026E-02   -0.15114E-01 33138   0.533E-01    0.289E+00
RMM:  15    -0.231853529101E+04    0.30048E-01   -0.47650E-02 27945   0.458E-01    0.178E+00
RMM:  16    -0.231852918211E+04    0.61089E-02   -0.38929E-02 32263   0.284E-01    0.135E+00
RMM:  17    -0.231852887343E+04    0.30868E-03   -0.35132E-02 36258   0.221E-01    0.122E+00
RMM:  18    -0.231852505024E+04    0.38232E-02   -0.10738E-02 30139   0.181E-01    0.865E-01
RMM:  19    -0.231852407704E+04    0.97320E-03   -0.10028E-02 36621   0.110E-01    0.691E-01
RMM:  20    -0.231852382584E+04    0.25120E-03   -0.62103E-03 32734   0.112E-01    0.591E-01
RMM:  21    -0.231852254581E+04    0.12800E-02   -0.22337E-03 29350   0.941E-02    0.338E-01
RMM:  22    -0.231852271661E+04   -0.17081E-03   -0.27168E-03 35357   0.601E-02    0.350E-01
RMM:  23    -0.231852266909E+04    0.47530E-04   -0.15015E-03 31573   0.594E-02    0.307E-01
RMM:  24    -0.231852232299E+04    0.34610E-03   -0.64966E-04 30019   0.486E-02    0.180E-01
RMM:  25    -0.231852232326E+04   -0.27509E-06   -0.81543E-04 39578   0.251E-02    0.151E-01
RMM:  26    -0.231852225203E+04    0.71239E-04   -0.29513E-04 33417   0.225E-02    0.844E-02
RMM:  27    -0.231852223472E+04    0.17308E-04   -0.18655E-04 37316   0.144E-02    0.428E-02
RMM:  28    -0.231852224360E+04   -0.88854E-05   -0.11024E-04 40943   0.882E-03    0.462E-02
RMM:  29    -0.231852224960E+04   -0.59969E-05   -0.36880E-05 32087   0.811E-03    0.547E-02
RMM:  30    -0.231852224912E+04    0.48228E-06   -0.24054E-05 31999   0.597E-03    0.508E-02
RMM:  31    -0.231852224378E+04    0.53408E-05   -0.18928E-05 31694   0.594E-03    0.372E-02
RMM:  32    -0.231852223754E+04    0.62356E-05   -0.85146E-06 24416   0.522E-03    0.143E-02
RMM:  33    -0.231852223715E+04    0.38929E-06   -0.49920E-06 20797   0.295E-03
   5 F= -.23185222E+04 E0= -.23157168E+04  d E =-.638637E+00
