 288 288   0   0
  0.1280206E+02  0.9726678E-09  0.8423550E-09  0.4500000E-08  0.2500000E-15
   1.0000000000000000E-004
  CAR 
 unknown system                          
      6.76538104     -6.06405777  301      4.30643333      1.00000000
     -6.064  0.0000E+00  0.0000E+00
     -6.021  0.0000E+00  0.0000E+00
     -5.979  0.0000E+00  0.0000E+00
     -5.936  0.0000E+00  0.0000E+00
     -5.893  0.0000E+00  0.0000E+00
     -5.850  0.0000E+00  0.0000E+00
     -5.807  0.0000E+00  0.0000E+00
     -5.765  0.0000E+00  0.0000E+00
     -5.722  0.0000E+00  0.0000E+00
     -5.679  0.0000E+00  0.0000E+00
     -5.636  0.0000E+00  0.0000E+00
     -5.594  0.0000E+00  0.0000E+00
     -5.551  0.0000E+00  0.0000E+00
     -5.508  0.0000E+00  0.0000E+00
     -5.465  0.0000E+00  0.0000E+00
     -5.423  0.1623E-17  0.6939E-19
     -5.380  0.4089E-16  0.1818E-17
     -5.337  0.8785E-15  0.3939E-16
     -5.294  0.1602E-13  0.7244E-15
     -5.252  0.2488E-12  0.1137E-13
     -5.209  0.3291E-11  0.1521E-12
     -5.166  0.3708E-10  0.1738E-11
     -5.123  0.3559E-09  0.1696E-10
     -5.080  0.2911E-08  0.1414E-09
     -5.038  0.2031E-07  0.1010E-08
     -4.995  0.1209E-06  0.6181E-08
     -4.952  0.6155E-06  0.3250E-07
     -4.909  0.2684E-05  0.1473E-06
     -4.867  0.1006E-04  0.5773E-06
     -4.824  0.3253E-04  0.1968E-05
     -4.781  0.9146E-04  0.5880E-05
     -4.738  0.2256E-03  0.1553E-04
     -4.696  0.4937E-03  0.3664E-04
     -4.653  0.9718E-03  0.7820E-04
     -4.610  0.1743E-02  0.1527E-03
     -4.567  0.2880E-02  0.2759E-03
     -4.525  0.4420E-02  0.4649E-03
     -4.482  0.6338E-02  0.7359E-03
     -4.439  0.8531E-02  0.1101E-02
     -4.396  0.1083E-01  0.1564E-02
     -4.353  0.1302E-01  0.2121E-02
     -4.311  0.1490E-01  0.2758E-02
     -4.268  0.1633E-01  0.3456E-02
     -4.225  0.1732E-01  0.4196E-02
     -4.182  0.1802E-01  0.4967E-02
     -4.140  0.1870E-01  0.5767E-02
     -4.097  0.1964E-01  0.6607E-02
     -4.054  0.2108E-01  0.7508E-02
     -4.011  0.2308E-01  0.8495E-02
     -3.969  0.2548E-01  0.9585E-02
     -3.926  0.2794E-01  0.1078E-01
     -3.883  0.3004E-01  0.1206E-01
     -3.840  0.3142E-01  0.1341E-01
     -3.798  0.3192E-01  0.1477E-01
     -3.755  0.3164E-01  0.1613E-01
     -3.712  0.3097E-01  0.1745E-01
     -3.669  0.3044E-01  0.1875E-01
     -3.626  0.3051E-01  0.2006E-01
     -3.584  0.3144E-01  0.2140E-01
     -3.541  0.3322E-01  0.2282E-01
     -3.498  0.3556E-01  0.2434E-01
     -3.455  0.3802E-01  0.2597E-01
     -3.413  0.4012E-01  0.2769E-01
     -3.370  0.4153E-01  0.2946E-01
     -3.327  0.4212E-01  0.3126E-01
     -3.284  0.4205E-01  0.3306E-01
     -3.242  0.4166E-01  0.3484E-01
     -3.199  0.4148E-01  0.3662E-01
     -3.156  0.4196E-01  0.3841E-01
     -3.113  0.4334E-01  0.4026E-01
     -3.071  0.4557E-01  0.4221E-01
     -3.028  0.4828E-01  0.4428E-01
     -2.985  0.5093E-01  0.4646E-01
     -2.942  0.5296E-01  0.4872E-01
     -2.899  0.5400E-01  0.5103E-01
     -2.857  0.5406E-01  0.5334E-01
     -2.814  0.5360E-01  0.5563E-01
     -2.771  0.5331E-01  0.5791E-01
     -2.728  0.5368E-01  0.6021E-01
     -2.686  0.5468E-01  0.6255E-01
     -2.643  0.5581E-01  0.6493E-01
     -2.600  0.5640E-01  0.6735E-01
     -2.557  0.5622E-01  0.6975E-01
     -2.515  0.5571E-01  0.7213E-01
     -2.472  0.5584E-01  0.7452E-01
     -2.429  0.5763E-01  0.7698E-01
     -2.386  0.6149E-01  0.7961E-01
     -2.344  0.6679E-01  0.8247E-01
     -2.301  0.7195E-01  0.8555E-01
     -2.258  0.7508E-01  0.8876E-01
     -2.215  0.7514E-01  0.9197E-01
     -2.172  0.7263E-01  0.9508E-01
     -2.130  0.6942E-01  0.9805E-01
     -2.087  0.6774E-01  0.1009E+00
     -2.044  0.6906E-01  0.1039E+00
     -2.001  0.7337E-01  0.1070E+00
     -1.959  0.7931E-01  0.1104E+00
     -1.916  0.8482E-01  0.1141E+00
     -1.873  0.8816E-01  0.1178E+00
     -1.830  0.8883E-01  0.1216E+00
     -1.788  0.8773E-01  0.1254E+00
     -1.745  0.8647E-01  0.1291E+00
     -1.702  0.8635E-01  0.1328E+00
     -1.659  0.8771E-01  0.1365E+00
     -1.617  0.9007E-01  0.1404E+00
     -1.574  0.9277E-01  0.1443E+00
     -1.531  0.9546E-01  0.1484E+00
     -1.488  0.9815E-01  0.1526E+00
     -1.445  0.1009E+00  0.1569E+00
     -1.403  0.1036E+00  0.1614E+00
     -1.360  0.1058E+00  0.1659E+00
     -1.317  0.1076E+00  0.1705E+00
     -1.274  0.1101E+00  0.1752E+00
     -1.232  0.1150E+00  0.1801E+00
     -1.189  0.1233E+00  0.1854E+00
     -1.146  0.1341E+00  0.1911E+00
     -1.103  0.1450E+00  0.1973E+00
     -1.061  0.1527E+00  0.2038E+00
     -1.018  0.1560E+00  0.2105E+00
     -0.975  0.1565E+00  0.2172E+00
     -0.932  0.1581E+00  0.2240E+00
     -0.890  0.1648E+00  0.2310E+00
     -0.847  0.1786E+00  0.2387E+00
     -0.804  0.1990E+00  0.2472E+00
     -0.761  0.2246E+00  0.2568E+00
     -0.718  0.2550E+00  0.2677E+00
     -0.676  0.2905E+00  0.2801E+00
     -0.633  0.3312E+00  0.2943E+00
     -0.590  0.3753E+00  0.3103E+00
     -0.547  0.4188E+00  0.3282E+00
     -0.505  0.4571E+00  0.3478E+00
     -0.462  0.4873E+00  0.3686E+00
     -0.419  0.5095E+00  0.3904E+00
     -0.376  0.5263E+00  0.4129E+00
     -0.334  0.5402E+00  0.4360E+00
     -0.291  0.5527E+00  0.4596E+00
     -0.248  0.5632E+00  0.4837E+00
     -0.205  0.5703E+00  0.5081E+00
     -0.163  0.5735E+00  0.5326E+00
     -0.120  0.5742E+00  0.5572E+00
     -0.077  0.5750E+00  0.5818E+00
     -0.034  0.5786E+00  0.6065E+00
      0.009  0.5871E+00  0.6316E+00
      0.051  0.6018E+00  0.6574E+00
      0.094  0.6239E+00  0.6841E+00
      0.137  0.6529E+00  0.7120E+00
      0.180  0.6871E+00  0.7414E+00
      0.222  0.7226E+00  0.7723E+00
      0.265  0.7559E+00  0.8046E+00
      0.308  0.7845E+00  0.8381E+00
      0.351  0.8079E+00  0.8727E+00
      0.393  0.8267E+00  0.9080E+00
      0.436  0.8417E+00  0.9440E+00
      0.479  0.8528E+00  0.9805E+00
      0.522  0.8594E+00  0.1017E+01
      0.564  0.8609E+00  0.1054E+01
      0.607  0.8580E+00  0.1091E+01
      0.650  0.8512E+00  0.1127E+01
      0.693  0.8407E+00  0.1163E+01
      0.736  0.8261E+00  0.1198E+01
      0.778  0.8081E+00  0.1233E+01
      0.821  0.7893E+00  0.1267E+01
      0.864  0.7735E+00  0.1300E+01
      0.907  0.7634E+00  0.1332E+01
      0.949  0.7589E+00  0.1365E+01
      0.992  0.7574E+00  0.1397E+01
      1.035  0.7548E+00  0.1430E+01
      1.078  0.7483E+00  0.1462E+01
      1.120  0.7380E+00  0.1493E+01
      1.163  0.7274E+00  0.1524E+01
      1.206  0.7213E+00  0.1555E+01
      1.249  0.7226E+00  0.1586E+01
      1.291  0.7291E+00  0.1617E+01
      1.334  0.7345E+00  0.1649E+01
      1.377  0.7321E+00  0.1680E+01
      1.420  0.7196E+00  0.1711E+01
      1.463  0.7008E+00  0.1741E+01
      1.505  0.6831E+00  0.1770E+01
      1.548  0.6730E+00  0.1799E+01
      1.591  0.6741E+00  0.1828E+01
      1.634  0.6861E+00  0.1857E+01
      1.676  0.7061E+00  0.1887E+01
      1.719  0.7304E+00  0.1918E+01
      1.762  0.7558E+00  0.1951E+01
      1.805  0.7798E+00  0.1984E+01
      1.847  0.8008E+00  0.2018E+01
      1.890  0.8186E+00  0.2053E+01
      1.933  0.8339E+00  0.2089E+01
      1.976  0.8482E+00  0.2125E+01
      2.018  0.8633E+00  0.2162E+01
      2.061  0.8795E+00  0.2200E+01
      2.104  0.8964E+00  0.2238E+01
      2.147  0.9130E+00  0.2277E+01
      2.190  0.9287E+00  0.2317E+01
      2.232  0.9445E+00  0.2357E+01
      2.275  0.9629E+00  0.2398E+01
      2.318  0.9871E+00  0.2441E+01
      2.361  0.1019E+01  0.2484E+01
      2.403  0.1060E+01  0.2529E+01
      2.446  0.1105E+01  0.2577E+01
      2.489  0.1152E+01  0.2626E+01
      2.532  0.1196E+01  0.2677E+01
      2.574  0.1234E+01  0.2730E+01
      2.617  0.1264E+01  0.2784E+01
      2.660  0.1283E+01  0.2839E+01
      2.703  0.1293E+01  0.2894E+01
      2.745  0.1298E+01  0.2950E+01
      2.788  0.1305E+01  0.3005E+01
      2.831  0.1319E+01  0.3062E+01
      2.874  0.1345E+01  0.3119E+01
      2.917  0.1378E+01  0.3178E+01
      2.959  0.1406E+01  0.3238E+01
      3.002  0.1411E+01  0.3299E+01
      3.045  0.1381E+01  0.3358E+01
      3.088  0.1315E+01  0.3414E+01
      3.130  0.1223E+01  0.3466E+01
      3.173  0.1126E+01  0.3515E+01
      3.216  0.1040E+01  0.3559E+01
      3.259  0.9737E+00  0.3601E+01
      3.301  0.9301E+00  0.3640E+01
      3.344  0.9058E+00  0.3679E+01
      3.387  0.8954E+00  0.3717E+01
      3.430  0.8925E+00  0.3756E+01
      3.472  0.8897E+00  0.3794E+01
      3.515  0.8811E+00  0.3831E+01
      3.558  0.8643E+00  0.3868E+01
      3.601  0.8436E+00  0.3904E+01
      3.644  0.8277E+00  0.3940E+01
      3.686  0.8251E+00  0.3975E+01
      3.729  0.8392E+00  0.4011E+01
      3.772  0.8660E+00  0.4048E+01
      3.815  0.8979E+00  0.4086E+01
      3.857  0.9283E+00  0.4126E+01
      3.900  0.9545E+00  0.4167E+01
      3.943  0.9768E+00  0.4209E+01
      3.986  0.9965E+00  0.4251E+01
      4.028  0.1014E+01  0.4295E+01
      4.071  0.1027E+01  0.4338E+01
      4.114  0.1034E+01  0.4383E+01
      4.157  0.1034E+01  0.4427E+01
      4.199  0.1026E+01  0.4471E+01
      4.242  0.1013E+01  0.4514E+01
      4.285  0.9987E+00  0.4557E+01
      4.328  0.9865E+00  0.4599E+01
      4.371  0.9795E+00  0.4641E+01
      4.413  0.9787E+00  0.4683E+01
      4.456  0.9826E+00  0.4725E+01
      4.499  0.9877E+00  0.4767E+01
      4.542  0.9902E+00  0.4809E+01
      4.584  0.9883E+00  0.4852E+01
      4.627  0.9832E+00  0.4894E+01
      4.670  0.9791E+00  0.4936E+01
      4.713  0.9804E+00  0.4977E+01
      4.755  0.9901E+00  0.5020E+01
      4.798  0.1008E+01  0.5063E+01
      4.841  0.1030E+01  0.5107E+01
      4.884  0.1055E+01  0.5152E+01
      4.926  0.1079E+01  0.5198E+01
      4.969  0.1098E+01  0.5245E+01
      5.012  0.1104E+01  0.5292E+01
      5.055  0.1084E+01  0.5339E+01
      5.098  0.1025E+01  0.5383E+01
      5.140  0.9176E+00  0.5422E+01
      5.183  0.7665E+00  0.5455E+01
      5.226  0.5892E+00  0.5480E+01
      5.269  0.4118E+00  0.5497E+01
      5.311  0.2592E+00  0.5509E+01
      5.354  0.1457E+00  0.5515E+01
      5.397  0.7265E-01  0.5518E+01
      5.440  0.3196E-01  0.5519E+01
      5.482  0.1235E-01  0.5520E+01
      5.525  0.4174E-02  0.5520E+01
      5.568  0.1231E-02  0.5520E+01
      5.611  0.3159E-03  0.5520E+01
      5.653  0.7039E-04  0.5520E+01
      5.696  0.1360E-04  0.5520E+01
      5.739  0.2272E-05  0.5520E+01
      5.782  0.3281E-06  0.5520E+01
      5.825  0.4086E-07  0.5520E+01
      5.867  0.4386E-08  0.5520E+01
      5.910  0.4051E-09  0.5520E+01
      5.953  0.3216E-10  0.5520E+01
      5.996  0.2193E-11  0.5520E+01
      6.038  0.1283E-12  0.5520E+01
      6.081  0.6425E-14  0.5520E+01
      6.124  0.2655E-15  0.5520E+01
      6.167  0.5841E-17  0.5520E+01
      6.209  0.0000E+00  0.5520E+01
      6.252  0.0000E+00  0.5520E+01
      6.295  0.0000E+00  0.5520E+01
      6.338  0.0000E+00  0.5520E+01
      6.380  0.0000E+00  0.5520E+01
      6.423  0.0000E+00  0.5520E+01
      6.466  0.0000E+00  0.5520E+01
      6.509  0.0000E+00  0.5520E+01
      6.552  0.0000E+00  0.5520E+01
      6.594  0.0000E+00  0.5520E+01
      6.637  0.0000E+00  0.5520E+01
      6.680  0.0000E+00  0.5520E+01
      6.723  0.0000E+00  0.5520E+01
      6.765  0.0000E+00  0.5520E+01
