 vasp.5.4.4.18Apr17-6-g9f103f2a35 (build May 29 2019 08:40:53) complex           
 executed on             LinuxPGI date 2021.11.22  05:00:31
 running on  160 total cores
 distrk:  each k-point on   40 cores,    4 groups
 distr:  one band on NCORES_PER_BAND=   4 cores,   10 groups


--------------------------------------------------------------------------------------------------------


 INCAR:
 POTCAR:    PAW_PBE Fe_GW 31Mar2010               
 POTCAR:    PAW_PBE Mn_GW 31Mar2010               

 ----------------------------------------------------------------------------- 
|                                                                             |
|           W    W    AA    RRRRR   N    N  II  N    N   GGGG   !!!           |
|           W    W   A  A   R    R  NN   N  II  NN   N  G    G  !!!           |
|           W    W  A    A  R    R  N N  N  II  N N  N  G       !!!           |
|           W WW W  AAAAAA  RRRRR   N  N N  II  N  N N  G  GGG   !            |
|           WW  WW  A    A  R   R   N   NN  II  N   NN  G    G                |
|           W    W  A    A  R    R  N    N  II  N    N   GGGG   !!!           |
|                                                                             |
|      For optimal performance we recommend to set                            |
|        NCORE= 4 - approx SQRT( number of cores)                             |
|      NCORE specifies how many cores store one orbital (NPAR=cpu/NCORE).     |
|      This setting can  greatly improve the performance of VASP for DFT.     |
|      The default,   NCORE=1            might be grossly inefficient         |
|      on modern multi-core architectures or massively parallel machines.     |
|      Do your own testing !!!!                                               |
|      Unfortunately you need to use the default for GW and RPA calculations. |
|      (for HF NCORE is supported but not extensively tested yet)             |
|                                                                             |
 ----------------------------------------------------------------------------- 


 ----------------------------------------------------------------------------- 
|                                                                             |
|           W    W    AA    RRRRR   N    N  II  N    N   GGGG   !!!           |
|           W    W   A  A   R    R  NN   N  II  NN   N  G    G  !!!           |
|           W    W  A    A  R    R  N N  N  II  N N  N  G       !!!           |
|           W WW W  AAAAAA  RRRRR   N  N N  II  N  N N  G  GGG   !            |
|           WW  WW  A    A  R   R   N   NN  II  N   NN  G    G                |
|           W    W  A    A  R    R  N    N  II  N    N   GGGG   !!!           |
|                                                                             |
|      You have enabled k-point parallelism (KPAR>1).                         |
|      This developmental code was originally  written by Paul Kent at ORNL,  |
|      and carefully double checked in Vienna.                                |
|      GW as well as linear response parallelism added by Martijn Marsman     |
|      and Georg Kresse.                                                      |
|      Carefully verify results versus KPAR=1.                                |
|      Report problems to Paul Kent and Vienna.                               |
|                                                                             |
 ----------------------------------------------------------------------------- 

 POTCAR:    PAW_PBE Fe_GW 31Mar2010               
   SHA256 =  2f8cc54f0048d2b8131fafa2fd9471601c7f588f91a54eba7a0e33760ec848ea Fe
   COPYR  = (c) Copyright 31Mar2010 Georg Kresse                                
   COPYR  = This file is part of the software VASP. Any use, copying, and all ot
   COPYR  = If you do not have a valid VASP license, you may not use, copy or di
   VRHFIN =Fe:  d7 s1                                                           
   LEXCH  = PE                                                                  
   EATOM  =   594.3155 eV,   43.6810 Ry                                         
                                                                                
   TITEL  = PAW_PBE Fe_GW 31Mar2010                                             
   LULTRA =        F    use ultrasoft PP ?                                      
   IUNSCR =        1    unscreen: 0-lin 1-nonlin 2-no                           
   RPACOR =    1.800    partial core radius                                     
   POMASS =   55.847; ZVAL   =    8.000    mass and valenz                      
   RCORE  =    2.300    outmost cutoff radius                                   
   RWIGS  =    2.300; RWIGS  =    1.217    wigner-seitz radius (au A)           
   ENMAX  =  321.007; ENMIN  =  240.755 eV                                      
   RCLOC  =    1.701    cutoff for local pot                                    
   LCOR   =        T    correct aug charges                                     
   LPAW   =        T    paw PP                                                  
   EAUG   =  753.401                                                            
   DEXC   =    0.000                                                            
   RMAX   =    2.356    core radius for proj-oper                               
   RAUG   =    1.300    factor for augmentation sphere                          
   RDEP   =    2.442    radius for radial grids                                 
   RDEPT  =    1.800    core radius for aug-charge                              
                                                                                
   Atomic configuration                                                         
    9 entries                                                                   
     n  l   j            E        occ.                                          
     1  0  0.50     -6993.8440   2.0000                                         
     2  0  0.50      -814.6047   2.0000                                         
     2  1  1.50      -693.3689   6.0000                                         
     3  0  0.50       -89.4732   2.0000                                         
     3  1  1.50       -55.6373   6.0000                                         
     3  2  2.50        -3.8151   7.0000                                         
     4  0  0.50        -4.2551   1.0000                                         
     4  1  1.50        -3.4015   0.0000                                         
     4  3  2.50        -1.3606   0.0000                                         
   Description                                                                  
     l       E           TYP  RCUT    TYP  RCUT                                 
     2     -3.8151215     23  2.100                                             
     2     -5.1757041     23  2.100                                             
     0     -4.2550988     23  2.300                                             
     0     54.4233040     23  2.300                                             
     1     -2.7211652     23  2.300                                             
     1     68.0291300     23  2.300                                             
     3     27.2116520     23  2.300                                             
  local pseudopotential read in
  partial core-charges read in
  partial kinetic energy density read in
  kinetic energy density of atom read in
  atomic valenz-charges read in
  non local Contribution for L=            2  read in
    real space projection operators read in
  non local Contribution for L=            2  read in
    real space projection operators read in
  non local Contribution for L=            0  read in
    real space projection operators read in
  non local Contribution for L=            0  read in
    real space projection operators read in
  non local Contribution for L=            1  read in
    real space projection operators read in
  non local Contribution for L=            1  read in
    real space projection operators read in
  non local Contribution for L=            3  read in
    real space projection operators read in
    PAW grid and wavefunctions read in
 
   number of l-projection  operators is LMAX  =            7
   number of lm-projection operators is LMMAX =           25
 
 POTCAR:    PAW_PBE Mn_GW 31Mar2010               
   SHA256 =  94ae266cf9f02ce3d66f03781e79a4abde1ab929a3c493eac5d81431ef91e174 Mn
   COPYR  = (c) Copyright 31Mar2010 Georg Kresse                                
   COPYR  = This file is part of the software VASP. Any use, copying, and all ot
   COPYR  = If you do not have a valid VASP license, you may not use, copy or di
   VRHFIN =Mn: d6 s1                                                            
   LEXCH  = PE                                                                  
   EATOM  =   416.7540 eV,   30.6306 Ry                                         
                                                                                
   TITEL  = PAW_PBE Mn_GW 31Mar2010                                             
   LULTRA =        F    use ultrasoft PP ?                                      
   IUNSCR =        1    unscreen: 0-lin 1-nonlin 2-no                           
   RPACOR =    1.800    partial core radius                                     
   POMASS =   54.938; ZVAL   =    7.000    mass and valenz                      
   RCORE  =    2.400    outmost cutoff radius                                   
   RWIGS  =    2.500; RWIGS  =    1.323    wigner-seitz radius (au A)           
   ENMAX  =  278.466; ENMIN  =  208.850 eV                                      
   RCLOC  =    1.725    cutoff for local pot                                    
   LCOR   =        T    correct aug charges                                     
   LPAW   =        T    paw PP                                                  
   EAUG   =  838.435                                                            
   DEXC   =    0.000                                                            
   RMAX   =    2.458    core radius for proj-oper                               
   RAUG   =    1.300    factor for augmentation sphere                          
   RDEP   =    2.492    radius for radial grids                                 
   RDEPT  =    1.800    core radius for aug-charge                              
                                                                                
   Atomic configuration                                                         
    9 entries                                                                   
     n  l   j            E        occ.                                          
     1  0  0.50     -6424.8287   2.0000                                         
     2  0  0.50      -739.1153   2.0000                                         
     2  1  1.50      -625.3949   6.0000                                         
     3  0  0.50       -81.6100   2.0000                                         
     3  1  1.50       -50.4666   6.0000                                         
     3  2  2.50        -3.3745   6.0000                                         
     4  0  0.50        -4.1331   1.0000                                         
     4  1  0.50        -4.0817   0.0000                                         
     4  3  2.50        -1.3606   0.0000                                         
   Description                                                                  
     l       E           TYP  RCUT    TYP  RCUT                                 
     2     -3.3744623     23  2.250                                             
     2     -4.7350449     23  2.250                                             
     0     -4.1331408     23  2.300                                             
     0     54.4233040     23  2.300                                             
     1     -2.7211652     23  2.400                                             
     1     68.0291300     23  2.400                                             
     3     27.2116520     23  2.400                                             
  local pseudopotential read in
  partial core-charges read in
  partial kinetic energy density read in
  kinetic energy density of atom read in
  atomic valenz-charges read in
  non local Contribution for L=            2  read in
    real space projection operators read in
  non local Contribution for L=            2  read in
    real space projection operators read in
  non local Contribution for L=            0  read in
    real space projection operators read in
  non local Contribution for L=            0  read in
    real space projection operators read in
  non local Contribution for L=            1  read in
    real space projection operators read in
  non local Contribution for L=            1  read in
    real space projection operators read in
  non local Contribution for L=            3  read in
    real space projection operators read in
    PAW grid and wavefunctions read in
 
   number of l-projection  operators is LMAX  =            7
   number of lm-projection operators is LMMAX =           25
 
 Optimization of the real space projectors (new method)

 maximal supplied QI-value         = 16.25
 optimisation between [QCUT,QGAM] = [ 11.38, 22.75] = [ 36.24,144.96] Ry 
 Optimized for a Real-space Cutoff    1.47 Angstroem

   l    n(q)    QCUT    max X(q) W(low)/X(q) W(high)/X(q)  e(spline) 
   2      9    11.376   131.327    0.18E-03    0.15E-03    0.32E-06
   2      9    11.376   127.187    0.18E-03    0.15E-03    0.32E-06
   0     10    11.376    16.887    0.65E-04    0.39E-04    0.15E-06
   0     10    11.376     8.663    0.39E-04    0.30E-04    0.12E-06
   1     10    11.376     5.390    0.67E-04    0.60E-04    0.14E-06
   1     10    11.376     3.548    0.40E-04    0.37E-04    0.94E-07
   3      9    11.376     4.269    0.82E-04    0.22E-03    0.14E-06
 Optimization of the real space projectors (new method)

 maximal supplied QI-value         = 15.68
 optimisation between [QCUT,QGAM] = [ 11.45, 22.90] = [ 36.71,146.85] Ry 
 Optimized for a Real-space Cutoff    1.52 Angstroem

   l    n(q)    QCUT    max X(q) W(low)/X(q) W(high)/X(q)  e(spline) 
   2      9    11.450   123.144    0.15E-03    0.12E-04    0.31E-06
   2      9    11.450   117.938    0.15E-03    0.12E-04    0.31E-06
   0     10    11.450    19.684    0.63E-04    0.21E-04    0.22E-06
   0     10    11.450     9.378    0.37E-04    0.16E-04    0.17E-06
   1     10    11.450     5.531    0.25E-04    0.81E-04    0.11E-06
   1     10    11.450     3.850    0.15E-04    0.46E-04    0.77E-07
   3      9    11.450     4.123    0.90E-04    0.12E-03    0.18E-06
  PAW_PBE Fe_GW 31Mar2010               :
 energy of atom  1       EATOM= -594.3155
 kinetic energy error for atom=    0.0081 (will be added to EATOM!!)
  PAW_PBE Mn_GW 31Mar2010               :
 energy of atom  2       EATOM= -416.7540
 kinetic energy error for atom=    0.0025 (will be added to EATOM!!)
 
 
 POSCAR: FeMn_288_15                             
  positions in direct lattice
  velocities in cartesian coordinates
 exchange correlation table for  LEXCH =        8
   RHO(1)=    0.500       N(1)  =     2000
   RHO(2)=  100.500       N(2)  =     4000
 


--------------------------------------------------------------------------------------------------------


 ion  position               nearest neighbor table
   1  0.687  0.458  0.698- 284 2.43  54 2.43  52 2.43 111 2.43  43 2.43  55 2.43 114 2.43  81 2.43
                            67 2.44 118 2.44 192 2.44 250 2.45
   2  0.312  0.868  0.169-  14 2.36  73 2.36  45 2.36 185 2.43 255 2.43 149 2.43  35 2.43 247 2.43
                           116 2.43 239 2.45 265 2.45 237 2.45
   3  0.687  0.122  0.435- 120 2.41 233 2.42  31 2.42 126 2.43 180 2.43 229 2.43 206 2.43 218 2.43
                           287 2.43 240 2.45 238 2.45 131 2.46
   4  0.688  0.456  0.478- 105 2.38 205 2.38 226 2.38  16 2.41 229 2.42 126 2.42 195 2.43 217 2.43
                           249 2.43  31 2.43 233 2.43 125 2.43
   5  0.437  0.624  0.654-  87 2.43  54 2.43 283 2.43  25 2.43  68 2.43 250 2.43 196 2.43 118 2.43
                           173 2.43 127 2.43  43 2.44 100 2.45
   6  0.813  0.707  0.565- 104 2.42  94 2.42 259 2.42 226 2.42 172 2.43  84 2.43 251 2.43 281 2.43
                           135 2.44 264 2.45  50 2.45 186 2.45
   7  0.188  0.622  0.435-  58 2.42 230 2.42 115 2.42 273 2.42  40 2.42 152 2.43 130 2.43 128 2.44
                           276 2.44 232 2.44 234 2.45  96 2.45
   8  0.688  0.952  0.214- 174 2.43  13 2.43  93 2.43  42 2.43 188 2.43 265 2.43 223 2.43 148 2.43
                           160 2.43  69 2.45 235 2.45  35 2.45
   9  0.187  0.293  0.873-  49 2.35 141 2.36 166 2.36 171 2.43 199 2.43 177 2.43 162 2.44 129 2.44
                           151 2.44
  10  0.688  0.625  0.786-  95 2.43 111 2.43 203 2.43  19 2.43 202 2.43 268 2.43 197 2.43 114 2.43
                           113 2.44  72 2.45  76 2.46 175 2.46
  11  0.813  0.204  0.346- 131 2.42 240 2.42 157 2.43 212 2.43 122 2.43 271 2.43 153 2.43 132 2.43
                            66 2.44  51 2.44 220 2.44 245 2.44
  12  0.937  0.955  0.479- 104 2.38 288 2.38 168 2.38 130 2.41 287 2.42 218 2.43 120 2.43 195 2.43
                            31 2.43 164 2.43 266 2.43  40 2.44
  13  0.688  0.786  0.258- 144 2.42  38 2.43   8 2.43 147 2.43 188 2.43  75 2.43 211 2.43  93 2.43
                            47 2.43 148 2.43 160 2.43  99 2.43
  14  0.187  0.785  0.127- 185 2.36 255 2.36   2 2.36  26 2.43 179 2.43 236 2.43  64 2.43  73 2.43
                            45 2.43
  15  0.187  0.456  0.565-  88 2.41  78 2.42  57 2.43 257 2.43 251 2.43 134 2.43 281 2.43  79 2.43
                           143 2.44  70 2.45 196 2.45  91 2.46
  16  0.687  0.622  0.435-   4 2.41 217 2.42 195 2.42 206 2.42 115 2.42 126 2.43 218 2.43 229 2.44
                           276 2.44 260 2.45 214 2.45 145 2.46
  17  0.313  0.536  0.258-  99 2.43 278 2.43 269 2.43  83 2.43 147 2.43 170 2.43 167 2.43  37 2.43
                           275 2.43  23 2.43  33 2.43 239 2.44
  18  0.438  0.460  0.831- 146 2.36 129 2.36 151 2.37 175 2.43 156 2.43 178 2.43  72 2.43 141 2.43
                           166 2.43  19 2.45 197 2.45  63 2.45
  19  0.562  0.376  0.787-  10 2.43 197 2.43 279 2.43 208 2.43  95 2.43  63 2.43  21 2.43  55 2.44
                           114 2.44  18 2.45  72 2.45 178 2.46
  20  0.562  0.043  0.742-  81 2.42  55 2.43 279 2.43  21 2.43  32 2.43  85 2.43 200 2.43 282 2.43
                           268 2.44 210 2.44 113 2.44 208 2.44
  21  0.437  0.292  0.742- 279 2.42 114 2.43  20 2.43  55 2.43  81 2.43 216 2.43 107 2.43  32 2.43
                            63 2.43  36 2.43  19 2.43  54 2.44
  22  0.062  0.202  0.214- 181 2.43  42 2.43 237 2.43 223 2.43 170 2.43 124 2.43 207 2.44 167 2.44
                           213 2.44  56 2.45 209 2.45 116 2.46
  23  0.187  0.620  0.302- 269 2.43 133 2.43 275 2.43  86 2.43 278 2.43  29 2.43  83 2.43  17 2.43
                           246 2.43  82 2.44  65 2.45 110 2.45
  24  0.563  0.035  0.127- 149 2.36  69 2.36  35 2.36  34 2.43 263 2.43  39 2.43  73 2.43  45 2.43
                           204 2.43
  25  0.188  0.624  0.654- 196 2.42  59 2.42  91 2.43   5 2.43  87 2.43 285 2.43 169 2.43 127 2.43
                           190 2.43 165 2.44  74 2.44 100 2.44
  26  0.938  0.785  0.127- 248 2.36 255 2.36 235 2.36 263 2.43 103 2.43  14 2.43  64 2.43  39 2.43
                           236 2.43
  27  0.562  0.043  0.873- 178 2.36 243 2.36 108 2.37 151 2.43 162 2.43 139 2.43 227 2.43  98 2.44
                           256 2.44
  28  0.938  0.959  0.698-  89 2.43  67 2.43 140 2.43 210 2.43 102 2.43  74 2.43 284 2.43  41 2.43
                           184 2.44 282 2.44 242 2.44 169 2.45
  29  0.062  0.369  0.302- 269 2.43  51 2.43 278 2.43 220 2.43 167 2.43  23 2.43 133 2.43 207 2.43
                           112 2.43 271 2.44 132 2.44  82 2.45
  30  0.937  0.959  0.831-  92 2.36 177 2.36 227 2.36 155 2.43 225 2.43 108 2.43  62 2.43  76 2.43
                            49 2.43  71 2.45 123 2.45 202 2.46
  31  0.813  0.205  0.479- 168 2.38 150 2.38 205 2.39 229 2.41   3 2.42 287 2.42 249 2.43 233 2.43
                           120 2.43  12 2.43   4 2.43 164 2.43
  32  0.312  0.042  0.742- 279 2.42  36 2.43  80 2.43  20 2.43 200 2.43  41 2.43 107 2.43  21 2.43
                           183 2.43 194 2.43  85 2.44  89 2.44
  33  0.438  0.452  0.214- 124 2.43  93 2.43 176 2.43 170 2.43 174 2.43  99 2.43 239 2.43  37 2.43
                            17 2.43 219 2.45 247 2.45 106 2.45
  34  0.688  0.285  0.127- 106 2.36  69 2.36  61 2.36 231 2.43  24 2.43 263 2.43 204 2.43 103 2.43
                           258 2.44
  35  0.563  0.868  0.169-  39 2.36  24 2.36  73 2.36 270 2.43 247 2.43 235 2.43  69 2.43   2 2.43
                           149 2.43  93 2.45 265 2.45   8 2.45
  36  0.312  0.209  0.698-  32 2.43 140 2.43 107 2.43 165 2.43  81 2.43  21 2.43  54 2.43  85 2.44
                            89 2.44  87 2.44 142 2.45 136 2.45
  37  0.438  0.286  0.258- 241 2.43  99 2.43 148 2.43 159 2.43 187 2.43  17 2.43 174 2.43 124 2.43
                            33 2.43 228 2.44 167 2.44 278 2.44
  38  0.937  0.786  0.258- 223 2.43 133 2.43  13 2.43 188 2.43 213 2.43 160 2.43 252 2.43 211 2.43
                            75 2.43  86 2.43 269 2.43 275 2.43
  39  0.688  0.785  0.127-  35 2.36 270 2.36 235 2.36 263 2.43 258 2.43  26 2.43  24 2.43  73 2.43
                           103 2.43
  40  0.063  0.705  0.479-  94 2.38  88 2.38 288 2.38 130 2.41   7 2.42 230 2.43  58 2.43 276 2.43
                           249 2.43 266 2.43  12 2.44 195 2.44
  41  0.062  0.042  0.742- 140 2.43 282 2.43 123 2.43  46 2.43  32 2.43 102 2.43 194 2.43  71 2.43
                           183 2.43  28 2.43 107 2.44  89 2.44
  42  0.813  0.202  0.214-  22 2.43 207 2.43 174 2.43 181 2.43 176 2.43 160 2.43   8 2.43 223 2.43
                           159 2.43  61 2.45  69 2.45  56 2.45
  43  0.562  0.708  0.698-  54 2.43 114 2.43  85 2.43 100 2.43   1 2.43 268 2.43 210 2.43  67 2.43
                           200 2.43   5 2.44 118 2.44 173 2.45
  44  0.688  0.291  0.610- 189 2.42 137 2.42 250 2.43 192 2.43 158 2.43 283 2.43  50 2.43 274 2.44
                           215 2.44 135 2.45 286 2.45 119 2.45
  45  0.313  0.035  0.127- 116 2.36 149 2.36   2 2.36 222 2.43 204 2.43  73 2.43  24 2.43  64 2.43
                            14 2.43
  46  0.937  0.292  0.742-  71 2.43 111 2.43 107 2.43  41 2.43 101 2.43  52 2.43  55 2.43 284 2.43
                            95 2.43 282 2.43 140 2.43 262 2.44
  47  0.563  0.870  0.302- 211 2.43 245 2.43 148 2.43 144 2.43  13 2.43  83 2.43 246 2.44 147 2.44
                           241 2.44  66 2.44 198 2.44 138 2.45
  48  0.813  0.703  0.346- 145 2.42 260 2.43  53 2.43 132 2.43 110 2.43  66 2.43 198 2.43 122 2.43
                           212 2.43 211 2.44 133 2.44 144 2.45
  49  0.063  0.210  0.831-   9 2.35 177 2.36 171 2.36 141 2.43 121 2.43 225 2.43 166 2.43  62 2.43
                            30 2.43 262 2.45 183 2.46  71 2.46
  50  0.813  0.541  0.610- 192 2.42 190 2.42  91 2.43 137 2.43 264 2.43  44 2.43 186 2.43 118 2.43
                           283 2.44   6 2.45 281 2.45 135 2.46
  51  0.812  0.369  0.302-  75 2.43 228 2.43  29 2.43 207 2.43 159 2.43 245 2.43 144 2.43 220 2.43
                           133 2.43  11 2.44 122 2.44 132 2.44
  52  0.937  0.459  0.698- 284 2.43   1 2.43  67 2.43  46 2.43  74 2.43 165 2.43 111 2.43 101 2.44
                           140 2.44 190 2.44 192 2.44 285 2.45
  53  0.938  0.788  0.390- 212 2.42 110 2.43  48 2.43 232 2.43 260 2.43  97 2.43 131 2.43  96 2.43
                           145 2.44 276 2.44 218 2.45 130 2.46
  54  0.438  0.459  0.698-  43 2.43   5 2.43 100 2.43   1 2.43 165 2.43 114 2.43  36 2.43  81 2.44
                            21 2.44 216 2.44  87 2.44 250 2.45
  55  0.687  0.292  0.742-  20 2.43  81 2.43 208 2.43  21 2.43   1 2.43 111 2.43  46 2.43  95 2.43
                           282 2.43  19 2.44 114 2.44 284 2.44
  56  0.938  0.118  0.169-  64 2.36 231 2.36 263 2.36 116 2.43 255 2.43  61 2.43 209 2.43 235 2.43
                            69 2.43  22 2.45 223 2.45  42 2.45
  57  0.313  0.372  0.521- 125 2.38 230 2.38 191 2.38  79 2.42 134 2.42  15 2.43 109 2.43 105 2.43
                           182 2.43  88 2.43 253 2.43  78 2.43
  58  0.312  0.705  0.479- 161 2.38 253 2.38  88 2.38   7 2.42 115 2.42 273 2.42  40 2.43 230 2.43
                           125 2.43 217 2.43 267 2.43 266 2.43
  59  0.188  0.791  0.610- 169 2.42  25 2.42 127 2.43  68 2.43  77 2.43 196 2.43 264 2.43 201 2.43
                            91 2.43 143 2.45 254 2.45 251 2.46
  60  0.188  0.122  0.435- 191 2.42 266 2.42 164 2.42 180 2.42 152 2.43 273 2.43 128 2.43 130 2.43
                           287 2.44 272 2.45 261 2.45  97 2.45
  61  0.813  0.368  0.169-  34 2.36 103 2.36 231 2.36 209 2.43 248 2.43  56 2.43  69 2.43 106 2.43
                           270 2.43  42 2.45 181 2.45 176 2.45
  62  0.812  0.209  0.831- 227 2.36  98 2.36 171 2.36  72 2.43 121 2.43  30 2.43 108 2.43  49 2.43
                           178 2.44  95 2.45 208 2.45  71 2.46
  63  0.312  0.376  0.787- 262 2.43 197 2.43 183 2.43 279 2.43  90 2.43 216 2.43  19 2.43  21 2.43
                           107 2.43  18 2.45 141 2.45 166 2.46
  64  0.062  0.035  0.127- 116 2.36  56 2.36 255 2.36 222 2.43 263 2.43 231 2.43  26 2.43  14 2.43
                            45 2.43
  65  0.312  0.703  0.346- 234 2.42 280 2.42 232 2.43 193 2.43 117 2.43  82 2.43 110 2.43 198 2.43
                           138 2.43 246 2.44  83 2.44  23 2.45
  66  0.687  0.953  0.346- 260 2.42 238 2.42 138 2.43 131 2.43 198 2.43  48 2.43 153 2.43 212 2.43
                            11 2.44  47 2.44 245 2.44 211 2.44
  67  0.813  0.709  0.698- 102 2.42 210 2.43 268 2.43  28 2.43 111 2.43  52 2.43  43 2.43  74 2.43
                             1 2.44 242 2.44 118 2.45 190 2.45
  68  0.437  0.791  0.610- 173 2.42 127 2.42  59 2.43   5 2.43 186 2.43 274 2.43  77 2.43 283 2.43
                           196 2.44 277 2.45 143 2.45  84 2.46
  69  0.687  0.118  0.169-  34 2.36  24 2.36 263 2.36 106 2.43  61 2.43  35 2.43 149 2.43  56 2.43
                           235 2.43 174 2.45   8 2.45  42 2.45
  70  0.188  0.290  0.610- 142 2.42 285 2.43 196 2.43  77 2.43 201 2.43  87 2.43 215 2.43  91 2.43
                           137 2.44  15 2.45 257 2.45  79 2.46
  71  0.938  0.126  0.786- 282 2.43 183 2.43 208 2.43  46 2.43 123 2.43  95 2.43  41 2.43 202 2.44
                           262 2.44  30 2.45  62 2.46  49 2.46
  72  0.687  0.459  0.831-  98 2.36 146 2.36 224 2.36  62 2.43  18 2.43 178 2.43  76 2.43 121 2.43
                           175 2.43  19 2.45  10 2.45  95 2.45
  73  0.438  0.785  0.127- 247 2.36  35 2.36   2 2.36 258 2.43  24 2.43  39 2.43  45 2.43 179 2.43
                            14 2.43
  74  0.063  0.709  0.698-  89 2.42 100 2.43 194 2.43 165 2.43  52 2.43  28 2.43 102 2.43  67 2.43
                           101 2.44  25 2.44 169 2.44 190 2.44
  75  0.812  0.535  0.258-  51 2.43 144 2.43 207 2.43 159 2.43  13 2.43 188 2.43  38 2.43  99 2.43
                           176 2.43 269 2.43 133 2.43 181 2.44
  76  0.812  0.709  0.831- 224 2.36  92 2.36 139 2.36 155 2.43 175 2.43 108 2.43 121 2.43  72 2.43
                            30 2.43 202 2.45 203 2.46  10 2.46
  77  0.312  0.041  0.610- 127 2.42 136 2.42 215 2.43 142 2.43  70 2.43 201 2.43  59 2.43  68 2.43
                           274 2.43  79 2.45 254 2.46 277 2.46
  78  0.063  0.372  0.521- 249 2.38 230 2.38 164 2.39 257 2.41 281 2.42  15 2.42 168 2.43 182 2.43
                            88 2.43  57 2.43  94 2.43 205 2.44
  79  0.313  0.206  0.565- 182 2.42  57 2.42 109 2.42 257 2.43 254 2.43 277 2.43  15 2.43 134 2.43
                           286 2.44  77 2.45 215 2.45  70 2.46
  80  0.313  0.876  0.786- 200 2.43  32 2.43 279 2.43 123 2.43 113 2.43  90 2.43 197 2.43 183 2.43
                           194 2.44 156 2.45 225 2.46 243 2.46
  81  0.562  0.208  0.698-  20 2.42  55 2.43  21 2.43 210 2.43  85 2.43  36 2.43   1 2.43  54 2.44
                           284 2.44 250 2.45 136 2.45 189 2.46
  82  0.188  0.453  0.346- 272 2.42 234 2.43 271 2.43 154 2.43  96 2.43 117 2.43  65 2.43 132 2.43
                           110 2.44 278 2.44  23 2.44  29 2.45
  83  0.437  0.620  0.302- 147 2.43 246 2.43  17 2.43  99 2.43 278 2.43 228 2.43  23 2.43 144 2.43
                            47 2.43  65 2.44 117 2.44 198 2.44
  84  0.563  0.707  0.565- 244 2.42 226 2.42 253 2.42 172 2.43 135 2.43   6 2.43 277 2.43 134 2.44
                           143 2.44 186 2.45 283 2.45  68 2.46
  85  0.437  0.958  0.698- 100 2.43  43 2.43  81 2.43 200 2.43  20 2.43 210 2.43  89 2.43  32 2.44
                            36 2.44 136 2.44 127 2.44 173 2.45
  86  0.062  0.869  0.302- 133 2.43 213 2.43 220 2.43 211 2.43  23 2.43 112 2.43  38 2.43 246 2.43
                           275 2.44 110 2.44 212 2.44 193 2.44
  87  0.313  0.375  0.654- 196 2.42   5 2.43  70 2.43  25 2.43 250 2.43 215 2.43 142 2.43 285 2.43
                           136 2.44  54 2.44  36 2.44 165 2.44
  88  0.188  0.622  0.521-  58 2.38  40 2.38 230 2.39  15 2.41 143 2.42 251 2.42 253 2.43 161 2.43
                            57 2.43  78 2.43 288 2.43  94 2.44
  89  0.187  0.958  0.698-  74 2.42 100 2.43  28 2.43 194 2.43 140 2.43  85 2.43 142 2.44  41 2.44
                            36 2.44 169 2.44  32 2.44 127 2.44
  90  0.187  0.626  0.786- 262 2.43 203 2.43 101 2.43 123 2.43  63 2.43 216 2.43 194 2.43  80 2.43
                           197 2.43 155 2.45 141 2.45 156 2.45
  91  0.063  0.540  0.610- 285 2.41 196 2.42 190 2.43  50 2.43  25 2.43  70 2.43  59 2.43 137 2.43
                           264 2.43 251 2.45  15 2.46 281 2.46
  92  0.937  0.793  0.873-  76 2.36 155 2.36  30 2.36 224 2.43 199 2.43 177 2.43 227 2.43 139 2.43
                           163 2.43
  93  0.563  0.702  0.214-  33 2.43 239 2.43   8 2.43 188 2.43 265 2.43 176 2.43  13 2.43 147 2.43
                            99 2.43  35 2.45 270 2.45 247 2.46
  94  0.937  0.623  0.521- 195 2.38  40 2.38 249 2.38 281 2.42   6 2.42 251 2.43 226 2.43 104 2.43
                           288 2.43 205 2.43  78 2.43  88 2.44
  95  0.812  0.376  0.786-  10 2.43 208 2.43 203 2.43 111 2.43  71 2.43  19 2.43  55 2.43  46 2.43
                           262 2.43  62 2.45  72 2.45 121 2.46
  96  0.062  0.537  0.390- 110 2.42 157 2.43 272 2.43 132 2.43 232 2.43 145 2.43  82 2.43 234 2.43
                            53 2.43 276 2.44 128 2.45   7 2.45
  97  0.063  0.037  0.390- 271 2.42 212 2.43 193 2.43 272 2.43 261 2.43 232 2.43  53 2.43 131 2.43
                           157 2.43 287 2.45  60 2.45 130 2.46
  98  0.688  0.293  0.873-  72 2.36 178 2.36  62 2.36 171 2.43 224 2.43 227 2.43 146 2.43 151 2.43
                            27 2.44
  99  0.562  0.535  0.258- 228 2.43  37 2.43  17 2.43 147 2.43 144 2.43  83 2.43 159 2.43  33 2.43
                            93 2.43  75 2.43 176 2.43  13 2.43
 100  0.312  0.709  0.698- 194 2.43  74 2.43  89 2.43  85 2.43 216 2.43  54 2.43  43 2.43 165 2.43
                           200 2.43 127 2.44  25 2.44   5 2.45
 101  0.063  0.542  0.742- 107 2.43  90 2.43 216 2.43 194 2.43 262 2.43  46 2.43 102 2.43 165 2.43
                           203 2.43  74 2.44  52 2.44 111 2.44
 102  0.937  0.792  0.742-  67 2.42 111 2.43 268 2.43 282 2.43 101 2.43 194 2.43  28 2.43 203 2.43
                            41 2.43  74 2.43 202 2.44 123 2.44
 103  0.813  0.535  0.127- 248 2.35 270 2.36  61 2.36 236 2.43  26 2.43 231 2.43  39 2.43  34 2.43
                           258 2.43
 104  0.812  0.872  0.521- 120 2.38  12 2.38 195 2.38 172 2.42 259 2.42   6 2.42 244 2.43 226 2.43
                           150 2.43  94 2.43 288 2.44 168 2.44
 105  0.563  0.373  0.521- 125 2.38 233 2.38   4 2.38 286 2.41 135 2.42 134 2.43 205 2.43  57 2.43
                           226 2.43 109 2.43 253 2.43 150 2.43
 106  0.563  0.368  0.169-  34 2.36 204 2.36 258 2.36  69 2.43 247 2.43  61 2.43 219 2.43 149 2.43
                           270 2.43 174 2.45  33 2.45 176 2.45
 107  0.187  0.292  0.742- 101 2.43  36 2.43 165 2.43  21 2.43  46 2.43 183 2.43 216 2.43  32 2.43
                           140 2.43  63 2.43  41 2.44 262 2.44
 108  0.688  0.959  0.831- 139 2.36 227 2.36  27 2.37 175 2.43  30 2.43  76 2.43 243 2.43  62 2.43
                           178 2.43 208 2.45 113 2.45 202 2.46
 109  0.437  0.123  0.521- 233 2.38 191 2.38 267 2.38  79 2.42 277 2.42  57 2.43 286 2.43 182 2.43
                           105 2.43 161 2.43 244 2.43 150 2.44
 110  0.062  0.703  0.346-  96 2.42 232 2.42  53 2.43 132 2.43  48 2.43 193 2.43  65 2.43 212 2.43
                            82 2.44  86 2.44 133 2.44  23 2.45
 111  0.812  0.542  0.742-  10 2.43  67 2.43 102 2.43  95 2.43   1 2.43  46 2.43  55 2.43 268 2.43
                           203 2.43  52 2.43 114 2.43 101 2.44
 112  0.188  0.119  0.302- 187 2.43 167 2.43 246 2.43 241 2.43 213 2.43 278 2.43  86 2.43 220 2.43
                            29 2.43 193 2.44 271 2.45 154 2.45
 113  0.563  0.876  0.787- 202 2.43 200 2.43  80 2.43 197 2.43 208 2.43 268 2.43 279 2.43  10 2.44
                            20 2.44 175 2.45 108 2.45 243 2.46
 114  0.562  0.542  0.742- 216 2.43  43 2.43  21 2.43 200 2.43 197 2.43 268 2.43  54 2.43   1 2.43
                            10 2.43 111 2.43  55 2.44  19 2.44
 115  0.438  0.622  0.435- 125 2.41 217 2.42  58 2.42   7 2.42  16 2.42 273 2.43 206 2.43 152 2.43
                           126 2.43 280 2.45 214 2.45 234 2.45
 116  0.188  0.119  0.169- 222 2.35  64 2.36  45 2.36 219 2.43 149 2.43  56 2.43 209 2.43 255 2.43
                             2 2.43 237 2.46  22 2.46 124 2.46
 117  0.438  0.453  0.346- 221 2.42 234 2.42 214 2.42 198 2.43  65 2.43 153 2.43 122 2.43  82 2.43
                           154 2.43  83 2.44 228 2.45 278 2.45
 118  0.687  0.624  0.654- 186 2.43 283 2.43 192 2.43 173 2.43   5 2.43 242 2.43 190 2.43 250 2.43
                            50 2.43   1 2.44  43 2.44  67 2.45
 119  0.812  0.206  0.565- 205 2.42 150 2.42 168 2.42 286 2.42 172 2.43 259 2.43 281 2.43 135 2.43
                           257 2.44 158 2.45  44 2.45 137 2.45
 120  0.688  0.955  0.479- 104 2.38 244 2.38 150 2.38   3 2.41 206 2.41 218 2.42  12 2.43 195 2.43
                            31 2.43 233 2.43 267 2.43 217 2.43
 121  0.938  0.459  0.831- 199 2.36 171 2.36 224 2.36  49 2.43 141 2.43  62 2.43  76 2.43  72 2.43
                           155 2.43 262 2.45 203 2.45  95 2.46
 122  0.687  0.453  0.346- 240 2.42 145 2.43 198 2.43  11 2.43 214 2.43 117 2.43 153 2.43 132 2.43
                            48 2.43 228 2.44 144 2.44  51 2.44
 123  0.062  0.876  0.786-  90 2.43  41 2.43  71 2.43  80 2.43 183 2.43 203 2.43 202 2.43 102 2.44
                           194 2.44 155 2.45  30 2.45 225 2.45
 124  0.312  0.202  0.214-  33 2.43 170 2.43 167 2.43 237 2.43  22 2.43 174 2.43  37 2.43 265 2.43
                           187 2.44 219 2.45 149 2.45 116 2.46
 125  0.437  0.455  0.479-  57 2.38 105 2.38 253 2.39 115 2.41 152 2.42 126 2.42  58 2.43 230 2.43
                           217 2.43 191 2.43 233 2.43   4 2.43
 126  0.563  0.371  0.435- 233 2.42   4 2.42 125 2.42 229 2.43   3 2.43  16 2.43 180 2.43 115 2.43
                           152 2.44 214 2.44 221 2.45 240 2.45
 127  0.313  0.874  0.654-  77 2.42 136 2.42  68 2.42 173 2.42  59 2.43  25 2.43 169 2.43   5 2.43
                           142 2.44  85 2.44 100 2.44  89 2.44
 128  0.063  0.371  0.435- 164 2.42 230 2.42 249 2.42 152 2.43 287 2.43  60 2.43 276 2.43   7 2.44
                           229 2.44  96 2.45 272 2.45 157 2.45
 129  0.313  0.543  0.873- 156 2.36  18 2.36 141 2.36 256 2.42 163 2.43 146 2.43 199 2.43 151 2.44
                             9 2.44
 130  0.063  0.871  0.435-  40 2.41 266 2.41  12 2.41 273 2.43   7 2.43  60 2.43 276 2.43 287 2.44
                           218 2.44  97 2.46 232 2.46  53 2.46
 131  0.813  0.038  0.390-  11 2.42 212 2.42  66 2.43 240 2.43  53 2.43 260 2.43 157 2.43 238 2.43
                            97 2.43 218 2.45 287 2.45   3 2.46
 132  0.938  0.454  0.346- 145 2.43 157 2.43 110 2.43  48 2.43  96 2.43 122 2.43  82 2.43  11 2.43
                           133 2.43 271 2.44  29 2.44  51 2.44
 133  0.938  0.620  0.302-  23 2.43  86 2.43  38 2.43 269 2.43  29 2.43 211 2.43 144 2.43 132 2.43
                            51 2.43  75 2.43 110 2.44  48 2.44
 134  0.437  0.456  0.565- 253 2.42  57 2.42 286 2.42 105 2.43 135 2.43  15 2.43  79 2.43  84 2.44
                           143 2.44 215 2.45 283 2.46 196 2.46
 135  0.687  0.456  0.565- 226 2.41 286 2.42 205 2.42 105 2.42  84 2.43 134 2.43 281 2.43 119 2.43
                             6 2.44  44 2.45 283 2.46  50 2.46
 136  0.437  0.124  0.654- 274 2.42  77 2.42 127 2.42 215 2.43 173 2.43 142 2.43 250 2.43  87 2.44
                           189 2.44  85 2.44  36 2.45  81 2.45
 137  0.937  0.290  0.610-  44 2.42 184 2.43 158 2.43 285 2.43  50 2.43 192 2.43 201 2.43  91 2.43
                            70 2.44 281 2.45 119 2.45 257 2.46
 138  0.438  0.953  0.346- 280 2.42 238 2.42  66 2.43 261 2.43 193 2.43 198 2.43 154 2.43 153 2.43
                            65 2.43 246 2.44  47 2.45 241 2.45
 139  0.688  0.793  0.873- 108 2.36  76 2.36 175 2.36 224 2.43 146 2.43  92 2.43 256 2.43 227 2.43
                            27 2.43
 140  0.063  0.208  0.698-  36 2.43  41 2.43 284 2.43  28 2.43  89 2.43 107 2.43 165 2.43  46 2.43
                            52 2.44 142 2.44 184 2.45 285 2.45
 141  0.187  0.459  0.831- 199 2.36   9 2.36 129 2.36  49 2.43 121 2.43 155 2.43 156 2.43  18 2.43
                           166 2.44 262 2.45  63 2.45  90 2.45
 142  0.187  0.125  0.654-  70 2.42 184 2.43 169 2.43  77 2.43 201 2.43 285 2.43 136 2.43  87 2.43
                           127 2.44  89 2.44 140 2.44  36 2.45
 143  0.312  0.707  0.565- 161 2.42  88 2.42 277 2.42 254 2.42 251 2.42 253 2.42  15 2.44 134 2.44
                            84 2.44  59 2.45  68 2.45 196 2.46
 144  0.688  0.620  0.302-  13 2.42  75 2.43 228 2.43  47 2.43 211 2.43  99 2.43 133 2.43  51 2.43
                            83 2.43 122 2.44 198 2.45  48 2.45
 145  0.812  0.537  0.390-  48 2.42 240 2.43 132 2.43 122 2.43 157 2.43 214 2.43  96 2.43 260 2.43
                            53 2.44 276 2.45 229 2.45  16 2.46
 146  0.562  0.543  0.873-  72 2.36 175 2.36  18 2.36 256 2.43 129 2.43 139 2.43 224 2.43  98 2.43
                           151 2.43
 147  0.438  0.786  0.258-  83 2.43  13 2.43  17 2.43  99 2.43 275 2.43 265 2.43 148 2.43  93 2.43
                           187 2.43 239 2.43 246 2.43  47 2.44
 148  0.563  0.036  0.258-  37 2.43  47 2.43 159 2.43 245 2.43 241 2.43 160 2.43 187 2.43 147 2.43
                            13 2.43 174 2.43   8 2.43 265 2.44
 149  0.437  0.118  0.169-  24 2.36  45 2.36 204 2.36 116 2.43 106 2.43 219 2.43   2 2.43  69 2.43
                            35 2.43 265 2.45 174 2.45 124 2.45
 150  0.688  0.122  0.521- 233 2.38  31 2.38 120 2.38 172 2.41 119 2.42 286 2.42 104 2.43 205 2.43
                           244 2.43 168 2.43 105 2.43 109 2.44
 151  0.438  0.293  0.873- 178 2.35 166 2.36  18 2.37  27 2.43 162 2.43 146 2.43  98 2.43 129 2.44
                             9 2.44
 152  0.312  0.371  0.435- 191 2.41 230 2.42 125 2.42 128 2.43  60 2.43   7 2.43 180 2.43 115 2.43
                           126 2.44 234 2.44 221 2.45 272 2.45
 153  0.562  0.203  0.346- 238 2.42 221 2.43 240 2.43 154 2.43 117 2.43 122 2.43 138 2.43  66 2.43
                            11 2.43 228 2.44 241 2.44 245 2.45
 154  0.313  0.203  0.346- 261 2.43 221 2.43 272 2.43 153 2.43  82 2.43 271 2.43 138 2.43 193 2.43
                           117 2.43 278 2.44 241 2.44 112 2.45
 155  0.062  0.709  0.831- 163 2.36  92 2.36 199 2.36  30 2.43  76 2.43 225 2.43 141 2.43 121 2.43
                           156 2.43 123 2.45  90 2.45 203 2.45
 156  0.313  0.709  0.831- 256 2.36 163 2.36 129 2.36  18 2.43 175 2.43 141 2.43 225 2.43 155 2.43
                           243 2.43  80 2.45 197 2.45  90 2.45
 157  0.938  0.288  0.390- 132 2.43 272 2.43 240 2.43 145 2.43 271 2.43  96 2.43  11 2.43 131 2.43
                            97 2.43 287 2.44 229 2.45 128 2.45
 158  0.813  0.041  0.610- 189 2.42 242 2.42 137 2.43 184 2.43  44 2.43 201 2.43 274 2.43 264 2.43
                           186 2.44 119 2.45 259 2.46 172 2.46
 159  0.688  0.285  0.258- 245 2.43 207 2.43  37 2.43 160 2.43 148 2.43  51 2.43  75 2.43  99 2.43
                            42 2.43 176 2.43 228 2.43 174 2.43
 160  0.813  0.036  0.258- 211 2.43 207 2.43 159 2.43 213 2.43  42 2.43 148 2.43 245 2.43  38 2.43
                           220 2.43   8 2.43  13 2.43 223 2.43
 161  0.313  0.872  0.521- 267 2.38 266 2.38  58 2.38 277 2.41 143 2.42 254 2.42 253 2.43  88 2.43
                           244 2.43 288 2.43 109 2.43 182 2.44
 162  0.313  0.043  0.873- 166 2.36 243 2.36 225 2.37  27 2.43 151 2.43 163 2.43 177 2.43 256 2.44
                             9 2.44
 163  0.188  0.793  0.873- 156 2.36 155 2.36 225 2.36 129 2.43 199 2.43 256 2.43  92 2.43 177 2.43
                           162 2.43
 164  0.063  0.205  0.479- 168 2.38 182 2.38  78 2.39 128 2.42  60 2.42 287 2.42 266 2.43 191 2.43
                           249 2.43  12 2.43  31 2.43 230 2.43
 165  0.188  0.459  0.698-  36 2.43 107 2.43  74 2.43 100 2.43  54 2.43 101 2.43  52 2.43 140 2.43
                           216 2.44  25 2.44  87 2.44 285 2.45
 166  0.313  0.209  0.831- 162 2.36 151 2.36   9 2.36 178 2.43 243 2.43 225 2.43  49 2.43  18 2.43
                           141 2.44  63 2.46 183 2.46 279 2.46
 167  0.187  0.286  0.258- 112 2.43 187 2.43  29 2.43 213 2.43 269 2.43 124 2.43 170 2.43  17 2.43
                           278 2.43 207 2.43  22 2.44  37 2.44
 168  0.938  0.123  0.521- 164 2.38  31 2.38  12 2.38 259 2.42 119 2.42 257 2.42  78 2.43 205 2.43
                           150 2.43 182 2.43 288 2.43 104 2.44
 169  0.063  0.875  0.654- 201 2.42  59 2.42 142 2.43 264 2.43 184 2.43  25 2.43 190 2.43 127 2.43
                           242 2.44  89 2.44  74 2.44  28 2.45
 170  0.187  0.452  0.214- 124 2.43 252 2.43  17 2.43 181 2.43  33 2.43  22 2.43 167 2.43 269 2.43
                           239 2.43 185 2.45 219 2.46 209 2.46
 171  0.937  0.293  0.873-  49 2.36 121 2.36  62 2.36   9 2.43  98 2.43 227 2.43 199 2.43 177 2.43
                           224 2.43
 172  0.688  0.956  0.565- 150 2.41 104 2.42 244 2.42 259 2.42  84 2.43 119 2.43   6 2.43 286 2.44
                           277 2.44 186 2.45 158 2.46 274 2.47
 173  0.562  0.874  0.654- 274 2.41  68 2.42 186 2.42 127 2.42 118 2.43 242 2.43 136 2.43   5 2.43
                           189 2.43  43 2.45  85 2.45 210 2.45
 174  0.563  0.202  0.214-  42 2.43   8 2.43 176 2.43 265 2.43  33 2.43 124 2.43 148 2.43  37 2.43
                           159 2.43  69 2.45 106 2.45 149 2.45
 175  0.562  0.709  0.831- 256 2.36 139 2.36 146 2.36  18 2.43 108 2.43 156 2.43  76 2.43 243 2.43
                            72 2.43 113 2.45 197 2.46  10 2.46
 176  0.688  0.452  0.214- 181 2.43 188 2.43  33 2.43 174 2.43  42 2.43  93 2.43 159 2.43  75 2.43
                            99 2.43 270 2.45  61 2.45 106 2.45
 177  0.062  0.043  0.873-  49 2.36  30 2.36 225 2.36 227 2.43  92 2.43   9 2.43 171 2.43 163 2.43
                           162 2.43
 178  0.562  0.209  0.831- 151 2.35  27 2.36  98 2.36 166 2.43 243 2.43  18 2.43  72 2.43 108 2.43
                            62 2.44  19 2.46 208 2.46 279 2.47
 179  0.312  0.535  0.127- 247 2.36 185 2.36 219 2.36 258 2.43  14 2.43 204 2.43  73 2.43 236 2.43
                           222 2.43
 180  0.437  0.121  0.435- 267 2.42 191 2.42 233 2.42  60 2.42   3 2.43 152 2.43 273 2.43 126 2.43
                           206 2.44 221 2.44 261 2.45 238 2.46
 181  0.937  0.452  0.214-  22 2.43 188 2.43 176 2.43  42 2.43 170 2.43 252 2.43 207 2.43  75 2.44
                           269 2.44  61 2.45 209 2.45 248 2.45
 182  0.188  0.123  0.521- 164 2.38 191 2.38 266 2.38 254 2.42  79 2.42 257 2.42 109 2.43  57 2.43
                            78 2.43 168 2.43 288 2.43 161 2.44
 183  0.187  0.126  0.786-  71 2.43 279 2.43 262 2.43  63 2.43 123 2.43 107 2.43  41 2.43  80 2.43
                            32 2.43 225 2.45 166 2.46  49 2.46
 184  0.938  0.124  0.654- 137 2.43 142 2.43 158 2.43 169 2.43 189 2.43 201 2.43 242 2.43 285 2.43
                            28 2.44 192 2.44 284 2.44 140 2.45
 185  0.187  0.618  0.169-  14 2.36 179 2.36 236 2.36 209 2.43   2 2.43 255 2.43 219 2.43 248 2.43
                           247 2.43 170 2.45 239 2.45 252 2.46
 186  0.687  0.790  0.610- 173 2.42 118 2.43 242 2.43  68 2.43 274 2.43 283 2.43  50 2.43 264 2.44
                           158 2.44  84 2.45 172 2.45   6 2.45
 187  0.313  0.036  0.258- 112 2.43 246 2.43 241 2.43 167 2.43  37 2.43 148 2.43 275 2.43 213 2.43
                           147 2.43 124 2.44 265 2.44 237 2.44
 188  0.812  0.702  0.214- 181 2.43  38 2.43 176 2.43 252 2.43  13 2.43  93 2.43  75 2.43   8 2.43
                           223 2.43 235 2.45 270 2.45 248 2.46
 189  0.688  0.124  0.654- 274 2.42 242 2.42 158 2.42  44 2.42 184 2.43 250 2.43 173 2.43 136 2.44
                           192 2.44 210 2.44 284 2.45  81 2.46
 190  0.937  0.625  0.654-  50 2.42  91 2.43 264 2.43 192 2.43 285 2.43 118 2.43 169 2.43  25 2.43
                           242 2.43  52 2.44  74 2.44  67 2.45
 191  0.312  0.205  0.479- 109 2.38 182 2.38  57 2.38 152 2.41  60 2.42 180 2.42 164 2.43 266 2.43
                           230 2.43 125 2.43 267 2.44 233 2.44
 192  0.812  0.375  0.654-  50 2.42 118 2.43  44 2.43 250 2.43 190 2.43 285 2.43 137 2.43 284 2.43
                           189 2.44 184 2.44  52 2.44   1 2.44
 193  0.188  0.953  0.346- 232 2.42  97 2.43 261 2.43  65 2.43 110 2.43 138 2.43 154 2.43 271 2.44
                           212 2.44 246 2.44 112 2.44  86 2.44
 194  0.188  0.792  0.742- 100 2.43 216 2.43  74 2.43 101 2.43  89 2.43 200 2.43 102 2.43  90 2.43
                            41 2.43  32 2.43  80 2.44 123 2.44
 195  0.812  0.705  0.479-  94 2.38 226 2.38 104 2.38 218 2.42  16 2.42 276 2.43   4 2.43 120 2.43
                           217 2.43  12 2.43  40 2.44 249 2.44
 196  0.312  0.540  0.610-  87 2.42  25 2.42  91 2.42  70 2.43  59 2.43   5 2.43 215 2.43  68 2.44
                           283 2.44  15 2.45 143 2.46 134 2.46
 197  0.438  0.626  0.786- 216 2.43 200 2.43 114 2.43  63 2.43  19 2.43 113 2.43  80 2.43  10 2.43
                            90 2.43  18 2.45 156 2.45 175 2.46
 198  0.563  0.703  0.346- 214 2.42 280 2.43 260 2.43 122 2.43 117 2.43  66 2.43 138 2.43  48 2.43
                            65 2.43  47 2.44  83 2.44 144 2.45
 199  0.062  0.543  0.873- 121 2.36 141 2.36 155 2.36 163 2.43   9 2.43  92 2.43 224 2.43 171 2.43
                           129 2.43
 200  0.437  0.792  0.742-  80 2.43 197 2.43 114 2.43 216 2.43 194 2.43 113 2.43  32 2.43  85 2.43
                           268 2.43  20 2.43 100 2.43  43 2.43
 201  0.063  0.041  0.610- 169 2.42 142 2.43  70 2.43  77 2.43 184 2.43  59 2.43 264 2.43 158 2.43
                           137 2.43 257 2.45 254 2.45 259 2.46
 202  0.812  0.875  0.786- 282 2.42 113 2.43 268 2.43  10 2.43 203 2.43 208 2.43 123 2.43  71 2.44
                           102 2.44  76 2.45  30 2.46 108 2.46
 203  0.938  0.626  0.786- 262 2.43  90 2.43  10 2.43  95 2.43 202 2.43 123 2.43 111 2.43 101 2.43
                           102 2.43 155 2.45 121 2.45  76 2.46
 204  0.437  0.285  0.127- 106 2.36 219 2.36 149 2.36  45 2.43 179 2.43 222 2.43 258 2.43  24 2.43
                            34 2.43
 205  0.812  0.372  0.521- 249 2.38   4 2.38  31 2.39 119 2.42 135 2.42 281 2.42 105 2.43 226 2.43
                           150 2.43 168 2.43  94 2.43  78 2.44
 206  0.563  0.871  0.435- 120 2.41 217 2.42 267 2.42 218 2.42  16 2.42   3 2.43 115 2.43 180 2.44
                           273 2.44 238 2.45 260 2.45 280 2.46
 207  0.937  0.286  0.258- 160 2.43 159 2.43  75 2.43  42 2.43  51 2.43 220 2.43  29 2.43 181 2.43
                           213 2.43 167 2.43  22 2.44 269 2.44
 208  0.688  0.126  0.787- 282 2.43  95 2.43  55 2.43  71 2.43  19 2.43 202 2.43 113 2.43 279 2.44
                            20 2.44 108 2.45  62 2.45 178 2.46
 209  0.062  0.369  0.169- 236 2.36 231 2.36 222 2.36 248 2.43  61 2.43 185 2.43 116 2.43  56 2.43
                           219 2.43  22 2.45 181 2.45 170 2.46
 210  0.688  0.958  0.698-  67 2.43  28 2.43  81 2.43 268 2.43  85 2.43  43 2.43 242 2.44  20 2.44
                           189 2.44 284 2.44 282 2.44 173 2.45
 211  0.812  0.870  0.302-  47 2.43 160 2.43 220 2.43 144 2.43  86 2.43 245 2.43  13 2.43  38 2.43
                           133 2.43  48 2.44  66 2.44 212 2.45
 212  0.937  0.954  0.346- 131 2.42  53 2.42  97 2.43 271 2.43  11 2.43  48 2.43  66 2.43 220 2.43
                           110 2.43 193 2.44  86 2.44 211 2.45
 213  0.062  0.036  0.258-  86 2.43 275 2.43 160 2.43  38 2.43 223 2.43 112 2.43 167 2.43 237 2.43
                           187 2.43 207 2.43 220 2.43  22 2.44
 214  0.563  0.537  0.390- 198 2.42 117 2.42 145 2.43 122 2.43 240 2.43 221 2.43 234 2.43 280 2.43
                           260 2.43 126 2.44  16 2.45 115 2.45
 215  0.437  0.290  0.610- 136 2.43 250 2.43  77 2.43  70 2.43 274 2.43  87 2.43 283 2.43 196 2.43
                            44 2.44 134 2.45 286 2.45  79 2.45
 216  0.313  0.543  0.742- 114 2.43 194 2.43 197 2.43 101 2.43 100 2.43 200 2.43  21 2.43  63 2.43
                            90 2.43 107 2.43 165 2.44  54 2.44
 217  0.563  0.705  0.479- 226 2.38 253 2.38 244 2.38 206 2.42  16 2.42 115 2.42   4 2.43 195 2.43
                           125 2.43 267 2.43  58 2.43 120 2.43
 218  0.812  0.871  0.435- 120 2.42 195 2.42 206 2.42  12 2.43  16 2.43   3 2.43 276 2.43 287 2.44
                           130 2.44 260 2.44 131 2.45  53 2.45
 219  0.313  0.369  0.169- 204 2.36 179 2.36 222 2.36 116 2.43 247 2.43 106 2.43 185 2.43 149 2.43
                           209 2.43 124 2.45  33 2.45 170 2.46
 220  0.937  0.119  0.302-  86 2.43 211 2.43  29 2.43 160 2.43 207 2.43 112 2.43 245 2.43  51 2.43
                           213 2.43 212 2.43  11 2.44 271 2.44
 221  0.438  0.287  0.390- 117 2.42 153 2.43 154 2.43 234 2.43 214 2.43 238 2.43 261 2.44 240 2.44
                           272 2.44 180 2.44 152 2.45 126 2.45
 222  0.187  0.285  0.127- 116 2.35 219 2.36 209 2.36  45 2.43  64 2.43 204 2.43 231 2.43 179 2.43
                           236 2.43
 223  0.938  0.952  0.214- 252 2.43  38 2.43 237 2.43 213 2.43  22 2.43 188 2.43   8 2.43  42 2.43
                           160 2.43  56 2.45 255 2.45 235 2.45
 224  0.812  0.543  0.873-  76 2.36 121 2.36  72 2.36 139 2.43  92 2.43  98 2.43 199 2.43 146 2.43
                           171 2.43
 225  0.187  0.959  0.831- 163 2.36 177 2.36 162 2.37  30 2.43 166 2.43 155 2.43  49 2.43 243 2.43
                           156 2.43 183 2.45 123 2.45  80 2.46
 226  0.688  0.622  0.521- 195 2.38 217 2.38   4 2.38 135 2.41  84 2.42   6 2.42  94 2.43 205 2.43
                           104 2.43 105 2.43 244 2.43 253 2.44
 227  0.813  0.043  0.873-  62 2.36 108 2.36  30 2.36 177 2.43  92 2.43 171 2.43  98 2.43 139 2.43
                            27 2.43
 228  0.563  0.370  0.302-  99 2.43  51 2.43 144 2.43 245 2.43  83 2.43 241 2.43 159 2.43  37 2.44
                           122 2.44 278 2.44 153 2.44 117 2.45
 229  0.812  0.371  0.435-  31 2.41   4 2.42 249 2.42 126 2.43 287 2.43   3 2.43 276 2.43  16 2.44
                           128 2.44 145 2.45 240 2.45 157 2.45
 230  0.187  0.455  0.479-  57 2.38  78 2.38  88 2.39 128 2.42   7 2.42 152 2.42  40 2.43  58 2.43
                           191 2.43 249 2.43 125 2.43 164 2.43
 231  0.937  0.285  0.127- 209 2.36  61 2.36  56 2.36  34 2.43  64 2.43 103 2.43 236 2.43 222 2.43
                           263 2.43
 232  0.187  0.787  0.390- 193 2.42 110 2.42  53 2.43  65 2.43 261 2.43  97 2.43  96 2.43 280 2.43
                           234 2.44   7 2.44 273 2.45 130 2.46
 233  0.563  0.205  0.479- 150 2.38 109 2.38 105 2.38   3 2.42 126 2.42 180 2.42  31 2.43 120 2.43
                           267 2.43 125 2.43   4 2.43 191 2.44
 234  0.313  0.537  0.390-  65 2.42 117 2.42  82 2.43 221 2.43 272 2.43 214 2.43 280 2.43  96 2.43
                           232 2.44 152 2.44   7 2.45 115 2.45
 235  0.813  0.868  0.169-  39 2.36  26 2.36 263 2.36 255 2.43 270 2.43 248 2.43  35 2.43  56 2.43
                            69 2.43 188 2.45 223 2.45   8 2.45
 236  0.062  0.535  0.127- 248 2.36 209 2.36 185 2.36 103 2.43 231 2.43  26 2.43  14 2.43 179 2.43
                           222 2.43
 237  0.187  0.952  0.214- 275 2.43 223 2.43 239 2.43 265 2.43  22 2.43 124 2.43 213 2.43 252 2.43
                           187 2.44   2 2.45 255 2.45 116 2.46
 238  0.563  0.037  0.390- 138 2.42 153 2.42  66 2.42 260 2.43 280 2.43 131 2.43 261 2.43 221 2.43
                           240 2.44 206 2.45   3 2.45 180 2.46
 239  0.313  0.702  0.214- 265 2.43  93 2.43 275 2.43 237 2.43 252 2.43 170 2.43  33 2.43 147 2.43
                            17 2.44   2 2.45 185 2.45 247 2.46
 240  0.688  0.287  0.390- 122 2.42  11 2.42 153 2.43 145 2.43 157 2.43 131 2.43 214 2.43 221 2.44
                           238 2.44 229 2.45   3 2.45 126 2.45
 241  0.438  0.120  0.302-  37 2.43 245 2.43 187 2.43 278 2.43 148 2.43 112 2.43 228 2.43 246 2.43
                            47 2.44 154 2.44 153 2.44 138 2.45
 242  0.812  0.875  0.654- 189 2.42 158 2.42 186 2.43 173 2.43 184 2.43 118 2.43 190 2.43 210 2.44
                           264 2.44 169 2.44  67 2.44  28 2.44
 243  0.437  0.960  0.831- 162 2.36  27 2.36 256 2.36 166 2.43 178 2.43 108 2.43 225 2.43 175 2.43
                           156 2.43 113 2.46  80 2.46 279 2.46
 244  0.563  0.872  0.521- 267 2.38 120 2.38 217 2.38  84 2.42 172 2.42 277 2.42 104 2.43 150 2.43
                           161 2.43 253 2.43 226 2.43 109 2.43
 245  0.687  0.119  0.302-  47 2.43 159 2.43 241 2.43 148 2.43 211 2.43 160 2.43 228 2.43  51 2.43
                           220 2.43  66 2.44  11 2.44 153 2.45
 246  0.312  0.870  0.302- 187 2.43 112 2.43  83 2.43  23 2.43  86 2.43 241 2.43 147 2.43  47 2.44
                           275 2.44 193 2.44  65 2.44 138 2.44
 247  0.438  0.618  0.169- 258 2.35 179 2.36  73 2.36 270 2.43 219 2.43 106 2.43  35 2.43   2 2.43
                           185 2.43  33 2.45  93 2.46 239 2.46
 248  0.937  0.618  0.169- 103 2.35 236 2.36  26 2.36 209 2.43 270 2.43  61 2.43 235 2.43 185 2.43
                           255 2.43 181 2.45 188 2.46 252 2.46
 249  0.937  0.455  0.479- 205 2.38  78 2.38  94 2.38 128 2.42 229 2.42 276 2.43  31 2.43   4 2.43
                           164 2.43 230 2.43  40 2.43 195 2.44
 250  0.563  0.374  0.654- 283 2.42  44 2.43 215 2.43 192 2.43   5 2.43  87 2.43 189 2.43 118 2.43
                           136 2.43  54 2.45  81 2.45   1 2.45
 251  0.063  0.706  0.565- 288 2.42  88 2.42 143 2.42  94 2.43 254 2.43  15 2.43   6 2.43 259 2.43
                           281 2.44 264 2.45  91 2.45  59 2.46
 252  0.062  0.702  0.214- 223 2.43 275 2.43 188 2.43 170 2.43  38 2.43 181 2.43 237 2.43 239 2.43
                           269 2.43 255 2.45 185 2.46 248 2.46
 253  0.437  0.623  0.521-  58 2.38 217 2.38 125 2.39 134 2.42 143 2.42  84 2.42 161 2.43  88 2.43
                            57 2.43 244 2.43 105 2.43 226 2.44
 254  0.188  0.956  0.565- 182 2.42 277 2.42 288 2.42 143 2.42 161 2.42  79 2.43 251 2.43 257 2.43
                           259 2.44  59 2.45 201 2.45  77 2.46
 255  0.062  0.868  0.169-  26 2.36  14 2.36  64 2.36 235 2.43  56 2.43 185 2.43   2 2.43 248 2.43
                           116 2.43 252 2.45 223 2.45 237 2.45
 256  0.437  0.792  0.873- 175 2.36 156 2.36 243 2.36 129 2.42 146 2.43 163 2.43 139 2.43 162 2.44
                            27 2.44
 257  0.063  0.207  0.565-  78 2.41 182 2.42 168 2.42  15 2.43  79 2.43 281 2.43 254 2.43 119 2.44
                           259 2.44 201 2.45  70 2.45 137 2.46
 258  0.562  0.535  0.127- 247 2.35 106 2.36 270 2.36  73 2.43 179 2.43  39 2.43 204 2.43 103 2.43
                            34 2.44
 259  0.937  0.956  0.565- 104 2.42 168 2.42 288 2.42   6 2.42 172 2.42 119 2.43 251 2.43 254 2.44
                           257 2.44 264 2.45 158 2.46 201 2.46
 260  0.688  0.787  0.390-  66 2.42  48 2.43 198 2.43 238 2.43  53 2.43 131 2.43 145 2.43 280 2.43
                           214 2.43 218 2.44  16 2.45 206 2.45
 261  0.312  0.037  0.390- 154 2.43 138 2.43 193 2.43 232 2.43 280 2.43  97 2.43 238 2.43 221 2.44
                           272 2.44 273 2.44  60 2.45 180 2.45
 262  0.063  0.376  0.787-  90 2.43 203 2.43  63 2.43 183 2.43 101 2.43  95 2.43  71 2.44 107 2.44
                            46 2.44 141 2.45 121 2.45  49 2.45
 263  0.813  0.035  0.127- 235 2.36  56 2.36  69 2.36  26 2.43  34 2.43  39 2.43  64 2.43  24 2.43
                           231 2.43
 264  0.938  0.791  0.610- 190 2.43  50 2.43 169 2.43  59 2.43 201 2.43 158 2.43  91 2.43 186 2.44
                           242 2.44 259 2.45   6 2.45 251 2.45
 265  0.437  0.952  0.214- 239 2.43 237 2.43  93 2.43 174 2.43 147 2.43   8 2.43 124 2.43 148 2.44
                           187 2.44 149 2.45   2 2.45  35 2.45
 266  0.188  0.956  0.479- 288 2.38 161 2.38 182 2.38 130 2.41  60 2.42 273 2.42 164 2.43 191 2.43
                           267 2.43  12 2.43  58 2.43  40 2.43
 267  0.438  0.955  0.479- 161 2.38 244 2.38 109 2.38 180 2.42 206 2.42 273 2.42 217 2.43 266 2.43
                           233 2.43 120 2.43  58 2.43 191 2.44
 268  0.688  0.792  0.742-  67 2.43 282 2.43 202 2.43 102 2.43 210 2.43 200 2.43 111 2.43  43 2.43
                           114 2.43  10 2.43 113 2.43  20 2.44
 269  0.063  0.536  0.258-  23 2.43  29 2.43 275 2.43  17 2.43 133 2.43 167 2.43  38 2.43 170 2.43
                           252 2.43  75 2.43 207 2.44 181 2.44
 270  0.688  0.619  0.169- 258 2.36  39 2.36 103 2.36 248 2.43  35 2.43 247 2.43 235 2.43  61 2.43
                           106 2.43 176 2.45  93 2.45 188 2.45
 271  0.063  0.203  0.346-  97 2.42 272 2.42  82 2.43 157 2.43 212 2.43 154 2.43  11 2.43 132 2.44
                           193 2.44  29 2.44 220 2.44 112 2.45
 272  0.187  0.287  0.390-  82 2.42 271 2.42 157 2.43 154 2.43  96 2.43  97 2.43 234 2.43 221 2.44
                           261 2.44  60 2.45 128 2.45 152 2.45
 273  0.312  0.871  0.435-  58 2.42 266 2.42 267 2.42   7 2.42 130 2.43  60 2.43 115 2.43 180 2.43
                           206 2.44 261 2.44 232 2.45 280 2.45
 274  0.563  0.040  0.610- 173 2.41 189 2.42 136 2.42 215 2.43  68 2.43 186 2.43 158 2.43  77 2.43
                            44 2.44 286 2.47 172 2.47 277 2.47
 275  0.188  0.786  0.258- 237 2.43 252 2.43  23 2.43 269 2.43 213 2.43 239 2.43 147 2.43 187 2.43
                            17 2.43  38 2.43  86 2.44 246 2.44
 276  0.938  0.621  0.435- 249 2.43 195 2.43  40 2.43 128 2.43 229 2.43 130 2.43 218 2.43  16 2.44
                             7 2.44  53 2.44  96 2.44 145 2.45
 277  0.437  0.956  0.565- 161 2.41 143 2.42 109 2.42 254 2.42 244 2.42  79 2.43  84 2.43 172 2.44
                            68 2.45 286 2.46  77 2.46 274 2.47
 278  0.312  0.370  0.302-  17 2.43 241 2.43  29 2.43  23 2.43 112 2.43  83 2.43 167 2.43  37 2.44
                           228 2.44  82 2.44 154 2.44 117 2.45
 279  0.437  0.126  0.786-  21 2.42  32 2.42  20 2.43  80 2.43  19 2.43 183 2.43  63 2.43 113 2.43
                           208 2.44 243 2.46 166 2.46 178 2.47
 280  0.437  0.787  0.390- 138 2.42  65 2.42 198 2.43 261 2.43 238 2.43 214 2.43 234 2.43 260 2.43
                           232 2.43 115 2.45 273 2.45 206 2.46
 281  0.937  0.456  0.565-  78 2.42 205 2.42  94 2.42 257 2.43 119 2.43  15 2.43 135 2.43   6 2.43
                           251 2.44 137 2.45  50 2.45  91 2.46
 282  0.813  0.042  0.743- 202 2.42  71 2.43 268 2.43 208 2.43  41 2.43 102 2.43  46 2.43  55 2.43
                            20 2.43  28 2.44 210 2.44 284 2.45
 283  0.563  0.540  0.610- 250 2.42   5 2.43 118 2.43 186 2.43  44 2.43 215 2.43  68 2.43 196 2.44
                            50 2.44  84 2.45 134 2.46 135 2.46
 284  0.813  0.209  0.698-  52 2.43   1 2.43 140 2.43  46 2.43  28 2.43 192 2.43  81 2.44  55 2.44
                           210 2.44 184 2.44 282 2.45 189 2.45
 285  0.062  0.375  0.654-  91 2.41  70 2.43 137 2.43 190 2.43 192 2.43 142 2.43  25 2.43 184 2.43
                            87 2.43 140 2.45  52 2.45 165 2.45
 286  0.563  0.208  0.565- 105 2.41 135 2.42 150 2.42 119 2.42 134 2.42 109 2.43  79 2.44 172 2.44
                            44 2.45 215 2.45 277 2.46 274 2.47
 287  0.937  0.122  0.435-  31 2.42  12 2.42 164 2.42 229 2.43 128 2.43   3 2.43 130 2.44  60 2.44
                           218 2.44 157 2.44 131 2.45  97 2.45
 288  0.063  0.873  0.521- 266 2.38  12 2.38  40 2.38 251 2.42 259 2.42 254 2.42 182 2.43 161 2.43
                            94 2.43  88 2.43 168 2.43 104 2.44
 
  LATTYP: Found a simple orthorhombic cell.
 ALAT       =     8.4235500000
 B/A-ratio  =     1.1547005716
 C/A-ratio  =     5.3421657140
  
  Lattice vectors:
  
 A1 = (   0.0000000000,  -8.4235500000,   0.0000000000)
 A2 = (  -9.7266780000,   0.0000000000,   0.0000000000)
 A3 = (   0.0000000000,   0.0000000000, -45.0000000000)


Analysis of symmetry for initial positions (statically):
=====================================================================
 Subroutine PRICEL returns:
 Original cell was already a primitive cell.
 

 Routine SETGRP: Setting up the symmetry group for a 
 simple orthorhombic supercell.


 Subroutine GETGRP returns: Found  1 space group operations
 (whereof  1 operations were pure point group operations)
 out of a pool of  8 trial point group operations.


The static configuration has the point symmetry C_1 .


Analysis of symmetry for dynamics (positions and initial velocities):
=====================================================================
 Subroutine PRICEL returns:
 Original cell was already a primitive cell.
 

 Routine SETGRP: Setting up the symmetry group for a 
 simple orthorhombic supercell.


 Subroutine GETGRP returns: Found  1 space group operations
 (whereof  1 operations were pure point group operations)
 out of a pool of  8 trial point group operations.


The dynamic configuration has the point symmetry C_1 .


 Subroutine INISYM returns: Found  1 space group operations
 (whereof  1 operations are pure point group operations),
 and found     1 'primitive' translations

 
 
 KPOINTS: Automatic mesh                          

Automatic generation of k-mesh.
Space group operators:
 irot       det(A)        alpha          n_x          n_y          n_z        tau_x        tau_y        tau_z
    1     1.000000     0.000001     1.000000     0.000000     0.000000     0.000000     0.000000     0.000000
 
 Subroutine IBZKPT returns following result:
 ===========================================
 
 Found     10 irreducible k-points:
 
 Following reciprocal coordinates:
            Coordinates               Weight
  0.000000  0.000000  0.000000      1.000000
  0.250000  0.000000  0.000000      2.000000
  0.500000  0.000000  0.000000      1.000000
  0.000000  0.250000  0.000000      2.000000
  0.250000  0.250000  0.000000      2.000000
  0.500000  0.250000  0.000000      2.000000
 -0.250000  0.250000  0.000000      2.000000
  0.000000  0.500000  0.000000      1.000000
  0.250000  0.500000  0.000000      2.000000
  0.500000  0.500000  0.000000      1.000000
 
 Following cartesian coordinates:
            Coordinates               Weight
  0.000000  0.000000  0.000000      1.000000
  0.025703  0.000000  0.000000      2.000000
  0.051405  0.000000  0.000000      1.000000
  0.000000  0.029679  0.000000      2.000000
  0.025703  0.029679  0.000000      2.000000
  0.051405  0.029679  0.000000      2.000000
 -0.025703  0.029679  0.000000      2.000000
  0.000000  0.059357  0.000000      1.000000
  0.025703  0.059357  0.000000      2.000000
  0.051405  0.059357  0.000000      1.000000
 


--------------------------------------------------------------------------------------------------------




 Dimension of arrays:
   k-points           NKPTS =     10   k-points in BZ     NKDIM =     10   number of bands    NBANDS=   1380
   number of dos      NEDOS =    301   number of ions     NIONS =    288
   non local maximal  LDIM  =      7   non local SUM 2l+1 LMDIM =     25
   total plane-waves  NPLWV = ******
   max r-space proj   IRMAX =   6210   max aug-charges    IRDMAX=  15157
   dimension x,y,z NGX =    72 NGY =   64 NGZ =  336
   dimension x,y,z NGXF=   144 NGYF=  128 NGZF=  672
   support grid    NGXF=   144 NGYF=  128 NGZF=  672
   ions per type =             273  15
   NGX,Y,Z   is equivalent  to a cutoff of  12.31, 12.63, 12.41 a.u.
   NGXF,Y,Z  is equivalent  to a cutoff of  24.61, 25.26, 24.83 a.u.

 SYSTEM =  unknown system                          
 POSCAR =  FeMn_288_15                             

 Startparameter for this run:
   NWRITE =      2    write-flag & timer
   PREC   = accura    normal or accurate (medium, high low for compatibility)
   ISTART =      0    job   : 0-new  1-cont  2-samecut
   ICHARG =      2    charge: 1-file 2-atom 10-const
   ISPIN  =      1    spin polarized calculation?
   LNONCOLLINEAR =      F non collinear calculations
   LSORBIT =      F    spin-orbit coupling
   INIWAV =      1    electr: 0-lowe 1-rand  2-diag
   LASPH  =      F    aspherical Exc in radial PAW
   METAGGA=      F    non-selfconsistent MetaGGA calc.

 Electronic Relaxation 1
   ENCUT  =  500.0 eV  36.75 Ry    6.06 a.u.  17.73 15.36 82.05*2*pi/ulx,y,z
   ENINI  =  500.0     initial cutoff
   ENAUG  =  838.4 eV  augmentation charge cutoff
   NELM   =    100;   NELMIN=  4; NELMDL=  0     # of ELM steps 
   EDIFF  = 0.1E-04   stopping-criterion for ELM
   LREAL  =      T    real-space projection
   NLSPLINE    = F    spline interpolate recip. space projectors
   LCOMPAT=      F    compatible to vasp.4.4
   GGA_COMPAT  = T    GGA compatible to vasp.4.4-vasp.4.6
   LMAXPAW     = -100 max onsite density
   LMAXMIX     =    2 max onsite mixed and CHGCAR
   VOSKOWN=      0    Vosko Wilk Nusair interpolation
   ROPT   =   -0.00025  -0.00025
 Ionic relaxation
   EDIFFG = 0.1E-03   stopping-criterion for IOM
   NSW    =    500    number of steps for IOM
   NBLOCK =      1;   KBLOCK =    500    inner block; outer block 
   IBRION =      2    ionic relax: 0-MD 1-quasi-New 2-CG
   NFREE  =      1    steps in history (QN), initial steepest desc. (CG)
   ISIF   =      2    stress and relaxation
   IWAVPR =     11    prediction:  0-non 1-charg 2-wave 3-comb
   ISYM   =      2    0-nonsym 1-usesym 2-fastsym
   LCORR  =      T    Harris-Foulkes like correction to forces

   POTIM  = 0.2500    time-step for ionic-motion
   TEIN   =    0.0    initial temperature
   TEBEG  =    0.0;   TEEND  =   0.0 temperature during run
   SMASS  =  -3.00    Nose mass-parameter (am)
   estimated Nose-frequenzy (Omega)   =  0.10E-29 period in steps =****** mass=  -0.216E-26a.u.
   SCALEE = 1.0000    scale energy and forces
   NPACO  =    256;   APACO  = 16.0  distance and # of slots for P.C.
   PSTRESS=    0.0 pullay stress

  Mass of Ions in am
   POMASS =  55.85 54.94
  Ionic Valenz
   ZVAL   =   8.00  7.00
  Atomic Wigner-Seitz radii
   RWIGS  =  -1.00 -1.00
  virtual crystal weights 
   VCA    =   1.00  1.00
   NELECT =    2289.0000    total number of electrons
   NUPDOWN=      -1.0000    fix difference up-down

 DOS related values:
   EMIN   =  10.00;   EMAX   =-10.00  energy-range for DOS
   EFERMI =   0.00
   ISMEAR =     0;   SIGMA  =   0.15  broadening in eV -4-tet -1-fermi 0-gaus

 Electronic relaxation 2 (details)
   IALGO  =     68    algorithm
   LDIAG  =      T    sub-space diagonalisation (order eigenvalues)
   LSUBROT=      F    optimize rotation matrix (better conditioning)
   TURBO    =      0    0=normal 1=particle mesh
   IRESTART =      0    0=no restart 2=restart with 2 vectors
   NREBOOT  =      0    no. of reboots
   NMIN     =      0    reboot dimension
   EREF     =   0.00    reference energy to select bands
   IMIX   =      4    mixing-type and parameters
     AMIX     =   0.40;   BMIX     =  1.00
     AMIX_MAG =   1.60;   BMIX_MAG =  1.00
     AMIN     =   0.10
     WC   =   100.;   INIMIX=   1;  MIXPRE=   1;  MAXMIX= -45

 Intra band minimization:
   WEIMIN = 0.0010     energy-eigenvalue tresh-hold
   EBREAK =  0.18E-08  absolut break condition
   DEPER  =   0.30     relativ break condition  

   TIME   =   0.40     timestep for ELM

  volume/ion in A,a.u.               =      12.80        86.39
  Fermi-wavevector in a.u.,A,eV,Ry     =   1.396581  2.639155 26.537314  1.950438
  Thomas-Fermi vector in A             =   2.519921
 
 Write flags
   LWAVE        =      F    write WAVECAR
   LDOWNSAMPLE  =      F    k-point downsampling of WAVECAR
   LCHARG       =      F    write CHGCAR
   LVTOT        =      F    write LOCPOT, total local potential
   LVHAR        =      F    write LOCPOT, Hartree potential only
   LELF         =      F    write electronic localiz. function (ELF)
   LORBIT       =      0    0 simple, 1 ext, 2 COOP (PROOUT), +10 PAW based schemes


 Dipole corrections
   LMONO  =      F    monopole corrections only (constant potential shift)
   LDIPOL =      F    correct potential (dipole corrections)
   IDIPOL =      0    1-x, 2-y, 3-z, 4-all directions 
   EPSILON=  1.0000000 bulk dielectric constant

 Exchange correlation treatment:
   GGA     =    --    GGA type
   LEXCH   =     8    internal setting for exchange type
   VOSKOWN=      0    Vosko Wilk Nusair interpolation
   LHFCALC =     F    Hartree Fock is set to
   LHFONE  =     F    Hartree Fock one center treatment
   AEXX    =    0.0000 exact exchange contribution

 Linear response parameters
   LEPSILON=     F    determine dielectric tensor
   LRPA    =     F    only Hartree local field effects (RPA)
   LNABLA  =     F    use nabla operator in PAW spheres
   LVEL    =     F    velocity operator in full k-point grid
   LINTERFAST=   F  fast interpolation
   KINTER  =     0    interpolate to denser k-point grid
   CSHIFT  =0.1000    complex shift for real part using Kramers Kronig
   OMEGAMAX=  -1.0    maximum frequency
   DEG_THRESHOLD= 0.2000000E-02 threshold for treating states as degnerate
   RTIME   =   -0.100 relaxation time in fs
  (WPLASMAI=    0.000 imaginary part of plasma frequency in eV, 0.658/RTIME)
   DFIELD  = 0.0000000 0.0000000 0.0000000 field for delta impulse in time
 
 Orbital magnetization related:
   ORBITALMAG=     F  switch on orbital magnetization
   LCHIMAG   =     F  perturbation theory with respect to B field
   DQ        =  0.001000  dq finite difference perturbation B field
   LLRAUG    =     F  two centre corrections for induced B field



--------------------------------------------------------------------------------------------------------


 conjugate gradient relaxation of ions
 charge density and potential will be updated during run
 non-spin polarized calculation
 RMM-DIIS sequential band-by-band and
  variant of blocked Davidson during initial phase
 perform sub-space diagonalisation
    before iterative eigenvector-optimisation
 modified Broyden-mixing scheme, WC =      100.0
 initial mixing is a Kerker type mixing with AMIX =  0.4000 and BMIX =      1.0000
 Hartree-type preconditioning will be used
 using additional bands           235
 real space projection scheme for non local part
 use partial core corrections
 calculate Harris-corrections to forces 
   (improved forces if not selfconsistent)
 use gradient corrections 
 use of overlap-Matrix (Vanderbilt PP)
 Gauss-broadening in eV      SIGMA  =   0.15


--------------------------------------------------------------------------------------------------------


  energy-cutoff  :      500.00
  volume of cell :     3686.99
      direct lattice vectors                 reciprocal lattice vectors
     9.726678000  0.000000000  0.000000000     0.102810024  0.000000000  0.000000000
     0.000000000  8.423550000  0.000000000     0.000000000  0.118714794  0.000000000
     0.000000000  0.000000000 45.000000000     0.000000000  0.000000000  0.022222222

  length of vectors
     9.726678000  8.423550000 45.000000000     0.102810024  0.118714794  0.022222222


 
 k-points in units of 2pi/SCALE and weight: Automatic mesh                          
   0.00000000  0.00000000  0.00000000       0.063
   0.02570251  0.00000000  0.00000000       0.125
   0.05140501  0.00000000  0.00000000       0.063
   0.00000000  0.02967870  0.00000000       0.125
   0.02570251  0.02967870  0.00000000       0.125
   0.05140501  0.02967870  0.00000000       0.125
  -0.02570251  0.02967870  0.00000000       0.125
   0.00000000  0.05935740  0.00000000       0.063
   0.02570251  0.05935740  0.00000000       0.125
   0.05140501  0.05935740  0.00000000       0.063
 
 k-points in reciprocal lattice and weights: Automatic mesh                          
   0.00000000  0.00000000  0.00000000       0.063
   0.25000000  0.00000000  0.00000000       0.125
   0.50000000  0.00000000  0.00000000       0.063
   0.00000000  0.25000000  0.00000000       0.125
   0.25000000  0.25000000  0.00000000       0.125
   0.50000000  0.25000000  0.00000000       0.125
  -0.25000000  0.25000000  0.00000000       0.125
   0.00000000  0.50000000  0.00000000       0.063
   0.25000000  0.50000000  0.00000000       0.125
   0.50000000  0.50000000  0.00000000       0.063
 
 position of ions in fractional coordinates (direct lattice) 
   0.68747273  0.45848773  0.69823341
   0.31245001  0.86832068  0.16889829
   0.68710876  0.12152016  0.43484590
   0.68768161  0.45556302  0.47850000
   0.43745189  0.62385236  0.65387285
   0.81288208  0.70665745  0.56513100
   0.18835177  0.62164268  0.43475408
   0.68752006  0.95205878  0.21359694
   0.18695578  0.29299520  0.87341555
   0.68772843  0.62531635  0.78643987
   0.81251077  0.20369674  0.34619672
   0.93735357  0.95525667  0.47856214
   0.68751615  0.78550843  0.25771170
   0.18744963  0.78512539  0.12667721
   0.18740060  0.45620485  0.56511047
   0.68683615  0.62161060  0.43479568
   0.31261516  0.53554221  0.25771178
   0.43757017  0.45955187  0.83114239
   0.56239725  0.37571717  0.78659402
   0.56231615  0.04266289  0.74223438
   0.43749548  0.29247622  0.74239122
   0.06233407  0.20230308  0.21350600
   0.18718449  0.61950138  0.30177925
   0.56258840  0.03516255  0.12671834
   0.18768199  0.62447956  0.65380563
   0.93751796  0.78521447  0.12667540
   0.56229689  0.04288757  0.87347901
   0.93755164  0.95854291  0.69810724
   0.06231837  0.36932367  0.30179334
   0.93747636  0.95940710  0.83114674
   0.81250642  0.20531132  0.47852582
   0.31245097  0.04235060  0.74231957
   0.43758400  0.45215901  0.21351309
   0.68764950  0.28491209  0.12671843
   0.56254825  0.86833176  0.16888707
   0.31229928  0.20874269  0.69827620
   0.43787243  0.28550663  0.25771015
   0.93733930  0.78565225  0.25770678
   0.68755629  0.78517154  0.12669678
   0.06280221  0.70502393  0.47860268
   0.06237786  0.04202927  0.74231646
   0.81253127  0.20210747  0.21358323
   0.56229690  0.70834496  0.69822876
   0.68797721  0.29063963  0.60974653
   0.31252144  0.03528283  0.12665061
   0.93747012  0.29215969  0.74234536
   0.56286618  0.86963658  0.30186543
   0.81261335  0.70349522  0.34625043
   0.06266768  0.20964203  0.83135851
   0.81327894  0.54059590  0.60980987
   0.81247359  0.36944397  0.30181287
   0.93742554  0.45869683  0.69819004
   0.93754117  0.78767428  0.39021102
   0.43752822  0.45889249  0.69809784
   0.68738205  0.29198460  0.74238104
   0.93760713  0.11849644  0.16889702
   0.31272292  0.37234984  0.52124434
   0.31243175  0.70506325  0.47862464
   0.18763241  0.79058898  0.60983068
   0.18809202  0.12156840  0.43475166
   0.81255217  0.36840127  0.16889156
   0.81247984  0.20946070  0.83125153
   0.31233303  0.37593005  0.78652436
   0.06243200  0.03518639  0.12667687
   0.31245962  0.70310296  0.34624117
   0.68716885  0.95323090  0.34620880
   0.81258870  0.70888052  0.69829974
   0.43744795  0.79055873  0.60980341
   0.68749655  0.11848150  0.16890644
   0.18755935  0.29032322  0.60979656
   0.93755767  0.12578958  0.78649075
   0.68747300  0.45915962  0.83123928
   0.43752289  0.78522140  0.12666234
   0.06290397  0.70851608  0.69812888
   0.81247329  0.53545686  0.25776132
   0.81248524  0.70925063  0.83122376
   0.31245830  0.04056198  0.60982818
   0.06260183  0.37244193  0.52137092
   0.31255871  0.20610861  0.56504533
   0.31251521  0.87579510  0.78640837
   0.56238113  0.20815945  0.69834032
   0.18759412  0.45297403  0.34622821
   0.43734089  0.61958221  0.30181751
   0.56303451  0.70656153  0.56513513
   0.43749494  0.95808557  0.69816310
   0.06221486  0.86940943  0.30184386
   0.31253936  0.37455947  0.65381556
   0.18785795  0.62231205  0.52139716
   0.18716610  0.95794052  0.69806144
   0.18716207  0.62586667  0.78645965
   0.06268237  0.54028634  0.60988585
   0.93744117  0.79275627  0.87334745
   0.56250581  0.70210589  0.21357324
   0.93727954  0.62267147  0.52124888
   0.81244089  0.37571451  0.78649398
   0.06239453  0.53730491  0.39023559
   0.06260625  0.03740836  0.39015460
   0.68784873  0.29303799  0.87347681
   0.56226104  0.53533266  0.25773064
   0.31234020  0.70867142  0.69825179
   0.06286970  0.54196579  0.74236261
   0.93741906  0.79176864  0.74225333
   0.81275685  0.53524779  0.12672015
   0.81201090  0.87230047  0.52126027
   0.56253021  0.37254371  0.52121794
   0.56255871  0.36833510  0.16884589
   0.18749891  0.29249874  0.74231619
   0.68750875  0.95928187  0.83121625
   0.43730591  0.12264765  0.52126718
   0.06238824  0.70344396  0.34628255
   0.81236647  0.54208205  0.74234490
   0.18758051  0.11926488  0.30180291
   0.56256446  0.87567708  0.78650552
   0.56205132  0.54242162  0.74231390
   0.43754171  0.62151394  0.43485699
   0.18754603  0.11880187  0.16875281
   0.43759968  0.45340406  0.34633510
   0.68741459  0.62448478  0.65385253
   0.81221062  0.20612731  0.56506305
   0.68768525  0.95533330  0.47850275
   0.93755823  0.45921899  0.83125580
   0.68749564  0.45342471  0.34615150
   0.06247672  0.87575141  0.78645288
   0.31248163  0.20246071  0.21356789
   0.43741141  0.45525909  0.47857305
   0.56275300  0.37134266  0.43481576
   0.31295440  0.87448713  0.65373844
   0.06285902  0.37134847  0.43484486
   0.31266169  0.54319023  0.87338392
   0.06289102  0.87144739  0.43502277
   0.81251858  0.03758670  0.39011235
   0.93751388  0.45382714  0.34614900
   0.93771027  0.61969168  0.30187378
   0.43733277  0.45649530  0.56510952
   0.68724531  0.45633419  0.56504402
   0.43721423  0.12388643  0.65374981
   0.93719251  0.29034355  0.60974792
   0.43768905  0.95322127  0.34632094
   0.68750195  0.79267887  0.87335678
   0.06270079  0.20823320  0.69820646
   0.18734944  0.45947089  0.83118830
   0.18715582  0.12456963  0.65379477
   0.31192017  0.70713921  0.56513995
   0.68755802  0.61973428  0.30175103
   0.81247394  0.53718270  0.39014318
   0.56235558  0.54289956  0.87339406
   0.43756789  0.78558388  0.25773386
   0.56255454  0.03576538  0.25774502
   0.43740905  0.11843178  0.16885838
   0.68766727  0.12230779  0.52129487
   0.43759321  0.29253873  0.87344257
   0.31228595  0.37139249  0.43480375
   0.56241553  0.20348049  0.34627904
   0.31261108  0.20322290  0.34627978
   0.06238989  0.70948338  0.83115022
   0.31251498  0.70935869  0.83115063
   0.93750865  0.28760170  0.39021237
   0.81266294  0.04067607  0.60975945
[...]
      5.46990      1.75320     31.42508        -0.001937     -0.004906     -0.000252
      1.82469      3.81565     15.58028        -0.000800     -0.000235      0.000207
      4.25399      5.21915     13.58208        -0.001397     -0.001073     -0.006582
      5.47635      5.95171     25.43125         0.002594      0.000980      0.000836
      4.25517      8.07023     31.41742         0.002998     -0.002772      0.000296
      0.60507      7.32349     13.58287        -0.000989     -0.001267     -0.004683
      3.04019      3.15507     29.42164         0.001101     -0.002671      0.001644
      1.82717      5.24188     23.46277         0.002527     -0.009500      0.004955
      1.82049      8.06896     31.41281         0.002982     -0.003283      0.004101
      1.82060      5.27231     35.39017        -0.001310     -0.002070      0.001428
      0.60974      4.55154     27.44500        -0.001341      0.001980     -0.005380
      9.11816      6.67741     39.30086         0.002734     -0.004813      0.002712
      5.47134      5.91412      9.61097        -0.001215      0.001612      0.005907
      9.11669      5.24505     23.45581        -0.005496     -0.004775      0.006596
      7.90219      3.16502     35.39195         0.000696     -0.003524     -0.000101
      0.60673      4.52610     17.56032         0.003908      0.001977     -0.001043
      0.60879      0.31531     17.55668         0.001672      0.005166      0.000824
      6.69023      2.46830     39.30679         0.002777     -0.005552     -0.001848
      5.46902      4.50957     11.59809         0.001236     -0.000111      0.003316
      3.03795      5.96958     31.42132         0.002912     -0.005210     -0.001966
      0.61173      4.56542     33.40598        -0.001762     -0.005787     -0.007986
      9.11811      6.66938     33.40106        -0.003572     -0.006647     -0.006639
      7.90552      4.50912      5.70220        -0.006978      0.002900     -0.003915
      7.89823      7.34815     23.45661        -0.007426      0.003905      0.007504
      5.47163      3.13870     23.45491         0.001610      0.008091      0.005149
      5.47180      3.10298      7.59787        -0.003712     -0.002940     -0.008303
      1.82392      2.46372     33.40392        -0.001421      0.000392     -0.004219
      6.68703      8.08055     37.40527         0.002347      0.002181      0.009575
      4.25333      1.03298     23.45695        -0.003468      0.000193      0.006154
      0.60676      5.92550     15.58271         0.000222      0.000545     -0.004178
      7.90167      4.56632     33.40529        -0.000250     -0.007449     -0.006588
      1.82453      1.00455     13.58114        -0.001618     -0.000016     -0.005539
      5.47185      7.37623     35.39226         0.001054      0.003484     -0.000681
      5.46663      4.56916     33.40394         0.000306     -0.004949     -0.005565
      4.25599      5.23535     19.56829        -0.002064     -0.004194     -0.002992
      1.82415      1.00065      7.59372         0.004353     -0.000047     -0.005082
      4.25651      3.81943     15.58491        -0.003400      0.002070      0.000053
      6.68647      5.26056     29.42324        -0.001485     -0.001179      0.004239
      7.90011      1.73634     25.42794         0.002370     -0.000759      0.002695
      6.68889      8.04759     21.53259        -0.001672      0.002616      0.001513
      9.11918      3.86842     37.40724         0.002119     -0.005255      0.009254
      6.68700      3.81951     15.57696        -0.000319      0.001946      0.002864
      0.60787      7.37681     35.38971        -0.001260      0.002219      0.003511
      3.03931      1.70542      9.61096         0.002421     -0.003148      0.004419
      4.25477      3.83494     21.53577         0.000006      0.000006     -0.000362
      5.47372      3.12787     19.56638        -0.001993     -0.003254     -0.007638
      3.04368      7.36615     29.41836         0.003279     -0.003731      0.003418
      0.61120      3.12798     19.56758         0.002913     -0.003092     -0.008202
      3.04134      4.57496     39.30260        -0.002113     -0.007667      0.003724
      0.61149      7.34051     19.57569         0.000814     -0.002151     -0.007514
      7.90309      0.31669     17.55473         0.000948      0.003373     -0.000390
      9.11871      3.82290     15.57689         0.002146      0.003174      0.000555
      9.12073      5.22001     13.58427         0.001130     -0.001163     -0.006275
      4.25379      3.84547     25.43010        -0.000125     -0.002568      0.001800
      6.68445      3.84403     25.42708         0.003523     -0.003031      0.003931
      4.25265      1.04337     29.41861         0.000450     -0.004558      0.001209
      9.11574      2.44585     27.43896         0.001920      0.005053      0.000969
      4.25742      8.02949     15.58445        -0.002889      0.006142     -0.001013
      6.68695      6.67691     39.30112         0.000604     -0.007474      0.003796
      0.61008      1.75366     31.41927        -0.000497     -0.000366      0.000174
      1.82234      3.87029     37.40398        -0.003646     -0.007348      0.006100
      1.82038      1.04896     29.42088         0.001856      0.004057      0.000791
      3.03407      5.95658     25.43168        -0.004932      0.002624      0.005378
      6.68762      5.22046     13.57902         0.002314     -0.000003     -0.007931
      7.90271      4.52513     17.55621         0.000969      0.002619      0.001049
      5.46978      4.57241     39.30302        -0.002698     -0.007522      0.005641
      4.25621      6.61764     11.59818         0.005179      0.006288     -0.001537
      5.47184      0.30136     11.59879         0.001151      0.008653     -0.000569
      4.25443      0.99758      7.59843        -0.000342      0.001265     -0.008681
      6.68890      1.03022     23.45818         0.005706     -0.000611      0.008820
      4.25647      2.46383     39.30514        -0.003314     -0.006775     -0.002153
      3.03771      3.12825     19.56577        -0.000821     -0.003474     -0.009940
      5.47057      1.71416     15.58256        -0.002248      0.005089     -0.000232
      3.04080      1.71198     15.58244        -0.000905      0.004142     -0.001526
      0.60678      5.97621     37.40204         0.000214     -0.000780      0.013345
      3.03985      5.97509     37.40197        -0.001584     -0.001617      0.011983
      9.11878      2.42271     17.55919         0.002255      0.003342     -0.000535
      7.90445      0.34230     27.43967         0.001066      0.000286     -0.002202
      6.68773      2.40441     11.59848         0.001164      0.003369      0.002720
      7.90347      0.30175     11.59894        -0.001602      0.006727      0.002314
      3.04167      7.34577     23.45556         0.008512      0.004318      0.005921
      3.04130      0.36126     39.30480        -0.004055     -0.008294      0.001124
      1.82390      6.67644     39.29919        -0.001878     -0.003992      0.005974
      0.60897      1.72748     21.53661        -0.000223      0.000067     -0.000449
      1.82435      3.86288     31.41820        -0.001446     -0.001477     -0.001932
      3.04186      1.76166     37.40788        -0.001331     -0.002473      0.002904
      1.82334      2.40524     11.59763         0.002142      0.008145      0.002056
      9.12020      1.03543     23.45696        -0.003531      0.003434      0.007835
      0.61039      7.36745     29.41379         0.000189     -0.000831      0.003579
      1.82370      3.81029      9.61198         0.003418     -0.002909      0.005503
      9.11829      2.46723     39.30739         0.003965     -0.005220     -0.000907
      6.68913      8.05437     25.42658         0.000672      0.002887      0.005291
      5.46847      7.36214     29.41242        -0.001597     -0.005890      0.006187
      5.47277      1.70175      9.60886        -0.003034     -0.001722      0.004164
      5.47114      5.97571     37.40301         0.000665      0.000404      0.011548
      6.68724      3.80808      9.61119        -0.003642     -0.004125      0.007202
      0.60654      0.35967     39.30255        -0.000738     -0.006815     -0.000787
      5.46740      1.76386     37.41439        -0.000419     -0.004798     -0.001263
      3.03929      4.50853      5.69939         0.005471      0.003240     -0.002819
      4.25410      1.02275     19.56617        -0.002932      0.000168     -0.006500
      9.11818      3.80821      9.60905        -0.000872     -0.004501      0.005987
      1.82495      1.03237     23.46025         0.001315      0.008461      0.008210
      1.82187      1.06086     35.39047        -0.001547      0.005049      0.005633
      9.11954      1.04647     29.41973         0.000885      0.006044      0.004920
      1.82307      5.20993      7.59706         0.004974      0.003504     -0.007213
      6.68568      6.65720     27.43962         0.002029     -0.000208      0.000025
      3.04000      0.30158     11.60073         0.002145      0.008601     -0.000462
      7.90289      5.91299      9.61257        -0.003347     -0.000064      0.004474
      6.68885      1.04443     29.41435        -0.000873     -0.002522      0.006716
      9.11860      5.26244     29.41831         0.000926     -0.003591      0.004574
      3.03730      1.72988     21.53392         0.003180      0.000086     -0.000558
      7.90119      3.15877     29.42086         0.001023      0.000935      0.004564
      1.82611      8.02803     15.58046        -0.002095      0.003733     -0.000595
      1.82405      6.67052     33.39977         0.000455     -0.003870     -0.006604
      7.90187      5.94222     21.53524         0.002314      0.000210      0.001343
      3.03308      4.55054     27.44414        -0.002663      0.000852      0.001356
      4.25535      5.27008     35.38927         0.000697     -0.000019     -0.000266
      5.47204      5.92320     15.58059         0.000295      0.002134     -0.001499
      0.60732      4.57348     39.30265         0.001379     -0.005276      0.005538
      4.25471      6.67429     33.40810         0.001761     -0.002759     -0.008979
      0.60962      0.34126     27.43760        -0.002508      0.002940     -0.000769
      7.90107      7.37431     35.38933         0.001010      0.004241      0.000270
      9.11940      5.26933     35.39085        -0.000978     -0.000369     -0.001823
      4.25526      2.40290      5.70043        -0.000283      0.001047     -0.004501
      7.89876      3.13717     23.45944         0.000300      0.002985      0.007895
      5.47546      7.33916     19.56878         0.000322     -0.001815     -0.006641
      9.11548      2.40539     11.59676        -0.003175      0.005121      0.002319
      6.68864      1.06026     35.39389         0.002897      0.002367      0.003354
      0.60661      3.10591      7.59822         0.004218     -0.001801     -0.004085
      6.68857      8.07255     31.41399        -0.002558     -0.003465      0.004020
      7.90167      7.32515     13.58174         0.001595     -0.000737     -0.005136
      9.11731      8.03506     15.58163         0.003634      0.001883     -0.000838
      0.60718      0.29920     11.59793        -0.001319      0.009717      0.002223
      5.47238      4.52523     17.55976        -0.001785     -0.001793     -0.001259
      4.25447      2.44413     27.43854        -0.002683     -0.002611     -0.001657
      3.04035      4.57007     33.40695         0.000109     -0.003455     -0.006801
      5.47133      5.93970     21.53784        -0.002809      0.000238      0.004505
      7.89760      7.33918     19.55889         0.002149     -0.001544     -0.009807
      3.04007      3.10492      7.59860         0.003179     -0.001016     -0.007572
      9.11841      1.00406     13.58486        -0.000793     -0.000879     -0.006482
      4.25572      2.41896     17.56043        -0.002159      0.001323     -0.005512
      1.82346      2.40087      5.70057         0.006229      0.002180     -0.001023
      9.12003      8.01918      9.61237        -0.000178      0.003508      0.002804
      7.90258      4.57428     39.30301         0.001804     -0.003310      0.002228
      1.82270      8.08176     37.40243        -0.004272      0.001799      0.010552
      6.68990      5.24191     23.45879        -0.000381     -0.001055      0.006804
      7.90387      0.36031     39.30332         0.003068     -0.009709     -0.003376
      5.47483      3.11539     13.58454         0.000886     -0.001089     -0.008775
      7.89927      3.12682     19.56523         0.001142     -0.002764     -0.008811
      1.82309      3.83621     21.53620         0.001086      0.004174     -0.000309
      9.11842      2.40202      5.70054        -0.000252      0.002489     -0.001534
      1.82037      6.63243     17.55722        -0.002053      0.001763     -0.002395
      5.47311      1.72864     21.53670        -0.000390      0.001290     -0.004931
      3.04011      4.52382     17.55838        -0.001007     -0.000558     -0.000900
      7.90390      7.31473      7.60012        -0.001814      0.006221     -0.005657
      0.60664      4.50828      5.69927         0.006222      0.004105     -0.002546
      1.82311      8.02228      9.61102         0.003821      0.003957      0.003807
      5.47126      0.31141     17.55621        -0.002091      0.005982     -0.001751
      3.04018      5.91746      9.60836         0.004488      0.002659      0.001709
      6.69115      2.42185     17.55595        -0.002078      0.002228     -0.000701
      4.25597      1.01019     13.58135        -0.000646      0.002567     -0.006247
      7.89819      7.36806     29.42058        -0.000672     -0.003249      0.003379
      4.25531      8.08399     37.40560         0.000778      0.002493      0.007826
      5.47275      7.34947     23.45860         0.002348      0.000646      0.006771
      6.68548      1.00551     13.58276         0.001521      0.001656     -0.008885
      3.03964      7.32468     13.58512        -0.003266      0.000326     -0.004467
      4.25723      5.20831      7.59412        -0.000566      0.003102     -0.006301
      9.11717      5.20858      7.59481         0.000309      0.002066     -0.003026
      9.11859      3.83206     21.53698        -0.001391      0.004917      0.000016
      5.47180      3.15089     29.41644        -0.001462     -0.001942      0.003736
      0.61154      5.95042     25.42920        -0.003250     -0.007840      0.004816
      0.60717      5.91507      9.61178        -0.000176     -0.000138      0.003659
      4.25348      5.24418     23.46134         0.003142     -0.000961      0.003287
      1.82561      8.05552     25.42957        -0.000732     -0.000635      0.007476
      0.60759      7.31542      7.59900         0.004396      0.005876     -0.008888
      4.25480      6.67264     39.30077        -0.000032     -0.010207      0.009033
      0.61231      1.74046     25.42984        -0.001936     -0.000184      0.006084
      5.47073      4.50957      5.70198        -0.005899      0.001830     -0.005318
      9.11361      8.05292     25.42345        -0.002060     -0.002501      0.006062
      6.68962      6.63345     17.55715         0.001611      0.001968     -0.002025
      3.03891      0.30967     17.56161        -0.000845      0.003475     -0.002458
      0.61043      3.16954     35.39681        -0.002181     -0.001841      0.001326
      7.90332      0.29491      5.70061        -0.004551      0.008919     -0.002795
      9.12065      6.65962     27.43432         0.000267      0.001523     -0.000929
      4.25464      8.01995      9.61101        -0.000210      0.006077      0.004860
      1.82472      8.04939     21.53927         0.006497      0.001054     -0.008904
      4.25639      8.04624     21.53763         0.000687      0.000813      0.001011
      6.68721      6.67404     33.40363         0.000652     -0.006010     -0.006948
      0.61014      4.51323     11.60035        -0.000677      0.004327      0.005978
      6.68768      5.21028      7.59969        -0.004802      0.000406     -0.005768
      0.60855      1.71347     15.58061         0.001975      0.001123     -0.002135
      1.81964      2.42128     17.55681         0.002456      0.002154     -0.002463
      3.03839      7.33944     19.56399        -0.002859     -0.002169     -0.010307
      5.47206      0.34005     27.45052         0.001796     -0.003247     -0.003837
      1.82380      6.61873     11.59376        -0.000539      0.006261      0.005918
      9.11917      5.23323     19.55737         0.003645     -0.001853     -0.002342
      4.24608      8.04937     25.42635         0.005111      0.003316      0.000705
      3.03759      3.11274     13.58389         0.000222      0.000233     -0.006723
      4.25311      1.06022     35.38033         0.002328      0.003197      0.009759
      4.25543      6.63099     17.55487        -0.001282     -0.000263     -0.002154
      9.11735      3.84199     25.42695         0.000428      0.003331      0.000177
      7.90394      0.35166     33.41332        -0.002576     -0.008842     -0.008061
      5.47129      4.55105     27.44517         0.001050     -0.001697     -0.002794
      7.90704      1.76163     31.41484        -0.001253      0.000935      0.002625
      0.60543      3.15639     29.41559         0.001385     -0.000102      0.000127
      5.47588      1.75140     25.42789         0.000574     -0.000925     -0.000128
      9.11769      1.02735     19.56019         0.002550     -0.000588     -0.001862
      0.60945      7.35002     23.45752        -0.002437      0.002261      0.008526
 -----------------------------------------------------------------------------------
    total drift:                                0.007189     -0.021802      0.013563


--------------------------------------------------------------------------------------------------------



  FREE ENERGIE OF THE ION-ELECTRON SYSTEM (eV)
  ---------------------------------------------------
  free  energy   TOTEN  =     -2325.78022332 eV

  energy  without entropy=    -2320.23259837  energy(sigma->0) =    -2323.00641085
 
 d Force = 0.4464880E-04[ 0.367E-04, 0.526E-04]  d Energy = 0.3142747E-03-0.270E-03
 d Force = 0.3797167E+01[ 0.380E+01, 0.380E+01]  d Ewald  = 0.3797167E+01-0.319E-09


--------------------------------------------------------------------------------------------------------


    POTLOK:  cpu time    0.4163: real time    0.4164


--------------------------------------------------------------------------------------------------------




--------------------------------------------------------------------------------------------------------


  
 reached required accuracy - stopping structural energy minimisation
     LOOP+:  cpu time 1424.2671: real time 1424.2480
    4ORBIT:  cpu time    0.0000: real time    0.0000

 total amount of memory used by VASP MPI-rank0   771636. kBytes
=======================================================================

   base      :      30000. kBytes
   nonlr-proj:     125546. kBytes
   fftplans  :      22705. kBytes
   grid      :      34809. kBytes
   one-center:       2160. kBytes
   wavefun   :     556416. kBytes
 
  
  
 General timing and accounting informations for this job:
 ========================================================
  
                  Total CPU time used (sec):    14112.997
                            User time (sec):    14107.167
                          System time (sec):        5.830
                         Elapsed time (sec):    14116.832
  
                   Maximum memory used (kb):     1230464.
                   Average memory used (kb):           0.
  
                          Minor page faults:       118448
                          Major page faults:           26
                 Voluntary context switches:         9274
