unknown system                          
            1
     9.726678    0.000000    0.000000
     0.000000    8.423550    0.000000
     0.000000    0.000000   45.000000
   Fe   Mn
 273  15
Direct configuration=     1
   0.68747273  0.45848773  0.69823341
   0.31245001  0.86832068  0.16889829
   0.68710876  0.12152016  0.43484590
   0.68768161  0.45556302  0.47850000
   0.43745189  0.62385236  0.65387285
   0.81288208  0.70665745  0.56513100
   0.18835177  0.62164268  0.43475408
   0.68752006  0.95205878  0.21359694
   0.18695578  0.29299520  0.87341555
   0.68772843  0.62531635  0.78643987
   0.81251077  0.20369674  0.34619672
   0.93735357  0.95525667  0.47856214
   0.68751615  0.78550843  0.25771170
   0.18744963  0.78512539  0.12667721
   0.18740060  0.45620485  0.56511047
   0.68683615  0.62161060  0.43479568
   0.31261516  0.53554221  0.25771178
   0.43757017  0.45955187  0.83114239
   0.56239725  0.37571717  0.78659402
   0.56231615  0.04266289  0.74223438
   0.43749548  0.29247622  0.74239122
   0.06233407  0.20230308  0.21350600
   0.18718449  0.61950138  0.30177925
   0.56258840  0.03516255  0.12671834
   0.18768199  0.62447956  0.65380563
   0.93751796  0.78521447  0.12667540
   0.56229689  0.04288757  0.87347901
   0.93755164  0.95854291  0.69810724
   0.06231837  0.36932367  0.30179334
   0.93747636  0.95940710  0.83114674
   0.81250642  0.20531132  0.47852582
   0.31245097  0.04235060  0.74231957
   0.43758400  0.45215901  0.21351309
   0.68764950  0.28491209  0.12671843
   0.56254825  0.86833176  0.16888707
   0.31229928  0.20874269  0.69827620
   0.43787243  0.28550663  0.25771015
   0.93733930  0.78565225  0.25770678
   0.68755629  0.78517154  0.12669678
   0.06280221  0.70502393  0.47860268
   0.06237786  0.04202927  0.74231646
   0.81253127  0.20210747  0.21358323
   0.56229690  0.70834496  0.69822876
   0.68797721  0.29063963  0.60974653
   0.31252144  0.03528283  0.12665061
   0.93747012  0.29215969  0.74234536
   0.56286618  0.86963658  0.30186543
   0.81261335  0.70349522  0.34625043
   0.06266768  0.20964203  0.83135851
   0.81327894  0.54059590  0.60980987
   0.81247359  0.36944397  0.30181287
   0.93742554  0.45869683  0.69819004
   0.93754117  0.78767428  0.39021102
   0.43752822  0.45889249  0.69809784
   0.68738205  0.29198460  0.74238104
   0.93760713  0.11849644  0.16889702
   0.31272292  0.37234984  0.52124434
   0.31243175  0.70506325  0.47862464
   0.18763241  0.79058898  0.60983068
   0.18809202  0.12156840  0.43475166
   0.81255217  0.36840127  0.16889156
   0.81247984  0.20946070  0.83125153
   0.31233303  0.37593005  0.78652436
   0.06243200  0.03518639  0.12667687
   0.31245962  0.70310296  0.34624117
   0.68716885  0.95323090  0.34620880
   0.81258870  0.70888052  0.69829974
   0.43744795  0.79055873  0.60980341
   0.68749655  0.11848150  0.16890644
   0.18755935  0.29032322  0.60979656
   0.93755767  0.12578958  0.78649075
   0.68747300  0.45915962  0.83123928
   0.43752289  0.78522140  0.12666234
   0.06290397  0.70851608  0.69812888
   0.81247329  0.53545686  0.25776132
   0.81248524  0.70925063  0.83122376
   0.31245830  0.04056198  0.60982818
   0.06260183  0.37244193  0.52137092
   0.31255871  0.20610861  0.56504533
   0.31251521  0.87579510  0.78640837
   0.56238113  0.20815945  0.69834032
   0.18759412  0.45297403  0.34622821
   0.43734089  0.61958221  0.30181751
   0.56303451  0.70656153  0.56513513
   0.43749494  0.95808557  0.69816310
   0.06221486  0.86940943  0.30184386
   0.31253936  0.37455947  0.65381556
   0.18785795  0.62231205  0.52139716
   0.18716610  0.95794052  0.69806144
   0.18716207  0.62586667  0.78645965
   0.06268237  0.54028634  0.60988585
   0.93744117  0.79275627  0.87334745
   0.56250581  0.70210589  0.21357324
   0.93727954  0.62267147  0.52124888
   0.81244089  0.37571451  0.78649398
   0.06239453  0.53730491  0.39023559
   0.06260625  0.03740836  0.39015460
   0.68784873  0.29303799  0.87347681
   0.56226104  0.53533266  0.25773064
   0.31234020  0.70867142  0.69825179
   0.06286970  0.54196579  0.74236261
   0.93741906  0.79176864  0.74225333
   0.81275685  0.53524779  0.12672015
   0.81201090  0.87230047  0.52126027
   0.56253021  0.37254371  0.52121794
   0.56255871  0.36833510  0.16884589
   0.18749891  0.29249874  0.74231619
   0.68750875  0.95928187  0.83121625
   0.43730591  0.12264765  0.52126718
   0.06238824  0.70344396  0.34628255
   0.81236647  0.54208205  0.74234490
   0.18758051  0.11926488  0.30180291
   0.56256446  0.87567708  0.78650552
   0.56205132  0.54242162  0.74231390
   0.43754171  0.62151394  0.43485699
   0.18754603  0.11880187  0.16875281
   0.43759968  0.45340406  0.34633510
   0.68741459  0.62448478  0.65385253
   0.81221062  0.20612731  0.56506305
   0.68768525  0.95533330  0.47850275
   0.93755823  0.45921899  0.83125580
   0.68749564  0.45342471  0.34615150
   0.06247672  0.87575141  0.78645288
   0.31248163  0.20246071  0.21356789
   0.43741141  0.45525909  0.47857305
   0.56275300  0.37134266  0.43481576
   0.31295440  0.87448713  0.65373844
   0.06285902  0.37134847  0.43484486
   0.31266169  0.54319023  0.87338392
   0.06289102  0.87144739  0.43502277
   0.81251858  0.03758670  0.39011235
   0.93751388  0.45382714  0.34614900
   0.93771027  0.61969168  0.30187378
   0.43733277  0.45649530  0.56510952
   0.68724531  0.45633419  0.56504402
   0.43721423  0.12388643  0.65374981
   0.93719251  0.29034355  0.60974792
   0.43768905  0.95322127  0.34632094
   0.68750195  0.79267887  0.87335678
   0.06270079  0.20823320  0.69820646
   0.18734944  0.45947089  0.83118830
   0.18715582  0.12456963  0.65379477
   0.31192017  0.70713921  0.56513995
   0.68755802  0.61973428  0.30175103
   0.81247394  0.53718270  0.39014318
   0.56235558  0.54289956  0.87339406
   0.43756789  0.78558388  0.25773386
   0.56255454  0.03576538  0.25774502
   0.43740905  0.11843178  0.16885838
   0.68766727  0.12230779  0.52129487
   0.43759321  0.29253873  0.87344257
   0.31228595  0.37139249  0.43480375
   0.56241553  0.20348049  0.34627904
   0.31261108  0.20322290  0.34627978
   0.06238989  0.70948338  0.83115022
   0.31251498  0.70935869  0.83115063
   0.93750865  0.28760170  0.39021237
   0.81266294  0.04067607  0.60975945
   0.68754507  0.28542483  0.25773861
   0.81253971  0.03581604  0.25774888
   0.31272197  0.87202300  0.52123361
   0.31262999  0.04286487  0.87343359
   0.18750459  0.79261882  0.87331006
   0.06262184  0.20508642  0.47859095
   0.18755387  0.45856803  0.69818164
   0.31271521  0.20912663  0.83127228
   0.18747155  0.28550345  0.25772158
   0.93764135  0.12292949  0.52126849
   0.06276302  0.87463921  0.65363561
   0.18749747  0.45232158  0.21359494
   0.93746129  0.29289377  0.87348785
   0.68771938  0.95618988  0.56502778
   0.56219823  0.87401564  0.65360951
   0.56265608  0.20201902  0.21352247
   0.56248545  0.70943154  0.83116980
   0.68751747  0.45205872  0.21357839
   0.06235179  0.04268036  0.87338512
   0.56211152  0.20939596  0.83141219
   0.31248758  0.53518103  0.12665219
   0.43735070  0.12142401  0.43480922
   0.93743888  0.45207845  0.21353069
   0.18763254  0.12255575  0.52133915
   0.18729018  0.12595229  0.78646944
   0.93757267  0.12426827  0.65376591
   0.18742731  0.61847662  0.16883064
   0.68734358  0.79031294  0.60976254
   0.31255369  0.03579030  0.25778951
   0.81249764  0.70196788  0.21361204
   0.68767746  0.12400743  0.65364893
   0.93747589  0.62467702  0.65373848
   0.31222721  0.20539139  0.47853058
   0.81234102  0.37498446  0.65379715
   0.18773929  0.95303809  0.34623321
   0.18752477  0.79188604  0.74222490
   0.81233961  0.70542980  0.47856530
   0.31183339  0.54018939  0.60986882
   0.43750364  0.62562217  0.78643819
   0.56257961  0.70314900  0.34623367
   0.06244309  0.54300185  0.87338538
   0.43744965  0.79234485  0.74241107
   0.06267456  0.04054036  0.60971176
   0.81230781  0.87545487  0.78644106
   0.93756783  0.62551032  0.78647393
   0.43748950  0.28520610  0.12667809
   0.81207177  0.37240824  0.52132290
   0.56292809  0.87127210  0.43487255
   0.93715888  0.28553890  0.25770152
   0.68766034  0.12588107  0.78653837
   0.06235516  0.36867496  0.16885398
   0.68764733  0.95836027  0.69809163
   0.81238214  0.86960805  0.30181285
   0.93736525  0.95386429  0.34625722
   0.06243413  0.03550258  0.25772801
   0.56260797  0.53719096  0.39022622
   0.43740156  0.29015672  0.60974184
   0.31258401  0.54252541  0.74238271
   0.56252765  0.70514112  0.47861579
   0.81194926  0.87128384  0.43465304
   0.31255726  0.36855546  0.16886155
   0.93747802  0.11920435  0.30188475
   0.43752001  0.28716707  0.39024270
   0.18748123  0.28496259  0.12667887
   0.93762461  0.95201323  0.21360247
   0.81247715  0.54309744  0.87339845
   0.18738176  0.95942552  0.83115917
   0.68782909  0.62231720  0.52130228
   0.81262588  0.04275443  0.87340635
   0.56286689  0.36983530  0.30187149
   0.81211978  0.37120804  0.43479268
   0.18745021  0.45536848  0.47857566
   0.93746809  0.28510237  0.12668067
   0.18714825  0.78735987  0.39017159
   0.56269188  0.20522715  0.47860283
   0.31254214  0.53702170  0.39019694
   0.81258421  0.86838967  0.16889895
   0.06237649  0.53513691  0.12665227
   0.18743868  0.95238262  0.21356978
   0.56250205  0.03696919  0.39014628
   0.31255809  0.70249040  0.21351837
   0.68791089  0.28749709  0.39014189
   0.43755172  0.11992943  0.30180230
   0.81198421  0.87472348  0.65379021
   0.43747522  0.95968132  0.83121929
   0.56265766  0.87249719  0.52129857
   0.68733147  0.11938412  0.30183247
   0.31249850  0.86955214  0.30188868
   0.43769662  0.61829539  0.16876152
   0.93733104  0.61831837  0.16878213
   0.93749324  0.45487978  0.47859819
   0.56255823  0.37407397  0.65369979
   0.06286110  0.70641196  0.56509081
   0.06242857  0.70221808  0.21359260
   0.43726458  0.62257553  0.52135836
   0.18769253  0.95634121  0.56509927
   0.06246050  0.86847489  0.16887768
   0.43742114  0.79215587  0.87333859
   0.06294322  0.20660549  0.56510476
   0.56243477  0.53531295  0.12671214
   0.93696161  0.95603634  0.56496392
   0.68776748  0.78748057  0.39016899
   0.31241283  0.03676843  0.39026605
   0.06274170  0.37624604  0.78660911
   0.81252479  0.03502310  0.12668454
   0.93770273  0.79058999  0.60963498
   0.43742510  0.95209994  0.21356813
   0.18759983  0.95560948  0.47864541
   0.43760329  0.95518182  0.47861483
   0.68751137  0.79232924  0.74230991
   0.06273819  0.53575263  0.25778262
   0.68755653  0.61853559  0.16888755
   0.06257949  0.20341148  0.34623457
   0.18708611  0.28743392  0.39016193
   0.31235554  0.87131157  0.43476480
   0.56258066  0.04040330  0.61000523
   0.18752861  0.78571017  0.25763435
   0.93755594  0.62125916  0.43461167
   0.43652912  0.95560415  0.56502544
   0.31227612  0.36953049  0.30185710
   0.43728207  0.12587034  0.78623696
   0.43747856  0.78719790  0.39012303
   0.93734344  0.45609204  0.56504266
   0.81260151  0.04183488  0.74252742
   0.56250698  0.54026694  0.60989163
   0.81291822  0.20916325  0.69811586
   0.06223695  0.37469309  0.65367730
   0.56299194  0.20789161  0.56506066
   0.93741010  0.12196090  0.43467485
   0.06264242  0.87254368  0.52128698
Direct configuration=     2
   0.68745943  0.45849972  0.69823038
   0.31243911  0.86830609  0.16889282
   0.68711032  0.12151356  0.43484130
   0.68768462  0.45556050  0.47849925
   0.43744603  0.62385139  0.65387274
   0.81286741  0.70665609  0.56513830
   0.18834598  0.62164226  0.43474999
   0.68752287  0.95204243  0.21360266
   0.18697243  0.29298025  0.87342105
   0.68772328  0.62533615  0.78643526
   0.81249894  0.20370487  0.34619760
   0.93735664  0.95522854  0.47856381
   0.68752535  0.78552558  0.25771622
   0.18743135  0.78511345  0.12667827
   0.18740844  0.45620744  0.56511232
   0.68683632  0.62160836  0.43478741
   0.31261099  0.53557486  0.25771236
   0.43758069  0.45954247  0.83115134
   0.56239030  0.37573661  0.78658950
   0.56230275  0.04262983  0.74222707
   0.43747994  0.29246769  0.74238730
   0.06233798  0.20230183  0.21351288
   0.18718582  0.61949497  0.30178083
   0.56260214  0.03515256  0.12671645
   0.18767410  0.62451430  0.65380424
   0.93751657  0.78520503  0.12667254
   0.56227653  0.04290063  0.87348456
   0.93756580  0.95851314  0.69810254
   0.06230409  0.36931937  0.30179438
   0.93746926  0.95939087  0.83115393
   0.81248977  0.20531403  0.47852536
   0.31243693  0.04232200  0.74231618
   0.43758741  0.45217820  0.21351619
   0.68766120  0.28495756  0.12671417
   0.56254188  0.86831129  0.16888404
   0.31229147  0.20871452  0.69827766
   0.43786936  0.28552052  0.25771485
   0.93733724  0.78566852  0.25770929
   0.68758180  0.78515689  0.12669445
   0.06279080  0.70502905  0.47860541
   0.06240582  0.04198427  0.74230969
   0.81253459  0.20211050  0.21358817
   0.56228868  0.70834457  0.69823059
   0.68796036  0.29063635  0.60975280
   0.31250686  0.03527623  0.12665203
   0.93749257  0.29214029  0.74233896
   0.56286941  0.86963953  0.30186980
   0.81259572  0.70350534  0.34625214
   0.06267623  0.20965741  0.83136916
   0.81328035  0.54062704  0.60981431
   0.81247366  0.36944198  0.30181823
   0.93743252  0.45871551  0.69818840
   0.93753173  0.78767905  0.39020658
   0.43752188  0.45889381  0.69809986
   0.68736216  0.29196845  0.74237654
   0.93761855  0.11848683  0.16889255
   0.31270228  0.37235300  0.52124748
   0.31241294  0.70507512  0.47862343
   0.18762666  0.79060006  0.60984025
   0.18809136  0.12155706  0.43474551
   0.81255553  0.36843911  0.16888828
   0.81246261  0.20947742  0.83126633
   0.31233888  0.37593503  0.78651590
   0.06241955  0.03516775  0.12667642
   0.31247707  0.70311757  0.34624289
   0.68716671  0.95324472  0.34620950
   0.81259612  0.70889338  0.69829687
   0.43744673  0.79055820  0.60980501
   0.68749658  0.11848277  0.16890464
   0.18757018  0.29033593  0.60980058
   0.93756338  0.12576415  0.78648179
   0.68746815  0.45916247  0.83125026
   0.43751848  0.78520888  0.12666535
   0.06291150  0.70853203  0.69812763
   0.81248759  0.53547251  0.25776538
   0.81247942  0.70923038  0.83122793
   0.31245763  0.04054008  0.60983197
   0.06261964  0.37245309  0.52137249
   0.31257107  0.20609512  0.56504762
   0.31250838  0.87579311  0.78639631
   0.56236421  0.20813607  0.69833613
   0.18759623  0.45297367  0.34622834
   0.43735009  0.61958844  0.30182267
   0.56302543  0.70655752  0.56513814
   0.43747814  0.95806115  0.69816452
   0.06220878  0.86940688  0.30184207
   0.31255793  0.37455489  0.65381441
   0.18785305  0.62229284  0.52139532
   0.18716457  0.95791164  0.69806220
   0.18717322  0.62589439  0.78645045
   0.06268620  0.54032580  0.60988830
   0.93743910  0.79271684  0.87335150
   0.56250828  0.70209635  0.21357639
   0.93728525  0.62266596  0.52124194
   0.81242756  0.37573126  0.78648895
   0.06238106  0.53731275  0.39023063
   0.06259320  0.03742740  0.39014972
   0.68782800  0.29302605  0.87348278
   0.56226833  0.53534912  0.25773450
   0.31233368  0.70867671  0.69825163
   0.06288792  0.54197958  0.74235652
   0.93743027  0.79175653  0.74224715
   0.81276460  0.53528891  0.12671648
   0.81201577  0.87232771  0.52125852
   0.56253678  0.37259720  0.52121981
   0.56255661  0.36836275  0.16884242
   0.18751388  0.29248344  0.74231064
   0.68749691  0.95928091  0.83122582
   0.43728896  0.12263310  0.52126585
   0.06238273  0.70344450  0.34628250
   0.81237013  0.54208819  0.74234080
   0.18757975  0.11925718  0.30180308
   0.56256211  0.87566946  0.78649668
   0.56202963  0.54242557  0.74231058
   0.43755521  0.62151341  0.43485205
   0.18754151  0.11879351  0.16874995
   0.43760912  0.45341926  0.34633202
   0.68743170  0.62450246  0.65385028
   0.81221068  0.20612848  0.56506497
   0.68768507  0.95536100  0.47850220
   0.93754591  0.45923514  0.83126890
   0.68749191  0.45343097  0.34615410
   0.06249172  0.87573985  0.78644088
   0.31247324  0.20245899  0.21357514
   0.43742884  0.45526318  0.47857266
   0.56275355  0.37132760  0.43480992
   0.31292740  0.87447425  0.65374085
   0.06284159  0.37133926  0.43483691
   0.31267635  0.54313034  0.87338973
   0.06287164  0.87143116  0.43501679
   0.81251734  0.03759385  0.39010651
   0.93749815  0.45383330  0.34615240
   0.93770414  0.61969201  0.30187283
   0.43733222  0.45651057  0.56511261
   0.68723136  0.45634150  0.56504588
   0.43721496  0.12386791  0.65374749
   0.93718965  0.29035608  0.60975336
   0.43770268  0.95322011  0.34632112
   0.68748836  0.79265427  0.87335799
   0.06271804  0.20819467  0.69820602
   0.18735419  0.45946279  0.83119744
   0.18715359  0.12453526  0.65379688
   0.31193052  0.70713519  0.56514683
   0.68755515  0.61974318  0.30175499
   0.81247699  0.53719691  0.39013893
   0.56235005  0.54282996  0.87339920
   0.43757881  0.78560644  0.25773658
   0.56255927  0.03577401  0.25774977
   0.43740010  0.11842840  0.16885484
   0.68768208  0.12230354  0.52129336
   0.43760485  0.29250161  0.87344660
   0.31230319  0.37137423  0.43479665
   0.56242671  0.20349301  0.34627909
   0.31262183  0.20323462  0.34627711
   0.06238451  0.70946804  0.83115525
   0.31252444  0.70933705  0.83115414
   0.93750316  0.28760965  0.39020587
   0.81265760  0.04064381  0.60976823
   0.68756171  0.28543649  0.25774294
   0.81255250  0.03582071  0.25775315
   0.31271578  0.87204641  0.52123453
   0.31266701  0.04288223  0.87343875
   0.18751326  0.79259689  0.87331432
   0.06261092  0.20507941  0.47859118
   0.18755972  0.45857850  0.69818203
   0.31273048  0.20913313  0.83128355
   0.18745999  0.28553129  0.25772448
   0.93764702  0.12292256  0.52126623
   0.06275584  0.87462777  0.65363900
   0.18749487  0.45233474  0.21359858
   0.93745337  0.29289616  0.87349572
   0.68771153  0.95617651  0.56503365
   0.56221028  0.87399874  0.65360935
   0.56265531  0.20202194  0.21352879
   0.56248758  0.70941075  0.83117642
   0.68751537  0.45207179  0.21358131
   0.06235705  0.04269471  0.87338905
   0.56210530  0.20939627  0.83142725
   0.31247282  0.53521993  0.12665285
   0.43736136  0.12141678  0.43480489
   0.93744001  0.45208830  0.21353371
   0.18762484  0.12255768  0.52133885
   0.18730368  0.12594186  0.78645778
   0.93757870  0.12423898  0.65377064
   0.18742976  0.61849202  0.16882484
   0.68735261  0.79030901  0.60976797
   0.31254466  0.03579988  0.25779308
   0.81249683  0.70196089  0.21361254
   0.68768015  0.12399253  0.65365162
   0.93748235  0.62471943  0.65373988
   0.31225791  0.20536835  0.47853145
   0.81232540  0.37499148  0.65379694
   0.18774196  0.95304395  0.34623253
   0.18752934  0.79188843  0.74221854
   0.81238173  0.70542965  0.47856183
   0.31183145  0.54021142  0.60986964
   0.43749467  0.62563381  0.78643023
   0.56258058  0.70316734  0.34623502
   0.06243910  0.54295141  0.87339082
   0.43743113  0.79233805  0.74240391
   0.06267457  0.04051806  0.60972200
   0.81230857  0.87544236  0.78643181
   0.93756618  0.62554000  0.78646530
   0.43748428  0.28524945  0.12667652
   0.81207166  0.37242432  0.52132135
   0.56293133  0.87126803  0.43486378
   0.93716202  0.28555240  0.25770492
   0.68765985  0.12587136  0.78653242
   0.06236383  0.36870878  0.16885020
   0.68765099  0.95833657  0.69808925
   0.81237335  0.86960486  0.30181578
   0.93735327  0.95387694  0.34625821
   0.06242602  0.03551629  0.25773106
   0.56261392  0.53720754  0.39021868
   0.43740221  0.29015494  0.60974469
   0.31257960  0.54253303  0.74237791
   0.56251113  0.70513211  0.47861807
   0.81195210  0.87127196  0.43464423
   0.31255121  0.36859166  0.16885846
   0.93746679  0.11919803  0.30188551
   0.43752847  0.28716663  0.39023391
   0.18747177  0.28500813  0.12667916
   0.93762900  0.95199864  0.21360705
   0.81246731  0.54304734  0.87339982
   0.18738961  0.95942442  0.83116393
   0.68779696  0.62229744  0.52130567
   0.81260249  0.04277014  0.87340691
   0.56286757  0.36984105  0.30187721
   0.81212334  0.37120179  0.43478476
   0.18743553  0.45540624  0.47858092
   0.93746522  0.28514481  0.12667906
   0.18715117  0.78736589  0.39016269
   0.56269049  0.20521781  0.47859526
   0.31255161  0.53703951  0.39018824
   0.81259691  0.86837127  0.16889303
   0.06237041  0.53518730  0.12665080
   0.18743513  0.95236719  0.21357654
   0.56250087  0.03696859  0.39013969
   0.31256007  0.70248965  0.21351894
   0.68791611  0.28750730  0.39013411
   0.43755562  0.11992579  0.30180677
   0.81200718  0.87470240  0.65379055
   0.43748598  0.95968795  0.83123245
   0.56265400  0.87249198  0.52130148
   0.68733342  0.11937214  0.30183779
   0.31250408  0.86954864  0.30189095
   0.43768783  0.61830204  0.16875878
   0.93733506  0.61833176  0.16877520
   0.93748420  0.45491423  0.47859926
   0.56255656  0.37406014  0.65369881
   0.06287042  0.70640499  0.56509278
   0.06242461  0.70220846  0.21359454
   0.43729375  0.62256485  0.52136211
   0.18769105  0.95631599  0.56510111
   0.06246547  0.86845381  0.16886885
   0.43743288  0.79214403  0.87334814
   0.06295030  0.20661539  0.56510696
   0.56244391  0.53534462  0.12671095
   0.93696914  0.95600729  0.56496528
   0.68776147  0.78748707  0.39016085
   0.31242733  0.03676327  0.39025953
   0.06275512  0.37626660  0.78659835
   0.81253715  0.03501232  0.12668111
   0.93769560  0.79059406  0.60964833
   0.43742057  0.95208971  0.21357600
   0.18759946  0.95558669  0.47864954
   0.43760062  0.95520289  0.47861409
   0.68751178  0.79231194  0.74230430
   0.06273047  0.53578079  0.25778501
   0.68755992  0.61853693  0.16888314
   0.06256744  0.20341344  0.34623549
   0.18707904  0.28744052  0.39015339
   0.31237268  0.87130262  0.43475724
   0.56258201  0.04037527  0.61001041
   0.18750985  0.78573517  0.25763824
   0.93754514  0.62126114  0.43460891
   0.43653777  0.95558430  0.56502911
   0.31229126  0.36952853  0.30186289
   0.43726625  0.12586510  0.78623106
   0.43749683  0.78719682  0.39011114
   0.93735251  0.45609956  0.56504312
   0.81260373  0.04176449  0.74252008
   0.56250446  0.54027497  0.60989251
   0.81292186  0.20913747  0.69810915
   0.06224283  0.37470670  0.65367921
   0.56297830  0.20791243  0.56506359
   0.93739368  0.12196196  0.43467163
   0.06265499  0.87255360  0.52127984
Direct configuration=     3
   0.68745623  0.45850260  0.69822965
   0.31243649  0.86830258  0.16889150
   0.68711069  0.12151198  0.43484019
   0.68768534  0.45555989  0.47849907
   0.43744463  0.62385115  0.65387271
   0.81286389  0.70665576  0.56514005
   0.18834458  0.62164216  0.43474900
   0.68752354  0.95203850  0.21360403
   0.18697644  0.29297666  0.87342237
   0.68772205  0.62534091  0.78643415
   0.81249609  0.20370682  0.34619782
   0.93735738  0.95522178  0.47856421
   0.68752756  0.78552970  0.25771731
   0.18742696  0.78511058  0.12667852
   0.18741033  0.45620807  0.56511277
   0.68683636  0.62160782  0.43478542
   0.31260999  0.53558271  0.25771250
   0.43758322  0.45954021  0.83115349
   0.56238862  0.37574128  0.78658841
   0.56229953  0.04262188  0.74222531
   0.43747620  0.29246564  0.74238635
   0.06233892  0.20230153  0.21351454
   0.18718613  0.61949343  0.30178122
   0.56260544  0.03515016  0.12671599
   0.18767221  0.62452265  0.65380390
   0.93751623  0.78520276  0.12667185
   0.56227164  0.04290377  0.87348589
   0.93756921  0.95850599  0.69810141
   0.06230065  0.36931834  0.30179463
   0.93746755  0.95938697  0.83115566
   0.81248577  0.20531469  0.47852525
   0.31243355  0.04231513  0.74231536
   0.43758823  0.45218281  0.21351694
   0.68766402  0.28496850  0.12671315
   0.56254034  0.86830637  0.16888331
   0.31228959  0.20870774  0.69827801
   0.43786862  0.28552386  0.25771598
   0.93733674  0.78567243  0.25770990
   0.68758794  0.78515336  0.12669390
   0.06278805  0.70503028  0.47860607
   0.06241254  0.04197345  0.74230807
   0.81253539  0.20211122  0.21358936
   0.56228670  0.70834448  0.69823103
   0.68795631  0.29063555  0.60975431
   0.31250335  0.03527465  0.12665237
   0.93749796  0.29213562  0.74233742
   0.56287018  0.86964024  0.30187085
   0.81259149  0.70350777  0.34625255
   0.06267828  0.20966111  0.83137172
   0.81328069  0.54063453  0.60981538
   0.81247368  0.36944150  0.30181952
   0.93743420  0.45872001  0.69818801
   0.93752947  0.78768020  0.39020551
   0.43752035  0.45889413  0.69810035
   0.68735738  0.29196457  0.74237546
   0.93762130  0.11848452  0.16889148
   0.31269732  0.37235376  0.52124823
   0.31240841  0.70507798  0.47862314
   0.18762527  0.79060272  0.60984255
   0.18809120  0.12155433  0.43474404
   0.81255634  0.36844820  0.16888749
   0.81245846  0.20948143  0.83126989
   0.31234028  0.37593622  0.78651386
   0.06241655  0.03516327  0.12667631
   0.31248127  0.70312109  0.34624330
   0.68716619  0.95324804  0.34620967
   0.81259790  0.70889648  0.69829618
   0.43744643  0.79055807  0.60980540
   0.68749659  0.11848307  0.16890421
   0.18757278  0.29033898  0.60980155
   0.93756476  0.12575803  0.78647964
   0.68746698  0.45916315  0.83125290
   0.43751742  0.78520587  0.12666607
   0.06291331  0.70853587  0.69812733
   0.81249103  0.53547628  0.25776636
   0.81247803  0.70922551  0.83122894
   0.31245747  0.04053481  0.60983289
   0.06262393  0.37245577  0.52137286
   0.31257404  0.20609188  0.56504817
   0.31250673  0.87579263  0.78639341
   0.56236014  0.20813045  0.69833512
   0.18759673  0.45297358  0.34622837
   0.43735230  0.61958993  0.30182391
   0.56302325  0.70655656  0.56513886
   0.43747411  0.95805527  0.69816486
   0.06220732  0.86940627  0.30184164
   0.31256239  0.37455378  0.65381413
   0.18785187  0.62228821  0.52139488
   0.18716420  0.95790470  0.69806238
   0.18717590  0.62590105  0.78644824
   0.06268712  0.54033529  0.60988889
   0.93743860  0.79270736  0.87335247
   0.56250888  0.70209406  0.21357715
   0.93728662  0.62266463  0.52124027
   0.81242436  0.37573528  0.78648774
   0.06237782  0.53731464  0.39022943
   0.06259006  0.03743198  0.39014855
   0.68782302  0.29302319  0.87348422
   0.56227008  0.53535308  0.25773543
   0.31233212  0.70867799  0.69825160
   0.06289230  0.54198290  0.74235505
   0.93743296  0.79175361  0.74224567
   0.81276647  0.53529880  0.12671560
   0.81201694  0.87233426  0.52125810
   0.56253836  0.37261006  0.52122026
   0.56255611  0.36836939  0.16884158
   0.18751748  0.29247976  0.74230931
   0.68749406  0.95928067  0.83122812
   0.43728488  0.12262960  0.52126553
   0.06238140  0.70344463  0.34628249
   0.81237100  0.54208966  0.74233981
   0.18757957  0.11925532  0.30180313
   0.56256154  0.87566763  0.78649456
   0.56202442  0.54242652  0.74230978
   0.43755845  0.62151329  0.43485086
   0.18754043  0.11879150  0.16874926
   0.43761139  0.45342292  0.34633127
   0.68743582  0.62450671  0.65384974
   0.81221070  0.20612876  0.56506543
   0.68768503  0.95536766  0.47850206
   0.93754295  0.45923903  0.83127206
   0.68749102  0.45343247  0.34615472
   0.06249533  0.87573707  0.78643799
   0.31247123  0.20245858  0.21357688
   0.43743303  0.45526416  0.47857256
   0.56275368  0.37132398  0.43480852
   0.31292091  0.87447116  0.65374143
   0.06283740  0.37133704  0.43483500
   0.31267987  0.54311594  0.87339113
   0.06286699  0.87142726  0.43501535
   0.81251704  0.03759557  0.39010510
   0.93749437  0.45383479  0.34615322
   0.93770267  0.61969209  0.30187261
   0.43733208  0.45651424  0.56511336
   0.68722800  0.45634325  0.56504632
   0.43721514  0.12386345  0.65374693
   0.93718897  0.29035910  0.60975466
   0.43770596  0.95321983  0.34632117
   0.68748510  0.79264835  0.87335828
   0.06272218  0.20818540  0.69820591
   0.18735533  0.45946084  0.83119964
   0.18715305  0.12452699  0.65379739
   0.31193301  0.70713422  0.56514848
   0.68755446  0.61974532  0.30175594
   0.81247772  0.53720033  0.39013790
   0.56234872  0.54281323  0.87340044
   0.43758143  0.78561186  0.25773724
   0.56256041  0.03577608  0.25775092
   0.43739795  0.11842759  0.16885399
   0.68768564  0.12230252  0.52129300
   0.43760765  0.29249268  0.87344758
   0.31230734  0.37136984  0.43479495
   0.56242939  0.20349602  0.34627910
   0.31262442  0.20323744  0.34627647
   0.06238321  0.70946435  0.83115646
   0.31252671  0.70933184  0.83115499
   0.93750185  0.28761156  0.39020431
   0.81265632  0.04063605  0.60977034
   0.68756571  0.28543930  0.25774399
   0.81255557  0.03582183  0.25775417
   0.31271429  0.87205205  0.52123476
   0.31267591  0.04288640  0.87343999
   0.18751534  0.79259162  0.87331535
   0.06260829  0.20507772  0.47859123
   0.18756113  0.45858102  0.69818212
   0.31273415  0.20913469  0.83128626
   0.18745721  0.28553799  0.25772518
   0.93764839  0.12292090  0.52126568
   0.06275411  0.87462502  0.65363981
   0.18749425  0.45233791  0.21359945
   0.93745147  0.29289673  0.87349761
   0.68770964  0.95617329  0.56503506
   0.56221317  0.87399468  0.65360931
   0.56265512  0.20202264  0.21353031
   0.56248810  0.70940575  0.83117801
   0.68751486  0.45207494  0.21358202
   0.06235831  0.04269816  0.87338999
   0.56210381  0.20939634  0.83143087
   0.31246927  0.53522929  0.12665301
   0.43736392  0.12141504  0.43480385
   0.93744029  0.45209066  0.21353444
   0.18762298  0.12255814  0.52133878
   0.18730693  0.12593935  0.78645498
   0.93758015  0.12423194  0.65377177
   0.18743035  0.61849572  0.16882345
   0.68735478  0.79030806  0.60976927
   0.31254249  0.03580218  0.25779393
   0.81249663  0.70195921  0.21361266
   0.68768079  0.12398895  0.65365226
   0.93748390  0.62472963  0.65374021
   0.31226529  0.20536281  0.47853165
   0.81232164  0.37499317  0.65379689
   0.18774260  0.95304536  0.34623237
   0.18753044  0.79188900  0.74221701
   0.81239186  0.70542962  0.47856099
   0.31183098  0.54021672  0.60986983
   0.43749252  0.62563660  0.78642832
   0.56258082  0.70317175  0.34623535
   0.06243814  0.54293928  0.87339212
   0.43742668  0.79233642  0.74240219
   0.06267458  0.04051270  0.60972447
   0.81230875  0.87543935  0.78642958
   0.93756578  0.62554714  0.78646323
   0.43748302  0.28525987  0.12667614
   0.81207163  0.37242819  0.52132098
   0.56293210  0.87126705  0.43486168