<?xml version="1.0" encoding="ISO-8859-1"?>
<modeling>
 <generator>
  <i name="program" type="string">vasp </i>
  <i name="version" type="string">5.4.4.18Apr17-6-g9f103f2a35  </i>
  <i name="subversion" type="string">(build Sep 27 2018 12:46:37) complex + VL-xray_ parallel </i>
  <i name="platform" type="string">LLNL_Quartz_ifc </i>
  <i name="date" type="string">2021 09 27 </i>
  <i name="time" type="string">00:33:22 </i>
 </generator>
 <incar>
  <i type="int" name="ISTART">     2</i>
  <i type="string" name="PREC">accurate</i>
  <i type="string" name="ALGO"> Fast</i>
  <i type="int" name="ICHARG">     2</i>
  <i type="int" name="INIWAV">     1</i>
  <i type="int" name="NELM">   100</i>
  <i type="int" name="NELMIN">     4</i>
  <i type="int" name="IBRION">     2</i>
  <i name="EDIFF">      0.00000100</i>
  <i type="int" name="NSW">     5</i>
  <i type="int" name="ISIF">     2</i>
  <i type="int" name="ISYM">     2</i>
  <i name="ENCUT">    450.00000000</i>
  <i name="POTIM">      0.25000000</i>
  <i type="string" name="LREAL"> Auto</i>
  <i type="int" name="ISMEAR">     0</i>
  <i name="SIGMA">      0.15000000</i>
  <i type="logical" name="LWAVE"> F  </i>
  <i type="logical" name="LCHARG"> F  </i>
  <i type="int" name="ICORELEVEL">     0</i>
  <i type="int" name="CLNT">     1</i>
  <i type="int" name="CLN">     1</i>
  <i type="int" name="INCAR     ">     0</i>
  <i name="CLZ">      0.00000000</i>
  <v type="int" name="KPOINT_BSE">    -1     0     0     0</v>
  <i type="int" name="NELM">   100</i>
 </incar>
 <structure name="primitive_cell" >
  <crystal>
   <varray name="basis" >
    <v>       9.72667804       0.00000000       0.00000000 </v>
    <v>       0.00000000       8.42355028       0.00000000 </v>
    <v>       0.00000000       0.00000000      45.00000000 </v>
   </varray>
   <i name="volume">   3686.99226691 </i>
   <varray name="rec_basis" >
    <v>       0.10281002       0.00000000       0.00000000 </v>
    <v>       0.00000000       0.11871479       0.00000000 </v>
    <v>       0.00000000       0.00000000       0.02222222 </v>
   </varray>
  </crystal>
  <varray name="positions" >
   <v>       0.06238842       0.02877117       0.12423601 </v>
   <v>       0.18294086       0.11179896       0.16671310 </v>
   <v>       0.05551568      -0.13463630       0.16656616 </v>
   <v>       0.18550867      -0.21240210       0.12412304 </v>
   <v>      -0.06516159      -0.21073003       0.12418633 </v>
   <v>      -0.18513914       0.03070267       0.12406584 </v>
   <v>      -0.06906712       0.11474759       0.16687486 </v>
   <v>       0.31227640       0.03104468       0.12423774 </v>
   <v>       0.18488059       0.28705642       0.12412677 </v>
   <v>      -0.06566737       0.28687231       0.12397853 </v>
   <v>       0.30682546      -0.13577520       0.16585317 </v>
   <v>       0.05541203       0.36592760       0.16665042 </v>
   <v>      -0.19169901      -0.13600070       0.16686034 </v>
   <v>       0.43320399       0.11115454       0.16635849 </v>
   <v>      -0.05956527      -0.04686538       0.21130091 </v>
   <v>       0.18282368      -0.38572891       0.16640167 </v>
   <v>       0.43435121      -0.21173722       0.12408231 </v>
   <v>       0.30698680       0.36381820       0.16661424 </v>
   <v>       0.18990744      -0.04515936       0.21173156 </v>
   <v>      -0.06720511      -0.38719083       0.16675043 </v>
   <v>       0.06553629       0.20615336       0.21117595 </v>
   <v>      -0.31536184      -0.21277163       0.12447332 </v>
   <v>       0.06155497      -0.47142247       0.12374386 </v>
   <v>      -0.31662382       0.11404903       0.16709932 </v>
   <v>       0.43497163       0.28643277       0.12420566 </v>
   <v>      -0.19461762       0.36626949       0.16600932 </v>
   <v>      -0.31325026       0.28738714       0.12386569 </v>
   <v>       0.06731747      -0.29414406       0.21148494 </v>
   <v>      -0.18526951       0.20422403       0.21124210 </v>
   <v>       0.31126117      -0.46967290       0.12396013 </v>
   <v>      -0.43879674       0.03332415       0.12441117 </v>
   <v>      -0.18724815      -0.47181116       0.12389724 </v>
   <v>       0.31513962       0.20527405       0.21147517 </v>
   <v>      -0.18315305      -0.29544292       0.21147614 </v>
   <v>      -0.44362846      -0.13780313       0.16599789 </v>
   <v>       0.43151282      -0.38695915       0.16591603 </v>
   <v>      -0.30985629      -0.04558935       0.21178529 </v>
   <v>       0.31614471      -0.29550311       0.21208052 </v>
   <v>       0.44050475      -0.04560254       0.21192827 </v>
   <v>      -0.31805298      -0.38675075       0.16622925 </v>
   <v>       0.19017449       0.45227322       0.21106347 </v>
   <v>      -0.06007456       0.45342861       0.21158010 </v>
   <v>      -0.44317938       0.36474993       0.16644659 </v>
   <v>       0.05896296       0.03736921       0.25578977 </v>
   <v>       0.18346447      -0.21257860       0.25563450 </v>
   <v>      -0.06637258      -0.21266516       0.25560088 </v>
   <v>       0.30990456       0.03775499       0.25548540 </v>
   <v>      -0.43321908       0.20337167       0.21158676 </v>
   <v>      -0.19013692       0.03803751       0.25588671 </v>
   <v>      -0.43648693      -0.47098886       0.12442496 </v>
   <v>       0.18452472       0.28858493       0.25593084 </v>
   <v>      -0.31118970       0.45278148       0.21174276 </v>
   <v>      -0.06555665       0.28794434       0.25610916 </v>
   <v>       0.43996540       0.45239957       0.21150986 </v>
   <v>      -0.43502715      -0.29608215       0.21195460 </v>
   <v>       0.43388428      -0.21155306       0.25583802 </v>
   <v>       0.06010452      -0.46248692       0.25590005 </v>
   <v>      -0.31645428      -0.21213642       0.25586415 </v>
   <v>       0.43394778       0.28844486       0.25585953 </v>
   <v>      -0.31545457       0.28804150       0.25608944 </v>
   <v>       0.30856913      -0.46220347       0.25552903 </v>
   <v>      -0.44007159       0.03782271       0.25543004 </v>
   <v>      -0.19113754      -0.46208277       0.25607145 </v>
   <v>       0.07055696      -0.12668974       0.30022909 </v>
   <v>      -0.05411476       0.12301083       0.30011876 </v>
   <v>       0.19540397       0.12348538       0.30020713 </v>
   <v>      -0.17912544      -0.12692397       0.30022769 </v>
   <v>       0.31977204      -0.12688292       0.30019202 </v>
   <v>       0.07022190       0.37339314       0.30003880 </v>
   <v>      -0.44119042      -0.46155553       0.25569729 </v>
   <v>      -0.05524931      -0.37697179       0.29985889 </v>
   <v>       0.19558002      -0.37684040       0.30016907 </v>
   <v>      -0.30453600       0.12307698       0.30028216 </v>
   <v>      -0.17902352       0.37337489       0.30012418 </v>
   <v>       0.32048825       0.37260386       0.30007549 </v>
   <v>       0.44473733       0.12367809       0.30044009 </v>
   <v>      -0.30505553      -0.37527565       0.30001853 </v>
   <v>      -0.42954343      -0.12703467       0.30024376 </v>
   <v>       0.44588484      -0.37638628       0.30021938 </v>
   <v>      -0.42978997       0.37194607       0.30025679 </v>
   <v>      -0.06594110      -0.04855860       0.34476112 </v>
   <v>       0.18360531      -0.04778857       0.34497293 </v>
   <v>       0.05868641       0.20246055       0.34489482 </v>
   <v>       0.05871871      -0.29774108       0.34482083 </v>
   <v>       0.30895447       0.20274178       0.34468520 </v>
   <v>      -0.19103353       0.20218732       0.34485654 </v>
   <v>       0.30867773      -0.29808597       0.34482131 </v>
   <v>       0.43355879      -0.04742925       0.34495801 </v>
   <v>      -0.19093921      -0.29721615       0.34500070 </v>
   <v>      -0.31652839      -0.04829196       0.34473990 </v>
   <v>       0.18392086       0.45275444       0.34500231 </v>
   <v>      -0.06636226       0.45245915       0.34488902 </v>
   <v>      -0.44126935       0.20262206       0.34469016 </v>
   <v>       0.43354475       0.45252896       0.34498176 </v>
   <v>       0.06548601       0.03880855      -0.12411661 </v>
   <v>      -0.31619474       0.45230605       0.34492192 </v>
   <v>      -0.44103438      -0.29763553       0.34489736 </v>
   <v>       0.18770511      -0.20266055      -0.12378608 </v>
   <v>      -0.06259542      -0.20468134      -0.12420706 </v>
   <v>       0.31455451       0.04130637      -0.12400969 </v>
   <v>      -0.18753581       0.04058363      -0.12420554 </v>
   <v>       0.18872794       0.29665054      -0.12371168 </v>
   <v>      -0.06495750       0.29754101      -0.12430970 </v>
   <v>       0.43636557      -0.20255008      -0.12372348 </v>
   <v>       0.06398610      -0.45951046      -0.12397589 </v>
   <v>      -0.31509281      -0.20223999      -0.12393993 </v>
   <v>       0.06629608       0.03807157       0.38909230 </v>
   <v>       0.43687134       0.29864429      -0.12354069 </v>
   <v>      -0.31395914       0.29885896      -0.12388982 </v>
   <v>      -0.05860982      -0.21260996       0.38870680 </v>
   <v>       0.19246129      -0.21255381       0.38884976 </v>
   <v>       0.31392991      -0.45943419      -0.12384703 </v>
   <v>      -0.18261561       0.03976017       0.38902356 </v>
   <v>      -0.18738339      -0.45985937      -0.12411043 </v>
   <v>       0.31630141       0.03712337       0.38885657 </v>
   <v>      -0.05902353       0.28657537       0.38890882 </v>
   <v>       0.19133428       0.28778929       0.38885658 </v>
   <v>      -0.43702791       0.04056974      -0.12389055 </v>
   <v>       0.06732385      -0.46136860       0.38894106 </v>
   <v>      -0.30812106      -0.21204599       0.38894487 </v>
   <v>      -0.30884844       0.28780222       0.38891983 </v>
   <v>       0.44141747      -0.21225005       0.38906730 </v>
   <v>       0.44127389       0.28753798       0.38905483 </v>
   <v>      -0.18378433      -0.46228624       0.38886929 </v>
   <v>       0.31577642      -0.46167662       0.38886528 </v>
   <v>      -0.43357538       0.03811906       0.38901875 </v>
   <v>      -0.43710621      -0.45935743      -0.12397147 </v>
   <v>      -0.05780466      -0.03559917      -0.16594963 </v>
   <v>       0.19156459      -0.03667701      -0.16637562 </v>
   <v>       0.06698304       0.21524953      -0.16591997 </v>
   <v>       0.06630706      -0.28306534      -0.16591318 </v>
   <v>      -0.18222138       0.21495832      -0.16628191 </v>
   <v>       0.31711456       0.21317442      -0.16652088 </v>
   <v>      -0.43358099      -0.46219978       0.38900685 </v>
   <v>      -0.18307444      -0.28487310      -0.16650909 </v>
   <v>      -0.30845038      -0.03767918      -0.16652977 </v>
   <v>       0.31806686      -0.28629264      -0.16677761 </v>
   <v>       0.44278927      -0.03704488      -0.16664419 </v>
   <v>      -0.05763949       0.46391541      -0.16607128 </v>
   <v>       0.19184036       0.46327604      -0.16643583 </v>
   <v>       0.06313794      -0.12883322       0.43427180 </v>
   <v>       0.18670022       0.12126435       0.43417744 </v>
   <v>      -0.06315022       0.12048189       0.43447504 </v>
   <v>      -0.43384843       0.21379794      -0.16668795 </v>
   <v>      -0.30781789       0.46190190      -0.16656484 </v>
   <v>       0.44216091       0.46282787      -0.16662317 </v>
   <v>      -0.43373201      -0.28670200      -0.16660875 </v>
   <v>      -0.18881932      -0.12899871       0.43412843 </v>
   <v>       0.31170701      -0.12972895       0.43435667 </v>
   <v>       0.06246216       0.37187031       0.43417556 </v>
   <v>       0.18719567      -0.37897954       0.43436740 </v>
   <v>      -0.06304598      -0.37914227       0.43436510 </v>
   <v>       0.43713844       0.12174636       0.43415189 </v>
   <v>      -0.31325516       0.12042531       0.43424465 </v>
   <v>      -0.18878396       0.37188441       0.43404701 </v>
   <v>       0.31176929       0.37108339       0.43431588 </v>
   <v>       0.43637242      -0.37853278       0.43435855 </v>
   <v>      -0.31243918      -0.37872741       0.43438244 </v>
   <v>      -0.43723149      -0.12835696       0.43434803 </v>
   <v>      -0.43833436       0.37094412       0.43427680 </v>
   <v>       0.05916369      -0.12555330      -0.21137997 </v>
   <v>       0.18372138       0.12351833      -0.21119114 </v>
   <v>      -0.06586538       0.12484011      -0.21125883 </v>
   <v>       0.31041526      -0.12713933      -0.21143745 </v>
   <v>      -0.19120783      -0.12567287      -0.21143855 </v>
   <v>       0.05913174       0.37503481      -0.21141728 </v>
   <v>       0.43388118       0.12298970      -0.21092322 </v>
   <v>       0.18479788      -0.37736636      -0.21138658 </v>
   <v>      -0.06682803      -0.37515731      -0.21139143 </v>
   <v>       0.30893981       0.37414467      -0.21120289 </v>
   <v>      -0.31734293       0.12309072      -0.21126658 </v>
   <v>      -0.19101300       0.37515076      -0.21135023 </v>
   <v>       0.43318170      -0.37693191      -0.21098462 </v>
   <v>      -0.44111574      -0.12612427      -0.21122942 </v>
   <v>      -0.31680810      -0.37668765      -0.21122418 </v>
   <v>      -0.06304712      -0.04520989       0.47857655 </v>
   <v>       0.18720290      -0.04408001       0.47863863 </v>
   <v>       0.06239087       0.20589563       0.47852409 </v>
   <v>      -0.44109237       0.37350090      -0.21116921 </v>
   <v>       0.06201152      -0.29452625       0.47842055 </v>
   <v>      -0.18809314       0.20556668       0.47852964 </v>
   <v>       0.31206785       0.20573692       0.47862858 </v>
   <v>      -0.18778401      -0.29456488       0.47845704 </v>
   <v>       0.31202671      -0.29442304       0.47855465 </v>
   <v>       0.43712991      -0.04411507       0.47861883 </v>
   <v>      -0.31264417      -0.04443695       0.47868204 </v>
   <v>      -0.06297455       0.45507476       0.47842807 </v>
   <v>       0.18704363       0.45550386       0.47856989 </v>
   <v>      -0.43788089       0.20569351       0.47860374 </v>
   <v>       0.43711665       0.45538550       0.47836536 </v>
   <v>      -0.31328396       0.45520290       0.47845099 </v>
   <v>      -0.43789208      -0.29442995       0.47847605 </v>
   <v>       0.06575613       0.04017077      -0.25566428 </v>
   <v>      -0.05990968      -0.20910333      -0.25537144 </v>
   <v>       0.18949045      -0.20865201      -0.25546400 </v>
   <v>      -0.18424875       0.04050331      -0.25560454 </v>
   <v>      -0.06078509       0.29032998      -0.25543751 </v>
   <v>       0.31527087       0.04173346      -0.25577961 </v>
   <v>       0.19045860       0.29105164      -0.25558883 </v>
   <v>       0.06529560      -0.45921583      -0.25558665 </v>
   <v>      -0.30997107      -0.20843375      -0.25557466 </v>
   <v>       0.43954195      -0.20829966      -0.25551109 </v>
   <v>      -0.30985499       0.29103891      -0.25561036 </v>
   <v>       0.43974946       0.29176628      -0.25558847 </v>
   <v>      -0.18429582      -0.45953135      -0.25558891 </v>
   <v>       0.31532689      -0.45868559      -0.25559717 </v>
   <v>      -0.43444388       0.04117672      -0.25560944 </v>
   <v>       0.06170557      -0.12887669      -0.47873430 </v>
   <v>      -0.06357435       0.12102884      -0.47874297 </v>
   <v>       0.18656383       0.12126984      -0.47870975 </v>
   <v>      -0.18840007      -0.12875077      -0.47869482 </v>
   <v>       0.31148088      -0.12840658      -0.47860350 </v>
   <v>       0.06124046       0.37157349      -0.47870580 </v>
   <v>       0.18667715      -0.37884265      -0.47877847 </v>
   <v>      -0.06333509      -0.37888675      -0.47873693 </v>
   <v>      -0.43472150      -0.45868345      -0.25574606 </v>
   <v>       0.43656727       0.12138788      -0.47866134 </v>
   <v>      -0.31325761       0.12137408      -0.47865324 </v>
   <v>       0.31142014       0.37140725      -0.47868407 </v>
   <v>      -0.18840146       0.37120184      -0.47872355 </v>
   <v>       0.43648037      -0.37841057      -0.47873493 </v>
   <v>      -0.31340225      -0.37875450      -0.47881949 </v>
   <v>      -0.43821860      -0.12845167      -0.47863011 </v>
   <v>      -0.43846136       0.37132301      -0.47869625 </v>
   <v>       0.18519323      -0.04271449      -0.30010748 </v>
   <v>      -0.06461731      -0.04225503      -0.30029015 </v>
   <v>       0.06059977       0.20729854      -0.30024376 </v>
   <v>       0.06072500      -0.29266981      -0.30028259 </v>
   <v>       0.31034279       0.20724098      -0.30009470 </v>
   <v>      -0.18939568       0.20751294      -0.30012247 </v>
   <v>       0.31029931      -0.29337319      -0.30020514 </v>
   <v>      -0.18974011      -0.29296127      -0.30021031 </v>
   <v>       0.43545938      -0.04261060      -0.30019686 </v>
   <v>      -0.31491332      -0.04287067      -0.30017538 </v>
   <v>       0.18509221       0.45772658      -0.30026053 </v>
   <v>      -0.06485363       0.45791711      -0.30028222 </v>
   <v>      -0.43940711       0.20701041      -0.30015766 </v>
   <v>       0.43527814       0.45736131      -0.30021927 </v>
   <v>      -0.31548161       0.45704682      -0.30018627 </v>
   <v>      -0.43968241      -0.29308998      -0.30024182 </v>
   <v>       0.18671138      -0.04280511      -0.43455152 </v>
   <v>      -0.06308469      -0.04285982      -0.43455055 </v>
   <v>       0.06220503       0.20719922      -0.43459322 </v>
   <v>       0.06211964      -0.29312928      -0.43450733 </v>
   <v>      -0.18846959       0.20738152      -0.43461002 </v>
   <v>       0.31143517       0.20661761      -0.43451635 </v>
   <v>       0.31162531      -0.29264860      -0.43457496 </v>
   <v>       0.43709803      -0.04237463      -0.43469637 </v>
   <v>      -0.18848025      -0.29325807      -0.43449942 </v>
   <v>      -0.31293098      -0.04305438      -0.43458787 </v>
   <v>       0.18716052       0.45698844      -0.43452555 </v>
   <v>      -0.06325721       0.45691612      -0.43445593 </v>
   <v>      -0.43771065       0.20714146      -0.43452094 </v>
   <v>      -0.31315227       0.45729041      -0.43469490 </v>
   <v>       0.43719451       0.45686426      -0.43452686 </v>
   <v>      -0.43779417      -0.29273209      -0.43452481 </v>
   <v>       0.06614980      -0.12551513      -0.34506679 </v>
   <v>       0.19124112       0.12496376      -0.34492476 </v>
   <v>      -0.05874924       0.12469063      -0.34502372 </v>
   <v>      -0.18378560      -0.12523862      -0.34494206 </v>
   <v>       0.31626094      -0.12537407      -0.34501076 </v>
   <v>       0.06602337       0.37442408      -0.34492463 </v>
   <v>      -0.05851234      -0.37490272      -0.34503763 </v>
   <v>       0.19109653      -0.37514326      -0.34493921 </v>
   <v>      -0.30882353       0.12474095      -0.34498068 </v>
   <v>      -0.18366449       0.37451432      -0.34495033 </v>
   <v>       0.44120626       0.12459195      -0.34507639 </v>
   <v>       0.31611171       0.37400229      -0.34500315 </v>
   <v>      -0.30874501      -0.37518062      -0.34480050 </v>
   <v>      -0.43371435      -0.12603281      -0.34496923 </v>
   <v>       0.44138280      -0.37532799      -0.34504435 </v>
   <v>      -0.43377956       0.37436403      -0.34498924 </v>
   <v>       0.05865473       0.03780807      -0.38912304 </v>
   <v>       0.18364113      -0.21201806      -0.38909924 </v>
   <v>      -0.06633010      -0.21248927      -0.38906964 </v>
   <v>       0.30884150       0.03810689      -0.38899417 </v>
   <v>       0.18400785       0.28831021      -0.38913164 </v>
   <v>      -0.19119597       0.03786797      -0.38904690 </v>
   <v>      -0.06635795       0.28792705      -0.38915223 </v>
   <v>       0.43364457      -0.21171060      -0.38914617 </v>
   <v>       0.05869894      -0.46224348      -0.38906189 </v>
   <v>      -0.31640022      -0.21199389      -0.38908601 </v>
   <v>       0.43382284       0.28839038      -0.38912512 </v>
   <v>      -0.31631319       0.28856566      -0.38904256 </v>
   <v>       0.30874752      -0.46222257      -0.38912034 </v>
   <v>      -0.19136554      -0.46213792      -0.38904241 </v>
   <v>      -0.44087382       0.03846911      -0.38894240 </v>
   <v>      -0.44136152      -0.46196360      -0.38912634 </v>
  </varray>
 </structure>
 <varray name="primitive_index" >
  <v type="int" >        1 </v>
  <v type="int" >      125 </v>
  <v type="int" >       60 </v>
  <v type="int" >       83 </v>
  <v type="int" >       44 </v>
  <v type="int" >      202 </v>
  <v type="int" >       26 </v>
  <v type="int" >      256 </v>
  <v type="int" >      111 </v>
  <v type="int" >      155 </v>
  <v type="int" >      277 </v>
  <v type="int" >       51 </v>
  <v type="int" >      102 </v>
  <v type="int" >      182 </v>
  <v type="int" >      212 </v>
  <v type="int" >       20 </v>
  <v type="int" >      285 </v>
  <v type="int" >      108 </v>
  <v type="int" >      146 </v>
  <v type="int" >      104 </v>
  <v type="int" >       50 </v>
  <v type="int" >      163 </v>
  <v type="int" >      176 </v>
  <v type="int" >      166 </v>
  <v type="int" >      117 </v>
  <v type="int" >      284 </v>
  <v type="int" >      145 </v>
  <v type="int" >      250 </v>
  <v type="int" >      167 </v>
  <v type="int" >       91 </v>
  <v type="int" >      114 </v>
  <v type="int" >      205 </v>
  <v type="int" >      249 </v>
  <v type="int" >      213 </v>
  <v type="int" >      192 </v>
  <v type="int" >      174 </v>
  <v type="int" >       92 </v>
  <v type="int" >      276 </v>
  <v type="int" >      229 </v>
  <v type="int" >       97 </v>
  <v type="int" >      189 </v>
  <v type="int" >      175 </v>
  <v type="int" >       30 </v>
  <v type="int" >      185 </v>
  <v type="int" >      200 </v>
  <v type="int" >       52 </v>
  <v type="int" >      179 </v>
  <v type="int" >      103 </v>
  <v type="int" >       24 </v>
  <v type="int" >      283 </v>
  <v type="int" >      112 </v>
  <v type="int" >      261 </v>
  <v type="int" >      127 </v>
  <v type="int" >      139 </v>
  <v type="int" >      288 </v>
  <v type="int" >      137 </v>
  <v type="int" >      168 </v>
  <v type="int" >      118 </v>
  <v type="int" >      265 </v>
  <v type="int" >       58 </v>
  <v type="int" >      275 </v>
  <v type="int" >      221 </v>
  <v type="int" >       81 </v>
  <v type="int" >      214 </v>
  <v type="int" >      135 </v>
  <v type="int" >      215 </v>
  <v type="int" >       72 </v>
  <v type="int" >       98 </v>
  <v type="int" >      226 </v>
  <v type="int" >       28 </v>
  <v type="int" >      178 </v>
  <v type="int" >      263 </v>
  <v type="int" >      109 </v>
  <v type="int" >      220 </v>
  <v type="int" >      242 </v>
  <v type="int" >      159 </v>
  <v type="int" >      130 </v>
  <v type="int" >      210 </v>
  <v type="int" >      101 </v>
  <v type="int" >      171 </v>
  <v type="int" >      194 </v>
  <v type="int" >      258 </v>
  <v type="int" >       47 </v>
  <v type="int" >      216 </v>
  <v type="int" >       86 </v>
  <v type="int" >      207 </v>
  <v type="int" >      208 </v>
  <v type="int" >      172 </v>
  <v type="int" >       73 </v>
  <v type="int" >       25 </v>
  <v type="int" >      116 </v>
  <v type="int" >       12 </v>
  <v type="int" >      219 </v>
  <v type="int" >      206 </v>
  <v type="int" >      282 </v>
  <v type="int" >       48 </v>
  <v type="int" >      164 </v>
  <v type="int" >      268 </v>
  <v type="int" >      281 </v>
  <v type="int" >      245 </v>
  <v type="int" >       14 </v>
  <v type="int" >      120 </v>
  <v type="int" >      280 </v>
  <v type="int" >      150 </v>
  <v type="int" >      266 </v>
  <v type="int" >       29 </v>
  <v type="int" >      124 </v>
  <v type="int" >      255 </v>
  <v type="int" >      191 </v>
  <v type="int" >      190 </v>
  <v type="int" >      287 </v>
  <v type="int" >       18 </v>
  <v type="int" >      279 </v>
  <v type="int" >      231 </v>
  <v type="int" >      165 </v>
  <v type="int" >       13 </v>
  <v type="int" >      248 </v>
  <v type="int" >      161 </v>
  <v type="int" >      273 </v>
  <v type="int" >       45 </v>
  <v type="int" >       84 </v>
  <v type="int" >      264 </v>
  <v type="int" >        4 </v>
  <v type="int" >      123 </v>
  <v type="int" >       67 </v>
  <v type="int" >       16 </v>
  <v type="int" >       64 </v>
  <v type="int" >       17 </v>
  <v type="int" >        7 </v>
  <v type="int" >      259 </v>
  <v type="int" >      134 </v>
  <v type="int" >        6 </v>
  <v type="int" >       39 </v>
  <v type="int" >      222 </v>
  <v type="int" >      253 </v>
  <v type="int" >       88 </v>
  <v type="int" >        5 </v>
  <v type="int" >      110 </v>
  <v type="int" >       36 </v>
  <v type="int" >      181 </v>
  <v type="int" >      170 </v>
  <v type="int" >      160 </v>
  <v type="int" >      158 </v>
  <v type="int" >      143 </v>
  <v type="int" >       82 </v>
  <v type="int" >       74 </v>
  <v type="int" >      241 </v>
  <v type="int" >      235 </v>
  <v type="int" >       23 </v>
  <v type="int" >      218 </v>
  <v type="int" >      238 </v>
  <v type="int" >      131 </v>
  <v type="int" >      201 </v>
  <v type="int" >      257 </v>
  <v type="int" >       80 </v>
  <v type="int" >      113 </v>
  <v type="int" >      278 </v>
  <v type="int" >      232 </v>
  <v type="int" >       69 </v>
  <v type="int" >      251 </v>
  <v type="int" >      197 </v>
  <v type="int" >        3 </v>
  <v type="int" >      149 </v>
  <v type="int" >      224 </v>
  <v type="int" >       55 </v>
  <v type="int" >      254 </v>
  <v type="int" >       49 </v>
  <v type="int" >      272 </v>
  <v type="int" >      132 </v>
  <v type="int" >      138 </v>
  <v type="int" >      188 </v>
  <v type="int" >       57 </v>
  <v type="int" >      184 </v>
  <v type="int" >       33 </v>
  <v type="int" >       66 </v>
  <v type="int" >      236 </v>
  <v type="int" >       94 </v>
  <v type="int" >      223 </v>
  <v type="int" >      106 </v>
  <v type="int" >      157 </v>
  <v type="int" >       21 </v>
  <v type="int" >      230 </v>
  <v type="int" >      234 </v>
  <v type="int" >       99 </v>
  <v type="int" >      105 </v>
  <v type="int" >       75 </v>
  <v type="int" >      269 </v>
  <v type="int" >      244 </v>
  <v type="int" >      237 </v>
  <v type="int" >      156 </v>
  <v type="int" >      199 </v>
  <v type="int" >      169 </v>
  <v type="int" >        9 </v>
  <v type="int" >       46 </v>
  <v type="int" >      262 </v>
  <v type="int" >      151 </v>
  <v type="int" >      187 </v>
  <v type="int" >      239 </v>
  <v type="int" >       11 </v>
  <v type="int" >      211 </v>
  <v type="int" >       43 </v>
  <v type="int" >       31 </v>
  <v type="int" >       19 </v>
  <v type="int" >       71 </v>
  <v type="int" >       87 </v>
  <v type="int" >      243 </v>
  <v type="int" >      267 </v>
  <v type="int" >       27 </v>
  <v type="int" >      286 </v>
  <v type="int" >      140 </v>
  <v type="int" >       10 </v>
  <v type="int" >      144 </v>
  <v type="int" >      107 </v>
  <v type="int" >       68 </v>
  <v type="int" >      203 </v>
  <v type="int" >      270 </v>
  <v type="int" >      119 </v>
  <v type="int" >       34 </v>
  <v type="int" >      183 </v>
  <v type="int" >      177 </v>
  <v type="int" >      252 </v>
  <v type="int" >      195 </v>
  <v type="int" >       77 </v>
  <v type="int" >      247 </v>
  <v type="int" >      173 </v>
  <v type="int" >      225 </v>
  <v type="int" >       37 </v>
  <v type="int" >      274 </v>
  <v type="int" >       63 </v>
  <v type="int" >      233 </v>
  <v type="int" >      154 </v>
  <v type="int" >      141 </v>
  <v type="int" >       38 </v>
  <v type="int" >       54 </v>
  <v type="int" >      246 </v>
  <v type="int" >      152 </v>
  <v type="int" >       53 </v>
  <v type="int" >      193 </v>
  <v type="int" >       76 </v>
  <v type="int" >      133 </v>
  <v type="int" >      162 </v>
  <v type="int" >      129 </v>
  <v type="int" >       62 </v>
  <v type="int" >       65 </v>
  <v type="int" >      271 </v>
  <v type="int" >       93 </v>
  <v type="int" >       90 </v>
  <v type="int" >       56 </v>
  <v type="int" >       32 </v>
  <v type="int" >       95 </v>
  <v type="int" >       59 </v>
  <v type="int" >       42 </v>
  <v type="int" >        8 </v>
  <v type="int" >      228 </v>
  <v type="int" >       70 </v>
  <v type="int" >      186 </v>
  <v type="int" >      196 </v>
  <v type="int" >      121 </v>
  <v type="int" >      122 </v>
  <v type="int" >       79 </v>
  <v type="int" >        2 </v>
  <v type="int" >      198 </v>
  <v type="int" >      240 </v>
  <v type="int" >      153 </v>
  <v type="int" >      209 </v>
  <v type="int" >       35 </v>
  <v type="int" >      204 </v>
  <v type="int" >       85 </v>
  <v type="int" >      227 </v>
  <v type="int" >       89 </v>
  <v type="int" >       40 </v>
  <v type="int" >       78 </v>
  <v type="int" >      142 </v>
  <v type="int" >       15 </v>
  <v type="int" >      136 </v>
  <v type="int" >      148 </v>
  <v type="int" >       61 </v>
  <v type="int" >      217 </v>
  <v type="int" >      100 </v>
  <v type="int" >       96 </v>
  <v type="int" >      126 </v>
  <v type="int" >      180 </v>
  <v type="int" >      115 </v>
  <v type="int" >      147 </v>
  <v type="int" >       41 </v>
  <v type="int" >       22 </v>
  <v type="int" >      260 </v>
  <v type="int" >      128 </v>
 </varray>
 <kpoints>
  <generation param="Gamma">
   <v type="int" name="divisions">       4        4        1 </v>
   <v name="usershift">      0.00000000       0.00000000       0.00000000 </v>
   <v name="genvec1">      0.25000000       0.00000000       0.00000000 </v>
   <v name="genvec2">      0.00000000       0.25000000       0.00000000 </v>
   <v name="genvec3">      0.00000000       0.00000000       1.00000000 </v>
   <v name="shift">      0.00000000       0.00000000       0.00000000 </v>
  </generation>
  <varray name="kpointlist" >
   <v>       0.00000000       0.00000000       0.00000000 </v>
   <v>       0.25000000       0.00000000       0.00000000 </v>
   <v>       0.50000000       0.00000000       0.00000000 </v>
   <v>       0.00000000       0.25000000       0.00000000 </v>
   <v>       0.25000000       0.25000000       0.00000000 </v>
   <v>       0.50000000       0.25000000       0.00000000 </v>
   <v>      -0.25000000       0.25000000       0.00000000 </v>
   <v>       0.00000000       0.50000000       0.00000000 </v>
   <v>       0.25000000       0.50000000       0.00000000 </v>
   <v>       0.50000000       0.50000000       0.00000000 </v>
  </varray>
  <varray name="weights" >
   <v>       0.06250000 </v>
   <v>       0.12500000 </v>
   <v>       0.06250000 </v>
   <v>       0.12500000 </v>
   <v>       0.12500000 </v>
   <v>       0.12500000 </v>
   <v>       0.12500000 </v>
   <v>       0.06250000 </v>
   <v>       0.12500000 </v>
   <v>       0.06250000 </v>
  </varray>
 </kpoints>
 <parameters>
  <separator name="general" >
   <i type="string" name="SYSTEM">unknown system</i>
   <i type="logical" name="LCOMPAT"> F  </i>
  </separator>
  <separator name="electronic" >
   <i type="string" name="PREC">accura</i>
   <i name="ENMAX">    450.00000000</i>
   <i name="ENAUG">    838.43500000</i>
   <i name="EDIFF">      0.00000100</i>
   <i type="int" name="IALGO">    68</i>
   <i type="int" name="IWAVPR">    11</i>
   <i type="int" name="NBANDS">  1386</i>
   <i name="NELECT">   2290.00000000</i>
   <i type="int" name="TURBO">     0</i>
   <i type="int" name="IRESTART">     0</i>
   <i type="int" name="NREBOOT">     0</i>
   <i type="int" name="NMIN">     0</i>
   <i name="EREF">      0.00000000</i>
   <separator name="electronic smearing" >
    <i type="int" name="ISMEAR">     0</i>
    <i name="SIGMA">      0.15000000</i>
    <i name="KSPACING">      0.50000000</i>
    <i type="logical" name="KGAMMA"> T  </i>
   </separator>
   <separator name="electronic projectors" >
    <i type="logical" name="LREAL"> T  </i>
    <v name="ROPT">     -0.00025000     -0.00025000</v>
    <i type="int" name="LMAXPAW">  -100</i>
    <i type="int" name="LMAXMIX">     2</i>
    <i type="logical" name="NLSPLINE"> F  </i>
   </separator>
   <separator name="electronic startup" >
    <i type="int" name="ISTART">     0</i>
    <i type="int" name="ICHARG">     2</i>
    <i type="int" name="INIWAV">     1</i>
   </separator>
   <separator name="electronic spin" >
    <i type="int" name="ISPIN">     1</i>
    <i type="logical" name="LNONCOLLINEAR"> F  </i>
    <v name="MAGMOM">      1.00000000      1.00000000      1.00000000      1.00000000      1.00000000      1.00000000      1.00000000      1.00000000      1.00000000      1.00000000      1.00000000      1.00000000      1.00000000      1.00000000      1.00000000      1.00000000      1.00000000      1.00000000      1.00000000      1.00000000
      1.00000000      1.00000000      1.00000000      1.00000000      1.00000000      1.00000000      1.00000000      1.00000000      1.00000000      1.00000000      1.00000000      1.00000000      1.00000000      1.00000000      1.00000000      1.00000000      1.00000000      1.00000000      1.00000000      1.00000000
      1.00000000      1.00000000      1.00000000      1.00000000      1.00000000      1.00000000      1.00000000      1.00000000      1.00000000      1.00000000      1.00000000      1.00000000      1.00000000      1.00000000      1.00000000      1.00000000      1.00000000      1.00000000      1.00000000      1.00000000
      1.00000000      1.00000000      1.00000000      1.00000000      1.00000000      1.00000000      1.00000000      1.00000000      1.00000000      1.00000000      1.00000000      1.00000000      1.00000000      1.00000000      1.00000000      1.00000000      1.00000000      1.00000000      1.00000000      1.00000000
      1.00000000      1.00000000      1.00000000      1.00000000      1.00000000      1.00000000      1.00000000      1.00000000      1.00000000      1.00000000      1.00000000      1.00000000      1.00000000      1.00000000      1.00000000      1.00000000      1.00000000      1.00000000      1.00000000      1.00000000
      1.00000000      1.00000000      1.00000000      1.00000000      1.00000000      1.00000000      1.00000000      1.00000000      1.00000000      1.00000000      1.00000000      1.00000000      1.00000000      1.00000000      1.00000000      1.00000000      1.00000000      1.00000000      1.00000000      1.00000000
      1.00000000      1.00000000      1.00000000      1.00000000      1.00000000      1.00000000      1.00000000      1.00000000      1.00000000      1.00000000      1.00000000      1.00000000      1.00000000      1.00000000      1.00000000      1.00000000      1.00000000      1.00000000      1.00000000      1.00000000
      1.00000000      1.00000000      1.00000000      1.00000000      1.00000000      1.00000000      1.00000000      1.00000000      1.00000000      1.00000000      1.00000000      1.00000000      1.00000000      1.00000000      1.00000000      1.00000000      1.00000000      1.00000000      1.00000000      1.00000000
      1.00000000      1.00000000      1.00000000      1.00000000      1.00000000      1.00000000      1.00000000      1.00000000      1.00000000      1.00000000      1.00000000      1.00000000      1.00000000      1.00000000      1.00000000      1.00000000      1.00000000      1.00000000      1.00000000      1.00000000
      1.00000000      1.00000000      1.00000000      1.00000000      1.00000000      1.00000000      1.00000000      1.00000000      1.00000000      1.00000000      1.00000000      1.00000000      1.00000000      1.00000000      1.00000000      1.00000000      1.00000000      1.00000000      1.00000000      1.00000000
      1.00000000      1.00000000      1.00000000      1.00000000      1.00000000      1.00000000      1.00000000      1.00000000      1.00000000      1.00000000      1.00000000      1.00000000      1.00000000      1.00000000      1.00000000      1.00000000      1.00000000      1.00000000      1.00000000      1.00000000
      1.00000000      1.00000000      1.00000000      1.00000000      1.00000000      1.00000000      1.00000000      1.00000000      1.00000000      1.00000000      1.00000000      1.00000000      1.00000000      1.00000000      1.00000000      1.00000000      1.00000000      1.00000000      1.00000000      1.00000000
      1.00000000      1.00000000      1.00000000      1.00000000      1.00000000      1.00000000      1.00000000      1.00000000      1.00000000      1.00000000      1.00000000      1.00000000      1.00000000      1.00000000      1.00000000      1.00000000      1.00000000      1.00000000      1.00000000      1.00000000
      1.00000000      1.00000000      1.00000000      1.00000000      1.00000000      1.00000000      1.00000000      1.00000000      1.00000000      1.00000000      1.00000000      1.00000000      1.00000000      1.00000000      1.00000000      1.00000000      1.00000000      1.00000000      1.00000000      1.00000000
      1.00000000      1.00000000      1.00000000      1.00000000      1.00000000      1.00000000      1.00000000      1.00000000</v>
    <i name="NUPDOWN">     -1.00000000</i>
    <i type="logical" name="LSORBIT"> F  </i>
    <v name="SAXIS">      0.00000000      0.00000000      1.00000000</v>
    <i type="logical" name="LSPIRAL"> F  </i>
    <v name="QSPIRAL">      0.00000000      0.00000000      0.00000000</v>
    <i type="logical" name="LZEROZ"> F  </i>
   </separator>
   <separator name="electronic exchange-correlation" >
    <i type="logical" name="LASPH"> F  </i>
    <i type="logical" name="LMETAGGA"> F  </i>
   </separator>
   <separator name="electronic convergence" >
    <i type="int" name="NELM">   100</i>
    <i type="int" name="NELMDL">     0</i>
    <i type="int" name="NELMIN">     4</i>
    <i name="ENINI">    450.00000000</i>
    <separator name="electronic convergence detail" >
     <i type="logical" name="LDIAG"> T  </i>
     <i type="logical" name="LSUBROT"> F  </i>
     <i name="WEIMIN">      0.00100000</i>
     <i name="EBREAK">      0.00000000</i>
     <i name="DEPER">      0.30000000</i>
     <i type="int" name="NRMM">     4</i>
     <i name="TIME">      0.40000000</i>
    </separator>
   </separator>
   <separator name="electronic mixer" >
    <i name="AMIX">      0.40000000</i>
    <i name="BMIX">      1.00000000</i>
    <i name="AMIN">      0.10000000</i>
    <i name="AMIX_MAG">      1.60000000</i>
    <i name="BMIX_MAG">      1.00000000</i>
    <separator name="electronic mixer details" >
     <i type="int" name="IMIX">     4</i>
     <i type="logical" name="MIXFIRST"> F  </i>
     <i type="int" name="MAXMIX">   -45</i>
     <i name="WC">    100.00000000</i>
     <i type="int" name="INIMIX">     1</i>
     <i type="int" name="MIXPRE">     1</i>
     <i type="int" name="MREMOVE">     5</i>
    </separator>
   </separator>
   <separator name="electronic dipolcorrection" >
    <i type="logical" name="LDIPOL"> F  </i>
    <i type="logical" name="LMONO"> F  </i>
    <i type="int" name="IDIPOL">     0</i>
    <i name="EPSILON">      1.00000000</i>
    <v name="DIPOL">   -100.00000000   -100.00000000   -100.00000000</v>
    <i name="EFIELD">      0.00000000</i>
   </separator>
  </separator>
  <separator name="grids" >
   <i type="int" name="NGX">    70</i>
   <i type="int" name="NGY">    60</i>
   <i type="int" name="NGZ">   320</i>
   <i type="int" name="NGXF">   140</i>
   <i type="int" name="NGYF">   120</i>
   <i type="int" name="NGZF">   640</i>
   <i type="logical" name="ADDGRID"> F  </i>
  </separator>
  <separator name="ionic" >
   <i type="int" name="NSW">     5</i>
   <i type="int" name="IBRION">     2</i>
   <i type="int" name="MDALGO">     0</i>
   <i type="int" name="ISIF">     2</i>
   <i name="PSTRESS">      0.00000000</i>
   <i name="EDIFFG">      0.00001000</i>
   <i type="int" name="NFREE">     1</i>
   <i name="POTIM">      0.25000000</i>
   <i name="SMASS">     -3.00000000</i>
   <i name="SCALEE">      1.00000000</i>
  </separator>
  <separator name="ionic md" >
   <i name="TEBEG">      0.00010000</i>
   <i name="TEEND">      0.00010000</i>
   <i type="int" name="NBLOCK">     1</i>
   <i type="int" name="KBLOCK">     5</i>
   <i type="int" name="NPACO">   256</i>
   <i name="APACO">     16.00000000</i>
  </separator>
  <separator name="symmetry" >
   <i type="int" name="ISYM">     2</i>
   <i name="SYMPREC">      0.00001000</i>
  </separator>
  <separator name="dos" >
   <i type="int" name="LORBIT">     0</i>
   <v name="RWIGS">     -1.00000000     -1.00000000</v>
   <i type="int" name="NEDOS">   301</i>
   <i name="EMIN">     10.00000000</i>
   <i name="EMAX">    -10.00000000</i>
   <i name="EFERMI">      0.00000000</i>
  </separator>
  <separator name="writing" >
   <i type="int" name="NWRITE">     2</i>
   <i type="logical" name="LWAVE"> F  </i>
   <i type="logical" name="LDOWNSAMPLE"> F  </i>
   <i type="logical" name="LCHARG"> F  </i>
   <i type="logical" name="LPARD"> F  </i>
   <i type="logical" name="LVTOT"> F  </i>
   <i type="logical" name="LVHAR"> F  </i>
   <i type="logical" name="LELF"> F  </i>
   <i type="logical" name="LOPTICS"> F  </i>
   <v name="STM">      0.00000000      0.00000000      0.00000000      0.00000000      0.00000000      0.00000000      0.00000000</v>
  </separator>
  <separator name="performance" >
   <i type="int" name="NPAR">    14</i>
   <i type="int" name="NSIM">     4</i>
   <i type="int" name="NBLK">    -1</i>
   <i type="logical" name="LPLANE"> T  </i>
   <i type="logical" name="LSCALAPACK"> T  </i>
   <i type="logical" name="LSCAAWARE"> T  </i>
   <i type="logical" name="LSCALU"> F  </i>
   <i type="logical" name="LASYNC"> F  </i>
   <i type="logical" name="LORBITALREAL"> F  </i>
  </separator>
  <separator name="miscellaneous" >
   <i type="int" name="IDIOT">     3</i>
   <i type="int" name="ISPECIAL">     0</i>
   <i type="logical" name="LMUSIC"> F  </i>
   <v name="POMASS">     55.84700000     54.93800000</v>
   <v name="DARWINR">      0.00000000      0.00000000</v>
   <v name="DARWINV">      1.00000000      1.00000000</v>
   <i type="logical" name="LCORR"> T  </i>
  </separator>
  <i type="logical" name="GGA_COMPAT"> T  </i>
  <i type="logical" name="LBERRY"> F  </i>
  <i type="int" name="ICORELEVEL">     0</i>
  <i type="logical" name="LDAU"> F  </i>
  <i type="int" name="I_CONSTRAINED_M">     0</i>
  <separator name="electronic exchange-correlation" >
   <i type="string" name="GGA">--</i>
   <i type="int" name="VOSKOWN">     0</i>
   <i type="logical" name="LHFCALC"> F  </i>
   <i type="string" name="PRECFOCK"></i>
   <i type="logical" name="LSYMGRAD"> F  </i>
   <i type="logical" name="LHFONE"> F  </i>
   <i type="logical" name="LRHFCALC"> F  </i>
   <i type="logical" name="LTHOMAS"> F  </i>
   <i type="logical" name="LMODELHF"> F  </i>
   <i name="ENCUT4O">     -1.00000000</i>
   <i type="int" name="EXXOEP">     0</i>
   <i type="int" name="FOURORBIT">     0</i>
   <i name="AEXX">      0.00000000</i>
   <i name="HFALPHA">      0.00000000</i>
   <i name="MCALPHA">      0.00000000</i>
   <i name="ALDAX">      1.00000000</i>
   <i name="AGGAX">      1.00000000</i>
   <i name="ALDAC">      1.00000000</i>
   <i name="AGGAC">      1.00000000</i>
   <i type="int" name="NKREDX">     1</i>
   <i type="int" name="NKREDY">     1</i>
   <i type="int" name="NKREDZ">     1</i>
   <i type="logical" name="SHIFTRED"> F  </i>
   <i type="logical" name="ODDONLY"> F  </i>
   <i type="logical" name="EVENONLY"> F  </i>
   <i type="int" name="LMAXFOCK">     0</i>
   <i type="int" name="NMAXFOCKAE">     0</i>
   <i type="logical" name="LFOCKAEDFT"> F  </i>
   <i name="HFSCREEN">      0.00000000</i>
   <i name="HFSCREENC">      0.00000000</i>
   <i type="int" name="NBANDSGWLOW">     0</i>
  </separator>
  <separator name="vdW DFT" >
   <i type="logical" name="LUSE_VDW"> F  </i>
   <i name="Zab_VDW">     -0.84910000</i>
   <i name="PARAM1">      0.12340000</i>
   <i name="PARAM2">      1.00000000</i>
   <i name="PARAM3">      0.00000000</i>
  </separator>
  <separator name="model GW" >
   <i type="int" name="MODEL_GW">     0</i>
   <i name="MODEL_EPS0">      7.68123389</i>
   <i name="MODEL_ALPHA">      1.00000000</i>
  </separator>
  <separator name="linear response parameters" >
   <i type="logical" name="LEPSILON"> F  </i>
   <i type="logical" name="LRPA"> F  </i>
   <i type="logical" name="LNABLA"> F  </i>
   <i type="logical" name="LVEL"> F  </i>
   <i type="int" name="KINTER">     0</i>
   <i name="CSHIFT">      0.10000000</i>
   <i name="OMEGAMAX">     -1.00000000</i>
   <i name="DEG_THRESHOLD">      0.00200000</i>
   <i name="RTIME">     -0.10000000</i>
   <i name="WPLASMAI">      0.00000000</i>
   <v name="DFIELD">      0.00000000      0.00000000      0.00000000</v>
   <v name="WPLASMA">      0.00000000      0.00000000      0.00000000      0.00000000      0.00000000      0.00000000      0.00000000      0.00000000      0.00000000</v>
  </separator>
  <separator name="orbital magnetization" >
   <i type="logical" name="NUCIND"> F  </i>
   <v name="MAGPOS">      0.00000000      0.00000000      0.00000000</v>
   <i type="logical" name="LNICSALL"> T  </i>
   <i type="logical" name="ORBITALMAG"> F  </i>
   <i type="logical" name="LMAGBLOCH"> F  </i>
   <i type="logical" name="LCHIMAG"> F  </i>
   <i type="logical" name="LGAUGE"> T  </i>
   <i type="int" name="MAGATOM">     0</i>
   <v name="MAGDIPOL">      0.00000000      0.00000000      0.00000000</v>
   <v name="AVECCONST">      0.00000000      0.00000000      0.00000000</v>
  </separator>
  <separator name="response functions" >
   <i type="logical" name="LADDER"> F  </i>
   <i type="logical" name="LRPAFORCE"> F  </i>
   <i type="logical" name="LFXC"> F  </i>
   <i type="logical" name="LHARTREE"> T  </i>
   <i type="int" name="IBSE">     0</i>
   <v type="int" name="KPOINT">    -1     0     0     0</v>
   <i type="logical" name="LTCTE"> F  </i>
   <i type="logical" name="LTETE"> F  </i>
   <i type="logical" name="LTRIPLET"> F  </i>
   <i type="logical" name="LFXCEPS"> F  </i>
   <i type="logical" name="LFXHEG"> F  </i>
   <i type="int" name="NATURALO">     2</i>
   <i type="logical" name="L2ORDER"> F  </i>
   <i type="logical" name="LMP2LT"> F  </i>
   <i type="logical" name="LUSEW"> F  </i>
   <i name="ENCUTGW">     -2.00000000</i>
   <i name="ENCUTGWSOFT">     -2.00000000</i>
   <i name="ENCUTLF">     -1.00000000</i>
   <i type="int" name="LMAXMP2">    -1</i>
   <i name="SCISSOR">      0.00000000</i>
   <i type="int" name="NOMEGA">     0</i>
   <i type="int" name="NOMEGAR">     0</i>
   <i type="int" name="NBANDSGW">    -1</i>
   <i type="int" name="NBANDSO">    -1</i>
   <i type="int" name="NBANDSV">    -1</i>
   <i type="int" name="NELM">   100</i>
   <i type="int" name="NELMHF">     1</i>
   <i type="int" name="DIM">     3</i>
   <i type="int" name="ANTIRES">     0</i>
   <i name="OMEGAMAX">    -30.00000000</i>
   <i name="OMEGAMIN">    -30.00000000</i>
   <i name="OMEGATL">   -200.00000000</i>
   <i type="int" name="OMEGAGRID">   140</i>
   <i name="CSHIFT">     -0.10000000</i>
   <i type="logical" name="SELFENERGY"> F  </i>
   <i type="logical" name="LSPECTRAL"> F  </i>
   <i type="logical" name="LSPECTRALGW"> F  </i>
   <i type="logical" name="LSINGLES"> F  </i>
   <i type="logical" name="LFERMIGW"> F  </i>
   <i type="logical" name="ODDONLYGW"> F  </i>
   <i type="logical" name="EVENONLYGW"> F  </i>
   <i type="int" name="NKREDLFX">     1</i>
   <i type="int" name="NKREDLFY">     1</i>
   <i type="int" name="NKREDLFZ">     1</i>
   <i type="int" name="MAXMEM">  2800</i>
   <i type="int" name="TELESCOPE">     0</i>
   <i type="int" name="TAUPAR">     1</i>
   <i type="int" name="OMEGAPAR">    -1</i>
   <i name="LAMBDA">      1.00000000</i>
  </separator>
  <separator name="External order field" >
   <i name="OFIELD_KAPPA">      0.00000000</i>
   <v name="OFIELD_K">      0.00000000      0.00000000      0.00000000</v>
   <i name="OFIELD_Q6_NEAR">      0.00000000</i>
   <i name="OFIELD_Q6_FAR">      0.00000000</i>
   <i name="OFIELD_A">      0.00000000</i>
  </separator>
 </parameters>
 <atominfo>
  <atoms>     288 </atoms>
  <types>       2 </types>
  <array name="atoms" >
   <dimension dim="1">ion</dimension>
   <field type="string">element</field>
   <field type="int">atomtype</field>
   <set>
    <rc><c>Fe</c><c>   1</c></rc>
    <rc><c>Fe</c><c>   1</c></rc>
    <rc><c>Fe</c><c>   1</c></rc>
    <rc><c>Fe</c><c>   1</c></rc>
    <rc><c>Fe</c><c>   1</c></rc>
    <rc><c>Fe</c><c>   1</c></rc>
    <rc><c>Fe</c><c>   1</c></rc>
    <rc><c>Fe</c><c>   1</c></rc>
    <rc><c>Fe</c><c>   1</c></rc>
    <rc><c>Fe</c><c>   1</c></rc>
    <rc><c>Fe</c><c>   1</c></rc>
    <rc><c>Fe</c><c>   1</c></rc>
    <rc><c>Fe</c><c>   1</c></rc>
    <rc><c>Fe</c><c>   1</c></rc>
    <rc><c>Fe</c><c>   1</c></rc>
    <rc><c>Fe</c><c>   1</c></rc>
    <rc><c>Fe</c><c>   1</c></rc>
    <rc><c>Fe</c><c>   1</c></rc>
    <rc><c>Fe</c><c>   1</c></rc>
    <rc><c>Fe</c><c>   1</c></rc>
    <rc><c>Fe</c><c>   1</c></rc>
    <rc><c>Fe</c><c>   1</c></rc>
    <rc><c>Fe</c><c>   1</c></rc>
    <rc><c>Fe</c><c>   1</c></rc>
    <rc><c>Fe</c><c>   1</c></rc>
    <rc><c>Fe</c><c>   1</c></rc>
    <rc><c>Fe</c><c>   1</c></rc>
    <rc><c>Fe</c><c>   1</c></rc>
    <rc><c>Fe</c><c>   1</c></rc>
    <rc><c>Fe</c><c>   1</c></rc>
    <rc><c>Fe</c><c>   1</c></rc>
    <rc><c>Fe</c><c>   1</c></rc>
    <rc><c>Fe</c><c>   1</c></rc>
    <rc><c>Fe</c><c>   1</c></rc>
    <rc><c>Fe</c><c>   1</c></rc>
    <rc><c>Fe</c><c>   1</c></rc>
    <rc><c>Fe</c><c>   1</c></rc>
    <rc><c>Fe</c><c>   1</c></rc>
    <rc><c>Fe</c><c>   1</c></rc>
    <rc><c>Fe</c><c>   1</c></rc>
    <rc><c>Fe</c><c>   1</c></rc>
    <rc><c>Fe</c><c>   1</c></rc>
    <rc><c>Fe</c><c>   1</c></rc>
    <rc><c>Fe</c><c>   1</c></rc>
    <rc><c>Fe</c><c>   1</c></rc>
    <rc><c>Fe</c><c>   1</c></rc>
    <rc><c>Fe</c><c>   1</c></rc>
    <rc><c>Fe</c><c>   1</c></rc>
    <rc><c>Fe</c><c>   1</c></rc>
    <rc><c>Fe</c><c>   1</c></rc>
    <rc><c>Fe</c><c>   1</c></rc>
    <rc><c>Fe</c><c>   1</c></rc>
    <rc><c>Fe</c><c>   1</c></rc>
    <rc><c>Fe</c><c>   1</c></rc>
    <rc><c>Fe</c><c>   1</c></rc>
    <rc><c>Fe</c><c>   1</c></rc>
    <rc><c>Fe</c><c>   1</c></rc>
    <rc><c>Fe</c><c>   1</c></rc>
    <rc><c>Fe</c><c>   1</c></rc>
    <rc><c>Fe</c><c>   1</c></rc>
    <rc><c>Fe</c><c>   1</c></rc>
    <rc><c>Fe</c><c>   1</c></rc>
    <rc><c>Fe</c><c>   1</c></rc>
    <rc><c>Fe</c><c>   1</c></rc>
    <rc><c>Fe</c><c>   1</c></rc>
    <rc><c>Fe</c><c>   1</c></rc>
    <rc><c>Fe</c><c>   1</c></rc>
    <rc><c>Fe</c><c>   1</c></rc>
    <rc><c>Fe</c><c>   1</c></rc>
    <rc><c>Fe</c><c>   1</c></rc>
    <rc><c>Fe</c><c>   1</c></rc>
    <rc><c>Fe</c><c>   1</c></rc>
    <rc><c>Fe</c><c>   1</c></rc>
    <rc><c>Fe</c><c>   1</c></rc>
    <rc><c>Fe</c><c>   1</c></rc>
    <rc><c>Fe</c><c>   1</c></rc>
    <rc><c>Fe</c><c>   1</c></rc>
    <rc><c>Fe</c><c>   1</c></rc>
    <rc><c>Fe</c><c>   1</c></rc>
    <rc><c>Fe</c><c>   1</c></rc>
    <rc><c>Fe</c><c>   1</c></rc>
    <rc><c>Fe</c><c>   1</c></rc>
    <rc><c>Fe</c><c>   1</c></rc>
    <rc><c>Fe</c><c>   1</c></rc>
    <rc><c>Fe</c><c>   1</c></rc>
    <rc><c>Fe</c><c>   1</c></rc>
    <rc><c>Fe</c><c>   1</c></rc>
    <rc><c>Fe</c><c>   1</c></rc>
    <rc><c>Fe</c><c>   1</c></rc>
    <rc><c>Fe</c><c>   1</c></rc>
    <rc><c>Fe</c><c>   1</c></rc>
    <rc><c>Fe</c><c>   1</c></rc>
    <rc><c>Fe</c><c>   1</c></rc>
    <rc><c>Fe</c><c>   1</c></rc>
    <rc><c>Fe</c><c>   1</c></rc>
    <rc><c>Fe</c><c>   1</c></rc>
    <rc><c>Fe</c><c>   1</c></rc>
    <rc><c>Fe</c><c>   1</c></rc>
    <rc><c>Fe</c><c>   1</c></rc>
    <rc><c>Fe</c><c>   1</c></rc>
    <rc><c>Fe</c><c>   1</c></rc>
    <rc><c>Fe</c><c>   1</c></rc>
    <rc><c>Fe</c><c>   1</c></rc>
    <rc><c>Fe</c><c>   1</c></rc>
    <rc><c>Fe</c><c>   1</c></rc>
    <rc><c>Fe</c><c>   1</c></rc>
    <rc><c>Fe</c><c>   1</c></rc>
    <rc><c>Fe</c><c>   1</c></rc>
    <rc><c>Fe</c><c>   1</c></rc>
    <rc><c>Fe</c><c>   1</c></rc>
    <rc><c>Fe</c><c>   1</c></rc>
    <rc><c>Fe</c><c>   1</c></rc>
    <rc><c>Fe</c><c>   1</c></rc>
    <rc><c>Fe</c><c>   1</c></rc>
    <rc><c>Fe</c><c>   1</c></rc>
    <rc><c>Fe</c><c>   1</c></rc>
    <rc><c>Fe</c><c>   1</c></rc>
    <rc><c>Fe</c><c>   1</c></rc>
    <rc><c>Fe</c><c>   1</c></rc>
    <rc><c>Fe</c><c>   1</c></rc>
    <rc><c>Fe</c><c>   1</c></rc>
    <rc><c>Fe</c><c>   1</c></rc>
    <rc><c>Fe</c><c>   1</c></rc>
    <rc><c>Fe</c><c>   1</c></rc>
    <rc><c>Fe</c><c>   1</c></rc>
    <rc><c>Fe</c><c>   1</c></rc>
    <rc><c>Fe</c><c>   1</c></rc>
    <rc><c>Fe</c><c>   1</c></rc>
    <rc><c>Fe</c><c>   1</c></rc>
    <rc><c>Fe</c><c>   1</c></rc>
    <rc><c>Fe</c><c>   1</c></rc>
    <rc><c>Fe</c><c>   1</c></rc>
    <rc><c>Fe</c><c>   1</c></rc>
    <rc><c>Fe</c><c>   1</c></rc>
    <rc><c>Fe</c><c>   1</c></rc>
    <rc><c>Fe</c><c>   1</c></rc>
    <rc><c>Fe</c><c>   1</c></rc>
    <rc><c>Fe</c><c>   1</c></rc>
    <rc><c>Fe</c><c>   1</c></rc>
    <rc><c>Fe</c><c>   1</c></rc>
    <rc><c>Fe</c><c>   1</c></rc>
    <rc><c>Fe</c><c>   1</c></rc>
    <rc><c>Fe</c><c>   1</c></rc>
    <rc><c>Fe</c><c>   1</c></rc>
    <rc><c>Fe</c><c>   1</c></rc>
    <rc><c>Fe</c><c>   1</c></rc>
    <rc><c>Fe</c><c>   1</c></rc>
    <rc><c>Fe</c><c>   1</c></rc>
    <rc><c>Fe</c><c>   1</c></rc>
    <rc><c>Fe</c><c>   1</c></rc>
    <rc><c>Fe</c><c>   1</c></rc>
    <rc><c>Fe</c><c>   1</c></rc>
    <rc><c>Fe</c><c>   1</c></rc>
    <rc><c>Fe</c><c>   1</c></rc>
    <rc><c>Fe</c><c>   1</c></rc>
    <rc><c>Fe</c><c>   1</c></rc>
    <rc><c>Fe</c><c>   1</c></rc>
    <rc><c>Fe</c><c>   1</c></rc>
    <rc><c>Fe</c><c>   1</c></rc>
    <rc><c>Fe</c><c>   1</c></rc>
    <rc><c>Fe</c><c>   1</c></rc>
    <rc><c>Fe</c><c>   1</c></rc>
    <rc><c>Fe</c><c>   1</c></rc>
    <rc><c>Fe</c><c>   1</c></rc>
    <rc><c>Fe</c><c>   1</c></rc>
    <rc><c>Fe</c><c>   1</c></rc>
    <rc><c>Fe</c><c>   1</c></rc>
    <rc><c>Fe</c><c>   1</c></rc>
    <rc><c>Fe</c><c>   1</c></rc>
    <rc><c>Fe</c><c>   1</c></rc>
    <rc><c>Fe</c><c>   1</c></rc>
    <rc><c>Fe</c><c>   1</c></rc>
    <rc><c>Fe</c><c>   1</c></rc>
    <rc><c>Fe</c><c>   1</c></rc>
    <rc><c>Fe</c><c>   1</c></rc>
    <rc><c>Fe</c><c>   1</c></rc>
    <rc><c>Fe</c><c>   1</c></rc>
    <rc><c>Fe</c><c>   1</c></rc>
    <rc><c>Fe</c><c>   1</c></rc>
    <rc><c>Fe</c><c>   1</c></rc>
    <rc><c>Fe</c><c>   1</c></rc>
    <rc><c>Fe</c><c>   1</c></rc>
    <rc><c>Fe</c><c>   1</c></rc>
    <rc><c>Fe</c><c>   1</c></rc>
    <rc><c>Fe</c><c>   1</c></rc>
    <rc><c>Fe</c><c>   1</c></rc>
    <rc><c>Fe</c><c>   1</c></rc>
    <rc><c>Fe</c><c>   1</c></rc>
    <rc><c>Fe</c><c>   1</c></rc>
    <rc><c>Fe</c><c>   1</c></rc>
    <rc><c>Fe</c><c>   1</c></rc>
    <rc><c>Fe</c><c>   1</c></rc>
    <rc><c>Fe</c><c>   1</c></rc>
    <rc><c>Fe</c><c>   1</c></rc>
    <rc><c>Fe</c><c>   1</c></rc>
    <rc><c>Fe</c><c>   1</c></rc>
    <rc><c>Fe</c><c>   1</c></rc>
    <rc><c>Fe</c><c>   1</c></rc>
    <rc><c>Fe</c><c>   1</c></rc>
    <rc><c>Fe</c><c>   1</c></rc>
    <rc><c>Fe</c><c>   1</c></rc>
    <rc><c>Fe</c><c>   1</c></rc>
    <rc><c>Fe</c><c>   1</c></rc>
    <rc><c>Fe</c><c>   1</c></rc>
    <rc><c>Fe</c><c>   1</c></rc>
    <rc><c>Fe</c><c>   1</c></rc>
    <rc><c>Fe</c><c>   1</c></rc>
    <rc><c>Fe</c><c>   1</c></rc>
    <rc><c>Fe</c><c>   1</c></rc>
    <rc><c>Fe</c><c>   1</c></rc>
    <rc><c>Fe</c><c>   1</c></rc>
    <rc><c>Fe</c><c>   1</c></rc>
    <rc><c>Fe</c><c>   1</c></rc>
    <rc><c>Fe</c><c>   1</c></rc>
    <rc><c>Fe</c><c>   1</c></rc>
    <rc><c>Fe</c><c>   1</c></rc>
    <rc><c>Fe</c><c>   1</c></rc>
    <rc><c>Fe</c><c>   1</c></rc>
    <rc><c>Fe</c><c>   1</c></rc>
    <rc><c>Fe</c><c>   1</c></rc>
    <rc><c>Fe</c><c>   1</c></rc>
    <rc><c>Fe</c><c>   1</c></rc>
    <rc><c>Fe</c><c>   1</c></rc>
    <rc><c>Fe</c><c>   1</c></rc>
    <rc><c>Fe</c><c>   1</c></rc>
    <rc><c>Fe</c><c>   1</c></rc>
    <rc><c>Fe</c><c>   1</c></rc>
    <rc><c>Fe</c><c>   1</c></rc>
    <rc><c>Fe</c><c>   1</c></rc>
    <rc><c>Fe</c><c>   1</c></rc>
    <rc><c>Fe</c><c>   1</c></rc>
    <rc><c>Fe</c><c>   1</c></rc>
    <rc><c>Fe</c><c>   1</c></rc>
    <rc><c>Fe</c><c>   1</c></rc>
    <rc><c>Fe</c><c>   1</c></rc>
    <rc><c>Fe</c><c>   1</c></rc>
    <rc><c>Fe</c><c>   1</c></rc>
    <rc><c>Fe</c><c>   1</c></rc>
    <rc><c>Fe</c><c>   1</c></rc>
    <rc><c>Fe</c><c>   1</c></rc>
    <rc><c>Fe</c><c>   1</c></rc>
    <rc><c>Fe</c><c>   1</c></rc>
    <rc><c>Fe</c><c>   1</c></rc>
    <rc><c>Fe</c><c>   1</c></rc>
    <rc><c>Fe</c><c>   1</c></rc>
    <rc><c>Fe</c><c>   1</c></rc>
    <rc><c>Fe</c><c>   1</c></rc>
    <rc><c>Fe</c><c>   1</c></rc>
    <rc><c>Fe</c><c>   1</c></rc>
    <rc><c>Fe</c><c>   1</c></rc>
    <rc><c>Fe</c><c>   1</c></rc>
    <rc><c>Fe</c><c>   1</c></rc>
    <rc><c>Fe</c><c>   1</c></rc>
    <rc><c>Fe</c><c>   1</c></rc>
    <rc><c>Fe</c><c>   1</c></rc>
    <rc><c>Fe</c><c>   1</c></rc>
    <rc><c>Fe</c><c>   1</c></rc>
    <rc><c>Fe</c><c>   1</c></rc>
    <rc><c>Fe</c><c>   1</c></rc>
    <rc><c>Fe</c><c>   1</c></rc>
    <rc><c>Fe</c><c>   1</c></rc>
    <rc><c>Fe</c><c>   1</c></rc>
    <rc><c>Fe</c><c>   1</c></rc>
    <rc><c>Fe</c><c>   1</c></rc>
    <rc><c>Fe</c><c>   1</c></rc>
    <rc><c>Fe</c><c>   1</c></rc>
    <rc><c>Fe</c><c>   1</c></rc>
    <rc><c>Fe</c><c>   1</c></rc>
    <rc><c>Fe</c><c>   1</c></rc>
    <rc><c>Fe</c><c>   1</c></rc>
    <rc><c>Fe</c><c>   1</c></rc>
    <rc><c>Fe</c><c>   1</c></rc>
    <rc><c>Fe</c><c>   1</c></rc>
    <rc><c>Fe</c><c>   1</c></rc>
    <rc><c>Mn</c><c>   2</c></rc>
    <rc><c>Mn</c><c>   2</c></rc>
    <rc><c>Mn</c><c>   2</c></rc>
    <rc><c>Mn</c><c>   2</c></rc>
    <rc><c>Mn</c><c>   2</c></rc>
    <rc><c>Mn</c><c>   2</c></rc>
    <rc><c>Mn</c><c>   2</c></rc>
    <rc><c>Mn</c><c>   2</c></rc>
    <rc><c>Mn</c><c>   2</c></rc>
    <rc><c>Mn</c><c>   2</c></rc>
    <rc><c>Mn</c><c>   2</c></rc>
    <rc><c>Mn</c><c>   2</c></rc>
    <rc><c>Mn</c><c>   2</c></rc>
    <rc><c>Mn</c><c>   2</c></rc>
   </set>
  </array>
  <array name="atomtypes" >
   <dimension dim="1">type</dimension>
   <field type="int">atomspertype</field>
   <field type="string">element</field>
   <field>mass</field>
   <field>valence</field>
   <field type="string">pseudopotential</field>
   <set>
    <rc><c> 274</c><c>Fe</c><c>     55.84700000</c><c>      8.00000000</c><c>  PAW_PBE Fe_GW 31Mar2010               </c></rc>
    <rc><c>  14</c><c>Mn</c><c>     54.93800000</c><c>      7.00000000</c><c>  PAW_PBE Mn_GW 31Mar2010               </c></rc>
   </set>
  </array>
 </atominfo>
 <structure name="initialpos" >
  <crystal>
   <varray name="basis" >
    <v>       9.72667804       0.00000000       0.00000000 </v>
    <v>       0.00000000       8.42355028       0.00000000 </v>
    <v>       0.00000000       0.00000000      45.00000000 </v>
   </varray>
   <i name="volume">   3686.99226691 </i>
   <varray name="rec_basis" >
    <v>       0.10281002       0.00000000       0.00000000 </v>
    <v>       0.00000000       0.11871479       0.00000000 </v>
    <v>       0.00000000       0.00000000       0.02222222 </v>
   </varray>
  </crystal>
  <varray name="positions" >
   <v>       0.06238842       0.02877117       0.12423601 </v>
   <v>       0.31626094       0.87462593       0.65498924 </v>
   <v>       0.18372138       0.12351833       0.78880886 </v>
   <v>       0.44127389       0.28753798       0.38905483 </v>
   <v>       0.31806686       0.71370736       0.83322239 </v>
   <v>       0.81777862       0.21495832       0.83371809 </v>
   <v>       0.19156459       0.96332299       0.83362438 </v>
   <v>       0.56228935       0.20714146       0.56547906 </v>
   <v>       0.06575613       0.04017077       0.74433572 </v>
   <v>       0.81159993       0.87124923       0.52130518 </v>
   <v>       0.19045860       0.29105164       0.74441117 </v>
   <v>       0.93363774       0.45245915       0.34488902 </v>
   <v>       0.94097647       0.28657537       0.38890882 </v>
   <v>       0.81246419       0.04058363       0.87579446 </v>
   <v>       0.18364113       0.78798194       0.61090076 </v>
   <v>       0.56642462       0.03811906       0.38901875 </v>
   <v>       0.94219534       0.96440083       0.83405037 </v>
   <v>       0.31392991       0.54056581       0.87615297 </v>
   <v>       0.69014501       0.29103891       0.74438964 </v>
   <v>       0.18282368       0.61427109       0.16640167 </v>
   <v>       0.81190686       0.20556668       0.47852964 </v>
   <v>       0.80863446       0.53786208       0.61095759 </v>
   <v>       0.31170701       0.87027105       0.43435667 </v>
   <v>       0.80986308       0.03803751       0.25588671 </v>
   <v>       0.68347161       0.95170804       0.34473990 </v>
   <v>       0.93093288       0.11474759       0.16687486 </v>
   <v>       0.06170557       0.87112331       0.52126570 </v>
   <v>       0.55880958       0.53844447       0.25569729 </v>
   <v>       0.68490719       0.79776001       0.87606007 </v>
   <v>       0.55682062       0.36474993       0.16644659 </v>
   <v>       0.43954195       0.79170034       0.74448891 </v>
   <v>       0.81151975       0.70674193       0.56550058 </v>
   <v>       0.55888426       0.87387573       0.78877058 </v>
   <v>       0.68674239       0.12137408       0.52134676 </v>
   <v>       0.81633551       0.37451432       0.65504967 </v>
   <v>       0.94236051       0.46391541       0.83392872 </v>
   <v>       0.06059977       0.20729854       0.69975624 </v>
   <v>       0.43545938       0.95738940       0.69980314 </v>
   <v>       0.31711456       0.21317442       0.83347912 </v>
   <v>       0.44138280       0.62467201       0.65495565 </v>
   <v>       0.30874752       0.53777743       0.61087966 </v>
   <v>       0.93674279       0.45691612       0.56554407 </v>
   <v>       0.69002893       0.79156625       0.74442534 </v>
   <v>       0.93483841       0.78926997       0.12418633 </v>
   <v>       0.69187894       0.78795401       0.38894487 </v>
   <v>       0.94009032       0.79089667       0.74462856 </v>
   <v>       0.05868641       0.20246055       0.34489482 </v>
   <v>       0.68380526       0.45230605       0.34492192 </v>
   <v>       0.43388118       0.12298970       0.78907678 </v>
   <v>       0.06553629       0.20615336       0.21117595 </v>
   <v>       0.05541203       0.36592760       0.16665042 </v>
   <v>       0.93362742       0.78733484       0.25560088 </v>
   <v>       0.56059289       0.20701041       0.69984234 </v>
   <v>       0.68508668       0.95712933       0.69982462 </v>
   <v>       0.80879217       0.87432713       0.78856145 </v>
   <v>       0.43709803       0.95762537       0.56530363 </v>
   <v>       0.80898700       0.37515076       0.78864977 </v>
   <v>       0.68454543       0.28804150       0.25608944 </v>
   <v>       0.18716052       0.45698844       0.56547445 </v>
   <v>       0.05551568       0.86536370       0.16656616 </v>
   <v>       0.18400785       0.28831021       0.61086836 </v>
   <v>       0.06220503       0.20719922       0.56540678 </v>
   <v>       0.31034279       0.20724098       0.69990530 </v>
   <v>       0.56289379       0.54064257       0.87602853 </v>
   <v>       0.06211964       0.70687072       0.56549267 </v>
   <v>       0.68319190       0.62331235       0.78877582 </v>
   <v>       0.31577642       0.53832338       0.38886528 </v>
   <v>       0.18667715       0.62115735       0.52122153 </v>
   <v>       0.56276851       0.87164304       0.43434803 </v>
   <v>       0.43719451       0.45686426       0.56547314 </v>
   <v>       0.43974946       0.29176628       0.74441153 </v>
   <v>       0.82087456       0.87307603       0.30022769 </v>
   <v>       0.80906079       0.70278385       0.34500070 </v>
   <v>       0.44216091       0.46282787       0.83337683 </v>
   <v>       0.68735583       0.95556305       0.47868204 </v>
   <v>       0.68451839       0.45704682       0.69981373 </v>
   <v>       0.56178140       0.87154833       0.52136989 </v>
   <v>       0.56622044       0.37436403       0.65501076 </v>
   <v>       0.81621440       0.87476138       0.65505794 </v>
   <v>       0.81121604       0.37188441       0.43404701 </v>
   <v>       0.80886246       0.53791723       0.25607145 </v>
   <v>       0.69218211       0.46190190       0.83343516 </v>
   <v>       0.18550867       0.78759790       0.12412304 </v>
   <v>       0.69115156       0.28780222       0.38891983 </v>
   <v>       0.31611171       0.37400229       0.65499685 </v>
   <v>       0.30895447       0.20274178       0.34468520 </v>
   <v>       0.81570418       0.54046865       0.74441109 </v>
   <v>       0.69154962       0.96232082       0.83347023 </v>
   <v>       0.56628565       0.87396719       0.65503077 </v>
   <v>       0.31162531       0.70735140       0.56542504 </v>
   <v>       0.31126117       0.53032710       0.12396013 </v>
   <v>       0.69014371       0.95441065       0.21178529 </v>
   <v>       0.31143517       0.20661761       0.56548365 </v>
   <v>       0.18720290       0.95591999       0.47863863 </v>
   <v>       0.68706902       0.95694562       0.56541213 </v>
   <v>       0.43364457       0.78828940       0.61085383 </v>
   <v>       0.68194702       0.61324925       0.16622925 </v>
   <v>       0.31977204       0.87311708       0.30019202 </v>
   <v>       0.31202671       0.70557696       0.47855465 </v>
   <v>       0.93364205       0.28792705       0.61084777 </v>
   <v>       0.44588484       0.62361372       0.30021938 </v>
   <v>       0.80830099       0.86399930       0.16686034 </v>
   <v>       0.56678092       0.20337167       0.21158676 </v>
   <v>       0.93279489       0.61280917       0.16675043 </v>
   <v>       0.43712991       0.95588493       0.47861883 </v>
   <v>       0.55890763       0.37350090       0.78883079 </v>
   <v>       0.06124046       0.37157349       0.52129420 </v>
   <v>       0.30698680       0.36381820       0.16661424 </v>
   <v>       0.69546400       0.12307698       0.30028216 </v>
   <v>       0.44278927       0.96295512       0.83335581 </v>
   <v>       0.18488059       0.28705642       0.12412677 </v>
   <v>       0.18452472       0.28858493       0.25593084 </v>
   <v>       0.31176929       0.37108339       0.43431588 </v>
   <v>       0.56120326       0.03332415       0.12441117 </v>
   <v>       0.43382284       0.28839038       0.61087488 </v>
   <v>       0.18392086       0.45275444       0.34500231 </v>
   <v>       0.43497163       0.28643277       0.12420566 </v>
   <v>       0.68354572       0.78786358       0.25586415 </v>
   <v>       0.43656727       0.12138788       0.52133866 </v>
   <v>       0.18872794       0.29665054       0.87628832 </v>
   <v>       0.19124112       0.12496376       0.65507524 </v>
   <v>       0.94125076       0.12469063       0.65497628 </v>
   <v>       0.81621567       0.53771376       0.38886929 </v>
   <v>       0.06629608       0.03807157       0.38909230 </v>
   <v>       0.18294086       0.11179896       0.16671310 </v>
   <v>       0.05869894       0.53775652       0.61093811 </v>
   <v>       0.93444335       0.28794434       0.25610916 </v>
   <v>       0.55863848       0.53803640       0.61087366 </v>
   <v>       0.93691531       0.95714018       0.56544945 </v>
   <v>       0.69494447       0.62472435       0.30001853 </v>
   <v>       0.93695402       0.62085773       0.43436510 </v>
   <v>       0.93317197       0.62484269       0.78860857 </v>
   <v>       0.56031759       0.70691002       0.69975818 </v>
   <v>       0.06630706       0.71693466       0.83408682 </v>
   <v>       0.94588524       0.12301083       0.30011876 </v>
   <v>       0.93366990       0.78751073       0.61093036 </v>
   <v>       0.43388428       0.78844694       0.25583802 </v>
   <v>       0.30893981       0.37414467       0.78879711 </v>
   <v>       0.43996540       0.45239957       0.21150986 </v>
   <v>       0.18656383       0.12126984       0.52129025 </v>
   <v>       0.81025989       0.70703873       0.69978969 </v>
   <v>       0.05865473       0.03780807       0.61087696 </v>
   <v>       0.56615157       0.21379794       0.83331205 </v>
   <v>       0.31148088       0.87159342       0.52139650 </v>
   <v>       0.68674974       0.28738714       0.12386569 </v>
   <v>       0.18990744       0.95484064       0.21173156 </v>
   <v>       0.68368681       0.28856566       0.61095744 </v>
   <v>       0.30884150       0.03810689       0.61100583 </v>
   <v>       0.93413462       0.12484011       0.78874117 </v>
   <v>       0.43636557       0.79744992       0.87627652 </v>
   <v>       0.81575125       0.04050331       0.74439546 </v>
   <v>       0.93514637       0.45791711       0.69971778 </v>
   <v>       0.19109653       0.62485674       0.65506079 </v>
   <v>       0.31029931       0.70662681       0.69979486 </v>
   <v>       0.93433263       0.28687231       0.12397853 </v>
   <v>       0.43711665       0.45538550       0.47836536 </v>
   <v>       0.06201152       0.70547375       0.47842055 </v>
   <v>       0.93684978       0.12048189       0.43447504 </v>
   <v>       0.44473733       0.12367809       0.30044009 </v>
   <v>       0.18670022       0.12126435       0.43417744 </v>
   <v>       0.56297209       0.04056974       0.87610945 </v>
   <v>       0.18671138       0.95719489       0.56544848 </v>
   <v>       0.68463816       0.78722837       0.12447332 </v>
   <v>       0.55896562       0.70236447       0.34489736 </v>
   <v>       0.31630141       0.03712337       0.38885657 </v>
   <v>       0.68337618       0.11404903       0.16709932 </v>
   <v>       0.81473049       0.20422403       0.21124210 </v>
   <v>       0.06010452       0.53751308       0.25590005 </v>
   <v>       0.56210792       0.70557005       0.47847605 </v>
   <v>       0.06313794       0.87116678       0.43427180 </v>
   <v>       0.57021003       0.37194607       0.30025679 </v>
   <v>       0.43355879       0.95257075       0.34495801 </v>
   <v>       0.18519323       0.95728551       0.69989252 </v>
   <v>       0.43151282       0.61304085       0.16591603 </v>
   <v>       0.93992544       0.45342861       0.21158010 </v>
   <v>       0.06155497       0.52857753       0.12374386 </v>
   <v>       0.81159854       0.37120184       0.52127645 </v>
   <v>       0.94475069       0.62302821       0.29985889 </v>
   <v>       0.30990456       0.03775499       0.25548540 </v>
   <v>       0.68359978       0.78800611       0.61091399 </v>
   <v>       0.19184036       0.46327604       0.83356417 </v>
   <v>       0.43320399       0.11115454       0.16635849 </v>
   <v>       0.31142014       0.37140725       0.52131593 </v>
   <v>       0.43318170       0.62306809       0.78901538 </v>
   <v>       0.05896296       0.03736921       0.25578977 </v>
   <v>       0.56220583       0.70726791       0.56547519 </v>
   <v>       0.93921491       0.29032998       0.74456249 </v>
   <v>       0.68265707       0.12309072       0.78873342 </v>
   <v>       0.19017449       0.45227322       0.21106347 </v>
   <v>       0.94139018       0.78739004       0.38870680 </v>
   <v>       0.68604086       0.29885896       0.87611018 </v>
   <v>       0.55637154       0.86219687       0.16599789 </v>
   <v>       0.43527814       0.45736131       0.69978073 </v>
   <v>       0.93405890       0.95144140       0.34476112 </v>
   <v>       0.68659775       0.62124550       0.52118051 </v>
   <v>       0.06614980       0.87448487       0.65493321 </v>
   <v>       0.05916369       0.87444670       0.78862003 </v>
   <v>       0.06602337       0.37442408       0.65507537 </v>
   <v>       0.68671604       0.45520290       0.47845099 </v>
   <v>       0.18346447       0.78742140       0.25563450 </v>
   <v>       0.43713844       0.12174636       0.43415189 </v>
   <v>       0.81486086       0.03070267       0.12406584 </v>
   <v>       0.93666491       0.62111325       0.52126307 </v>
   <v>       0.44120626       0.12459195       0.65492361 </v>
   <v>       0.81275185       0.52818884       0.12389724 </v>
   <v>       0.43354475       0.45252896       0.34498176 </v>
   <v>       0.80896647       0.20218732       0.34485654 </v>
   <v>       0.30867773       0.70191403       0.34482131 </v>
   <v>       0.69117647       0.12474095       0.65501932 </v>
   <v>       0.57045657       0.87296533       0.30024376 </v>
   <v>       0.06529560       0.54078417       0.74441335 </v>
   <v>       0.94043473       0.95313462       0.21130091 </v>
   <v>       0.81684695       0.70455708       0.21147614 </v>
   <v>       0.07055696       0.87331026       0.30022909 </v>
   <v>       0.19540397       0.12348538       0.30020713 </v>
   <v>       0.05871871       0.70225892       0.34482083 </v>
   <v>       0.80880403       0.03786797       0.61095310 </v>
   <v>       0.06246216       0.37187031       0.43417556 </v>
   <v>       0.55873065       0.20262206       0.34469016 </v>
   <v>       0.82097648       0.37337489       0.30012418 </v>
   <v>       0.55992841       0.03782271       0.25543004 </v>
   <v>       0.56641901       0.53780022       0.38900685 </v>
   <v>       0.06239087       0.20589563       0.47852409 </v>
   <v>       0.31041526       0.87286067       0.78856255 </v>
   <v>       0.93538269       0.95774497       0.69970985 </v>
   <v>       0.07022190       0.37339314       0.30003880 </v>
   <v>       0.69125499       0.62481938       0.65519950 </v>
   <v>       0.68684773       0.45729041       0.56530510 </v>
   <v>       0.44050475       0.95439746       0.21192827 </v>
   <v>       0.31206785       0.20573692       0.47862858 </v>
   <v>       0.81261661       0.54014063       0.87588957 </v>
   <v>       0.68756082       0.62127259       0.43438244 </v>
   <v>       0.81060432       0.20751294       0.69987753 </v>
   <v>       0.81221599       0.70543512       0.47845704 </v>
   <v>       0.81118068       0.87100129       0.43412843 </v>
   <v>       0.93695288       0.95479011       0.47857655 </v>
   <v>       0.56211911       0.20569351       0.47860374 </v>
   <v>       0.18719567       0.62102046       0.43436740 </v>
   <v>       0.31527087       0.04173346       0.74422039 </v>
   <v>       0.94148766       0.62509728       0.65496237 </v>
   <v>       0.56626799       0.71329800       0.83339125 </v>
   <v>       0.32048825       0.37260386       0.30007549 </v>
   <v>       0.31532689       0.54131441       0.74440283 </v>
   <v>       0.18704363       0.45550386       0.47856989 </v>
   <v>       0.31455451       0.04130637       0.87599031 </v>
   <v>       0.18509221       0.45772658       0.69973947 </v>
   <v>       0.56153864       0.37132301       0.52130375 </v>
   <v>       0.19133428       0.28778929       0.38885658 </v>
   <v>       0.31513962       0.20527405       0.21147517 </v>
   <v>       0.06731747       0.70585594       0.21148494 </v>
   <v>       0.56166564       0.37094412       0.43427680 </v>
   <v>       0.43648037       0.62158943       0.52126507 </v>
   <v>       0.81692556       0.71512690       0.83349091 </v>
   <v>       0.05913174       0.37503481       0.78858272 </v>
   <v>       0.43687134       0.29864429       0.87645931 </v>
   <v>       0.31227640       0.03104468       0.12423774 </v>
   <v>       0.68674484       0.12042531       0.43424465 </v>
   <v>       0.18360531       0.95221143       0.34497293 </v>
   <v>       0.06698304       0.21524953       0.83408003 </v>
   <v>       0.55912618       0.03846911       0.61105760 </v>
   <v>       0.68881030       0.45278148       0.21174276 </v>
   <v>       0.18949045       0.79134799       0.74453600 </v>
   <v>       0.19558002       0.62315960       0.30016907 </v>
   <v>       0.44141747       0.78774995       0.38906730 </v>
   <v>       0.43394778       0.28844486       0.25585953 </v>
   <v>       0.06398610       0.54048954       0.87602411 </v>
   <v>       0.56555612       0.04117672       0.74439056 </v>
   <v>       0.18770511       0.79733945       0.87621392 </v>
   <v>       0.93702545       0.45507476       0.47842807 </v>
   <v>       0.56527850       0.54131655       0.74425394 </v>
   <v>       0.81153041       0.20738152       0.56538998 </v>
   <v>       0.18479788       0.62263364       0.78861342 </v>
   <v>       0.06732385       0.53863140       0.38894106 </v>
   <v>       0.06072500       0.70733019       0.69971741 </v>
   <v>       0.30856913       0.53779653       0.25552903 </v>
   <v>       0.31614471       0.70449689       0.21208052 </v>
   <v>       0.30682546       0.86422480       0.16585317 </v>
   <v>       0.43637242       0.62146722       0.43435855 </v>
   <v>       0.81738439       0.03976017       0.38902356 </v>
   <v>       0.93504250       0.29754101       0.87569030 </v>
   <v>       0.93740458       0.79531866       0.87579294 </v>
   <v>       0.06548601       0.03880855       0.87588339 </v>
   <v>       0.56351307       0.52901114       0.12442496 </v>
   <v>       0.80538238       0.36626949       0.16600932 </v>
   <v>       0.43435121       0.78826278       0.12408231 </v>
   <v>       0.93642565       0.12102884       0.52125703 </v>
   <v>       0.19246129       0.78744619       0.38884976 </v>
   <v>       0.56497285       0.70391785       0.21195460 </v>
  </varray>
 </structure>
 <calculation>
  <scstep>
   <time name="dav">   54.66   54.67</time>
   <time name="total">   54.82   54.85</time>
   <energy>
    <i name="alphaZ">  16293.21160653 </i>
    <i name="ewald"> 731670.07201201 </i>
    <i name="hartreedc">-922187.96615586 </i>
    <i name="XCdc">  -6512.81144671 </i>
    <i name="pawpsdc"> 162273.92519768 </i>
    <i name="pawaedc">-159623.75899949 </i>
    <i name="eentropy">     -1.07227916 </i>
    <i name="bandstr">  38489.58840699 </i>
    <i name="atom"> 168671.76673737 </i>
    <i name="e_fr_energy">  29072.95507937 </i>
    <i name="e_wo_entrp">  29074.02735853 </i>
    <i name="e_0_energy">  29073.49121895 </i>
   </energy>
  </scstep>
  <scstep>
   <time name="dav">   54.19   54.21</time>
   <time name="total">   54.20   54.22</time>
   <energy>
    <i name="e_fr_energy">   1187.77252518 </i>
    <i name="e_wo_entrp">   1189.27002179 </i>
    <i name="e_0_energy">   1188.52127348 </i>
   </energy>
  </scstep>
  <scstep>
   <time name="dav">   70.94   70.98</time>
   <time name="total">   70.95   70.99</time>
   <energy>
    <i name="e_fr_energy">  -1948.61638181 </i>
    <i name="e_wo_entrp">  -1945.06862628 </i>
    <i name="e_0_energy">  -1946.84250404 </i>
   </energy>
  </scstep>
  <scstep>
   <time name="dav">   89.15   89.19</time>
   <time name="total">   89.16   89.20</time>
   <energy>
    <i name="e_fr_energy">  -2618.17328697 </i>
    <i name="e_wo_entrp">  -2614.63378109 </i>
    <i name="e_0_energy">  -2616.40353403 </i>
   </energy>
  </scstep>
  <scstep>
   <time name="dav">   85.17   85.22</time>
   <time name="total">   87.20   87.25</time>
   <energy>
    <i name="e_fr_energy">  -2738.04484126 </i>
    <i name="e_wo_entrp">  -2734.38068902 </i>
    <i name="e_0_energy">  -2736.21276514 </i>
   </energy>
  </scstep>
  <scstep>
   <time name="diag">    8.30    8.30</time>
   <time name="diis">   36.70   36.70</time>
   <time name="orth">    2.25    2.25</time>
   <time name="total">   49.43   49.48</time>
   <energy>
    <i name="e_fr_energy">  -5305.61584813 </i>
    <i name="e_wo_entrp">  -5302.99062801 </i>
    <i name="e_0_energy">  -5304.30323807 </i>
   </energy>
  </scstep>
  <scstep>
   <time name="diag">    8.25    8.25</time>
   <time name="diis">   22.18   22.18</time>
   <time name="orth">    2.26    2.26</time>
   <time name="total">   34.78   34.82</time>
[...]
       <r>     5.8676     0.0000  2772.0000 </r>
       <r>     5.9104     0.0000  2772.0000 </r>
       <r>     5.9532     0.0000  2772.0000 </r>
       <r>     5.9960     0.0000  2772.0000 </r>
       <r>     6.0388     0.0000  2772.0000 </r>
       <r>     6.0816     0.0000  2772.0000 </r>
       <r>     6.1244     0.0000  2772.0000 </r>
       <r>     6.1672     0.0000  2772.0000 </r>
       <r>     6.2099     0.0000  2772.0000 </r>
       <r>     6.2527     0.0000  2772.0000 </r>
       <r>     6.2955     0.0000  2772.0000 </r>
       <r>     6.3383     0.0000  2772.0000 </r>
       <r>     6.3811     0.0000  2772.0000 </r>
       <r>     6.4239     0.0000  2772.0000 </r>
       <r>     6.4667     0.0000  2772.0000 </r>
       <r>     6.5095     0.0000  2772.0000 </r>
       <r>     6.5523     0.0000  2772.0000 </r>
       <r>     6.5951     0.0000  2772.0000 </r>
       <r>     6.6379     0.0000  2772.0000 </r>
       <r>     6.6806     0.0000  2772.0000 </r>
       <r>     6.7234     0.0000  2772.0000 </r>
       <r>     6.7662     0.0000  2772.0000 </r>
       <r>     6.8090     0.0000  2772.0000 </r>
      </set>
     </set>
    </array>
   </total>
  </dos>
 </calculation>
 <structure name="finalpos" >
  <crystal>
   <varray name="basis" >
    <v>       9.72667804       0.00000000       0.00000000 </v>
    <v>       0.00000000       8.42355028       0.00000000 </v>
    <v>       0.00000000       0.00000000      45.00000000 </v>
   </varray>
   <i name="volume">   3686.99226691 </i>
   <varray name="rec_basis" >
    <v>       0.10281002       0.00000000       0.00000000 </v>
    <v>       0.00000000       0.11871479       0.00000000 </v>
    <v>       0.00000000       0.00000000       0.02222222 </v>
   </varray>
  </crystal>
  <varray name="positions" >
   <v>       0.06140231       0.03352094       0.12450323 </v>
   <v>       0.31369388       0.87379730       0.65504249 </v>
   <v>       0.18645626       0.12498370       0.78842636 </v>
   <v>       0.44001050       0.28817079       0.38930258 </v>
   <v>       0.31482368       0.71159754       0.83353526 </v>
   <v>       0.81609798       0.21263293       0.83374648 </v>
   <v>       0.18916902       0.96224846       0.83390883 </v>
   <v>       0.56177740       0.20622368       0.56571096 </v>
   <v>       0.06353655       0.04129684       0.74417179 </v>
   <v>       0.81132395       0.87220598       0.52161588 </v>
   <v>       0.18833754       0.29133832       0.74420830 </v>
   <v>       0.93723202       0.45389780       0.34493274 </v>
   <v>       0.93917724       0.28759713       0.38919881 </v>
   <v>       0.81250209       0.04497080       0.87567193 </v>
   <v>       0.18588657       0.78900201       0.61058486 </v>
   <v>       0.56428872       0.03807118       0.38930592 </v>
   <v>       0.94121719       0.96226350       0.83390836 </v>
   <v>       0.31363785       0.54478421       0.87576149 </v>
   <v>       0.68855374       0.29138345       0.74422741 </v>
   <v>       0.18514110       0.61621767       0.16621520 </v>
   <v>       0.81176784       0.20523368       0.47831784 </v>
   <v>       0.81077299       0.53895043       0.61065334 </v>
   <v>       0.31238199       0.87161204       0.43424090 </v>
   <v>       0.81207257       0.03720701       0.25584895 </v>
   <v>       0.68708002       0.95384864       0.34494054 </v>
   <v>       0.93382607       0.11632526       0.16660824 </v>
   <v>       0.06215720       0.87220316       0.52161042 </v>
   <v>       0.56182119       0.53756771       0.25580729 </v>
   <v>       0.68679301       0.79459812       0.87573780 </v>
   <v>       0.55898801       0.36646318       0.16627039 </v>
   <v>       0.43845468       0.79180125       0.74425178 </v>
   <v>       0.81181292       0.70610758       0.56566749 </v>
   <v>       0.56119912       0.87447062       0.78836881 </v>
   <v>       0.68633116       0.12200808       0.52157074 </v>
   <v>       0.81356607       0.37383828       0.65504642 </v>
   <v>       0.94050916       0.46223659       0.83385075 </v>
   <v>       0.06157329       0.20725679       0.69982789 </v>
   <v>       0.43665502       0.95695560       0.69976497 </v>
   <v>       0.31446283       0.21149083       0.83383136 </v>
   <v>       0.43857290       0.62392521       0.65499606 </v>
   <v>       0.31083238       0.53913442       0.61059759 </v>
   <v>       0.93675718       0.45573922       0.56570433 </v>
   <v>       0.68853202       0.79142430       0.74423499 </v>
   <v>       0.93421037       0.78336070       0.12460982 </v>
   <v>       0.68963187       0.78785706       0.38924508 </v>
   <v>       0.93857826       0.79101041       0.74421821 </v>
   <v>       0.06234770       0.20390047       0.34496911 </v>
   <v>       0.68744817       0.45390352       0.34488977 </v>
   <v>       0.43607037       0.12490914       0.78853888 </v>
   <v>       0.06318067       0.20295185       0.21154958 </v>
   <v>       0.05788024       0.36668825       0.16624859 </v>
   <v>       0.93681587       0.78743139       0.25570662 </v>
   <v>       0.56152254       0.20708459       0.69981412 </v>
   <v>       0.68673618       0.95724224       0.69986651 </v>
   <v>       0.81088533       0.87485018       0.78835521 </v>
   <v>       0.43675164       0.95613852       0.56570981 </v>
   <v>       0.81116115       0.37497828       0.78838567 </v>
   <v>       0.68701397       0.28729803       0.25590157 </v>
   <v>       0.18670169       0.45612625       0.56566732 </v>
   <v>       0.05862117       0.86681601       0.16641994 </v>
   <v>       0.18590912       0.28905027       0.61070174 </v>
   <v>       0.06178114       0.20623965       0.56570233 </v>
   <v>       0.31182296       0.20718615       0.69980208 </v>
   <v>       0.56416805       0.54532991       0.87567171 </v>
   <v>       0.06162411       0.70594812       0.56565685 </v>
   <v>       0.68588148       0.62490542       0.78836199 </v>
   <v>       0.31451235       0.53757668       0.38931446 </v>
   <v>       0.18685856       0.62226677       0.52161486 </v>
   <v>       0.56249757       0.87158705       0.43418899 </v>
   <v>       0.43667816       0.45615323       0.56572085 </v>
   <v>       0.43840017       0.29181776       0.74420741 </v>
   <v>       0.81623724       0.87249367       0.30026579 </v>
   <v>       0.81210138       0.70346804       0.34501650 </v>
   <v>       0.44021270       0.46129631       0.83377364 </v>
   <v>       0.68729080       0.95489427       0.47829390 </v>
   <v>       0.68680513       0.45727122       0.69984370 </v>
   <v>       0.56175063       0.87239131       0.52155097 </v>
   <v>       0.56364754       0.37379382       0.65499001 </v>
   <v>       0.81361197       0.87379068       0.65504302 </v>
   <v>       0.81221898       0.37108812       0.43402038 </v>
   <v>       0.81173203       0.53680505       0.25587779 </v>
   <v>       0.69047139       0.46169180       0.83371154 </v>
   <v>       0.18476148       0.78222835       0.12423267 </v>
   <v>       0.68941250       0.28763856       0.38920521 </v>
   <v>       0.31351145       0.37386471       0.65496193 </v>
   <v>       0.31221045       0.20374324       0.34496612 </v>
   <v>       0.81354290       0.54123835       0.74415611 </v>
   <v>       0.69041486       0.96142613       0.83377129 </v>
   <v>       0.56358754       0.87395026       0.65505044 </v>
   <v>       0.31179528       0.70614089       0.56570541 </v>
   <v>       0.30916339       0.53366239       0.12418878 </v>
   <v>       0.68880632       0.95380793       0.21175628 </v>
   <v>       0.31172981       0.20634165       0.56568616 </v>
   <v>       0.18697143       0.95496679       0.47828182 </v>
   <v>       0.68701487       0.95620406       0.56576079 </v>
   <v>       0.43576380       0.78910650       0.61056269 </v>
   <v>       0.68246639       0.61494108       0.16624678 </v>
   <v>       0.31581422       0.87203035       0.30030557 </v>
   <v>       0.31211315       0.70509951       0.47831172 </v>
   <v>       0.93579812       0.28877505       0.61056407 </v>
   <v>       0.44112660       0.62165923       0.30029336 </v>
   <v>       0.80905612       0.86576654       0.16656381 </v>
   <v>       0.56450502       0.20255349       0.21183210 </v>
   <v>       0.93448652       0.61512786       0.16659161 </v>
   <v>       0.43717555       0.95476653       0.47827753 </v>
   <v>       0.56119180       0.37435280       0.78843594 </v>
   <v>       0.06162930       0.37267314       0.52153112 </v>
   <v>       0.30879230       0.36572398       0.16617829 </v>
   <v>       0.69134742       0.12156097       0.30030737 </v>
   <v>       0.44047465       0.96116232       0.83376399 </v>
   <v>       0.18523912       0.28294564       0.12447493 </v>
   <v>       0.18698938       0.28678876       0.25579171 </v>
   <v>       0.31235348       0.37125853       0.43417689 </v>
   <v>       0.56101096       0.03469032       0.12447500 </v>
   <v>       0.43578450       0.28900265       0.61059502 </v>
   <v>       0.18705330       0.45383948       0.34489295 </v>
   <v>       0.43375562       0.28257420       0.12447386 </v>
   <v>       0.68683325       0.78747040       0.25591511 </v>
   <v>       0.43677018       0.12270038       0.52153120 </v>
   <v>       0.18937373       0.29401342       0.87593731 </v>
   <v>       0.18865666       0.12383603       0.65506531 </v>
   <v>       0.93866265       0.12381724       0.65502541 </v>
   <v>       0.81443845       0.53734923       0.38925068 </v>
   <v>       0.06448368       0.03803766       0.38930277 </v>
   <v>       0.18389203       0.11523514       0.16668915 </v>
   <v>       0.06080911       0.53885487       0.61062712 </v>
   <v>       0.93692749       0.28692192       0.25585309 </v>
   <v>       0.56082077       0.53914011       0.61057580 </v>
   <v>       0.93688447       0.95576717       0.56568682 </v>
   <v>       0.69104416       0.62202854       0.30033410 </v>
   <v>       0.93734440       0.62142680       0.43410518 </v>
   <v>       0.93596263       0.62600916       0.78839612 </v>
   <v>       0.56160839       0.70699546       0.69976172 </v>
   <v>       0.06438844       0.71326027       0.83384456 </v>
   <v>       0.94116215       0.12218751       0.30026665 </v>
   <v>       0.93573257       0.78882029       0.61065141 </v>
   <v>       0.43698521       0.78754843       0.25601224 </v>
   <v>       0.31114581       0.37436982       0.78838218 </v>
   <v>       0.43865281       0.45323058       0.21165560 </v>
   <v>       0.18702302       0.12208149       0.52155962 </v>
   <v>       0.81175811       0.70734590       0.69983846 </v>
   <v>       0.06074012       0.03925042       0.61056806 </v>
   <v>       0.56470258       0.21136868       0.83353053 </v>
   <v>       0.31172422       0.87246780       0.52160250 </v>
   <v>       0.68573806       0.28276854       0.12422612 </v>
   <v>       0.18829436       0.95479808       0.21180847 </v>
   <v>       0.68575017       0.28907784       0.61067235 </v>
   <v>       0.31082777       0.03909022       0.61061750 </v>
   <v>       0.93621472       0.12584017       0.78850511 </v>
   <v>       0.43776728       0.79387673       0.87575114 </v>
   <v>       0.81362107       0.04144839       0.74411395 </v>
   <v>       0.93671417       0.45717112       0.69982776 </v>
   <v>       0.18869654       0.62389035       0.65501530 </v>
   <v>       0.31178801       0.70716366       0.69981819 </v>
   <v>       0.93442601       0.28236955       0.12436449 </v>
   <v>       0.43703563       0.45468185       0.47828001 </v>
   <v>       0.06213226       0.70471524       0.47831256 </v>
   <v>       0.93730849       0.12118702       0.43444614 </v>
   <v>       0.44136730       0.12133357       0.30028703 </v>
   <v>       0.18697149       0.12110896       0.43406305 </v>
   <v>       0.56420133       0.04485852       0.87574608 </v>
   <v>       0.18639266       0.95623774       0.56574428 </v>
   <v>       0.68573581       0.78317422       0.12454984 </v>
   <v>       0.56243749       0.70373668       0.34497460 </v>
   <v>       0.31476830       0.03785362       0.38923412 </v>
   <v>       0.68504227       0.11589583       0.16681598 </v>
   <v>       0.81426363       0.20293289       0.21167852 </v>
   <v>       0.06157211       0.53727313       0.25565993 </v>
   <v>       0.56228219       0.70503782       0.47828639 </v>
   <v>       0.06246569       0.87163180       0.43410336 </v>
   <v>       0.56594780       0.37154149       0.30036522 </v>
   <v>       0.43707794       0.95393703       0.34491360 </v>
   <v>       0.18669297       0.95728999       0.69982745 </v>
   <v>       0.43401029       0.61587720       0.16622953 </v>
   <v>       0.93858753       0.45355781       0.21173292 </v>
   <v>       0.06091508       0.53235736       0.12427715 </v>
   <v>       0.81181097       0.37281125       0.52151100 </v>
   <v>       0.94124341       0.62245270       0.30015220 </v>
   <v>       0.31206648       0.03704664       0.25582845 </v>
   <v>       0.68586153       0.78891282       0.61060447 </v>
   <v>       0.18987084       0.46217973       0.83387370 </v>
   <v>       0.43474151       0.11420610       0.16654106 </v>
   <v>       0.31141883       0.37249043       0.52156502 </v>
   <v>       0.43605799       0.62476512       0.78857690 </v>
   <v>       0.06164700       0.03740553       0.25576845 </v>
   <v>       0.56169470       0.70616142       0.56569281 </v>
   <v>       0.93861361       0.29117842       0.74421036 </v>
   <v>       0.68582137       0.12505453       0.78833855 </v>
   <v>       0.18781055       0.45364381       0.21158872 </v>
   <v>       0.93916138       0.78775454       0.38925290 </v>
   <v>       0.68708879       0.29449595       0.87583210 </v>
   <v>       0.55692396       0.86523801       0.16630090 </v>
   <v>       0.43664660       0.45704490       0.69982476 </v>
   <v>       0.93741569       0.95368729       0.34488725 </v>
   <v>       0.68646417       0.62216117       0.52154532 </v>
   <v>       0.06368165       0.87379598       0.65504675 </v>
   <v>       0.06142083       0.87510173       0.78851687 </v>
   <v>       0.06368424       0.37385576       0.65504483 </v>
   <v>       0.68700888       0.45481987       0.47817448 </v>
   <v>       0.18693581       0.78758454       0.25593898 </v>
   <v>       0.43736196       0.12123975       0.43420855 </v>
   <v>       0.81138522       0.03399972       0.12452193 </v>
   <v>       0.93669194       0.62224880       0.52152623 </v>
   <v>       0.43866587       0.12373165       0.65503251 </v>
   <v>       0.81204198       0.53304310       0.12408618 </v>
   <v>       0.43752537       0.45396079       0.34495261 </v>
   <v>       0.81224790       0.20365738       0.34495651 </v>
   <v>       0.31262277       0.70375362       0.34491458 </v>
   <v>       0.68856050       0.12393548       0.65504282 </v>
   <v>       0.56613751       0.87188983       0.30029598 </v>
   <v>       0.06338985       0.54096186       0.74414657 </v>
   <v>       0.93875458       0.95424982       0.21164054 </v>
   <v>       0.81408576       0.70289902       0.21172256 </v>
   <v>       0.06589330       0.87228773       0.30030338 </v>
   <v>       0.19095068       0.12208035       0.30014640 </v>
   <v>       0.06218171       0.70351867       0.34486203 </v>
   <v>       0.81098944       0.03909968       0.61058358 </v>
   <v>       0.06241931       0.37098579       0.43403869 </v>
   <v>       0.56244290       0.20380285       0.34493646 </v>
   <v>       0.81589276       0.37246960       0.30023938 </v>
   <v>       0.56228860       0.03767718       0.25586276 </v>
   <v>       0.56408754       0.53753075       0.38927095 </v>
   <v>       0.06238576       0.20502902       0.47836649 </v>
   <v>       0.31150917       0.87430803       0.78825690 </v>
   <v>       0.93671233       0.95737941       0.69978584 </v>
   <v>       0.06630218       0.37234860       0.30031290 </v>
   <v>       0.68857970       0.62386033       0.65504234 </v>
   <v>       0.68666834       0.45609748       0.56565647 </v>
   <v>       0.43873602       0.95400364       0.21181383 </v>
   <v>       0.31207093       0.20478915       0.47823997 </v>
   <v>       0.81298990       0.54454075       0.87570002 </v>
   <v>       0.68761261       0.62128913       0.43413030 </v>
   <v>       0.81179660       0.20717774       0.69984166 </v>
   <v>       0.81208145       0.70488233       0.47831929 </v>
   <v>       0.81218835       0.87165780       0.43416732 </v>
   <v>       0.93724347       0.95426115       0.47838349 </v>
   <v>       0.56217175       0.20480824       0.47829944 </v>
   <v>       0.18697024       0.62120949       0.43422567 </v>
   <v>       0.31339151       0.04161377       0.74420949 </v>
   <v>       0.93858759       0.62397008       0.65499399 </v>
   <v>       0.56476582       0.71152909       0.83355738 </v>
   <v>       0.31637749       0.37184948       0.30031737 </v>
   <v>       0.31335800       0.54126113       0.74424577 </v>
   <v>       0.18724277       0.45476968       0.47824640 </v>
   <v>       0.31503791       0.04590980       0.87573539 </v>
   <v>       0.18651792       0.45724352       0.69985384 </v>
   <v>       0.56197774       0.37252615       0.52156889 </v>
   <v>       0.18912399       0.28788752       0.38926513 </v>
   <v>       0.31331943       0.20318161       0.21161150 </v>
   <v>       0.06401788       0.70256324       0.21157271 </v>
   <v>       0.56218034       0.37121502       0.43418343 </v>
   <v>       0.43675618       0.62236806       0.52146602 </v>
   <v>       0.81534841       0.71291844       0.83353365 </v>
   <v>       0.06136341       0.37549270       0.78842562 </v>
   <v>       0.43751608       0.29441414       0.87587972 </v>
   <v>       0.31139202       0.03415298       0.12411840 </v>
   <v>       0.68752641       0.12140550       0.43413451 </v>
   <v>       0.18722353       0.95368696       0.34492712 </v>
   <v>       0.06441224       0.21204073       0.83381147 </v>
   <v>       0.56084718       0.03909207       0.61061963 </v>
   <v>       0.68843722       0.45320595       0.21175714 </v>
   <v>       0.18838176       0.79131940       0.74418205 </v>
   <v>       0.19099484       0.62204707       0.30021374 </v>
   <v>       0.43992066       0.78770576       0.38929308 </v>
   <v>       0.43695384       0.28731409       0.25580112 </v>
   <v>       0.06517989       0.54437462       0.87580575 </v>
   <v>       0.56376597       0.04162370       0.74423703 </v>
   <v>       0.18859868       0.79406263       0.87592720 </v>
   <v>       0.93709478       0.45461713       0.47824112 </v>
   <v>       0.56366774       0.54159547       0.74415643 </v>
   <v>       0.81160280       0.20629565       0.56570032 </v>
   <v>       0.18638093       0.62514714       0.78842201 </v>
   <v>       0.06493957       0.53792940       0.38930551 </v>
   <v>       0.06156581       0.70745243       0.69977920 </v>
   <v>       0.31171732       0.53736661       0.25560628 </v>
   <v>       0.31302614       0.70263751       0.21179061 </v>
   <v>       0.30886754       0.86550642       0.16593553 </v>
   <v>       0.43697540       0.62138783       0.43417095 </v>
   <v>       0.81502087       0.03813860       0.38919170 </v>
   <v>       0.93659235       0.29508881       0.87577659 </v>
   <v>       0.93732001       0.79238306       0.87571715 </v>
   <v>       0.06541126       0.04381367       0.87560643 </v>
   <v>       0.56260748       0.53241889       0.12448235 </v>
   <v>       0.80771007       0.36648355       0.16582331 </v>
   <v>       0.43453991       0.78448773       0.12422327 </v>
   <v>       0.93669967       0.12228984       0.52136976 </v>
   <v>       0.18996148       0.78724636       0.38919196 </v>
   <v>       0.56467612       0.70289534       0.21182473 </v>
  </varray>
 </structure>
</modeling>
