<?xml version="1.0" encoding="ISO-8859-1"?>
<modeling>
 <generator>
  <i name="program" type="string">vasp </i>
  <i name="version" type="string">5.4.4.18Apr17-6-g9f103f2a35  </i>
  <i name="subversion" type="string">(build Sep 27 2018 12:46:37) complex + VL-xray_ parallel </i>
  <i name="platform" type="string">LLNL_Quartz_ifc </i>
  <i name="date" type="string">2021 09 26 </i>
  <i name="time" type="string">19:24:49 </i>
 </generator>
 <incar>
  <i type="int" name="ISTART">     2</i>
  <i type="string" name="PREC">accurate</i>
  <i type="string" name="ALGO"> Fast</i>
  <i type="int" name="ICHARG">     2</i>
  <i type="int" name="INIWAV">     1</i>
  <i type="int" name="NELM">   100</i>
  <i type="int" name="NELMIN">     4</i>
  <i type="int" name="IBRION">     2</i>
  <i name="EDIFF">      0.00000100</i>
  <i type="int" name="NSW">     5</i>
  <i type="int" name="ISIF">     2</i>
  <i type="int" name="ISYM">     2</i>
  <i name="ENCUT">    450.00000000</i>
  <i name="POTIM">      0.25000000</i>
  <i type="string" name="LREAL"> Auto</i>
  <i type="int" name="ISMEAR">     0</i>
  <i name="SIGMA">      0.15000000</i>
  <i type="logical" name="LWAVE"> F  </i>
  <i type="logical" name="LCHARG"> F  </i>
  <i type="int" name="ICORELEVEL">     0</i>
  <i type="int" name="CLNT">     1</i>
  <i type="int" name="CLN">     1</i>
  <i type="int" name="INCAR     ">     0</i>
  <i name="CLZ">      0.00000000</i>
  <v type="int" name="KPOINT_BSE">    -1     0     0     0</v>
  <i type="int" name="NELM">   100</i>
 </incar>
 <structure name="primitive_cell" >
  <crystal>
   <varray name="basis" >
    <v>       9.72667804       0.00000000       0.00000000 </v>
    <v>       0.00000000       8.42355028       0.00000000 </v>
    <v>       0.00000000       0.00000000      45.00000000 </v>
   </varray>
   <i name="volume">   3686.99226691 </i>
   <varray name="rec_basis" >
    <v>       0.10281002       0.00000000       0.00000000 </v>
    <v>       0.00000000       0.11871479       0.00000000 </v>
    <v>       0.00000000       0.00000000       0.02222222 </v>
   </varray>
  </crystal>
  <varray name="positions" >
   <v>       0.06262951       0.03182064       0.12507053 </v>
   <v>      -0.05952713       0.11395034       0.16714881 </v>
   <v>       0.06742278      -0.13460643       0.16741328 </v>
   <v>      -0.06066940      -0.21238817       0.12496519 </v>
   <v>       0.19283626       0.11469242       0.16722207 </v>
   <v>       0.19052743      -0.21245089       0.12499270 </v>
   <v>      -0.18708840       0.03256645       0.12476097 </v>
   <v>       0.31264876       0.03262390       0.12475772 </v>
   <v>      -0.06054954       0.28750689       0.12486219 </v>
   <v>       0.19105504       0.28736452       0.12501514 </v>
   <v>      -0.18266221      -0.13490672       0.16749551 </v>
   <v>       0.06814241       0.36574310       0.16723173 </v>
   <v>       0.31731868      -0.13495026       0.16738031 </v>
   <v>      -0.30709670       0.11475097       0.16730098 </v>
   <v>      -0.18195841       0.36467974       0.16674023 </v>
   <v>       0.18671021      -0.04222609       0.21227348 </v>
   <v>      -0.06419925      -0.04244795       0.21229779 </v>
   <v>      -0.30938929      -0.21247983       0.12502691 </v>
   <v>      -0.05802213      -0.38649747       0.16737972 </v>
   <v>       0.31819622       0.36426123       0.16675183 </v>
   <v>       0.19263765      -0.38529411       0.16729527 </v>
   <v>       0.06076250       0.20791589       0.21225203 </v>
   <v>       0.44155518       0.11375969       0.16705501 </v>
   <v>       0.06252534      -0.46718134       0.12494628 </v>
   <v>       0.43935382      -0.21292314       0.12493183 </v>
   <v>      -0.30879059       0.28721004       0.12491894 </v>
   <v>       0.43929881       0.28724309       0.12487844 </v>
   <v>       0.06090950      -0.29213895       0.21219256 </v>
   <v>       0.31087828       0.20706966       0.21217360 </v>
   <v>      -0.18926162       0.20763552       0.21220140 </v>
   <v>      -0.18738755      -0.46704243       0.12494449 </v>
   <v>       0.31291037      -0.46730726       0.12490029 </v>
   <v>      -0.43728443       0.03206926       0.12506062 </v>
   <v>       0.31117196      -0.29203152       0.21215783 </v>
   <v>      -0.18892683      -0.29207539       0.21217840 </v>
   <v>      -0.43263611      -0.13455901       0.16740023 </v>
   <v>       0.43598071      -0.04244274       0.21227922 </v>
   <v>      -0.30754614      -0.38641636       0.16740313 </v>
   <v>      -0.31330843      -0.04254503       0.21224929 </v>
   <v>       0.44166680      -0.38622144       0.16737851 </v>
   <v>       0.18536537       0.45803606       0.21238381 </v>
   <v>      -0.06327618       0.45782366       0.21237535 </v>
   <v>      -0.43181431       0.36584375       0.16729177 </v>
   <v>       0.06602097       0.04138650       0.25648950 </v>
   <v>      -0.05913176      -0.20884393       0.25645758 </v>
   <v>       0.19061134      -0.20903648       0.25632738 </v>
   <v>      -0.18449797       0.04075748       0.25644237 </v>
   <v>      -0.43919455       0.20770799       0.21224939 </v>
   <v>      -0.05932632       0.29094230       0.25635851 </v>
   <v>       0.31557716       0.04196570       0.25671824 </v>
   <v>      -0.43723458      -0.46703978       0.12495967 </v>
   <v>       0.19193810       0.29102857       0.25644294 </v>
   <v>       0.43672467       0.45808678       0.21236149 </v>
   <v>      -0.31471627       0.45799467       0.21235544 </v>
   <v>      -0.43924530      -0.29252936       0.21222067 </v>
   <v>       0.06622609      -0.46008871       0.25628513 </v>
   <v>      -0.30947586      -0.20900583       0.25666956 </v>
   <v>       0.44139976      -0.20904730       0.25648197 </v>
   <v>      -0.30900675       0.29061886       0.25629619 </v>
   <v>       0.44060081       0.29091380       0.25635649 </v>
   <v>      -0.18418315      -0.45940781       0.25635135 </v>
   <v>       0.31541270      -0.45954868       0.25619033 </v>
   <v>      -0.43412910       0.04043687       0.25634185 </v>
   <v>       0.05719534      -0.12620710       0.30068380 </v>
   <v>       0.18412756       0.12414190       0.30056609 </v>
   <v>      -0.06578283       0.12493080       0.30060623 </v>
   <v>       0.30748229      -0.12641433       0.30085710 </v>
   <v>      -0.19217080      -0.12542813       0.30045260 </v>
   <v>       0.05702472       0.37485089       0.30074026 </v>
   <v>      -0.43442751      -0.45917809       0.25637462 </v>
   <v>       0.18237261      -0.37543478       0.30069273 </v>
   <v>      -0.06760818      -0.37513903       0.30068837 </v>
   <v>       0.43276050       0.12460449       0.30056885 </v>
   <v>       0.30709389       0.37452454       0.30063573 </v>
   <v>      -0.31574212       0.12488669       0.30065582 </v>
   <v>      -0.19284526       0.37389036       0.30067681 </v>
   <v>       0.43239967      -0.37494066       0.30070305 </v>
   <v>      -0.44295446      -0.12599406       0.30050418 </v>
   <v>      -0.31745193      -0.37456065       0.30071816 </v>
   <v>      -0.44291730       0.37410920       0.30062879 </v>
   <v>      -0.05910638      -0.04624259       0.34536945 </v>
   <v>       0.18997670      -0.04623483       0.34539607 </v>
   <v>       0.06586713       0.20378897       0.34546747 </v>
   <v>       0.06526506      -0.29631452       0.34535923 </v>
   <v>      -0.18455065       0.20357629       0.34528555 </v>
   <v>       0.31509331       0.20437638       0.34554074 </v>
   <v>      -0.18451235      -0.29658804       0.34523414 </v>
   <v>       0.31552039      -0.29665334       0.34533666 </v>
   <v>      -0.31026243      -0.04520381       0.34559227 </v>
   <v>       0.43998154      -0.04588136       0.34536248 </v>
   <v>       0.19044098       0.45315888       0.34521269 </v>
   <v>      -0.06072673       0.45389692       0.34537040 </v>
   <v>      -0.43435533       0.20343712       0.34537318 </v>
   <v>      -0.30956004       0.45399623       0.34523442 </v>
   <v>       0.44041567       0.45405309       0.34531423 </v>
   <v>       0.06048369       0.03931654      -0.12472164 </v>
   <v>      -0.43451062      -0.29625981       0.34520851 </v>
   <v>       0.18717651      -0.20758372      -0.12471147 </v>
   <v>      -0.06284065      -0.20743608      -0.12485242 </v>
   <v>       0.31014795       0.03951194      -0.12474095 </v>
   <v>      -0.18993009       0.03937016      -0.12482938 </v>
   <v>       0.18704901       0.29266267      -0.12474051 </v>
   <v>      -0.06283474       0.29280444      -0.12484628 </v>
   <v>       0.06126145       0.03914501       0.38938432 </v>
   <v>       0.06036616      -0.46074977      -0.12480831 </v>
   <v>       0.43734009      -0.20719296      -0.12469899 </v>
   <v>      -0.31312588      -0.20708315      -0.12488151 </v>
   <v>       0.43742620       0.29244361      -0.12472415 </v>
   <v>      -0.31291684       0.29299267      -0.12482131 </v>
   <v>       0.18614867      -0.21051324       0.38930987 </v>
   <v>      -0.06345588      -0.21095127       0.38939229 </v>
   <v>       0.31148269       0.03904812       0.38942426 </v>
   <v>      -0.18916420       0.03915238       0.38939475 </v>
   <v>       0.18642258       0.28934694       0.38941259 </v>
   <v>      -0.06372447       0.28946056       0.38935243 </v>
   <v>       0.31022582      -0.46047147      -0.12480587 </v>
   <v>      -0.18962078      -0.46095966      -0.12488754 </v>
   <v>      -0.43971619       0.03916414      -0.12483172 </v>
   <v>       0.06118981      -0.46018682       0.38943509 </v>
   <v>       0.43644214      -0.21065141       0.38945630 </v>
   <v>      -0.31364355      -0.21089781       0.38940619 </v>
   <v>       0.43638581       0.28943870       0.38935421 </v>
   <v>      -0.31394558       0.28891899       0.38922902 </v>
   <v>       0.31121716      -0.46018491       0.38939826 </v>
   <v>      -0.18916858      -0.46192672       0.38934066 </v>
   <v>      -0.43821880       0.03872452       0.38933482 </v>
   <v>      -0.43967818      -0.46093078      -0.12477887 </v>
   <v>       0.18222530      -0.03810317      -0.16719222 </v>
   <v>      -0.06776285      -0.03780304      -0.16721200 </v>
   <v>       0.05729964       0.21238736      -0.16712510 </v>
   <v>       0.05725783      -0.28819978      -0.16721180 </v>
   <v>       0.30690284       0.21147048      -0.16700443 </v>
   <v>      -0.19277129       0.21236266      -0.16734373 </v>
   <v>      -0.43932550      -0.46217315       0.38931812 </v>
   <v>       0.30742713      -0.28804231      -0.16716921 </v>
   <v>       0.43228898      -0.03805797      -0.16700041 </v>
   <v>      -0.19264739      -0.28771842      -0.16725291 </v>
   <v>      -0.31769238      -0.03815693      -0.16721582 </v>
   <v>       0.18236923       0.46248520      -0.16733568 </v>
   <v>      -0.06769980       0.46221888      -0.16724445 </v>
   <v>       0.06292427      -0.13025939       0.43453475 </v>
   <v>      -0.06173283       0.11986383       0.43463078 </v>
   <v>       0.18780755       0.11994080       0.43464122 </v>
   <v>      -0.44290669       0.21222688      -0.16726937 </v>
   <v>       0.43240901       0.46197713      -0.16717659 </v>
   <v>      -0.31792057       0.46190909      -0.16715968 </v>
   <v>      -0.18697672      -0.13050213       0.43455571 </v>
   <v>       0.31322893      -0.13065576       0.43452164 </v>
   <v>       0.06305120       0.36952047       0.43462717 </v>
   <v>      -0.44262487      -0.28746918      -0.16706321 </v>
   <v>      -0.06195671      -0.37982430       0.43452099 </v>
   <v>       0.18801724      -0.38078942       0.43447044 </v>
   <v>      -0.31228056       0.12037547       0.43455353 </v>
   <v>       0.43786719       0.11966515       0.43459749 </v>
   <v>       0.31282497       0.36963948       0.43451425 </v>
   <v>      -0.18715501       0.36982846       0.43460368 </v>
   <v>      -0.31184114      -0.38001574       0.43452879 </v>
   <v>       0.43789402      -0.37986198       0.43449419 </v>
   <v>      -0.43692415      -0.13066067       0.43459634 </v>
   <v>      -0.43672289       0.36920682       0.43465245 </v>
   <v>      -0.06102066       0.11980062      -0.21182967 </v>
   <v>       0.06397277      -0.13038654      -0.21199561 </v>
   <v>       0.18907493       0.11944273      -0.21188658 </v>
   <v>      -0.18610356      -0.13064848      -0.21197023 </v>
   <v>       0.31370137      -0.13101894      -0.21201531 </v>
   <v>       0.06391730       0.36906552      -0.21201707 </v>
   <v>       0.18931359      -0.38077788      -0.21190606 </v>
   <v>      -0.06117962      -0.38066818      -0.21204830 </v>
   <v>      -0.31065438       0.11940063      -0.21201661 </v>
   <v>       0.43963949       0.11928323      -0.21190466 </v>
   <v>      -0.18578002       0.36910465      -0.21206657 </v>
   <v>       0.31418066       0.36906597      -0.21202889 </v>
   <v>       0.18868530      -0.04493558       0.47860843 </v>
   <v>      -0.06175659      -0.04474961       0.47866753 </v>
   <v>       0.06312112       0.20536388       0.47864483 </v>
   <v>      -0.31084778      -0.38070042      -0.21207550 </v>
   <v>      -0.43608128      -0.13086194      -0.21200380 </v>
   <v>       0.43881826      -0.38108866      -0.21206282 </v>
   <v>       0.06328650      -0.29478409       0.47865821 </v>
   <v>       0.31353566       0.20524853       0.47858727 </v>
   <v>      -0.18654781       0.20515601       0.47867027 </v>
   <v>      -0.43610465       0.36891944      -0.21212784 </v>
   <v>       0.31313249      -0.29476698       0.47870200 </v>
   <v>      -0.18672544      -0.29483111       0.47875623 </v>
   <v>       0.43845789      -0.04501405       0.47860948 </v>
   <v>      -0.31151368      -0.04479797       0.47873526 </v>
   <v>       0.18829828       0.45522493       0.47864100 </v>
   <v>      -0.06191697       0.45529977       0.47869130 </v>
   <v>      -0.43669727       0.20503970       0.47865927 </v>
   <v>      -0.31156221       0.45539860       0.47862844 </v>
   <v>       0.43838980       0.45538989       0.47867525 </v>
   <v>      -0.43670393      -0.29497769       0.47864406 </v>
   <v>       0.05847853       0.03830896      -0.25634428 </v>
   <v>       0.18464396      -0.21098719      -0.25613824 </v>
   <v>       0.30909735       0.03890750      -0.25625445 </v>
   <v>      -0.06530843      -0.21075259      -0.25630976 </v>
   <v>       0.18468891       0.28917834      -0.25629316 </v>
   <v>      -0.06587615       0.28876078      -0.25631251 </v>
   <v>      -0.19096200       0.03925884      -0.25643286 </v>
   <v>       0.43384799      -0.21129870      -0.25626001 </v>
   <v>       0.05924075      -0.46071532      -0.25638395 </v>
   <v>      -0.31589385      -0.21099238      -0.25625997 </v>
   <v>       0.43414326       0.28928050      -0.25624560 </v>
   <v>      -0.31565475       0.28875974      -0.25627640 </v>
   <v>       0.30869863      -0.46127527      -0.25623794 </v>
   <v>      -0.19094981      -0.46078316      -0.25622802 </v>
   <v>      -0.44079199       0.03894317      -0.25630675 </v>
   <v>       0.06335656      -0.12892016      -0.47886746 </v>
   <v>       0.18880183       0.12081686      -0.47886722 </v>
   <v>      -0.06155926       0.12109242      -0.47878201 </v>
   <v>      -0.18651381      -0.12865804      -0.47871165 </v>
   <v>       0.31338984      -0.12883087      -0.47872032 </v>
   <v>       0.06334409       0.37106018      -0.47875352 </v>
   <v>       0.18844722      -0.37916530      -0.47880937 </v>
   <v>      -0.06145249      -0.37901792      -0.47872540 </v>
   <v>      -0.31144134       0.12130267      -0.47873883 </v>
   <v>       0.43849279       0.12076006      -0.47879844 </v>
   <v>       0.31351593       0.37122335      -0.47877650 </v>
   <v>      -0.18650937       0.37100573      -0.47871482 </v>
   <v>      -0.44116697      -0.46073496      -0.25646059 </v>
   <v>      -0.31146429      -0.37909625      -0.47874457 </v>
   <v>       0.43853449      -0.37898731      -0.47879654 </v>
   <v>      -0.43621686      -0.12900072      -0.47880534 </v>
   <v>      -0.43639759       0.37112196      -0.47880256 </v>
   <v>       0.18817703      -0.04351850      -0.30035144 </v>
   <v>       0.06355405       0.20710708      -0.30054323 </v>
   <v>      -0.06212758      -0.04272257      -0.30076090 </v>
   <v>       0.06329406      -0.29250632      -0.30066937 </v>
   <v>       0.31265827       0.20738676      -0.30063449 </v>
   <v>      -0.18720186       0.20746492      -0.30073521 </v>
   <v>      -0.18698011      -0.29261156      -0.30078092 </v>
   <v>       0.31253258      -0.29192728      -0.30079554 </v>
   <v>       0.43758067      -0.04251997      -0.30063750 </v>
   <v>      -0.31193744      -0.04298314      -0.30084057 </v>
   <v>      -0.06198065       0.45707146      -0.30082392 </v>
   <v>       0.18796076       0.45730026      -0.30082159 </v>
   <v>      -0.43717490       0.20749311      -0.30073037 </v>
   <v>      -0.31220042       0.45714079      -0.30066829 </v>
   <v>       0.43834175       0.45733459      -0.30080510 </v>
   <v>      -0.06144064      -0.04308707      -0.43483125 </v>
   <v>       0.18813689      -0.04323920      -0.43480113 </v>
   <v>       0.06341781       0.20707222      -0.43477388 </v>
   <v>      -0.43716058      -0.29274888      -0.30072818 </v>
   <v>       0.06284978      -0.29255325      -0.43488512 </v>
   <v>       0.31305515       0.20766195      -0.43488383 </v>
   <v>      -0.18670978       0.20716274      -0.43456024 </v>
   <v>      -0.18653120      -0.29263529      -0.43461729 </v>
   <v>      -0.31215821      -0.04268395      -0.43477527 </v>
   <v>       0.31314952      -0.29293167      -0.43457907 </v>
   <v>       0.43856044      -0.04311719      -0.43466208 </v>
   <v>       0.18800143       0.45727015      -0.43478057 </v>
   <v>      -0.06168371       0.45690479      -0.43459343 </v>
   <v>      -0.43703396       0.20703863      -0.43479311 </v>
   <v>       0.43830854       0.45718823      -0.43476116 </v>
   <v>      -0.31177051       0.45712620      -0.43456463 </v>
   <v>      -0.43631730      -0.29321674      -0.43478690 </v>
   <v>       0.06198183      -0.12541212      -0.34544643 </v>
   <v>       0.18641671       0.12255046      -0.34540703 </v>
   <v>      -0.06376083       0.12322558      -0.34550382 </v>
   <v>      -0.18890230      -0.12638897      -0.34523611 </v>
   <v>       0.06057083       0.37430515      -0.34517171 </v>
   <v>       0.31259572      -0.12624893      -0.34618172 </v>
   <v>       0.18688234      -0.37637926      -0.34546903 </v>
   <v>      -0.06351001      -0.37616636      -0.34555017 </v>
   <v>       0.43654563       0.12279297      -0.34555034 </v>
   <v>      -0.31364557       0.12384441      -0.34551311 </v>
   <v>       0.31103617       0.37336802      -0.34553121 </v>
   <v>      -0.18844301       0.37401612      -0.34550357 </v>
   <v>       0.43497077      -0.37603068      -0.34543357 </v>
   <v>      -0.43822662      -0.12602346      -0.34545787 </v>
   <v>      -0.31364523      -0.37661609      -0.34551850 </v>
   <v>       0.06357901       0.03998213      -0.38940331 </v>
   <v>      -0.43815221       0.37407298      -0.34537585 </v>
   <v>      -0.06166676      -0.21072575      -0.38953650 </v>
   <v>       0.18841910      -0.21009380      -0.38948919 </v>
   <v>       0.31309405       0.03993939      -0.38954899 </v>
   <v>      -0.18658408       0.03974915      -0.38939870 </v>
   <v>       0.18844341       0.28954314      -0.38954192 </v>
   <v>      -0.06167850       0.28946495      -0.38948197 </v>
   <v>       0.06322125      -0.46045661      -0.38958684 </v>
   <v>      -0.31121273      -0.21048177      -0.38948172 </v>
   <v>       0.43838972      -0.20999339      -0.38943700 </v>
   <v>      -0.31141969       0.28964340      -0.38946587 </v>
   <v>       0.43824957       0.29001866      -0.38941801 </v>
   <v>       0.31362948      -0.46034711      -0.38950444 </v>
   <v>      -0.18642655      -0.46039985      -0.38943029 </v>
   <v>      -0.43672355       0.03977430      -0.38942042 </v>
   <v>      -0.43673728      -0.46035283      -0.38952466 </v>
  </varray>
 </structure>
 <varray name="primitive_index" >
  <v type="int" >        1 </v>
  <v type="int" >       26 </v>
  <v type="int" >       60 </v>
  <v type="int" >       44 </v>
  <v type="int" >      125 </v>
  <v type="int" >       83 </v>
  <v type="int" >      202 </v>
  <v type="int" >      256 </v>
  <v type="int" >      155 </v>
  <v type="int" >      111 </v>
  <v type="int" >      102 </v>
  <v type="int" >       51 </v>
  <v type="int" >      192 </v>
  <v type="int" >      166 </v>
  <v type="int" >      284 </v>
  <v type="int" >      146 </v>
  <v type="int" >      212 </v>
  <v type="int" >      163 </v>
  <v type="int" >      104 </v>
  <v type="int" >      283 </v>
  <v type="int" >       20 </v>
  <v type="int" >       50 </v>
  <v type="int" >      182 </v>
  <v type="int" >      176 </v>
  <v type="int" >       55 </v>
  <v type="int" >      145 </v>
  <v type="int" >      117 </v>
  <v type="int" >      250 </v>
  <v type="int" >      123 </v>
  <v type="int" >      167 </v>
  <v type="int" >      205 </v>
  <v type="int" >       91 </v>
  <v type="int" >      114 </v>
  <v type="int" >      276 </v>
  <v type="int" >      213 </v>
  <v type="int" >      277 </v>
  <v type="int" >      229 </v>
  <v type="int" >       97 </v>
  <v type="int" >       92 </v>
  <v type="int" >      174 </v>
  <v type="int" >      189 </v>
  <v type="int" >      175 </v>
  <v type="int" >       30 </v>
  <v type="int" >      185 </v>
  <v type="int" >       52 </v>
  <v type="int" >      200 </v>
  <v type="int" >       24 </v>
  <v type="int" >      103 </v>
  <v type="int" >      127 </v>
  <v type="int" >      179 </v>
  <v type="int" >      164 </v>
  <v type="int" >      287 </v>
  <v type="int" >      139 </v>
  <v type="int" >      261 </v>
  <v type="int" >      243 </v>
  <v type="int" >      168 </v>
  <v type="int" >      118 </v>
  <v type="int" >      137 </v>
  <v type="int" >       58 </v>
  <v type="int" >      265 </v>
  <v type="int" >       81 </v>
  <v type="int" >      275 </v>
  <v type="int" >      281 </v>
  <v type="int" >      214 </v>
  <v type="int" >      215 </v>
  <v type="int" >      135 </v>
  <v type="int" >       98 </v>
  <v type="int" >       72 </v>
  <v type="int" >      226 </v>
  <v type="int" >       28 </v>
  <v type="int" >      263 </v>
  <v type="int" >      178 </v>
  <v type="int" >      159 </v>
  <v type="int" >      242 </v>
  <v type="int" >      109 </v>
  <v type="int" >      220 </v>
  <v type="int" >      101 </v>
  <v type="int" >      210 </v>
  <v type="int" >      130 </v>
  <v type="int" >      171 </v>
  <v type="int" >      194 </v>
  <v type="int" >      258 </v>
  <v type="int" >       47 </v>
  <v type="int" >      216 </v>
  <v type="int" >      207 </v>
  <v type="int" >       86 </v>
  <v type="int" >       73 </v>
  <v type="int" >      208 </v>
  <v type="int" >       25 </v>
  <v type="int" >      172 </v>
  <v type="int" >      116 </v>
  <v type="int" >       12 </v>
  <v type="int" >      219 </v>
  <v type="int" >      279 </v>
  <v type="int" >      206 </v>
  <v type="int" >       84 </v>
  <v type="int" >       62 </v>
  <v type="int" >      268 </v>
  <v type="int" >      105 </v>
  <v type="int" >      245 </v>
  <v type="int" >       14 </v>
  <v type="int" >      120 </v>
  <v type="int" >      280 </v>
  <v type="int" >      124 </v>
  <v type="int" >      266 </v>
  <v type="int" >      150 </v>
  <v type="int" >       29 </v>
  <v type="int" >      255 </v>
  <v type="int" >      191 </v>
  <v type="int" >        7 </v>
  <v type="int" >      190 </v>
  <v type="int" >      165 </v>
  <v type="int" >       48 </v>
  <v type="int" >      248 </v>
  <v type="int" >       13 </v>
  <v type="int" >       18 </v>
  <v type="int" >      247 </v>
  <v type="int" >      161 </v>
  <v type="int" >      273 </v>
  <v type="int" >      264 </v>
  <v type="int" >       45 </v>
  <v type="int" >        4 </v>
  <v type="int" >      282 </v>
  <v type="int" >       67 </v>
  <v type="int" >      270 </v>
  <v type="int" >       16 </v>
  <v type="int" >       64 </v>
  <v type="int" >      173 </v>
  <v type="int" >       17 </v>
  <v type="int" >      259 </v>
  <v type="int" >      134 </v>
  <v type="int" >       39 </v>
  <v type="int" >        6 </v>
  <v type="int" >      222 </v>
  <v type="int" >        5 </v>
  <v type="int" >      110 </v>
  <v type="int" >      253 </v>
  <v type="int" >       88 </v>
  <v type="int" >      181 </v>
  <v type="int" >       36 </v>
  <v type="int" >      204 </v>
  <v type="int" >      158 </v>
  <v type="int" >      160 </v>
  <v type="int" >      143 </v>
  <v type="int" >       74 </v>
  <v type="int" >       82 </v>
  <v type="int" >      235 </v>
  <v type="int" >       23 </v>
  <v type="int" >      218 </v>
  <v type="int" >      241 </v>
  <v type="int" >      131 </v>
  <v type="int" >      238 </v>
  <v type="int" >      257 </v>
  <v type="int" >      201 </v>
  <v type="int" >      113 </v>
  <v type="int" >       80 </v>
  <v type="int" >      232 </v>
  <v type="int" >      249 </v>
  <v type="int" >       69 </v>
  <v type="int" >      251 </v>
  <v type="int" >      149 </v>
  <v type="int" >      197 </v>
  <v type="int" >        3 </v>
  <v type="int" >      112 </v>
  <v type="int" >      224 </v>
  <v type="int" >      254 </v>
  <v type="int" >      272 </v>
  <v type="int" >      132 </v>
  <v type="int" >      188 </v>
  <v type="int" >       49 </v>
  <v type="int" >       57 </v>
  <v type="int" >      138 </v>
  <v type="int" >       94 </v>
  <v type="int" >      236 </v>
  <v type="int" >      223 </v>
  <v type="int" >       66 </v>
  <v type="int" >       33 </v>
  <v type="int" >      184 </v>
  <v type="int" >      157 </v>
  <v type="int" >      230 </v>
  <v type="int" >       21 </v>
  <v type="int" >      106 </v>
  <v type="int" >       99 </v>
  <v type="int" >      234 </v>
  <v type="int" >      221 </v>
  <v type="int" >       75 </v>
  <v type="int" >      244 </v>
  <v type="int" >      269 </v>
  <v type="int" >      237 </v>
  <v type="int" >      199 </v>
  <v type="int" >      156 </v>
  <v type="int" >      169 </v>
  <v type="int" >        9 </v>
  <v type="int" >      262 </v>
  <v type="int" >      239 </v>
  <v type="int" >       46 </v>
  <v type="int" >       11 </v>
  <v type="int" >      187 </v>
  <v type="int" >      151 </v>
  <v type="int" >       31 </v>
  <v type="int" >      211 </v>
  <v type="int" >       43 </v>
  <v type="int" >       71 </v>
  <v type="int" >       19 </v>
  <v type="int" >      288 </v>
  <v type="int" >       87 </v>
  <v type="int" >      267 </v>
  <v type="int" >        2 </v>
  <v type="int" >      140 </v>
  <v type="int" >       27 </v>
  <v type="int" >       10 </v>
  <v type="int" >      144 </v>
  <v type="int" >      107 </v>
  <v type="int" >       68 </v>
  <v type="int" >      203 </v>
  <v type="int" >       34 </v>
  <v type="int" >      119 </v>
  <v type="int" >      183 </v>
  <v type="int" >      177 </v>
  <v type="int" >      278 </v>
  <v type="int" >      195 </v>
  <v type="int" >      252 </v>
  <v type="int" >       77 </v>
  <v type="int" >      108 </v>
  <v type="int" >      285 </v>
  <v type="int" >       37 </v>
  <v type="int" >      225 </v>
  <v type="int" >      274 </v>
  <v type="int" >       63 </v>
  <v type="int" >      233 </v>
  <v type="int" >      141 </v>
  <v type="int" >      154 </v>
  <v type="int" >       38 </v>
  <v type="int" >       54 </v>
  <v type="int" >      152 </v>
  <v type="int" >      246 </v>
  <v type="int" >       53 </v>
  <v type="int" >       76 </v>
  <v type="int" >      193 </v>
  <v type="int" >      129 </v>
  <v type="int" >      162 </v>
  <v type="int" >      170 </v>
  <v type="int" >      133 </v>
  <v type="int" >       65 </v>
  <v type="int" >       93 </v>
  <v type="int" >      271 </v>
  <v type="int" >       32 </v>
  <v type="int" >       95 </v>
  <v type="int" >       90 </v>
  <v type="int" >       56 </v>
  <v type="int" >       59 </v>
  <v type="int" >       42 </v>
  <v type="int" >        8 </v>
  <v type="int" >       70 </v>
  <v type="int" >      228 </v>
  <v type="int" >      186 </v>
  <v type="int" >      196 </v>
  <v type="int" >      121 </v>
  <v type="int" >      122 </v>
  <v type="int" >       79 </v>
  <v type="int" >      198 </v>
  <v type="int" >      286 </v>
  <v type="int" >      153 </v>
  <v type="int" >      240 </v>
  <v type="int" >      231 </v>
  <v type="int" >      209 </v>
  <v type="int" >       85 </v>
  <v type="int" >       35 </v>
  <v type="int" >       40 </v>
  <v type="int" >       89 </v>
  <v type="int" >      227 </v>
  <v type="int" >      142 </v>
  <v type="int" >       78 </v>
  <v type="int" >      136 </v>
  <v type="int" >       15 </v>
  <v type="int" >      148 </v>
  <v type="int" >      217 </v>
  <v type="int" >       61 </v>
  <v type="int" >      100 </v>
  <v type="int" >      126 </v>
  <v type="int" >      180 </v>
  <v type="int" >       96 </v>
  <v type="int" >      147 </v>
  <v type="int" >      115 </v>
  <v type="int" >       41 </v>
  <v type="int" >       22 </v>
  <v type="int" >      260 </v>
  <v type="int" >      128 </v>
 </varray>
 <kpoints>
  <generation param="Gamma">
   <v type="int" name="divisions">       4        4        1 </v>
   <v name="usershift">      0.00000000       0.00000000       0.00000000 </v>
   <v name="genvec1">      0.25000000       0.00000000       0.00000000 </v>
   <v name="genvec2">      0.00000000       0.25000000       0.00000000 </v>
   <v name="genvec3">      0.00000000       0.00000000       1.00000000 </v>
   <v name="shift">      0.00000000       0.00000000       0.00000000 </v>
  </generation>
  <varray name="kpointlist" >
   <v>       0.00000000       0.00000000       0.00000000 </v>
   <v>       0.25000000       0.00000000       0.00000000 </v>
   <v>       0.50000000       0.00000000       0.00000000 </v>
   <v>       0.00000000       0.25000000       0.00000000 </v>
   <v>       0.25000000       0.25000000       0.00000000 </v>
   <v>       0.50000000       0.25000000       0.00000000 </v>
   <v>      -0.25000000       0.25000000       0.00000000 </v>
   <v>       0.00000000       0.50000000       0.00000000 </v>
   <v>       0.25000000       0.50000000       0.00000000 </v>
   <v>       0.50000000       0.50000000       0.00000000 </v>
  </varray>
  <varray name="weights" >
   <v>       0.06250000 </v>
   <v>       0.12500000 </v>
   <v>       0.06250000 </v>
   <v>       0.12500000 </v>
   <v>       0.12500000 </v>
   <v>       0.12500000 </v>
   <v>       0.12500000 </v>
   <v>       0.06250000 </v>
   <v>       0.12500000 </v>
   <v>       0.06250000 </v>
  </varray>
 </kpoints>
 <parameters>
  <separator name="general" >
   <i type="string" name="SYSTEM">unknown system</i>
   <i type="logical" name="LCOMPAT"> F  </i>
  </separator>
  <separator name="electronic" >
   <i type="string" name="PREC">accura</i>
   <i name="ENMAX">    450.00000000</i>
   <i name="ENAUG">    838.43500000</i>
   <i name="EDIFF">      0.00000100</i>
   <i type="int" name="IALGO">    68</i>
   <i type="int" name="IWAVPR">    11</i>
   <i type="int" name="NBANDS">  1386</i>
   <i name="NELECT">   2297.00000000</i>
   <i type="int" name="TURBO">     0</i>
   <i type="int" name="IRESTART">     0</i>
   <i type="int" name="NREBOOT">     0</i>
   <i type="int" name="NMIN">     0</i>
   <i name="EREF">      0.00000000</i>
   <separator name="electronic smearing" >
    <i type="int" name="ISMEAR">     0</i>
    <i name="SIGMA">      0.15000000</i>
    <i name="KSPACING">      0.50000000</i>
    <i type="logical" name="KGAMMA"> T  </i>
   </separator>
   <separator name="electronic projectors" >
    <i type="logical" name="LREAL"> T  </i>
    <v name="ROPT">     -0.00025000     -0.00025000</v>
    <i type="int" name="LMAXPAW">  -100</i>
    <i type="int" name="LMAXMIX">     2</i>
    <i type="logical" name="NLSPLINE"> F  </i>
   </separator>
   <separator name="electronic startup" >
    <i type="int" name="ISTART">     0</i>
    <i type="int" name="ICHARG">     2</i>
    <i type="int" name="INIWAV">     1</i>
   </separator>
   <separator name="electronic spin" >
    <i type="int" name="ISPIN">     1</i>
    <i type="logical" name="LNONCOLLINEAR"> F  </i>
    <v name="MAGMOM">      1.00000000      1.00000000      1.00000000      1.00000000      1.00000000      1.00000000      1.00000000      1.00000000      1.00000000      1.00000000      1.00000000      1.00000000      1.00000000      1.00000000      1.00000000      1.00000000      1.00000000      1.00000000      1.00000000      1.00000000
      1.00000000      1.00000000      1.00000000      1.00000000      1.00000000      1.00000000      1.00000000      1.00000000      1.00000000      1.00000000      1.00000000      1.00000000      1.00000000      1.00000000      1.00000000      1.00000000      1.00000000      1.00000000      1.00000000      1.00000000
      1.00000000      1.00000000      1.00000000      1.00000000      1.00000000      1.00000000      1.00000000      1.00000000      1.00000000      1.00000000      1.00000000      1.00000000      1.00000000      1.00000000      1.00000000      1.00000000      1.00000000      1.00000000      1.00000000      1.00000000
      1.00000000      1.00000000      1.00000000      1.00000000      1.00000000      1.00000000      1.00000000      1.00000000      1.00000000      1.00000000      1.00000000      1.00000000      1.00000000      1.00000000      1.00000000      1.00000000      1.00000000      1.00000000      1.00000000      1.00000000
      1.00000000      1.00000000      1.00000000      1.00000000      1.00000000      1.00000000      1.00000000      1.00000000      1.00000000      1.00000000      1.00000000      1.00000000      1.00000000      1.00000000      1.00000000      1.00000000      1.00000000      1.00000000      1.00000000      1.00000000
      1.00000000      1.00000000      1.00000000      1.00000000      1.00000000      1.00000000      1.00000000      1.00000000      1.00000000      1.00000000      1.00000000      1.00000000      1.00000000      1.00000000      1.00000000      1.00000000      1.00000000      1.00000000      1.00000000      1.00000000
      1.00000000      1.00000000      1.00000000      1.00000000      1.00000000      1.00000000      1.00000000      1.00000000      1.00000000      1.00000000      1.00000000      1.00000000      1.00000000      1.00000000      1.00000000      1.00000000      1.00000000      1.00000000      1.00000000      1.00000000
      1.00000000      1.00000000      1.00000000      1.00000000      1.00000000      1.00000000      1.00000000      1.00000000      1.00000000      1.00000000      1.00000000      1.00000000      1.00000000      1.00000000      1.00000000      1.00000000      1.00000000      1.00000000      1.00000000      1.00000000
      1.00000000      1.00000000      1.00000000      1.00000000      1.00000000      1.00000000      1.00000000      1.00000000      1.00000000      1.00000000      1.00000000      1.00000000      1.00000000      1.00000000      1.00000000      1.00000000      1.00000000      1.00000000      1.00000000      1.00000000
      1.00000000      1.00000000      1.00000000      1.00000000      1.00000000      1.00000000      1.00000000      1.00000000      1.00000000      1.00000000      1.00000000      1.00000000      1.00000000      1.00000000      1.00000000      1.00000000      1.00000000      1.00000000      1.00000000      1.00000000
      1.00000000      1.00000000      1.00000000      1.00000000      1.00000000      1.00000000      1.00000000      1.00000000      1.00000000      1.00000000      1.00000000      1.00000000      1.00000000      1.00000000      1.00000000      1.00000000      1.00000000      1.00000000      1.00000000      1.00000000
      1.00000000      1.00000000      1.00000000      1.00000000      1.00000000      1.00000000      1.00000000      1.00000000      1.00000000      1.00000000      1.00000000      1.00000000      1.00000000      1.00000000      1.00000000      1.00000000      1.00000000      1.00000000      1.00000000      1.00000000
      1.00000000      1.00000000      1.00000000      1.00000000      1.00000000      1.00000000      1.00000000      1.00000000      1.00000000      1.00000000      1.00000000      1.00000000      1.00000000      1.00000000      1.00000000      1.00000000      1.00000000      1.00000000      1.00000000      1.00000000
      1.00000000      1.00000000      1.00000000      1.00000000      1.00000000      1.00000000      1.00000000      1.00000000      1.00000000      1.00000000      1.00000000      1.00000000      1.00000000      1.00000000      1.00000000      1.00000000      1.00000000      1.00000000      1.00000000      1.00000000
      1.00000000      1.00000000      1.00000000      1.00000000      1.00000000      1.00000000      1.00000000      1.00000000</v>
    <i name="NUPDOWN">     -1.00000000</i>
    <i type="logical" name="LSORBIT"> F  </i>
    <v name="SAXIS">      0.00000000      0.00000000      1.00000000</v>
    <i type="logical" name="LSPIRAL"> F  </i>
    <v name="QSPIRAL">      0.00000000      0.00000000      0.00000000</v>
    <i type="logical" name="LZEROZ"> F  </i>
   </separator>
   <separator name="electronic exchange-correlation" >
    <i type="logical" name="LASPH"> F  </i>
    <i type="logical" name="LMETAGGA"> F  </i>
   </separator>
   <separator name="electronic convergence" >
    <i type="int" name="NELM">   100</i>
    <i type="int" name="NELMDL">     0</i>
    <i type="int" name="NELMIN">     4</i>
    <i name="ENINI">    450.00000000</i>
    <separator name="electronic convergence detail" >
     <i type="logical" name="LDIAG"> T  </i>
     <i type="logical" name="LSUBROT"> F  </i>
     <i name="WEIMIN">      0.00100000</i>
     <i name="EBREAK">      0.00000000</i>
     <i name="DEPER">      0.30000000</i>
     <i type="int" name="NRMM">     4</i>
     <i name="TIME">      0.40000000</i>
    </separator>
   </separator>
   <separator name="electronic mixer" >
    <i name="AMIX">      0.40000000</i>
    <i name="BMIX">      1.00000000</i>
    <i name="AMIN">      0.10000000</i>
    <i name="AMIX_MAG">      1.60000000</i>
    <i name="BMIX_MAG">      1.00000000</i>
    <separator name="electronic mixer details" >
     <i type="int" name="IMIX">     4</i>
     <i type="logical" name="MIXFIRST"> F  </i>
     <i type="int" name="MAXMIX">   -45</i>
     <i name="WC">    100.00000000</i>
     <i type="int" name="INIMIX">     1</i>
     <i type="int" name="MIXPRE">     1</i>
     <i type="int" name="MREMOVE">     5</i>
    </separator>
   </separator>
   <separator name="electronic dipolcorrection" >
    <i type="logical" name="LDIPOL"> F  </i>
    <i type="logical" name="LMONO"> F  </i>
    <i type="int" name="IDIPOL">     0</i>
    <i name="EPSILON">      1.00000000</i>
    <v name="DIPOL">   -100.00000000   -100.00000000   -100.00000000</v>
    <i name="EFIELD">      0.00000000</i>
   </separator>
  </separator>
  <separator name="grids" >
   <i type="int" name="NGX">    70</i>
   <i type="int" name="NGY">    60</i>
   <i type="int" name="NGZ">   320</i>
   <i type="int" name="NGXF">   140</i>
   <i type="int" name="NGYF">   120</i>
   <i type="int" name="NGZF">   640</i>
   <i type="logical" name="ADDGRID"> F  </i>
  </separator>
  <separator name="ionic" >
   <i type="int" name="NSW">     5</i>
   <i type="int" name="IBRION">     2</i>
   <i type="int" name="MDALGO">     0</i>
   <i type="int" name="ISIF">     2</i>
   <i name="PSTRESS">      0.00000000</i>
   <i name="EDIFFG">      0.00001000</i>
   <i type="int" name="NFREE">     1</i>
   <i name="POTIM">      0.25000000</i>
   <i name="SMASS">     -3.00000000</i>
   <i name="SCALEE">      1.00000000</i>
  </separator>
  <separator name="ionic md" >
   <i name="TEBEG">      0.00010000</i>
   <i name="TEEND">      0.00010000</i>
   <i type="int" name="NBLOCK">     1</i>
   <i type="int" name="KBLOCK">     5</i>
   <i type="int" name="NPACO">   256</i>
   <i name="APACO">     16.00000000</i>
  </separator>
  <separator name="symmetry" >
   <i type="int" name="ISYM">     2</i>
   <i name="SYMPREC">      0.00001000</i>
  </separator>
  <separator name="dos" >
   <i type="int" name="LORBIT">     0</i>
   <v name="RWIGS">     -1.00000000     -1.00000000</v>
   <i type="int" name="NEDOS">   301</i>
   <i name="EMIN">     10.00000000</i>
   <i name="EMAX">    -10.00000000</i>
   <i name="EFERMI">      0.00000000</i>
  </separator>
  <separator name="writing" >
   <i type="int" name="NWRITE">     2</i>
   <i type="logical" name="LWAVE"> F  </i>
   <i type="logical" name="LDOWNSAMPLE"> F  </i>
   <i type="logical" name="LCHARG"> F  </i>
   <i type="logical" name="LPARD"> F  </i>
   <i type="logical" name="LVTOT"> F  </i>
   <i type="logical" name="LVHAR"> F  </i>
   <i type="logical" name="LELF"> F  </i>
   <i type="logical" name="LOPTICS"> F  </i>
   <v name="STM">      0.00000000      0.00000000      0.00000000      0.00000000      0.00000000      0.00000000      0.00000000</v>
  </separator>
  <separator name="performance" >
   <i type="int" name="NPAR">    14</i>
   <i type="int" name="NSIM">     4</i>
   <i type="int" name="NBLK">    -1</i>
   <i type="logical" name="LPLANE"> T  </i>
   <i type="logical" name="LSCALAPACK"> T  </i>
   <i type="logical" name="LSCAAWARE"> T  </i>
   <i type="logical" name="LSCALU"> F  </i>
   <i type="logical" name="LASYNC"> F  </i>
   <i type="logical" name="LORBITALREAL"> F  </i>
  </separator>
  <separator name="miscellaneous" >
   <i type="int" name="IDIOT">     3</i>
   <i type="int" name="ISPECIAL">     0</i>
   <i type="logical" name="LMUSIC"> F  </i>
   <v name="POMASS">     55.84700000     54.93800000</v>
   <v name="DARWINR">      0.00000000      0.00000000</v>
   <v name="DARWINV">      1.00000000      1.00000000</v>
   <i type="logical" name="LCORR"> T  </i>
  </separator>
  <i type="logical" name="GGA_COMPAT"> T  </i>
  <i type="logical" name="LBERRY"> F  </i>
  <i type="int" name="ICORELEVEL">     0</i>
  <i type="logical" name="LDAU"> F  </i>
  <i type="int" name="I_CONSTRAINED_M">     0</i>
  <separator name="electronic exchange-correlation" >
   <i type="string" name="GGA">--</i>
   <i type="int" name="VOSKOWN">     0</i>
   <i type="logical" name="LHFCALC"> F  </i>
   <i type="string" name="PRECFOCK"></i>
   <i type="logical" name="LSYMGRAD"> F  </i>
   <i type="logical" name="LHFONE"> F  </i>
   <i type="logical" name="LRHFCALC"> F  </i>
   <i type="logical" name="LTHOMAS"> F  </i>
   <i type="logical" name="LMODELHF"> F  </i>
   <i name="ENCUT4O">     -1.00000000</i>
   <i type="int" name="EXXOEP">     0</i>
   <i type="int" name="FOURORBIT">     0</i>
   <i name="AEXX">      0.00000000</i>
   <i name="HFALPHA">      0.00000000</i>
   <i name="MCALPHA">      0.00000000</i>
   <i name="ALDAX">      1.00000000</i>
   <i name="AGGAX">      1.00000000</i>
   <i name="ALDAC">      1.00000000</i>
   <i name="AGGAC">      1.00000000</i>
   <i type="int" name="NKREDX">     1</i>
   <i type="int" name="NKREDY">     1</i>
   <i type="int" name="NKREDZ">     1</i>
   <i type="logical" name="SHIFTRED"> F  </i>
   <i type="logical" name="ODDONLY"> F  </i>
   <i type="logical" name="EVENONLY"> F  </i>
   <i type="int" name="LMAXFOCK">     0</i>
   <i type="int" name="NMAXFOCKAE">     0</i>
   <i type="logical" name="LFOCKAEDFT"> F  </i>
   <i name="HFSCREEN">      0.00000000</i>
   <i name="HFSCREENC">      0.00000000</i>
   <i type="int" name="NBANDSGWLOW">     0</i>
  </separator>
  <separator name="vdW DFT" >
   <i type="logical" name="LUSE_VDW"> F  </i>
   <i name="Zab_VDW">     -0.84910000</i>
   <i name="PARAM1">      0.12340000</i>
   <i name="PARAM2">      1.00000000</i>
   <i name="PARAM3">      0.00000000</i>
  </separator>
  <separator name="model GW" >
   <i type="int" name="MODEL_GW">     0</i>
   <i name="MODEL_EPS0">      7.68123389</i>
   <i name="MODEL_ALPHA">      1.00000000</i>
  </separator>
  <separator name="linear response parameters" >
   <i type="logical" name="LEPSILON"> F  </i>
   <i type="logical" name="LRPA"> F  </i>
   <i type="logical" name="LNABLA"> F  </i>
   <i type="logical" name="LVEL"> F  </i>
   <i type="int" name="KINTER">     0</i>
   <i name="CSHIFT">      0.10000000</i>
   <i name="OMEGAMAX">     -1.00000000</i>
   <i name="DEG_THRESHOLD">      0.00200000</i>
   <i name="RTIME">     -0.10000000</i>
   <i name="WPLASMAI">      0.00000000</i>
   <v name="DFIELD">      0.00000000      0.00000000      0.00000000</v>
   <v name="WPLASMA">      0.00000000      0.00000000      0.00000000      0.00000000      0.00000000      0.00000000      0.00000000      0.00000000      0.00000000</v>
  </separator>
  <separator name="orbital magnetization" >
   <i type="logical" name="NUCIND"> F  </i>
   <v name="MAGPOS">      0.00000000      0.00000000      0.00000000</v>
   <i type="logical" name="LNICSALL"> T  </i>
   <i type="logical" name="ORBITALMAG"> F  </i>
   <i type="logical" name="LMAGBLOCH"> F  </i>
   <i type="logical" name="LCHIMAG"> F  </i>
   <i type="logical" name="LGAUGE"> T  </i>
   <i type="int" name="MAGATOM">     0</i>
   <v name="MAGDIPOL">      0.00000000      0.00000000      0.00000000</v>
   <v name="AVECCONST">      0.00000000      0.00000000      0.00000000</v>
  </separator>
  <separator name="response functions" >
   <i type="logical" name="LADDER"> F  </i>
   <i type="logical" name="LRPAFORCE"> F  </i>
   <i type="logical" name="LFXC"> F  </i>
   <i type="logical" name="LHARTREE"> T  </i>
   <i type="int" name="IBSE">     0</i>
   <v type="int" name="KPOINT">    -1     0     0     0</v>
   <i type="logical" name="LTCTE"> F  </i>
   <i type="logical" name="LTETE"> F  </i>
   <i type="logical" name="LTRIPLET"> F  </i>
   <i type="logical" name="LFXCEPS"> F  </i>
   <i type="logical" name="LFXHEG"> F  </i>
   <i type="int" name="NATURALO">     2</i>
   <i type="logical" name="L2ORDER"> F  </i>
   <i type="logical" name="LMP2LT"> F  </i>
   <i type="logical" name="LUSEW"> F  </i>
   <i name="ENCUTGW">     -2.00000000</i>
   <i name="ENCUTGWSOFT">     -2.00000000</i>
   <i name="ENCUTLF">     -1.00000000</i>
   <i type="int" name="LMAXMP2">    -1</i>
   <i name="SCISSOR">      0.00000000</i>
   <i type="int" name="NOMEGA">     0</i>
   <i type="int" name="NOMEGAR">     0</i>
   <i type="int" name="NBANDSGW">    -1</i>
   <i type="int" name="NBANDSO">    -1</i>
   <i type="int" name="NBANDSV">    -1</i>
   <i type="int" name="NELM">   100</i>
   <i type="int" name="NELMHF">     1</i>
   <i type="int" name="DIM">     3</i>
   <i type="int" name="ANTIRES">     0</i>
   <i name="OMEGAMAX">    -30.00000000</i>
   <i name="OMEGAMIN">    -30.00000000</i>
   <i name="OMEGATL">   -200.00000000</i>
   <i type="int" name="OMEGAGRID">   140</i>
   <i name="CSHIFT">     -0.10000000</i>
   <i type="logical" name="SELFENERGY"> F  </i>
   <i type="logical" name="LSPECTRAL"> F  </i>
   <i type="logical" name="LSPECTRALGW"> F  </i>
   <i type="logical" name="LSINGLES"> F  </i>
   <i type="logical" name="LFERMIGW"> F  </i>
   <i type="logical" name="ODDONLYGW"> F  </i>
   <i type="logical" name="EVENONLYGW"> F  </i>
   <i type="int" name="NKREDLFX">     1</i>
   <i type="int" name="NKREDLFY">     1</i>
   <i type="int" name="NKREDLFZ">     1</i>
   <i type="int" name="MAXMEM">  2800</i>
   <i type="int" name="TELESCOPE">     0</i>
   <i type="int" name="TAUPAR">     1</i>
   <i type="int" name="OMEGAPAR">    -1</i>
   <i name="LAMBDA">      1.00000000</i>
  </separator>
  <separator name="External order field" >
   <i name="OFIELD_KAPPA">      0.00000000</i>
   <v name="OFIELD_K">      0.00000000      0.00000000      0.00000000</v>
   <i name="OFIELD_Q6_NEAR">      0.00000000</i>
   <i name="OFIELD_Q6_FAR">      0.00000000</i>
   <i name="OFIELD_A">      0.00000000</i>
  </separator>
 </parameters>
 <atominfo>
  <atoms>     288 </atoms>
  <types>       2 </types>
  <array name="atoms" >
   <dimension dim="1">ion</dimension>
   <field type="string">element</field>
   <field type="int">atomtype</field>
   <set>
    <rc><c>Fe</c><c>   1</c></rc>
    <rc><c>Fe</c><c>   1</c></rc>
    <rc><c>Fe</c><c>   1</c></rc>
    <rc><c>Fe</c><c>   1</c></rc>
    <rc><c>Fe</c><c>   1</c></rc>
    <rc><c>Fe</c><c>   1</c></rc>
    <rc><c>Fe</c><c>   1</c></rc>
    <rc><c>Fe</c><c>   1</c></rc>
    <rc><c>Fe</c><c>   1</c></rc>
    <rc><c>Fe</c><c>   1</c></rc>
    <rc><c>Fe</c><c>   1</c></rc>
    <rc><c>Fe</c><c>   1</c></rc>
    <rc><c>Fe</c><c>   1</c></rc>
    <rc><c>Fe</c><c>   1</c></rc>
    <rc><c>Fe</c><c>   1</c></rc>
    <rc><c>Fe</c><c>   1</c></rc>
    <rc><c>Fe</c><c>   1</c></rc>
    <rc><c>Fe</c><c>   1</c></rc>
    <rc><c>Fe</c><c>   1</c></rc>
    <rc><c>Fe</c><c>   1</c></rc>
    <rc><c>Fe</c><c>   1</c></rc>
    <rc><c>Fe</c><c>   1</c></rc>
    <rc><c>Fe</c><c>   1</c></rc>
    <rc><c>Fe</c><c>   1</c></rc>
    <rc><c>Fe</c><c>   1</c></rc>
    <rc><c>Fe</c><c>   1</c></rc>
    <rc><c>Fe</c><c>   1</c></rc>
    <rc><c>Fe</c><c>   1</c></rc>
    <rc><c>Fe</c><c>   1</c></rc>
    <rc><c>Fe</c><c>   1</c></rc>
    <rc><c>Fe</c><c>   1</c></rc>
    <rc><c>Fe</c><c>   1</c></rc>
    <rc><c>Fe</c><c>   1</c></rc>
    <rc><c>Fe</c><c>   1</c></rc>
    <rc><c>Fe</c><c>   1</c></rc>
    <rc><c>Fe</c><c>   1</c></rc>
    <rc><c>Fe</c><c>   1</c></rc>
    <rc><c>Fe</c><c>   1</c></rc>
    <rc><c>Fe</c><c>   1</c></rc>
    <rc><c>Fe</c><c>   1</c></rc>
    <rc><c>Fe</c><c>   1</c></rc>
    <rc><c>Fe</c><c>   1</c></rc>
    <rc><c>Fe</c><c>   1</c></rc>
    <rc><c>Fe</c><c>   1</c></rc>
    <rc><c>Fe</c><c>   1</c></rc>
    <rc><c>Fe</c><c>   1</c></rc>
    <rc><c>Fe</c><c>   1</c></rc>
    <rc><c>Fe</c><c>   1</c></rc>
    <rc><c>Fe</c><c>   1</c></rc>
    <rc><c>Fe</c><c>   1</c></rc>
    <rc><c>Fe</c><c>   1</c></rc>
    <rc><c>Fe</c><c>   1</c></rc>
    <rc><c>Fe</c><c>   1</c></rc>
    <rc><c>Fe</c><c>   1</c></rc>
    <rc><c>Fe</c><c>   1</c></rc>
    <rc><c>Fe</c><c>   1</c></rc>
    <rc><c>Fe</c><c>   1</c></rc>
    <rc><c>Fe</c><c>   1</c></rc>
    <rc><c>Fe</c><c>   1</c></rc>
    <rc><c>Fe</c><c>   1</c></rc>
    <rc><c>Fe</c><c>   1</c></rc>
    <rc><c>Fe</c><c>   1</c></rc>
    <rc><c>Fe</c><c>   1</c></rc>
    <rc><c>Fe</c><c>   1</c></rc>
    <rc><c>Fe</c><c>   1</c></rc>
    <rc><c>Fe</c><c>   1</c></rc>
    <rc><c>Fe</c><c>   1</c></rc>
    <rc><c>Fe</c><c>   1</c></rc>
    <rc><c>Fe</c><c>   1</c></rc>
    <rc><c>Fe</c><c>   1</c></rc>
    <rc><c>Fe</c><c>   1</c></rc>
    <rc><c>Fe</c><c>   1</c></rc>
    <rc><c>Fe</c><c>   1</c></rc>
    <rc><c>Fe</c><c>   1</c></rc>
    <rc><c>Fe</c><c>   1</c></rc>
    <rc><c>Fe</c><c>   1</c></rc>
    <rc><c>Fe</c><c>   1</c></rc>
    <rc><c>Fe</c><c>   1</c></rc>
    <rc><c>Fe</c><c>   1</c></rc>
    <rc><c>Fe</c><c>   1</c></rc>
    <rc><c>Fe</c><c>   1</c></rc>
    <rc><c>Fe</c><c>   1</c></rc>
    <rc><c>Fe</c><c>   1</c></rc>
    <rc><c>Fe</c><c>   1</c></rc>
    <rc><c>Fe</c><c>   1</c></rc>
    <rc><c>Fe</c><c>   1</c></rc>
    <rc><c>Fe</c><c>   1</c></rc>
    <rc><c>Fe</c><c>   1</c></rc>
    <rc><c>Fe</c><c>   1</c></rc>
    <rc><c>Fe</c><c>   1</c></rc>
    <rc><c>Fe</c><c>   1</c></rc>
    <rc><c>Fe</c><c>   1</c></rc>
    <rc><c>Fe</c><c>   1</c></rc>
    <rc><c>Fe</c><c>   1</c></rc>
    <rc><c>Fe</c><c>   1</c></rc>
    <rc><c>Fe</c><c>   1</c></rc>
    <rc><c>Fe</c><c>   1</c></rc>
    <rc><c>Fe</c><c>   1</c></rc>
    <rc><c>Fe</c><c>   1</c></rc>
    <rc><c>Fe</c><c>   1</c></rc>
    <rc><c>Fe</c><c>   1</c></rc>
    <rc><c>Fe</c><c>   1</c></rc>
    <rc><c>Fe</c><c>   1</c></rc>
    <rc><c>Fe</c><c>   1</c></rc>
    <rc><c>Fe</c><c>   1</c></rc>
    <rc><c>Fe</c><c>   1</c></rc>
    <rc><c>Fe</c><c>   1</c></rc>
    <rc><c>Fe</c><c>   1</c></rc>
    <rc><c>Fe</c><c>   1</c></rc>
    <rc><c>Fe</c><c>   1</c></rc>
    <rc><c>Fe</c><c>   1</c></rc>
    <rc><c>Fe</c><c>   1</c></rc>
    <rc><c>Fe</c><c>   1</c></rc>
    <rc><c>Fe</c><c>   1</c></rc>
    <rc><c>Fe</c><c>   1</c></rc>
    <rc><c>Fe</c><c>   1</c></rc>
    <rc><c>Fe</c><c>   1</c></rc>
    <rc><c>Fe</c><c>   1</c></rc>
    <rc><c>Fe</c><c>   1</c></rc>
    <rc><c>Fe</c><c>   1</c></rc>
    <rc><c>Fe</c><c>   1</c></rc>
    <rc><c>Fe</c><c>   1</c></rc>
    <rc><c>Fe</c><c>   1</c></rc>
    <rc><c>Fe</c><c>   1</c></rc>
    <rc><c>Fe</c><c>   1</c></rc>
    <rc><c>Fe</c><c>   1</c></rc>
    <rc><c>Fe</c><c>   1</c></rc>
    <rc><c>Fe</c><c>   1</c></rc>
    <rc><c>Fe</c><c>   1</c></rc>
    <rc><c>Fe</c><c>   1</c></rc>
    <rc><c>Fe</c><c>   1</c></rc>
    <rc><c>Fe</c><c>   1</c></rc>
    <rc><c>Fe</c><c>   1</c></rc>
    <rc><c>Fe</c><c>   1</c></rc>
    <rc><c>Fe</c><c>   1</c></rc>
    <rc><c>Fe</c><c>   1</c></rc>
    <rc><c>Fe</c><c>   1</c></rc>
    <rc><c>Fe</c><c>   1</c></rc>
    <rc><c>Fe</c><c>   1</c></rc>
    <rc><c>Fe</c><c>   1</c></rc>
    <rc><c>Fe</c><c>   1</c></rc>
    <rc><c>Fe</c><c>   1</c></rc>
    <rc><c>Fe</c><c>   1</c></rc>
    <rc><c>Fe</c><c>   1</c></rc>
    <rc><c>Fe</c><c>   1</c></rc>
    <rc><c>Fe</c><c>   1</c></rc>
    <rc><c>Fe</c><c>   1</c></rc>
    <rc><c>Fe</c><c>   1</c></rc>
    <rc><c>Fe</c><c>   1</c></rc>
    <rc><c>Fe</c><c>   1</c></rc>
    <rc><c>Fe</c><c>   1</c></rc>
    <rc><c>Fe</c><c>   1</c></rc>
    <rc><c>Fe</c><c>   1</c></rc>
    <rc><c>Fe</c><c>   1</c></rc>
    <rc><c>Fe</c><c>   1</c></rc>
    <rc><c>Fe</c><c>   1</c></rc>
    <rc><c>Fe</c><c>   1</c></rc>
    <rc><c>Fe</c><c>   1</c></rc>
    <rc><c>Fe</c><c>   1</c></rc>
    <rc><c>Fe</c><c>   1</c></rc>
    <rc><c>Fe</c><c>   1</c></rc>
    <rc><c>Fe</c><c>   1</c></rc>
    <rc><c>Fe</c><c>   1</c></rc>
    <rc><c>Fe</c><c>   1</c></rc>
    <rc><c>Fe</c><c>   1</c></rc>
    <rc><c>Fe</c><c>   1</c></rc>
    <rc><c>Fe</c><c>   1</c></rc>
    <rc><c>Fe</c><c>   1</c></rc>
    <rc><c>Fe</c><c>   1</c></rc>
    <rc><c>Fe</c><c>   1</c></rc>
    <rc><c>Fe</c><c>   1</c></rc>
    <rc><c>Fe</c><c>   1</c></rc>
    <rc><c>Fe</c><c>   1</c></rc>
    <rc><c>Fe</c><c>   1</c></rc>
    <rc><c>Fe</c><c>   1</c></rc>
    <rc><c>Fe</c><c>   1</c></rc>
    <rc><c>Fe</c><c>   1</c></rc>
    <rc><c>Fe</c><c>   1</c></rc>
    <rc><c>Fe</c><c>   1</c></rc>
    <rc><c>Fe</c><c>   1</c></rc>
    <rc><c>Fe</c><c>   1</c></rc>
    <rc><c>Fe</c><c>   1</c></rc>
    <rc><c>Fe</c><c>   1</c></rc>
    <rc><c>Fe</c><c>   1</c></rc>
    <rc><c>Fe</c><c>   1</c></rc>
    <rc><c>Fe</c><c>   1</c></rc>
    <rc><c>Fe</c><c>   1</c></rc>
    <rc><c>Fe</c><c>   1</c></rc>
    <rc><c>Fe</c><c>   1</c></rc>
    <rc><c>Fe</c><c>   1</c></rc>
    <rc><c>Fe</c><c>   1</c></rc>
    <rc><c>Fe</c><c>   1</c></rc>
    <rc><c>Fe</c><c>   1</c></rc>
    <rc><c>Fe</c><c>   1</c></rc>
    <rc><c>Fe</c><c>   1</c></rc>
    <rc><c>Fe</c><c>   1</c></rc>
    <rc><c>Fe</c><c>   1</c></rc>
    <rc><c>Fe</c><c>   1</c></rc>
    <rc><c>Fe</c><c>   1</c></rc>
    <rc><c>Fe</c><c>   1</c></rc>
    <rc><c>Fe</c><c>   1</c></rc>
    <rc><c>Fe</c><c>   1</c></rc>
    <rc><c>Fe</c><c>   1</c></rc>
    <rc><c>Fe</c><c>   1</c></rc>
    <rc><c>Fe</c><c>   1</c></rc>
    <rc><c>Fe</c><c>   1</c></rc>
    <rc><c>Fe</c><c>   1</c></rc>
    <rc><c>Fe</c><c>   1</c></rc>
    <rc><c>Fe</c><c>   1</c></rc>
    <rc><c>Fe</c><c>   1</c></rc>
    <rc><c>Fe</c><c>   1</c></rc>
    <rc><c>Fe</c><c>   1</c></rc>
    <rc><c>Fe</c><c>   1</c></rc>
    <rc><c>Fe</c><c>   1</c></rc>
    <rc><c>Fe</c><c>   1</c></rc>
    <rc><c>Fe</c><c>   1</c></rc>
    <rc><c>Fe</c><c>   1</c></rc>
    <rc><c>Fe</c><c>   1</c></rc>
    <rc><c>Fe</c><c>   1</c></rc>
    <rc><c>Fe</c><c>   1</c></rc>
    <rc><c>Fe</c><c>   1</c></rc>
    <rc><c>Fe</c><c>   1</c></rc>
    <rc><c>Fe</c><c>   1</c></rc>
    <rc><c>Fe</c><c>   1</c></rc>
    <rc><c>Fe</c><c>   1</c></rc>
    <rc><c>Fe</c><c>   1</c></rc>
    <rc><c>Fe</c><c>   1</c></rc>
    <rc><c>Fe</c><c>   1</c></rc>
    <rc><c>Fe</c><c>   1</c></rc>
    <rc><c>Fe</c><c>   1</c></rc>
    <rc><c>Fe</c><c>   1</c></rc>
    <rc><c>Fe</c><c>   1</c></rc>
    <rc><c>Fe</c><c>   1</c></rc>
    <rc><c>Fe</c><c>   1</c></rc>
    <rc><c>Fe</c><c>   1</c></rc>
    <rc><c>Fe</c><c>   1</c></rc>
    <rc><c>Fe</c><c>   1</c></rc>
    <rc><c>Fe</c><c>   1</c></rc>
    <rc><c>Fe</c><c>   1</c></rc>
    <rc><c>Fe</c><c>   1</c></rc>
    <rc><c>Fe</c><c>   1</c></rc>
    <rc><c>Fe</c><c>   1</c></rc>
    <rc><c>Fe</c><c>   1</c></rc>
    <rc><c>Fe</c><c>   1</c></rc>
    <rc><c>Fe</c><c>   1</c></rc>
    <rc><c>Fe</c><c>   1</c></rc>
    <rc><c>Fe</c><c>   1</c></rc>
    <rc><c>Fe</c><c>   1</c></rc>
    <rc><c>Fe</c><c>   1</c></rc>
    <rc><c>Fe</c><c>   1</c></rc>
    <rc><c>Fe</c><c>   1</c></rc>
    <rc><c>Fe</c><c>   1</c></rc>
    <rc><c>Fe</c><c>   1</c></rc>
    <rc><c>Fe</c><c>   1</c></rc>
    <rc><c>Fe</c><c>   1</c></rc>
    <rc><c>Fe</c><c>   1</c></rc>
    <rc><c>Fe</c><c>   1</c></rc>
    <rc><c>Fe</c><c>   1</c></rc>
    <rc><c>Fe</c><c>   1</c></rc>
    <rc><c>Fe</c><c>   1</c></rc>
    <rc><c>Fe</c><c>   1</c></rc>
    <rc><c>Fe</c><c>   1</c></rc>
    <rc><c>Fe</c><c>   1</c></rc>
    <rc><c>Fe</c><c>   1</c></rc>
    <rc><c>Fe</c><c>   1</c></rc>
    <rc><c>Fe</c><c>   1</c></rc>
    <rc><c>Fe</c><c>   1</c></rc>
    <rc><c>Fe</c><c>   1</c></rc>
    <rc><c>Fe</c><c>   1</c></rc>
    <rc><c>Fe</c><c>   1</c></rc>
    <rc><c>Fe</c><c>   1</c></rc>
    <rc><c>Fe</c><c>   1</c></rc>
    <rc><c>Fe</c><c>   1</c></rc>
    <rc><c>Fe</c><c>   1</c></rc>
    <rc><c>Fe</c><c>   1</c></rc>
    <rc><c>Fe</c><c>   1</c></rc>
    <rc><c>Fe</c><c>   1</c></rc>
    <rc><c>Fe</c><c>   1</c></rc>
    <rc><c>Fe</c><c>   1</c></rc>
    <rc><c>Fe</c><c>   1</c></rc>
    <rc><c>Fe</c><c>   1</c></rc>
    <rc><c>Mn</c><c>   2</c></rc>
    <rc><c>Mn</c><c>   2</c></rc>
    <rc><c>Mn</c><c>   2</c></rc>
    <rc><c>Mn</c><c>   2</c></rc>
    <rc><c>Mn</c><c>   2</c></rc>
    <rc><c>Mn</c><c>   2</c></rc>
    <rc><c>Mn</c><c>   2</c></rc>
   </set>
  </array>
  <array name="atomtypes" >
   <dimension dim="1">type</dimension>
   <field type="int">atomspertype</field>
   <field type="string">element</field>
   <field>mass</field>
   <field>valence</field>
   <field type="string">pseudopotential</field>
   <set>
    <rc><c> 281</c><c>Fe</c><c>     55.84700000</c><c>      8.00000000</c><c>  PAW_PBE Fe_GW 31Mar2010               </c></rc>
    <rc><c>   7</c><c>Mn</c><c>     54.93800000</c><c>      7.00000000</c><c>  PAW_PBE Mn_GW 31Mar2010               </c></rc>
   </set>
  </array>
 </atominfo>
 <structure name="initialpos" >
  <crystal>
   <varray name="basis" >
    <v>       9.72667804       0.00000000       0.00000000 </v>
    <v>       0.00000000       8.42355028       0.00000000 </v>
    <v>       0.00000000       0.00000000      45.00000000 </v>
   </varray>
   <i name="volume">   3686.99226691 </i>
   <varray name="rec_basis" >
    <v>       0.10281002       0.00000000       0.00000000 </v>
    <v>       0.00000000       0.11871479       0.00000000 </v>
    <v>       0.00000000       0.00000000       0.02222222 </v>
   </varray>
  </crystal>
  <varray name="positions" >
   <v>       0.06262951       0.03182064       0.12507053 </v>
   <v>       0.06335656       0.87107984       0.52113254 </v>
   <v>       0.18907493       0.11944273       0.78811342 </v>
   <v>       0.43638581       0.28943870       0.38935421 </v>
   <v>       0.30742713       0.71195769       0.83283079 </v>
   <v>       0.80722871       0.21236266       0.83265627 </v>
   <v>       0.18614867       0.78948676       0.38930987 </v>
   <v>       0.56296604       0.20703863       0.56520689 </v>
   <v>       0.05847853       0.03830896       0.74365572 </v>
   <v>       0.81348619       0.87134196       0.52128835 </v>
   <v>       0.18468891       0.28917834       0.74370684 </v>
   <v>       0.93927327       0.45389692       0.34537040 </v>
   <v>       0.93627553       0.28946056       0.38935243 </v>
   <v>       0.81006991       0.03937016       0.87517062 </v>
   <v>       0.18841910       0.78990620       0.61051081 </v>
   <v>       0.56178120       0.03872452       0.38933482 </v>
   <v>       0.93223715       0.96219696       0.83278800 </v>
   <v>       0.31022582       0.53952853       0.87519413 </v>
   <v>       0.68434525       0.28875974       0.74372360 </v>
   <v>       0.19263765       0.61470589       0.16729527 </v>
   <v>       0.81345219       0.20515601       0.47867027 </v>
   <v>       0.81357345       0.53960015       0.61056971 </v>
   <v>       0.31322893       0.86934424       0.43452164 </v>
   <v>       0.81550203       0.04075748       0.25644237 </v>
   <v>       0.68973757       0.95479619       0.34559227 </v>
   <v>       0.94047287       0.11395034       0.16714881 </v>
   <v>       0.93844074       0.12109242       0.52121799 </v>
   <v>       0.56557249       0.54082191       0.25637462 </v>
   <v>       0.68687412       0.79291685       0.87511849 </v>
   <v>       0.56818569       0.36584375       0.16729177 </v>
   <v>       0.43384799       0.78870130       0.74373999 </v>
   <v>       0.81346880       0.70736471       0.56538271 </v>
   <v>       0.56391872       0.86913806       0.78799620 </v>
   <v>       0.68855866       0.12130267       0.52126117 </v>
   <v>       0.81155699       0.37401612       0.65449643 </v>
   <v>       0.93230020       0.46221888       0.83275555 </v>
   <v>       0.06355405       0.20710708       0.69945677 </v>
   <v>       0.43758067       0.95748003       0.69936250 </v>
   <v>       0.30690284       0.21147048       0.83299557 </v>
   <v>       0.43497077       0.62396932       0.65456643 </v>
   <v>       0.31362948       0.53965289       0.61049556 </v>
   <v>       0.93831629       0.45690479       0.56540657 </v>
   <v>       0.68410615       0.78900762       0.74374003 </v>
   <v>       0.93933060       0.78761183       0.12496519 </v>
   <v>       0.68635645       0.78910219       0.38940619 </v>
   <v>       0.93469157       0.78924741       0.74369024 </v>
   <v>       0.06586713       0.20378897       0.34546747 </v>
   <v>       0.81083580       0.03915238       0.38939475 </v>
   <v>       0.43963949       0.11928323       0.78809534 </v>
   <v>       0.06076250       0.20791589       0.21225203 </v>
   <v>       0.06814241       0.36574310       0.16723173 </v>
   <v>       0.94086824       0.79115607       0.25645758 </v>
   <v>       0.56282510       0.20749311       0.69926963 </v>
   <v>       0.68806256       0.95701686       0.69915943 </v>
   <v>       0.43935382       0.78707686       0.12493183 </v>
   <v>       0.43856044       0.95688281       0.56533792 </v>
   <v>       0.81421998       0.36910465       0.78793343 </v>
   <v>       0.69099325       0.29061886       0.25629619 </v>
   <v>       0.18800143       0.45727015       0.56521943 </v>
   <v>       0.06742278       0.86539357       0.16741328 </v>
   <v>       0.18844341       0.28954314       0.61045808 </v>
   <v>       0.56548938       0.70374019       0.34520851 </v>
   <v>       0.31265827       0.20738676       0.69936551 </v>
   <v>       0.56032182       0.53906922       0.87522113 </v>
   <v>       0.06284978       0.70744675       0.56511488 </v>
   <v>       0.68915222       0.61929958       0.78792450 </v>
   <v>       0.31121716       0.53981509       0.38939826 </v>
   <v>       0.18844722       0.62083470       0.52119063 </v>
   <v>       0.56307585       0.86933933       0.43459634 </v>
   <v>       0.43830854       0.45718823       0.56523884 </v>
   <v>       0.43414326       0.28928050       0.74375440 </v>
   <v>       0.80782920       0.87457187       0.30045260 </v>
   <v>       0.81548765       0.70341196       0.34523414 </v>
   <v>       0.43240901       0.46197713       0.83282341 </v>
   <v>       0.68848632       0.95520203       0.47873526 </v>
   <v>       0.68779958       0.45714079       0.69933171 </v>
   <v>       0.56378314       0.87099928       0.52119466 </v>
   <v>       0.56184779       0.37407298       0.65462415 </v>
   <v>       0.81109770       0.87361103       0.65476389 </v>
   <v>       0.81284499       0.36982846       0.43460368 </v>
   <v>       0.81581685       0.54059219       0.25635135 </v>
   <v>       0.68207943       0.46190909       0.83284032 </v>
   <v>       0.19052743       0.78754911       0.12499270 </v>
   <v>       0.06048369       0.03931654       0.87527836 </v>
   <v>       0.31103617       0.37336802       0.65446879 </v>
   <v>       0.31509331       0.20437638       0.34554074 </v>
   <v>       0.80905019       0.53921684       0.74377198 </v>
   <v>       0.68230762       0.96184307       0.83278418 </v>
   <v>       0.56177338       0.87397654       0.65454213 </v>
   <v>       0.31314952       0.70706833       0.56542093 </v>
   <v>       0.31291037       0.53269274       0.12490029 </v>
   <v>       0.68669157       0.95745497       0.21224929 </v>
   <v>       0.31305515       0.20766195       0.56511617 </v>
   <v>       0.18868530       0.95506442       0.47860843 </v>
   <v>       0.68784179       0.95731605       0.56522473 </v>
   <v>       0.43838972       0.79000661       0.61056300 </v>
   <v>       0.69245386       0.61358364       0.16740313 </v>
   <v>       0.30748229       0.87358567       0.30085710 </v>
   <v>       0.31313249       0.70523302       0.47870200 </v>
   <v>       0.93832150       0.28946495       0.61051803 </v>
   <v>       0.43239967       0.62505934       0.30070305 </v>
   <v>       0.81733779       0.86509328       0.16749551 </v>
   <v>       0.56080545       0.20770799       0.21224939 </v>
   <v>       0.94197787       0.61350253       0.16737972 </v>
   <v>       0.93715935       0.79256392       0.87514758 </v>
   <v>       0.56389535       0.36891944       0.78787216 </v>
   <v>       0.06334409       0.37106018       0.52124648 </v>
   <v>       0.56360241       0.37112196       0.52119744 </v>
   <v>       0.68425788       0.12488669       0.30065582 </v>
   <v>       0.43228898       0.96194203       0.83299959 </v>
   <v>       0.19105504       0.28736452       0.12501514 </v>
   <v>       0.81389644       0.86935152       0.78802977 </v>
   <v>       0.31282497       0.36963948       0.43451425 </v>
   <v>       0.56271557       0.03206926       0.12506062 </v>
   <v>       0.43824957       0.29001866       0.61058199 </v>
   <v>       0.19044098       0.45315888       0.34521269 </v>
   <v>       0.43929881       0.28724309       0.12487844 </v>
   <v>       0.69052414       0.79099417       0.25666956 </v>
   <v>       0.43849279       0.12076006       0.52120156 </v>
   <v>       0.18704901       0.29266267       0.87525949 </v>
   <v>       0.18641671       0.12255046       0.65459297 </v>
   <v>       0.93623917       0.12322558       0.65449618 </v>
   <v>       0.31087828       0.20706966       0.21217360 </v>
   <v>       0.06126145       0.03914501       0.38938432 </v>
   <v>       0.19283626       0.11469242       0.16722207 </v>
   <v>       0.06322125       0.53954339       0.61041316 </v>
   <v>       0.94067368       0.29094230       0.25635851 </v>
   <v>       0.56326272       0.53964717       0.61047534 </v>
   <v>       0.93855936       0.95691293       0.56516875 </v>
   <v>       0.68254807       0.62543935       0.30071816 </v>
   <v>       0.93804329       0.62017570       0.43452099 </v>
   <v>       0.93882038       0.61933182       0.78795170 </v>
   <v>       0.56283942       0.70725112       0.69927182 </v>
   <v>       0.05725783       0.71180022       0.83278820 </v>
   <v>       0.93421717       0.12493080       0.30060623 </v>
   <v>       0.93833324       0.78927425       0.61046350 </v>
   <v>       0.44139976       0.79095270       0.25648197 </v>
   <v>       0.31418066       0.36906597       0.78797111 </v>
   <v>       0.43672467       0.45808678       0.21236149 </v>
   <v>       0.18880183       0.12081686       0.52113278 </v>
   <v>       0.81301989       0.70738844       0.69921908 </v>
   <v>       0.06357901       0.03998213       0.61059669 </v>
   <v>       0.55709331       0.21222688       0.83273063 </v>
   <v>       0.31338984       0.87116913       0.52127968 </v>
   <v>       0.69120941       0.28721004       0.12491894 </v>
   <v>       0.18671021       0.95777391       0.21227348 </v>
   <v>       0.68858031       0.28964340       0.61053413 </v>
   <v>       0.31309405       0.03993939       0.61045101 </v>
   <v>       0.93897934       0.11980062       0.78817033 </v>
   <v>       0.43734009       0.79280704       0.87530101 </v>
   <v>       0.80903800       0.03925884       0.74356714 </v>
   <v>       0.93801935       0.45707146       0.69917608 </v>
   <v>       0.18688234       0.62362074       0.65453097 </v>
   <v>       0.31253258       0.70807272       0.69920446 </v>
   <v>       0.93945046       0.28750689       0.12486219 </v>
   <v>       0.43838980       0.45538989       0.47867525 </v>
   <v>       0.06328650       0.70521591       0.47865821 </v>
   <v>       0.93826717       0.11986383       0.43463078 </v>
   <v>       0.43276050       0.12460449       0.30056885 </v>
   <v>       0.18780755       0.11994080       0.43464122 </v>
   <v>       0.56028381       0.03916414       0.87516828 </v>
   <v>       0.18813689       0.95676080       0.56519887 </v>
   <v>       0.69061071       0.78752017       0.12502691 </v>
   <v>       0.56276542       0.53296022       0.12495967 </v>
   <v>       0.31148269       0.03904812       0.38942426 </v>
   <v>       0.69290330       0.11475097       0.16730098 </v>
   <v>       0.81073838       0.20763552       0.21220140 </v>
   <v>       0.06622609       0.53991129       0.25628513 </v>
   <v>       0.56329607       0.70502231       0.47864406 </v>
   <v>       0.06341781       0.20707222       0.56522612 </v>
   <v>       0.55708270       0.37410920       0.30062879 </v>
   <v>       0.43998154       0.95411864       0.34536248 </v>
   <v>       0.18222530       0.96189683       0.83280778 </v>
   <v>       0.44166680       0.61377856       0.16737851 </v>
   <v>       0.93672382       0.45782366       0.21237535 </v>
   <v>       0.06252534       0.53281866       0.12494628 </v>
   <v>       0.81349063       0.37100573       0.52128518 </v>
   <v>       0.93239182       0.62486097       0.30068837 </v>
   <v>       0.31557716       0.04196570       0.25671824 </v>
   <v>       0.68878727       0.78951823       0.61051828 </v>
   <v>       0.18236923       0.46248520       0.83266432 </v>
   <v>       0.44155518       0.11375969       0.16705501 </v>
   <v>       0.31351593       0.37122335       0.52122350 </v>
   <v>       0.43881826       0.61891134       0.78793718 </v>
   <v>       0.06602097       0.04138650       0.25648950 </v>
   <v>       0.56368270       0.70678326       0.56521310 </v>
   <v>       0.93412385       0.28876078       0.74368749 </v>
   <v>       0.68934562       0.11940063       0.78798339 </v>
   <v>       0.18536537       0.45803606       0.21238381 </v>
   <v>       0.93654412       0.78904873       0.38939229 </v>
   <v>       0.68708316       0.29299267       0.87517869 </v>
   <v>       0.31731868       0.86504974       0.16738031 </v>
   <v>       0.43834175       0.45733459       0.69919490 </v>
   <v>       0.94089362       0.95375741       0.34536945 </v>
   <v>       0.68853571       0.62090375       0.52125543 </v>
   <v>       0.06198183       0.87458788       0.65455357 </v>
   <v>       0.06397277       0.86961346       0.78800439 </v>
   <v>       0.06057083       0.37430515       0.65482829 </v>
   <v>       0.68843779       0.45539860       0.47862844 </v>
   <v>       0.19061134       0.79096352       0.25632738 </v>
   <v>       0.43786719       0.11966515       0.43459749 </v>
   <v>       0.81291160       0.03256645       0.12476097 </v>
   <v>       0.93854751       0.62098208       0.52127460 </v>
   <v>       0.06292427       0.86974061       0.43453475 </v>
   <v>       0.81261245       0.53295757       0.12494449 </v>
   <v>       0.44041567       0.45405309       0.34531423 </v>
   <v>       0.81544935       0.20357629       0.34528555 </v>
   <v>       0.31552039       0.70334666       0.34533666 </v>
   <v>       0.68635443       0.12384441       0.65448689 </v>
   <v>       0.55704554       0.87400594       0.30050418 </v>
   <v>       0.05924075       0.53928468       0.74361605 </v>
   <v>       0.93580075       0.95755205       0.21229779 </v>
   <v>       0.81107317       0.70792461       0.21217840 </v>
   <v>       0.05719534       0.87379290       0.30068380 </v>
   <v>       0.18412756       0.12414190       0.30056609 </v>
   <v>       0.06526506       0.70368548       0.34535923 </v>
   <v>       0.81341592       0.03974915       0.61060130 </v>
   <v>       0.06305120       0.36952047       0.43462717 </v>
   <v>       0.56564467       0.20343712       0.34537318 </v>
   <v>       0.80715474       0.37389036       0.30067681 </v>
   <v>       0.43845789       0.95498595       0.47860948 </v>
   <v>       0.56067450       0.53782685       0.38931812 </v>
   <v>       0.06312112       0.20536388       0.47864483 </v>
   <v>       0.31370137       0.86898106       0.78798469 </v>
   <v>       0.93787242       0.95727743       0.69923910 </v>
   <v>       0.05702472       0.37485089       0.30074026 </v>
   <v>       0.68635477       0.62338391       0.65448150 </v>
   <v>       0.68822949       0.45712620       0.56543537 </v>
   <v>       0.43598071       0.95755726       0.21227922 </v>
   <v>       0.31353566       0.20524853       0.47858727 </v>
   <v>       0.43654563       0.12279297       0.65444966 </v>
   <v>       0.68815886       0.61998426       0.43452879 </v>
   <v>       0.81279814       0.20746492       0.69926479 </v>
   <v>       0.81327456       0.70516889       0.47875623 </v>
   <v>       0.81302328       0.86949787       0.43455571 </v>
   <v>       0.93824341       0.95525039       0.47866753 </v>
   <v>       0.56330273       0.20503970       0.47865927 </v>
   <v>       0.18801724       0.61921058       0.43447044 </v>
   <v>       0.30909735       0.03890750       0.74374555 </v>
   <v>       0.93648999       0.62383364       0.65444983 </v>
   <v>       0.55737513       0.71253082       0.83293679 </v>
   <v>       0.30709389       0.37452454       0.30063573 </v>
   <v>       0.56075470       0.70747064       0.21222067 </v>
   <v>       0.18829828       0.45522493       0.47864100 </v>
   <v>       0.31014795       0.03951194       0.87525905 </v>
   <v>       0.18796076       0.45730026       0.69917841 </v>
   <v>       0.81037922       0.53904034       0.87511246 </v>
   <v>       0.18642258       0.28934694       0.38941259 </v>
   <v>       0.43789402       0.62013802       0.43449419 </v>
   <v>       0.06090950       0.70786105       0.21219256 </v>
   <v>       0.56327711       0.36920682       0.43465245 </v>
   <v>       0.43853449       0.62101269       0.52120346 </v>
   <v>       0.80735261       0.71228158       0.83274709 </v>
   <v>       0.06391730       0.36906552       0.78798293 </v>
   <v>       0.43742620       0.29244361       0.87527585 </v>
   <v>       0.31264876       0.03262390       0.12475772 </v>
   <v>       0.68771944       0.12037547       0.43455353 </v>
   <v>       0.18997670       0.95376517       0.34539607 </v>
   <v>       0.05729964       0.21238736       0.83287490 </v>
   <v>       0.56327645       0.03977430       0.61057958 </v>
   <v>       0.68528373       0.45799467       0.21235544 </v>
   <v>       0.18464396       0.78901281       0.74386176 </v>
   <v>       0.18237261       0.62456522       0.30069273 </v>
   <v>       0.43644214       0.78934859       0.38945630 </v>
   <v>       0.44060081       0.29091380       0.25635649 </v>
   <v>       0.06036616       0.53925023       0.87519169 </v>
   <v>       0.55920801       0.03894317       0.74369325 </v>
   <v>       0.18717651       0.79241628       0.87528853 </v>
   <v>       0.93808303       0.45529977       0.47869130 </v>
   <v>       0.81083142       0.53807328       0.38934066 </v>
   <v>       0.81329022       0.20716274       0.56543976 </v>
   <v>       0.18931359       0.61922212       0.78809394 </v>
   <v>       0.06118981       0.53981318       0.38943509 </v>
   <v>       0.06329406       0.70749368       0.69933063 </v>
   <v>       0.31541270       0.54045132       0.25619033 </v>
   <v>       0.31117196       0.70796848       0.21215783 </v>
   <v>       0.56736389       0.86544099       0.16740023 </v>
   <v>       0.55883303       0.53926504       0.74353941 </v>
   <v>       0.69043996       0.45399623       0.34523442 </v>
   <v>       0.93716526       0.29280444       0.87515372 </v>
   <v>       0.56587090       0.04043687       0.25634185 </v>
   <v>       0.68605442       0.28891899       0.38922902 </v>
   <v>       0.31819622       0.36426123       0.16675183 </v>
   <v>       0.81804159       0.36467974       0.16674023 </v>
   <v>       0.18817703       0.95648150       0.69964856 </v>
   <v>       0.31259572       0.87375107       0.65381828 </v>
   <v>       0.19193810       0.29102857       0.25644294 </v>
   <v>       0.30869863       0.53872473       0.74376206 </v>
  </varray>
 </structure>
 <calculation>
  <scstep>
   <time name="dav">   53.98   53.99</time>
   <time name="total">   54.14   54.18</time>
   <energy>
    <i name="alphaZ">  16403.00255340 </i>
    <i name="ewald"> 742102.10282601 </i>
    <i name="hartreedc">-933731.17739530 </i>
    <i name="XCdc">  -6387.65415187 </i>
    <i name="pawpsdc"> 163151.95320885 </i>
    <i name="pawaedc">-160818.84594568 </i>
    <i name="eentropy">     -1.04220841 </i>
    <i name="bandstr">  38617.13316972 </i>
    <i name="atom"> 169914.59583762 </i>
    <i name="e_fr_energy">  29250.06789435 </i>
    <i name="e_wo_entrp">  29251.11010276 </i>
    <i name="e_0_energy">  29250.58899856 </i>
   </energy>
  </scstep>
  <scstep>
   <time name="dav">   53.43   53.44</time>
   <time name="total">   53.43   53.45</time>
   <energy>
    <i name="e_fr_energy">   1200.16217029 </i>
    <i name="e_wo_entrp">   1201.62629920 </i>
    <i name="e_0_energy">   1200.89423475 </i>
   </energy>
  </scstep>
  <scstep>
   <time name="dav">   70.15   70.19</time>
   <time name="total">   70.15   70.20</time>
   <energy>
    <i name="e_fr_energy">  -1941.37130241 </i>
    <i name="e_wo_entrp">  -1937.77635774 </i>
    <i name="e_0_energy">  -1939.57383007 </i>
   </energy>
  </scstep>
  <scstep>
   <time name="dav">   88.04   88.08</time>
   <time name="total">   88.05   88.09</time>
   <energy>
    <i name="e_fr_energy">  -2611.60032278 </i>
    <i name="e_wo_entrp">  -2608.05187502 </i>
    <i name="e_0_energy">  -2609.82609890 </i>
   </energy>
  </scstep>
  <scstep>
   <time name="dav">   83.92   83.97</time>
   <time name="total">   85.97   86.02</time>
   <energy>
    <i name="e_fr_energy">  -2731.88220906 </i>
    <i name="e_wo_entrp">  -2728.25710467 </i>
    <i name="e_0_energy">  -2730.06965687 </i>
   </energy>
  </scstep>
  <scstep>
   <time name="diag">    8.26    8.26</time>
   <time name="diis">   37.18   37.19</time>
   <time name="orth">    2.28    2.28</time>
   <time name="total">   49.93   49.97</time>
   <energy>
    <i name="e_fr_energy">  -5645.79788302 </i>
    <i name="e_wo_entrp">  -5641.84552759 </i>
    <i name="e_0_energy">  -5643.82170531 </i>
   </energy>
  </scstep>
  <scstep>
   <time name="diag">    8.26    8.26</time>
   <time name="diis">   34.38   34.39</time>
   <time name="orth">    2.28    2.28</time>
   <time name="total">   47.06   47.11</time>
[...]
       <r>     5.8342     0.0000  2772.0000 </r>
       <r>     5.8770     0.0000  2772.0000 </r>
       <r>     5.9198     0.0000  2772.0000 </r>
       <r>     5.9626     0.0000  2772.0000 </r>
       <r>     6.0055     0.0000  2772.0000 </r>
       <r>     6.0483     0.0000  2772.0000 </r>
       <r>     6.0911     0.0000  2772.0000 </r>
       <r>     6.1339     0.0000  2772.0000 </r>
       <r>     6.1768     0.0000  2772.0000 </r>
       <r>     6.2196     0.0000  2772.0000 </r>
       <r>     6.2624     0.0000  2772.0000 </r>
       <r>     6.3052     0.0000  2772.0000 </r>
       <r>     6.3481     0.0000  2772.0000 </r>
       <r>     6.3909     0.0000  2772.0000 </r>
       <r>     6.4337     0.0000  2772.0000 </r>
       <r>     6.4765     0.0000  2772.0000 </r>
       <r>     6.5194     0.0000  2772.0000 </r>
       <r>     6.5622     0.0000  2772.0000 </r>
       <r>     6.6050     0.0000  2772.0000 </r>
       <r>     6.6478     0.0000  2772.0000 </r>
       <r>     6.6907     0.0000  2772.0000 </r>
       <r>     6.7335     0.0000  2772.0000 </r>
       <r>     6.7763     0.0000  2772.0000 </r>
      </set>
     </set>
    </array>
   </total>
  </dos>
 </calculation>
 <structure name="finalpos" >
  <crystal>
   <varray name="basis" >
    <v>       9.72667804       0.00000000       0.00000000 </v>
    <v>       0.00000000       8.42355028       0.00000000 </v>
    <v>       0.00000000       0.00000000      45.00000000 </v>
   </varray>
   <i name="volume">   3686.99226691 </i>
   <varray name="rec_basis" >
    <v>       0.10281002       0.00000000       0.00000000 </v>
    <v>       0.00000000       0.11871479       0.00000000 </v>
    <v>       0.00000000       0.00000000       0.02222222 </v>
   </varray>
  </crystal>
  <varray name="positions" >
   <v>       0.06399897       0.03349791       0.12518905 </v>
   <v>       0.06345144       0.87241702       0.52148035 </v>
   <v>       0.18723401       0.12161971       0.78793329 </v>
   <v>       0.43699660       0.28848372       0.38964713 </v>
   <v>       0.30921869       0.70954730       0.83292350 </v>
   <v>       0.80919055       0.20947770       0.83282899 </v>
   <v>       0.18721818       0.78875228       0.38956068 </v>
   <v>       0.56306483       0.20608806       0.56552486 </v>
   <v>       0.06036547       0.03939119       0.74361220 </v>
   <v>       0.81334872       0.87225261       0.52152003 </v>
   <v>       0.18572869       0.28928350       0.74352748 </v>
   <v>       0.93800129       0.45507899       0.34547986 </v>
   <v>       0.93747806       0.28852050       0.38964149 </v>
   <v>       0.81014481       0.04192394       0.87488883 </v>
   <v>       0.18783992       0.78995914       0.61015655 </v>
   <v>       0.56204274       0.03847010       0.38963525 </v>
   <v>       0.93371909       0.95970749       0.83294352 </v>
   <v>       0.31014599       0.54149868       0.87493203 </v>
   <v>       0.68580569       0.28922680       0.74351067 </v>
   <v>       0.19055684       0.61739447       0.16726855 </v>
   <v>       0.81315717       0.20439074       0.47838044 </v>
   <v>       0.81295517       0.53997605       0.61027448 </v>
   <v>       0.31307469       0.87078404       0.43437089 </v>
   <v>       0.81391113       0.03943616       0.25646232 </v>
   <v>       0.68828185       0.95505386       0.34538267 </v>
   <v>       0.94035064       0.11704051       0.16719147 </v>
   <v>       0.93827355       0.12242489       0.52155214 </v>
   <v>       0.56368400       0.54024981       0.25652835 </v>
   <v>       0.68570585       0.79135034       0.87497215 </v>
   <v>       0.56615802       0.36803415       0.16716621 </v>
   <v>       0.43560629       0.78937407       0.74353550 </v>
   <v>       0.81324630       0.70626238       0.56555223 </v>
   <v>       0.56225026       0.87166109       0.78788350 </v>
   <v>       0.68835769       0.12238977       0.52156508 </v>
   <v>       0.81190368       0.37364788       0.65454495 </v>
   <v>       0.93384358       0.45965065       0.83285322 </v>
   <v>       0.06196234       0.20642924       0.69922595 </v>
   <v>       0.43763577       0.95656602       0.69926443 </v>
   <v>       0.30909791       0.20909486       0.83301080 </v>
   <v>       0.43728304       0.62328429       0.65454508 </v>
   <v>       0.31291842       0.53999648       0.61031419 </v>
   <v>       0.93813812       0.45594717       0.56551124 </v>
   <v>       0.68569882       0.78984459       0.74352099 </v>
   <v>       0.94025784       0.78467741       0.12533719 </v>
   <v>       0.68718696       0.78830194       0.38960415 </v>
   <v>       0.93580446       0.78970247       0.74351690 </v>
   <v>       0.06328548       0.20500719       0.34543963 </v>
   <v>       0.81221069       0.03850531       0.38962454 </v>
   <v>       0.43737394       0.12167754       0.78798908 </v>
   <v>       0.06227042       0.20603499       0.21221726 </v>
   <v>       0.06629984       0.36823360       0.16718697 </v>
   <v>       0.93838465       0.78984065       0.25650449 </v>
   <v>       0.56227360       0.20677795       0.69925340 </v>
   <v>       0.68731095       0.95660108       0.69927758 </v>
   <v>       0.44028690       0.78474483       0.12530902 </v>
   <v>       0.43826769       0.95622930       0.56546484 </v>
   <v>       0.81218846       0.37192659       0.78779901 </v>
   <v>       0.68886614       0.28995283       0.25647787 </v>
   <v>       0.18817480       0.45611816       0.56552213 </v>
   <v>       0.06612811       0.86759975       0.16725083 </v>
   <v>       0.18794204       0.29030348       0.61022170 </v>
   <v>       0.56316153       0.70545204       0.34540426 </v>
   <v>       0.31236951       0.20640434       0.69922580 </v>
   <v>       0.56009654       0.54149990       0.87494875 </v>
   <v>       0.06302179       0.70580766       0.56541182 </v>
   <v>       0.68735222       0.62202112       0.78784672 </v>
   <v>       0.31210286       0.53877117       0.38963152 </v>
   <v>       0.18838065       0.62249516       0.52150949 </v>
   <v>       0.56317443       0.87070973       0.43437599 </v>
   <v>       0.43831020       0.45630622       0.56548098 </v>
   <v>       0.43598376       0.28940256       0.74355059 </v>
   <v>       0.81074316       0.87427465       0.30082993 </v>
   <v>       0.81309469       0.70541655       0.34547662 </v>
   <v>       0.43391668       0.45947075       0.83291270 </v>
   <v>       0.68816267       0.95438743       0.47837919 </v>
   <v>       0.68737603       0.45634570       0.69924371 </v>
   <v>       0.56322153       0.87231452       0.52150457 </v>
   <v>       0.56221153       0.37335699       0.65450568 </v>
   <v>       0.81223694       0.87339520       0.65452929 </v>
   <v>       0.81313671       0.37081327       0.43443683 </v>
   <v>       0.81360960       0.53982200       0.25656875 </v>
   <v>       0.68374249       0.45965787       0.83285072 </v>
   <v>       0.18957176       0.78439201       0.12533632 </v>
   <v>       0.06007869       0.04156217       0.87495695 </v>
   <v>       0.31199989       0.37340806       0.65455127 </v>
   <v>       0.31328037       0.20485422       0.34539606 </v>
   <v>       0.81056168       0.53937639       0.74352195 </v>
   <v>       0.68382088       0.95965304       0.83286177 </v>
   <v>       0.56221382       0.87344095       0.65457608 </v>
   <v>       0.31326282       0.70616369       0.56546019 </v>
   <v>       0.31422067       0.53463325       0.12500035 </v>
   <v>       0.68729477       0.95627346       0.21220513 </v>
   <v>       0.31325372       0.20670845       0.56538889 </v>
   <v>       0.18811212       0.95425815       0.47831496 </v>
   <v>       0.68819126       0.95610175       0.56553117 </v>
   <v>       0.43825348       0.78970650       0.61016851 </v>
   <v>       0.69057786       0.61745202       0.16737948 </v>
   <v>       0.31066878       0.87371443       0.30072199 </v>
   <v>       0.31324009       0.70430062       0.47831431 </v>
   <v>       0.93821139       0.28975520       0.61032927 </v>
   <v>       0.43603415       0.62360892       0.30078137 </v>
   <v>       0.81611610       0.86711196       0.16728444 </v>
   <v>       0.56238009       0.20582210       0.21216500 </v>
   <v>       0.94059544       0.61726535       0.16734333 </v>
   <v>       0.93598221       0.79139320       0.87495672 </v>
   <v>       0.56199764       0.37197396       0.78782302 </v>
   <v>       0.06335154       0.37236404       0.52149507 </v>
   <v>       0.56335692       0.37229153       0.52153812 </v>
   <v>       0.68575371       0.12383281       0.30078218 </v>
   <v>       0.43388969       0.95939890       0.83294301 </v>
   <v>       0.19092816       0.28467414       0.12508668 </v>
   <v>       0.81222001       0.87180220       0.78783129 </v>
   <v>       0.31313204       0.37095138       0.43441464 </v>
   <v>       0.56394778       0.03346137       0.12521750 </v>
   <v>       0.43801805       0.29008988       0.61025432 </v>
   <v>       0.18796745       0.45504969       0.34546657 </v>
   <v>       0.43923842       0.28503872       0.12506862 </v>
   <v>       0.68875932       0.78973427       0.25648307 </v>
   <v>       0.43836888       0.12234580       0.52151627 </v>
   <v>       0.18572903       0.29152123       0.87507041 </v>
   <v>       0.18678508       0.12386299       0.65457758 </v>
   <v>       0.93725819       0.12363064       0.65461348 </v>
   <v>       0.31233656       0.20561830       0.21219967 </v>
   <v>       0.06195664       0.03831537       0.38962845 </v>
   <v>       0.19105062       0.11715758       0.16722195 </v>
   <v>       0.06284196       0.53985928       0.61026612 </v>
   <v>       0.93836748       0.28990334       0.25646136 </v>
   <v>       0.56307433       0.53982917       0.61024185 </v>
   <v>       0.93816067       0.95621780       0.56550303 </v>
   <v>       0.68566785       0.62412666       0.30070873 </v>
   <v>       0.93803508       0.62068360       0.43439448 </v>
   <v>       0.93723182       0.62199465       0.78787340 </v>
   <v>       0.56170115       0.70622633       0.69925336 </v>
   <v>       0.05896472       0.70981570       0.83294113 </v>
   <v>       0.93614075       0.12362395       0.30071034 </v>
   <v>       0.93791278       0.78970493       0.61022602 </v>
   <v>       0.43892460       0.78994421       0.25648006 </v>
   <v>       0.31231728       0.37138172       0.78788498 </v>
   <v>       0.43765997       0.45618147       0.21228961 </v>
   <v>       0.18820258       0.12244288       0.52149166 </v>
   <v>       0.81232053       0.70605677       0.69924271 </v>
   <v>       0.06321887       0.03958396       0.61026220 </v>
   <v>       0.55891441       0.20955224       0.83276749 </v>
   <v>       0.31348168       0.87220473       0.52152831 </v>
   <v>       0.69089758       0.28481080       0.12510464 </v>
   <v>       0.18729689       0.95653294       0.21223002 </v>
   <v>       0.68782574       0.28977303       0.61032027 </v>
   <v>       0.31289099       0.04002828       0.61019622 </v>
   <v>       0.93716499       0.12190495       0.78793924 </v>
   <v>       0.43592698       0.79149560       0.87506683 </v>
   <v>       0.81064304       0.03950838       0.74353986 </v>
   <v>       0.93683673       0.45620713       0.69929180 </v>
   <v>       0.18679963       0.62352993       0.65457307 </v>
   <v>       0.31242358       0.70659986       0.69915167 </v>
   <v>       0.93910665       0.28498629       0.12507425 </v>
   <v>       0.43812749       0.45434967       0.47838507 </v>
   <v>       0.06317625       0.70426008       0.47831115 </v>
   <v>       0.93782824       0.12087367       0.43441075 </v>
   <v>       0.43585210       0.12370686       0.30079682 </v>
   <v>       0.18808400       0.12087048       0.43436100 </v>
   <v>       0.56018273       0.04178040       0.87496871 </v>
   <v>       0.18812699       0.95618246       0.56547125 </v>
   <v>       0.68958928       0.78453863       0.12535897 </v>
   <v>       0.56427737       0.53443652       0.12522143 </v>
   <v>       0.31217424       0.03823629       0.38961943 </v>
   <v>       0.69094461       0.11710790       0.16724602 </v>
   <v>       0.81208971       0.20563992       0.21215641 </v>
   <v>       0.06345253       0.54000447       0.25653848 </v>
   <v>       0.56321572       0.70423255       0.47833995 </v>
   <v>       0.06323364       0.20611987       0.56549131 </v>
   <v>       0.56083143       0.37387008       0.30076596 </v>
   <v>       0.43810993       0.95500203       0.34538549 </v>
   <v>       0.18372988       0.95948120       0.83294668 </v>
   <v>       0.44060717       0.61719910       0.16733615 </v>
   <v>       0.93805161       0.45635876       0.21232379 </v>
   <v>       0.06414898       0.53463593       0.12519446 </v>
   <v>       0.81326882       0.37232131       0.52156445 </v>
   <v>       0.93569927       0.62364769       0.30078209 </v>
   <v>       0.31383184       0.03938439       0.25653195 </v>
   <v>       0.68808572       0.78974447       0.61027903 </v>
   <v>       0.18385043       0.45950373       0.83288529 </v>
   <v>       0.44025509       0.11700643       0.16718690 </v>
   <v>       0.31334567       0.37226360       0.52151731 </v>
   <v>       0.43734920       0.62163816       0.78791736 </v>
   <v>       0.06359512       0.03981706       0.25647934 </v>
   <v>       0.56342146       0.70601280       0.56542220 </v>
   <v>       0.93576365       0.28918665       0.74353087 </v>
   <v>       0.68714393       0.12167442       0.78783496 </v>
   <v>       0.18689170       0.45648179       0.21231347 </v>
   <v>       0.93738024       0.78860391       0.38961453 </v>
   <v>       0.68592106       0.29155850       0.87499511 </v>
   <v>       0.31621000       0.86748855       0.16725535 </v>
   <v>       0.43766722       0.45631016       0.69919343 </v>
   <v>       0.93817880       0.95513537       0.34539592 </v>
   <v>       0.68834030       0.62227257       0.52156790 </v>
   <v>       0.06161605       0.87344153       0.65457319 </v>
   <v>       0.06196599       0.87169255       0.78792285 </v>
   <v>       0.06167341       0.37324003       0.65447596 </v>
   <v>       0.68817116       0.45430425       0.47838737 </v>
   <v>       0.18867069       0.79000136       0.25652077 </v>
   <v>       0.43816126       0.12082515       0.43439508 </v>
   <v>       0.81417864       0.03525930       0.12518707 </v>
   <v>       0.93828458       0.62237688       0.52155550 </v>
   <v>       0.06305669       0.87081207       0.43438680 </v>
   <v>       0.81415218       0.53465360       0.12501411 </v>
   <v>       0.43829250       0.45506623       0.34546017 </v>
   <v>       0.81349529       0.20494589       0.34537337 </v>
   <v>       0.31323223       0.70484525       0.34547757 </v>
   <v>       0.68692268       0.12375895       0.65461723 </v>
   <v>       0.56072416       0.87426683       0.30083055 </v>
   <v>       0.06034794       0.53904979       0.74350724 </v>
   <v>       0.93758176       0.95633747       0.21222955 </v>
   <v>       0.81223146       0.70549250       0.21216402 </v>
   <v>       0.06084945       0.87363432       0.30077017 </v>
   <v>       0.18573705       0.12377047       0.30087333 </v>
   <v>       0.06316162       0.70476528       0.34538466 </v>
   <v>       0.81296809       0.03961198       0.61031880 </v>
   <v>       0.06292791       0.37094518       0.43438890 </v>
   <v>       0.56327431       0.20506472       0.34538835 </v>
   <v>       0.81071576       0.37390770       0.30071689 </v>
   <v>       0.43813310       0.95420335       0.47835161 </v>
   <v>       0.56207025       0.53846078       0.38954191 </v>
   <v>       0.06327384       0.20425978       0.47835400 </v>
   <v>       0.31229544       0.87150104       0.78790871 </v>
   <v>       0.93691217       0.95641548       0.69924903 </v>
   <v>       0.06063356       0.37373838       0.30083351 </v>
   <v>       0.68687118       0.62306396       0.65454700 </v>
   <v>       0.68810790       0.45604141       0.56551101 </v>
   <v>       0.43776563       0.95628164       0.21224571 </v>
   <v>       0.31314853       0.20430524       0.47831913 </v>
   <v>       0.43695735       0.12370026       0.65460452 </v>
   <v>       0.68802716       0.62065477       0.43442581 </v>
   <v>       0.81236736       0.20684983       0.69925311 </v>
   <v>       0.81318342       0.70434041       0.47833655 </v>
   <v>       0.81301364       0.87077757       0.43436515 </v>
   <v>       0.93815630       0.95423860       0.47831749 </v>
   <v>       0.56312094       0.20423488       0.47839767 </v>
   <v>       0.18798168       0.62071372       0.43441584 </v>
   <v>       0.31076219       0.03931800       0.74364424 </v>
   <v>       0.93691374       0.62327186       0.65455141 </v>
   <v>       0.55911965       0.70955394       0.83291155 </v>
   <v>       0.31081291       0.37370055       0.30076704 </v>
   <v>       0.56230839       0.70589909       0.21221680 </v>
   <v>       0.18815984       0.45432855       0.47833212 </v>
   <v>       0.30999068       0.04187083       0.87497894 </v>
   <v>       0.18716952       0.45655966       0.69922764 </v>
   <v>       0.81014391       0.54167525       0.87491248 </v>
   <v>       0.18711004       0.28869997       0.38963264 </v>
   <v>       0.43794262       0.62063064       0.43438312 </v>
   <v>       0.06232616       0.70603489       0.21222765 </v>
   <v>       0.56303180       0.37083318       0.43439413 </v>
   <v>       0.43823036       0.62239067       0.52152249 </v>
   <v>       0.80914463       0.70944985       0.83277373 </v>
   <v>       0.06230165       0.37163394       0.78782878 </v>
   <v>       0.43593644       0.29146936       0.87502017 </v>
   <v>       0.31407950       0.03513851       0.12510893 </v>
   <v>       0.68811922       0.12066104       0.43443528 </v>
   <v>       0.18814861       0.95476787       0.34547431 </v>
   <v>       0.05929265       0.20946257       0.83285987 </v>
   <v>       0.56290470       0.03968541       0.61026015 </v>
   <v>       0.68694593       0.45644106       0.21237704 </v>
   <v>       0.18556408       0.78920003       0.74367294 </v>
   <v>       0.18570311       0.62353017       0.30073972 </v>
   <v>       0.43670233       0.78849051       0.38960266 </v>
   <v>       0.43883726       0.28993940       0.25644259 </v>
   <v>       0.06010757       0.54161495       0.87490867 </v>
   <v>       0.56111938       0.03944738       0.74361345 </v>
   <v>       0.18564594       0.79128107       0.87501048 </v>
   <v>       0.93822993       0.45435136       0.47838527 </v>
   <v>       0.81230711       0.53854536       0.38956001 </v>
   <v>       0.81326411       0.20600861       0.56553610 </v>
   <v>       0.18716792       0.62136794       0.78795734 </v>
   <v>       0.06187961       0.53871753       0.38964395 </v>
   <v>       0.06252332       0.70658192       0.69926568 </v>
   <v>       0.31373791       0.53981625       0.25654237 </v>
   <v>       0.31220316       0.70579950       0.21211439 </v>
   <v>       0.56622436       0.86710168       0.16723769 </v>
   <v>       0.56098156       0.53940721       0.74351034 </v>
   <v>       0.68807581       0.45505273       0.34539036 </v>
   <v>       0.93569676       0.29157827       0.87498527 </v>
   <v>       0.56366600       0.03963625       0.25643861 </v>
   <v>       0.68707583       0.28856863       0.38949592 </v>
   <v>       0.31670570       0.36665960       0.16668650 </v>
   <v>       0.81679694       0.36644315       0.16667187 </v>
   <v>       0.18708024       0.95691346       0.69944095 </v>
   <v>       0.31208656       0.87367775       0.65426446 </v>
   <v>       0.18891062       0.28994260       0.25635319 </v>
   <v>       0.31048349       0.53893594       0.74366954 </v>
  </varray>
 </structure>
</modeling>
