       N       E                     dE             d eps       ncg     rms          rms(c)
DAV:   1     0.290758694873E+05    0.29076E+05   -0.86153E+05 27930   0.196E+03
DAV:   2     0.118791164860E+04   -0.27888E+05   -0.27268E+05 27720   0.601E+02
DAV:   3    -0.194931743668E+04   -0.31372E+04   -0.27190E+04 39004   0.279E+02
DAV:   4    -0.261885558371E+04   -0.66954E+03   -0.60940E+03 50904   0.974E+01
DAV:   5    -0.273838249057E+04   -0.11953E+03   -0.11188E+03 48244   0.397E+01    0.204E+02
RMM:   6    -0.547495982625E+04   -0.27366E+04   -0.99689E+03 47348   0.227E+02    0.574E+02
RMM:   7    -0.346691107047E+04    0.20080E+04   -0.35913E+03 28429   0.129E+02    0.344E+02
RMM:   8    -0.111748716726E+05   -0.77080E+04   -0.17008E+04 43835   0.355E+02    0.103E+03
RMM:   9    -0.149584822580E+05   -0.37836E+04   -0.16903E+04 49864   0.174E+02    0.764E+02
RMM:  10    -0.749231905818E+04    0.74662E+04   -0.41860E+03 41650   0.130E+02    0.485E+02
RMM:  11    -0.700381554408E+04    0.48850E+03   -0.16166E+04 47961   0.286E+02    0.905E+02
RMM:  12    -0.832039712737E+04   -0.13166E+04   -0.14963E+04 50166   0.158E+02    0.880E+02
RMM:  13    -0.958938966045E+04   -0.12690E+04   -0.63887E+03 49297   0.148E+02    0.642E+02
RMM:  14    -0.758491459223E+04    0.20045E+04   -0.81023E+03 33812   0.182E+02    0.611E+02
RMM:  15    -0.863727885662E+04   -0.10524E+04   -0.34082E+03 29389   0.111E+02    0.532E+02
RMM:  16    -0.476382099663E+04    0.38735E+04   -0.44262E+03 27991   0.144E+02    0.446E+02
RMM:  17    -0.328562329181E+04    0.14782E+04   -0.13173E+03 31348   0.595E+01    0.349E+02
RMM:  18    -0.302524866578E+04    0.26037E+03   -0.24259E+03 45902   0.564E+01    0.299E+02
RMM:  19    -0.292337690344E+04    0.10187E+03   -0.14583E+03 45387   0.487E+01    0.268E+02
RMM:  20    -0.269578069172E+04    0.22760E+03   -0.12691E+03 43216   0.406E+01    0.222E+02
RMM:  21    -0.259989555844E+04    0.95885E+02   -0.12656E+03 48125   0.276E+01    0.152E+02
RMM:  22    -0.261701367799E+04   -0.17118E+02   -0.70763E+02 42663   0.249E+01    0.139E+02
RMM:  23    -0.262951494903E+04   -0.12501E+02   -0.68005E+02 46526   0.149E+01    0.136E+02
RMM:  24    -0.265743114751E+04   -0.27916E+02   -0.47691E+02 41715   0.124E+01    0.146E+02
RMM:  25    -0.266314577596E+04   -0.57146E+01   -0.35237E+02 45164   0.999E+00    0.157E+02
RMM:  26    -0.267322353345E+04   -0.10078E+02   -0.25921E+02 46831   0.647E+00    0.167E+02
RMM:  27    -0.286486568235E+04   -0.19164E+03   -0.30624E+02 41041   0.153E+01    0.188E+02
RMM:  28    -0.297578749506E+04   -0.11092E+03   -0.25993E+02 47277   0.924E+00    0.196E+02
RMM:  29    -0.287873327159E+04    0.97054E+02   -0.16045E+02 35568   0.106E+01    0.203E+02
RMM:  30    -0.251754817807E+04    0.36119E+03   -0.17295E+02 36685   0.139E+01    0.175E+02
RMM:  31    -0.239728264107E+04    0.12027E+03   -0.15586E+02 34312   0.128E+01    0.111E+02
RMM:  32    -0.240648937368E+04   -0.92067E+01   -0.22635E+02 41437   0.128E+01    0.101E+02
RMM:  33    -0.239727109334E+04    0.92183E+01   -0.13359E+02 39302   0.100E+01    0.967E+01
RMM:  34    -0.239412682972E+04    0.31443E+01   -0.63588E+01 36161   0.740E+00    0.972E+01
RMM:  35    -0.238222588711E+04    0.11901E+02   -0.39097E+01 42025   0.466E+00    0.927E+01
RMM:  36    -0.236827708298E+04    0.13949E+02   -0.13029E+01 36110   0.377E+00    0.869E+01
RMM:  37    -0.235681126286E+04    0.11466E+02   -0.12593E+01 35947   0.406E+00    0.764E+01
RMM:  38    -0.233528509995E+04    0.21526E+02   -0.22535E+01 34899   0.545E+00    0.520E+01
RMM:  39    -0.232987210818E+04    0.54130E+01   -0.21114E+01 35925   0.499E+00    0.441E+01
RMM:  40    -0.233767155577E+04   -0.77994E+01   -0.18631E+01 41795   0.355E+00    0.565E+01
RMM:  41    -0.234467024066E+04   -0.69987E+01   -0.88693E+00 35128   0.278E+00    0.643E+01
RMM:  42    -0.234601113411E+04   -0.13409E+01   -0.73368E+00 45379   0.107E+00    0.658E+01
RMM:  43    -0.234647742216E+04   -0.46629E+00   -0.20521E+00 45065   0.448E-01    0.666E+01
RMM:  44    -0.234666375006E+04   -0.18633E+00   -0.57353E-01 35923   0.432E-01    0.669E+01
RMM:  45    -0.234729918607E+04   -0.63544E+00   -0.35084E-01 40251   0.296E-01    0.678E+01
RMM:  46    -0.234742296619E+04   -0.12378E+00   -0.21901E-01 45930   0.129E-01    0.680E+01
RMM:  47    -0.234741584802E+04    0.71182E-02   -0.86948E-02 34846   0.128E-01    0.680E+01
RMM:  48    -0.234796149223E+04   -0.54564E+00   -0.13499E-01 30657   0.451E-01    0.685E+01
RMM:  49    -0.234830243658E+04   -0.34094E+00   -0.13971E-01 43168   0.162E-01    0.689E+01
RMM:  50    -0.234749064301E+04    0.81179E+00   -0.10480E-01 32225   0.465E-01    0.681E+01
RMM:  51    -0.243538728154E+04   -0.87897E+02   -0.14647E+02 29968   0.209E+01    0.131E+02
RMM:  52    -0.245371256476E+04   -0.18325E+02   -0.78251E+01 27739   0.181E+01    0.131E+02
RMM:  53    -0.247714889669E+04   -0.23436E+02   -0.91638E+01 32392   0.140E+01    0.138E+02
RMM:  54    -0.246723874313E+04    0.99102E+01   -0.10027E+02 37763   0.116E+01    0.133E+02
RMM:  55    -0.249313203872E+04   -0.25893E+02   -0.69260E+01 38747   0.797E+00    0.144E+02
RMM:  56    -0.246828865007E+04    0.24843E+02   -0.67712E+01 30351   0.141E+01    0.152E+02
RMM:  57    -0.243371334043E+04    0.34575E+02   -0.48833E+01 30724   0.113E+01    0.131E+02
RMM:  58    -0.246406487124E+04   -0.30352E+02   -0.38532E+01 29520   0.111E+01    0.148E+02
RMM:  59    -0.245603388621E+04    0.80310E+01   -0.31624E+01 29977   0.979E+00    0.143E+02
RMM:  60    -0.244050556213E+04    0.15528E+02   -0.17272E+01 27843   0.877E+00    0.140E+02
RMM:  61    -0.242322094808E+04    0.17285E+02   -0.46424E+01 29814   0.118E+01    0.130E+02
RMM:  62    -0.244253486310E+04   -0.19314E+02   -0.15090E+01 27738   0.882E+00    0.140E+02
RMM:  63    -0.242267462926E+04    0.19860E+02   -0.66381E+00 28641   0.523E+00    0.132E+02
RMM:  64    -0.238220639587E+04    0.40468E+02   -0.68615E+00 29474   0.450E+00    0.985E+01
RMM:  65    -0.235127283577E+04    0.30934E+02   -0.11574E+01 28059   0.680E+00    0.662E+01
RMM:  66    -0.244186331525E+04   -0.90590E+02   -0.30281E+01 29048   0.102E+01    0.143E+02
RMM:  67    -0.234649124329E+04    0.95372E+02   -0.10464E+01 27767   0.721E+00    0.596E+01
RMM:  68    -0.234644344388E+04    0.47799E-01   -0.99418E+00 32106   0.440E+00    0.600E+01
RMM:  69    -0.236674335002E+04   -0.20300E+02   -0.58965E+00 32133   0.366E+00    0.834E+01
RMM:  70    -0.237421453985E+04   -0.74712E+01   -0.38539E+00 31189   0.318E+00    0.922E+01
RMM:  71    -0.236727874609E+04    0.69358E+01   -0.31385E+01 31094   0.870E+00    0.861E+01
RMM:  72    -0.235065119508E+04    0.16628E+02   -0.12299E+01 28333   0.769E+00    0.691E+01
RMM:  73    -0.234006594126E+04    0.10585E+02   -0.10725E+01 32192   0.462E+00    0.543E+01
RMM:  74    -0.233359351590E+04    0.64724E+01   -0.53435E+00 29990   0.387E+00    0.436E+01
RMM:  75    -0.233078146065E+04    0.28121E+01   -0.40313E+00 29472   0.373E+00    0.384E+01
RMM:  76    -0.233586400552E+04   -0.50825E+01   -0.19235E+01 32908   0.599E+00    0.467E+01
RMM:  77    -0.233176874961E+04    0.40953E+01   -0.45395E+00 28123   0.475E+00    0.398E+01
RMM:  78    -0.232957580949E+04    0.21929E+01   -0.25407E+00 32835   0.225E+00    0.341E+01
RMM:  79    -0.232771124914E+04    0.18646E+01   -0.14656E+00 27957   0.261E+00    0.287E+01
RMM:  80    -0.232549176367E+04    0.22195E+01   -0.11989E+00 28661   0.217E+00    0.196E+01
RMM:  81    -0.232726775089E+04   -0.17760E+01   -0.22087E+00 28432   0.302E+00    0.264E+01
RMM:  82    -0.232565623478E+04    0.16115E+01   -0.10482E+00 27798   0.245E+00    0.207E+01
RMM:  83    -0.232510672900E+04    0.54951E+00   -0.56046E-01 29339   0.143E+00    0.175E+01
RMM:  84    -0.232498218375E+04    0.12455E+00   -0.56173E-01 33405   0.987E-01    0.166E+01
RMM:  85    -0.232491344063E+04    0.68743E-01   -0.38177E-01 37397   0.703E-01    0.151E+01
RMM:  86    -0.232736741758E+04   -0.24540E+01   -0.46793E+00 29742   0.376E+00    0.249E+01
RMM:  87    -0.232468091348E+04    0.26865E+01   -0.12842E+00 27720   0.286E+00    0.123E+01
RMM:  88    -0.232440083903E+04    0.28007E+00   -0.51467E-01 31126   0.114E+00    0.994E+00
RMM:  89    -0.232429961185E+04    0.10123E+00   -0.38887E-01 32133   0.921E-01    0.859E+00
RMM:  90    -0.232428401439E+04    0.15597E-01   -0.22099E-01 33533   0.643E-01    0.842E+00
RMM:  91    -0.232632799945E+04   -0.20440E+01   -0.23647E+00 28084   0.307E+00    0.214E+01
RMM:  92    -0.232441010730E+04    0.19179E+01   -0.95788E-01 27727   0.261E+00    0.857E+00
RMM:  93    -0.232432772924E+04    0.82378E-01   -0.35695E-01 29326   0.115E+00    0.757E+00
RMM:  94    -0.232431656121E+04    0.11168E-01   -0.29741E-01 29398   0.103E+00    0.742E+00
RMM:  95    -0.232427104690E+04    0.45514E-01   -0.30902E-01 29904   0.100E+00    0.655E+00
RMM:  96    -0.232622659959E+04   -0.19556E+01   -0.25660E+00 29327   0.287E+00    0.193E+01
RMM:  97    -0.232420498619E+04    0.20216E+01   -0.86916E-01 27720   0.252E+00    0.508E+00
RMM:  98    -0.232415831722E+04    0.46669E-01   -0.29411E-01 29682   0.988E-01    0.460E+00
RMM:  99    -0.232410810893E+04    0.50208E-01   -0.16506E-01 31006   0.641E-01    0.336E+00
RMM: 100    -0.232407652424E+04    0.31585E-01   -0.10698E-01 33127   0.453E-01
   1 F= -.23240765E+04 E0= -.23213323E+04  d E =-.232408E+04
       N       E                     dE             d eps       ncg     rms          rms(c)
DAV:   1    -0.232425084523E+04   -0.14274E+00   -0.43853E+01 29148   0.701E+00    0.309E+00
RMM:   2    -0.252062210446E+04   -0.19637E+03   -0.46393E+01 34729   0.714E+00    0.154E+02
RMM:   3    -0.234406097216E+04    0.17656E+03   -0.59202E+00 32298   0.375E+00    0.577E+01
RMM:   4    -0.234358375444E+04    0.47722E+00   -0.37461E+00 29059   0.342E+00    0.563E+01
RMM:   5    -0.233194630731E+04    0.11637E+02   -0.21191E+00 27831   0.297E+00    0.374E+01
RMM:   6    -0.232694505616E+04    0.50013E+01   -0.30772E+00 28848   0.313E+00    0.215E+01
RMM:   7    -0.233195670917E+04   -0.50117E+01   -0.78021E+00 34024   0.374E+00    0.372E+01
RMM:   8    -0.232625644154E+04    0.57003E+01   -0.19750E+00 27833   0.284E+00    0.184E+01
RMM:   9    -0.232500131706E+04    0.12551E+01   -0.87102E-01 27753   0.210E+00    0.120E+01
RMM:  10    -0.232453941141E+04    0.46191E+00   -0.62093E-01 33698   0.109E+00    0.730E+00
RMM:  11    -0.232435647515E+04    0.18294E+00   -0.46855E-01 34956   0.878E-01    0.436E+00
RMM:  12    -0.232433583035E+04    0.20645E-01   -0.21805E-01 31641   0.694E-01    0.362E+00
RMM:  13    -0.232431025586E+04    0.25574E-01   -0.14860E-01 34010   0.497E-01    0.289E+00
RMM:  14    -0.232429016996E+04    0.20086E-01   -0.90501E-02 40311   0.291E-01    0.196E+00
RMM:  15    -0.232428251256E+04    0.76574E-02   -0.26319E-02 33380   0.202E-01    0.167E+00
RMM:  16    -0.232428083915E+04    0.16734E-02   -0.17781E-02 32313   0.197E-01    0.150E+00
RMM:  17    -0.232427670866E+04    0.41305E-02   -0.12094E-02 28968   0.205E-01    0.117E+00
RMM:  18    -0.232427745876E+04   -0.75010E-03   -0.77967E-03 28227   0.187E-01    0.121E+00
RMM:  19    -0.232427777510E+04   -0.31634E-03   -0.78864E-03 29604   0.160E-01    0.123E+00
RMM:  20    -0.232427716341E+04    0.61169E-03   -0.76126E-03 31315   0.136E-01    0.116E+00
RMM:  21    -0.232427417753E+04    0.29859E-02   -0.30637E-03 28560   0.118E-01    0.874E-01
RMM:  22    -0.232427328205E+04    0.89548E-03   -0.37610E-03 34687   0.758E-02    0.763E-01
RMM:  23    -0.232427232192E+04    0.96013E-03   -0.31088E-03 32605   0.810E-02    0.630E-01
RMM:  24    -0.232427116736E+04    0.11546E-02   -0.12448E-03 30137   0.623E-02    0.417E-01
RMM:  25    -0.232427105127E+04    0.11609E-03   -0.15938E-03 41837   0.320E-02    0.358E-01
RMM:  26    -0.232427076030E+04    0.29098E-03   -0.52335E-04 34854   0.278E-02    0.253E-01
RMM:  27    -0.232427062731E+04    0.13298E-03   -0.24444E-04 30329   0.275E-02    0.184E-01
RMM:  28    -0.232427064983E+04   -0.22515E-04   -0.39591E-04 33697   0.274E-02    0.183E-01
RMM:  29    -0.232427059433E+04    0.55501E-04   -0.19365E-04 29573   0.257E-02    0.139E-01
RMM:  30    -0.232427056509E+04    0.29234E-04   -0.14077E-04 31939   0.174E-02    0.113E-01
RMM:  31    -0.232427056534E+04   -0.24974E-06   -0.12965E-04 41088   0.972E-03    0.102E-01
RMM:  32    -0.232427055133E+04    0.14016E-04   -0.44694E-05 32124   0.918E-03    0.755E-02
RMM:  33    -0.232427055221E+04   -0.88065E-06   -0.32675E-05 34292   0.681E-03    0.692E-02
RMM:  34    -0.232427055569E+04   -0.34852E-05   -0.23831E-05 32838   0.611E-03    0.638E-02
RMM:  35    -0.232427055688E+04   -0.11912E-05   -0.13094E-05 28082   0.605E-03    0.482E-02
RMM:  36    -0.232427055789E+04   -0.10034E-05   -0.90348E-06 23852   0.373E-03    0.430E-02
RMM:  37    -0.232427055932E+04   -0.14350E-05   -0.59298E-06 21820   0.364E-03    0.341E-02
RMM:  38    -0.232427056188E+04   -0.25601E-05   -0.50619E-06 20762   0.379E-03    0.188E-02
RMM:  39    -0.232427056288E+04   -0.99192E-06   -0.32151E-06 18586   0.224E-03
   2 F= -.23242706E+04 E0= -.23215130E+04  d E =-.194039E+00
       N       E                     dE             d eps       ncg     rms          rms(c)
DAV:   1    -0.232407120450E+04    0.19936E+00   -0.39454E+02 27720   0.208E+01    0.409E+00
RMM:   2    -0.235383377998E+04   -0.29763E+02   -0.12587E+01 28033   0.735E+00    0.734E+01
RMM:   3    -0.233510832772E+04    0.18725E+02   -0.55286E+00 37965   0.296E+00    0.411E+01
RMM:   4    -0.234223614444E+04   -0.71278E+01   -0.25732E+00 28065   0.342E+00    0.560E+01
RMM:   5    -0.232760428691E+04    0.14632E+02   -0.18510E+00 37969   0.162E+00    0.214E+01
RMM:   6    -0.232929497202E+04   -0.16907E+01   -0.20269E+00 29976   0.232E+00    0.297E+01
RMM:   7    -0.233027213594E+04   -0.97716E+00   -0.27947E+00 30576   0.253E+00    0.326E+01
RMM:   8    -0.232558765216E+04    0.46845E+01   -0.94102E-01 27810   0.213E+00    0.122E+01
RMM:   9    -0.232527506842E+04    0.31258E+00   -0.57300E-01 27786   0.168E+00    0.109E+01
RMM:  10    -0.232515039392E+04    0.12467E+00   -0.57656E-01 27949   0.151E+00    0.940E+00
RMM:  11    -0.232473620306E+04    0.41419E+00   -0.29930E-01 27764   0.125E+00    0.408E+00
RMM:  12    -0.232467136641E+04    0.64837E-01   -0.13665E-01 28626   0.790E-01    0.266E+00
RMM:  13    -0.232466617793E+04    0.51885E-02   -0.11324E-01 31844   0.478E-01    0.231E+00
RMM:  14    -0.232465830714E+04    0.78708E-02   -0.66656E-02 31371   0.404E-01    0.185E+00
RMM:  15    -0.232464769428E+04    0.10613E-01   -0.26319E-02 28603   0.339E-01    0.121E+00
RMM:  16    -0.232464902272E+04   -0.13284E-02   -0.33820E-02 33482   0.251E-01    0.121E+00
RMM:  17    -0.232465096690E+04   -0.19442E-02   -0.27529E-02 32706   0.235E-01    0.125E+00
RMM:  18    -0.232464457409E+04    0.63928E-02   -0.98192E-03 29433   0.184E-01    0.653E-01
RMM:  19    -0.232464372236E+04    0.85173E-03   -0.92280E-03 34973   0.111E-01    0.473E-01
RMM:  20    -0.232464402466E+04   -0.30230E-03   -0.63445E-03 37924   0.840E-02    0.461E-01
RMM:  21    -0.232464359236E+04    0.43230E-03   -0.22375E-03 31465   0.756E-02    0.351E-01
RMM:  22    -0.232464353043E+04    0.61931E-04   -0.19229E-03 36553   0.519E-02    0.309E-01
RMM:  23    -0.232464346974E+04    0.60690E-04   -0.11225E-03 32245   0.503E-02    0.280E-01
RMM:  24    -0.232464318226E+04    0.28748E-03   -0.56801E-04 29924   0.444E-02    0.147E-01
RMM:  25    -0.232464316211E+04    0.20147E-04   -0.59858E-04 38004   0.245E-02    0.108E-01
RMM:  26    -0.232464318070E+04   -0.18589E-04   -0.31037E-04 34440   0.218E-02    0.113E-01
RMM:  27    -0.232464313811E+04    0.42589E-04   -0.12322E-04 30946   0.184E-02    0.626E-02
RMM:  28    -0.232464313659E+04    0.15229E-05   -0.12045E-04 40097   0.949E-03    0.479E-02
RMM:  29    -0.232464313334E+04    0.32443E-05   -0.46071E-05 33848   0.806E-03    0.387E-02
RMM:  30    -0.232464313237E+04    0.97667E-06   -0.24402E-05 31252   0.707E-03    0.343E-02
RMM:  31    -0.232464313284E+04   -0.47282E-06   -0.19872E-05 30412   0.441E-03    0.316E-02
RMM:  32    -0.232464312980E+04    0.30383E-05   -0.89678E-06 26150   0.491E-03    0.202E-02
RMM:  33    -0.232464312816E+04    0.16428E-05   -0.37821E-06 19381   0.404E-03    0.110E-02
RMM:  34    -0.232464312811E+04    0.46770E-07   -0.25198E-06 18311   0.254E-03
   3 F= -.23246431E+04 E0= -.23218653E+04  d E =-.566604E+00
       N       E                     dE             d eps       ncg     rms          rms(c)
DAV:   1    -0.232460725629E+04    0.35872E-01   -0.61989E+01 27748   0.821E+00    0.141E+00
RMM:   2    -0.232780569429E+04   -0.31984E+01   -0.14185E+00 27967   0.241E+00    0.243E+01
RMM:   3    -0.232600707088E+04    0.17986E+01   -0.70314E-01 38348   0.995E-01    0.149E+01
RMM:   4    -0.232642514330E+04   -0.41807E+00   -0.27124E-01 27780   0.115E+00    0.178E+01
RMM:   5    -0.232497998623E+04    0.14452E+01   -0.18310E-01 37318   0.528E-01    0.705E+00
RMM:   6    -0.232517285946E+04   -0.19287E+00   -0.19860E-01 30747   0.700E-01    0.975E+00
RMM:   7    -0.232510743400E+04    0.65425E-01   -0.31823E-01 29996   0.929E-01    0.904E+00
RMM:   8    -0.232480219671E+04    0.30524E+00   -0.11595E-01 27758   0.754E-01    0.448E+00
RMM:   9    -0.232474480802E+04    0.57389E-01   -0.55360E-02 27863   0.495E-01    0.365E+00
RMM:  10    -0.232471439570E+04    0.30412E-01   -0.45351E-02 28606   0.399E-01    0.254E+00
RMM:  11    -0.232469782774E+04    0.16568E-01   -0.48580E-02 28796   0.397E-01    0.195E+00
RMM:  12    -0.232468632115E+04    0.11507E-01   -0.20290E-02 27750   0.322E-01    0.137E+00
RMM:  13    -0.232468178338E+04    0.45378E-02   -0.10471E-02 29275   0.193E-01    0.106E+00
RMM:  14    -0.232468041041E+04    0.13730E-02   -0.11110E-02 32555   0.144E-01    0.894E-01
RMM:  15    -0.232467793949E+04    0.24709E-02   -0.66180E-03 30764   0.131E-01    0.540E-01
RMM:  16    -0.232467659315E+04    0.13463E-02   -0.24518E-03 28861   0.102E-01    0.255E-01
RMM:  17    -0.232467665559E+04   -0.62441E-04   -0.28383E-03 35499   0.609E-02    0.225E-01
RMM:  18    -0.232467678958E+04   -0.13399E-03   -0.16038E-03 33275   0.547E-02    0.245E-01
RMM:  19    -0.232467651517E+04    0.27440E-03   -0.54182E-04 30145   0.424E-02    0.913E-02
RMM:  20    -0.232467654992E+04   -0.34747E-04   -0.62140E-04 39605   0.198E-02    0.843E-02
RMM:  21    -0.232467658031E+04   -0.30388E-04   -0.22510E-04 32593   0.211E-02    0.105E-01
RMM:  22    -0.232467655000E+04    0.30310E-04   -0.13624E-04 32387   0.173E-02    0.627E-02
RMM:  23    -0.232467655165E+04   -0.16517E-05   -0.11418E-04 38344   0.109E-02    0.564E-02
RMM:  24    -0.232467655029E+04    0.13617E-05   -0.52617E-05 30880   0.120E-02    0.500E-02
RMM:  25    -0.232467654015E+04    0.10138E-04   -0.26569E-05 30291   0.880E-03    0.228E-02
RMM:  26    -0.232467654174E+04   -0.15883E-05   -0.27954E-05 32302   0.417E-03    0.210E-02
RMM:  27    -0.232467654170E+04    0.42084E-07   -0.79601E-06 23602   0.411E-03
   4 F= -.23246765E+04 E0= -.23218924E+04  d E =-.600017E+00
       N       E                     dE             d eps       ncg     rms          rms(c)
DAV:   1    -0.232473763976E+04   -0.61098E-01   -0.77464E+01 27720   0.922E+00    0.154E+00
RMM:   2    -0.232704551237E+04   -0.23079E+01   -0.16437E+00 27981   0.264E+00    0.211E+01
RMM:   3    -0.232687021277E+04    0.17530E+00   -0.79905E-01 39532   0.100E+00    0.189E+01
RMM:   4    -0.232674078979E+04    0.12942E+00   -0.24182E-01 27794   0.103E+00    0.186E+01
RMM:   5    -0.232539962518E+04    0.13412E+01   -0.21945E-01 35022   0.636E-01    0.966E+00
RMM:   6    -0.232511206583E+04    0.28756E+00   -0.24347E-01 27966   0.943E-01    0.699E+00
RMM:   7    -0.232541459768E+04   -0.30253E+00   -0.37004E-01 29973   0.102E+00    0.106E+01
RMM:   8    -0.232508096179E+04    0.33364E+00   -0.15163E-01 29614   0.672E-01    0.684E+00
RMM:   9    -0.232485294193E+04    0.22802E+00   -0.76066E-02 27724   0.648E-01    0.227E+00
RMM:  10    -0.232486346572E+04   -0.10524E-01   -0.75226E-02 30409   0.445E-01    0.284E+00
RMM:  11    -0.232486061657E+04    0.28492E-02   -0.68203E-02 31040   0.414E-01    0.271E+00
RMM:  12    -0.232483228008E+04    0.28336E-01   -0.24514E-02 27730   0.346E-01    0.142E+00
RMM:  13    -0.232482395503E+04    0.83250E-02   -0.15863E-02 30682   0.197E-01    0.822E-01
RMM:  14    -0.232482499523E+04   -0.10402E-02   -0.16504E-02 35131   0.161E-01    0.877E-01
RMM:  15    -0.232482243500E+04    0.25602E-02   -0.52608E-03 28675   0.138E-01    0.511E-01
RMM:  16    -0.232482152662E+04    0.90837E-03   -0.35444E-03 32721   0.847E-02    0.268E-01
RMM:  17    -0.232482177962E+04   -0.25300E-03   -0.29444E-03 35995   0.638E-02    0.316E-01
RMM:  18    -0.232482143075E+04    0.34887E-03   -0.97847E-04 29693   0.571E-02    0.175E-01
RMM:  19    -0.232482141599E+04    0.14758E-04   -0.88664E-04 36641   0.331E-02    0.136E-01
RMM:  20    -0.232482145818E+04   -0.42192E-04   -0.50624E-04 33348   0.302E-02    0.146E-01
RMM:  21    -0.232482140988E+04    0.48303E-04   -0.24113E-04 30367   0.274E-02    0.104E-01
RMM:  22    -0.232482137414E+04    0.35744E-04   -0.15139E-04 31970   0.181E-02    0.575E-02
RMM:  23    -0.232482138392E+04   -0.97808E-05   -0.14978E-04 37884   0.128E-02    0.592E-02
RMM:  24    -0.232482138532E+04   -0.13979E-05   -0.70484E-05 32673   0.119E-02    0.552E-02
RMM:  25    -0.232482137638E+04    0.89360E-05   -0.33377E-05 31352   0.865E-03    0.349E-02
RMM:  26    -0.232482137674E+04   -0.36400E-06   -0.30156E-05 33110   0.450E-03    0.295E-02
RMM:  27    -0.232482137507E+04    0.16750E-05   -0.11385E-05 27022   0.467E-03    0.199E-02
RMM:  28    -0.232482137424E+04    0.83260E-06   -0.47425E-06 20682   0.373E-03
   5 F= -.23248214E+04 E0= -.23220402E+04  d E =-.144833E+00
