<?xml version="1.0" encoding="ISO-8859-1"?>
<modeling>
 <generator>
  <i name="program" type="string">vasp </i>
  <i name="version" type="string">5.4.4.18Apr17-6-g9f103f2a35  </i>
  <i name="subversion" type="string">(build Sep 27 2018 12:46:37) complex + VL-xray_ parallel </i>
  <i name="platform" type="string">LLNL_Quartz_ifc </i>
  <i name="date" type="string">2021 09 27 </i>
  <i name="time" type="string">01:02:07 </i>
 </generator>
 <incar>
  <i type="int" name="ISTART">     2</i>
  <i type="string" name="PREC">accurate</i>
  <i type="string" name="ALGO"> Fast</i>
  <i type="int" name="ICHARG">     2</i>
  <i type="int" name="INIWAV">     1</i>
  <i type="int" name="NELM">   100</i>
  <i type="int" name="NELMIN">     4</i>
  <i type="int" name="IBRION">     2</i>
  <i name="EDIFF">      0.00000100</i>
  <i type="int" name="NSW">     5</i>
  <i type="int" name="ISIF">     2</i>
  <i type="int" name="ISYM">     2</i>
  <i name="ENCUT">    450.00000000</i>
  <i name="POTIM">      0.25000000</i>
  <i type="string" name="LREAL"> Auto</i>
  <i type="int" name="ISMEAR">     0</i>
  <i name="SIGMA">      0.15000000</i>
  <i type="logical" name="LWAVE"> F  </i>
  <i type="logical" name="LCHARG"> F  </i>
  <i type="int" name="ICORELEVEL">     0</i>
  <i type="int" name="CLNT">     1</i>
  <i type="int" name="CLN">     1</i>
  <i type="int" name="INCAR     ">     0</i>
  <i name="CLZ">      0.00000000</i>
  <v type="int" name="KPOINT_BSE">    -1     0     0     0</v>
  <i type="int" name="NELM">   100</i>
 </incar>
 <structure name="primitive_cell" >
  <crystal>
   <varray name="basis" >
    <v>       9.72667804       0.00000000       0.00000000 </v>
    <v>       0.00000000       8.42355028       0.00000000 </v>
    <v>       0.00000000       0.00000000      45.00000000 </v>
   </varray>
   <i name="volume">   3686.99226691 </i>
   <varray name="rec_basis" >
    <v>       0.10281002       0.00000000       0.00000000 </v>
    <v>       0.00000000       0.11871479       0.00000000 </v>
    <v>       0.00000000       0.00000000       0.02222222 </v>
   </varray>
  </crystal>
  <varray name="positions" >
   <v>       0.06188562       0.03061934       0.12415204 </v>
   <v>       0.18342081       0.11216243       0.16646025 </v>
   <v>       0.05634351      -0.13497854       0.16656017 </v>
   <v>       0.18584471      -0.21244492       0.12399219 </v>
   <v>      -0.06499609      -0.21229938       0.12444479 </v>
   <v>      -0.06805200       0.11357817       0.16689456 </v>
   <v>      -0.18620957       0.03002577       0.12412217 </v>
   <v>       0.31053108       0.03015331       0.12409910 </v>
   <v>       0.18403591       0.28671097       0.12429349 </v>
   <v>      -0.06437822       0.28723616       0.12407607 </v>
   <v>       0.30510981      -0.13408290       0.16576677 </v>
   <v>       0.05468033       0.36567175       0.16671743 </v>
   <v>      -0.19283832      -0.13630719       0.16695271 </v>
   <v>       0.43337707       0.11216574       0.16647618 </v>
   <v>      -0.05879032      -0.04631275       0.21128697 </v>
   <v>       0.30759903       0.36422145       0.16660361 </v>
   <v>       0.43399728      -0.21270603       0.12426853 </v>
   <v>       0.18235765      -0.38630812       0.16667744 </v>
   <v>       0.06484854       0.20349164       0.21126896 </v>
   <v>       0.19005009      -0.04552155       0.21171521 </v>
   <v>      -0.31503342      -0.21194544       0.12457847 </v>
   <v>      -0.06667650      -0.38757003       0.16681465 </v>
   <v>      -0.19403043       0.36563479       0.16608025 </v>
   <v>       0.06174755      -0.46932607       0.12418008 </v>
   <v>      -0.31792448       0.11360307       0.16676937 </v>
   <v>       0.43553884       0.28715279       0.12399380 </v>
   <v>      -0.31364785       0.28616475       0.12414613 </v>
   <v>       0.06717855      -0.29605276       0.21133584 </v>
   <v>      -0.18480335       0.20365975       0.21130406 </v>
   <v>      -0.43666062       0.03164021       0.12420935 </v>
   <v>      -0.18667081      -0.46958721       0.12413444 </v>
   <v>       0.31598990       0.20386278       0.21134718 </v>
   <v>       0.31196097      -0.46917114       0.12408606 </v>
   <v>      -0.18354376      -0.29682752       0.21127057 </v>
   <v>      -0.44330400      -0.13706058       0.16649425 </v>
   <v>      -0.31011896      -0.04620366       0.21141307 </v>
   <v>       0.43243731      -0.38752357       0.16610384 </v>
   <v>       0.31507160      -0.29780916       0.21235800 </v>
   <v>       0.19003271       0.45308600       0.21110417 </v>
   <v>       0.44112867      -0.04507234       0.21194468 </v>
   <v>      -0.06012659       0.45392590       0.21171157 </v>
   <v>      -0.31752934      -0.38815183       0.16655603 </v>
   <v>      -0.44535985       0.36522271       0.16592457 </v>
   <v>       0.05874886       0.03745391       0.25582295 </v>
   <v>       0.18413750      -0.21218191       0.25555612 </v>
   <v>       0.30874951       0.03722230       0.25544854 </v>
   <v>      -0.43321709       0.20183796       0.21140143 </v>
   <v>      -0.06729741      -0.21266637       0.25562055 </v>
   <v>       0.18344569       0.28730871       0.25576935 </v>
   <v>      -0.19131985       0.03665468       0.25583386 </v>
   <v>      -0.43812480      -0.47115022       0.12457957 </v>
   <v>      -0.06620558       0.28733401       0.25580974 </v>
   <v>      -0.30974388       0.45402848       0.21185759 </v>
   <v>       0.43913605       0.45395914       0.21160239 </v>
   <v>      -0.43381873      -0.29681703       0.21144476 </v>
   <v>       0.43296051      -0.21192863       0.25571003 </v>
   <v>       0.05889502      -0.46351139       0.25577437 </v>
   <v>      -0.31630525      -0.21267714       0.25580494 </v>
   <v>       0.43356031       0.28772523       0.25583547 </v>
   <v>      -0.31630958       0.28762792       0.25584586 </v>
   <v>       0.30764331      -0.46268815       0.25556482 </v>
   <v>      -0.44022021       0.03757429       0.25549280 </v>
   <v>      -0.19123447      -0.46323224       0.25593440 </v>
   <v>       0.07004747      -0.12671796       0.30024223 </v>
   <v>      -0.05463027       0.12259669       0.30007200 </v>
   <v>       0.19535393       0.12298739       0.30017444 </v>
   <v>      -0.17908862      -0.12631083       0.30017733 </v>
   <v>       0.31969930      -0.12715058       0.29992165 </v>
   <v>       0.06987190       0.37423818       0.30008050 </v>
   <v>      -0.05467432      -0.37653855       0.29986007 </v>
   <v>      -0.44206361      -0.46314049       0.25575229 </v>
   <v>      -0.30420261       0.12328965       0.30019433 </v>
   <v>       0.19484318      -0.37655908       0.30033460 </v>
   <v>      -0.17924767       0.37352201       0.30010247 </v>
   <v>       0.32056056       0.37241917       0.30012177 </v>
   <v>       0.44490211       0.12292783       0.30037252 </v>
   <v>      -0.30527655      -0.37574719       0.30004970 </v>
   <v>      -0.42956396      -0.12689620       0.30031609 </v>
   <v>       0.44631300      -0.37626737       0.30008558 </v>
   <v>      -0.43020481       0.37247220       0.30013461 </v>
   <v>      -0.06601552      -0.04876855       0.34477934 </v>
   <v>       0.18385707      -0.04748582       0.34498856 </v>
   <v>       0.05872478       0.20303885       0.34483614 </v>
   <v>       0.05853081      -0.29768804       0.34488285 </v>
   <v>       0.30876285       0.20256197       0.34468160 </v>
   <v>      -0.19139752       0.20235183       0.34491469 </v>
   <v>       0.30921292      -0.29768521       0.34479148 </v>
   <v>       0.43364098      -0.04746955       0.34491772 </v>
   <v>      -0.19135309      -0.29742072       0.34495462 </v>
   <v>      -0.31670012      -0.04840182       0.34472086 </v>
   <v>       0.18363907       0.45270344       0.34489273 </v>
   <v>      -0.06628632       0.45258350       0.34480096 </v>
   <v>      -0.44128965       0.20271312       0.34486478 </v>
   <v>       0.43371489       0.45246287       0.34499773 </v>
   <v>      -0.31629156       0.45235522       0.34496424 </v>
   <v>       0.06538123       0.03902659      -0.12424734 </v>
   <v>      -0.44119983      -0.29778574       0.34492030 </v>
   <v>       0.18768575      -0.20267753      -0.12392841 </v>
   <v>      -0.06300289      -0.20454310      -0.12444661 </v>
   <v>      -0.18719975       0.04079002      -0.12422571 </v>
   <v>       0.31431381       0.04114294      -0.12411252 </v>
   <v>       0.18840859       0.29689420      -0.12383251 </v>
   <v>      -0.06515084       0.29798871      -0.12444099 </v>
   <v>       0.43656182      -0.20212966      -0.12377584 </v>
   <v>       0.06331382      -0.45911062      -0.12410567 </v>
   <v>      -0.31544103      -0.20217907      -0.12404763 </v>
   <v>       0.06641879       0.03795066       0.38906056 </v>
   <v>       0.43674766       0.29829320      -0.12363903 </v>
   <v>      -0.31448977       0.29909243      -0.12398033 </v>
   <v>      -0.05872557      -0.21217967       0.38899517 </v>
   <v>       0.31324573      -0.45926085      -0.12391879 </v>
   <v>       0.19333558      -0.21224783       0.38889764 </v>
   <v>      -0.18779653      -0.45971156      -0.12414670 </v>
   <v>      -0.18216728       0.03912512       0.38915047 </v>
   <v>      -0.05889644       0.28633359       0.38892495 </v>
   <v>       0.31614579       0.03674316       0.38890114 </v>
   <v>      -0.43712254       0.04070535      -0.12395784 </v>
   <v>       0.19108563       0.28778430       0.38893580 </v>
   <v>      -0.30797640      -0.21203532       0.38901348 </v>
   <v>       0.06753911      -0.46130947       0.38908231 </v>
   <v>      -0.30855109       0.28743106       0.38889768 </v>
   <v>       0.44140633      -0.21245264       0.38906608 </v>
   <v>       0.44136413       0.28763232       0.38908796 </v>
   <v>      -0.18374289      -0.46258174       0.38904719 </v>
   <v>       0.31588622      -0.46163702       0.38890426 </v>
   <v>      -0.43759254      -0.45909293      -0.12399834 </v>
   <v>      -0.43361369       0.03781631       0.38906710 </v>
   <v>      -0.05742807      -0.03513199      -0.16610064 </v>
   <v>       0.06677202       0.21530025      -0.16595343 </v>
   <v>       0.19175852      -0.03649855      -0.16640809 </v>
   <v>       0.06609773      -0.28319737      -0.16608717 </v>
   <v>      -0.18188368       0.21520467      -0.16637829 </v>
   <v>       0.31699104       0.21282830      -0.16652571 </v>
   <v>      -0.43365929      -0.46242621       0.38906863 </v>
   <v>      -0.18292592      -0.28456251      -0.16662469 </v>
   <v>      -0.30840475      -0.03761743      -0.16650178 </v>
   <v>       0.31819629      -0.28609717      -0.16677987 </v>
   <v>       0.44267396      -0.03668060      -0.16669148 </v>
   <v>      -0.05772478       0.46440078      -0.16623097 </v>
   <v>       0.19168083       0.46338936      -0.16648691 </v>
   <v>       0.06202908      -0.12888393       0.43438986 </v>
   <v>       0.18808230       0.12062577       0.43430090 </v>
   <v>      -0.43384714       0.21368762      -0.16675830 </v>
   <v>      -0.06311373       0.11984363       0.43458304 </v>
   <v>      -0.30792196       0.46224200      -0.16671312 </v>
   <v>       0.44234737       0.46286461      -0.16659923 </v>
   <v>      -0.43387791      -0.28643530      -0.16666639 </v>
   <v>      -0.18830996      -0.12855878       0.43423321 </v>
   <v>       0.31207766      -0.12924496       0.43443932 </v>
   <v>       0.06310195       0.37153735       0.43424300 </v>
   <v>      -0.06260104      -0.37940793       0.43441199 </v>
   <v>       0.18723060      -0.37978492       0.43447798 </v>
   <v>      -0.31174297       0.12025413       0.43425284 </v>
   <v>      -0.18825787       0.37129460       0.43416486 </v>
   <v>       0.43697933       0.12086744       0.43437968 </v>
   <v>       0.31232918       0.37034465       0.43443942 </v>
   <v>       0.43673529      -0.37885548       0.43436451 </v>
   <v>      -0.31192554      -0.37964097       0.43445583 </v>
   <v>      -0.43744569      -0.12953762       0.43448686 </v>
   <v>      -0.43800882       0.37137598       0.43436076 </v>
   <v>       0.18366406       0.12319627      -0.21133363 </v>
   <v>       0.05903775      -0.12585491      -0.21153831 </v>
   <v>      -0.06597730       0.12477600      -0.21139920 </v>
   <v>       0.31004156      -0.12685021      -0.21155316 </v>
   <v>      -0.19121009      -0.12641940      -0.21163268 </v>
   <v>       0.05874612       0.37524817      -0.21156738 </v>
   <v>       0.43373661       0.12254665      -0.21100552 </v>
   <v>       0.18449163      -0.37721466      -0.21151698 </v>
   <v>      -0.06681345      -0.37551631      -0.21164481 </v>
   <v>       0.30892606       0.37409960      -0.21126349 </v>
   <v>      -0.31773028       0.12272026      -0.21143888 </v>
   <v>      -0.19116789       0.37490433      -0.21146057 </v>
   <v>       0.43313358      -0.37707580      -0.21106530 </v>
   <v>      -0.44094506      -0.12633009      -0.21137667 </v>
   <v>      -0.31704807      -0.37763751      -0.21140480 </v>
   <v>       0.18738838      -0.04420494       0.47866692 </v>
   <v>      -0.06259777      -0.04462316       0.47871905 </v>
   <v>       0.06262769       0.20580730       0.47866123 </v>
   <v>      -0.44096444       0.37340050      -0.21123881 </v>
   <v>       0.06233092      -0.29424002       0.47858303 </v>
   <v>      -0.18776840       0.20575052       0.47867506 </v>
   <v>       0.31247678       0.20578509       0.47875962 </v>
   <v>      -0.18745088      -0.29418378       0.47865138 </v>
   <v>       0.31224377      -0.29420759       0.47864996 </v>
   <v>      -0.31252419      -0.04414487       0.47866436 </v>
   <v>       0.43729139      -0.04424562       0.47867658 </v>
   <v>      -0.06264299       0.45571915       0.47865292 </v>
   <v>       0.18729096       0.45581385       0.47867698 </v>
   <v>      -0.43772393       0.20563252       0.47863607 </v>
   <v>      -0.31276146       0.45568480       0.47862336 </v>
   <v>       0.43744886       0.45604518       0.47857832 </v>
   <v>      -0.43752616      -0.29432861       0.47864044 </v>
   <v>       0.06556565       0.04036045      -0.25585620 </v>
   <v>      -0.05965196      -0.20902560      -0.25550447 </v>
   <v>       0.18972334      -0.20826728      -0.25561335 </v>
   <v>      -0.18449222       0.04080568      -0.25577451 </v>
   <v>      -0.05990401       0.29068115      -0.25550173 </v>
   <v>       0.19077120       0.29115386      -0.25561417 </v>
   <v>       0.31500411       0.04178860      -0.25592102 </v>
   <v>       0.06543678      -0.45899707      -0.25567344 </v>
   <v>      -0.30974681      -0.20832852      -0.25574056 </v>
   <v>       0.43962551      -0.20784909      -0.25558357 </v>
   <v>      -0.30993570       0.29155231      -0.25575841 </v>
   <v>       0.43988737       0.29159695      -0.25573991 </v>
   <v>      -0.18426240      -0.45969248      -0.25583489 </v>
   <v>       0.31516079      -0.45855991      -0.25574675 </v>
   <v>      -0.43458708       0.04130071      -0.25577248 </v>
   <v>       0.06180495      -0.12830752      -0.47858311 </v>
   <v>       0.18690862       0.12182208      -0.47861021 </v>
   <v>      -0.06345506       0.12172258      -0.47844468 </v>
   <v>       0.31177858      -0.12806443      -0.47861607 </v>
   <v>      -0.18833882      -0.12845185      -0.47863054 </v>
   <v>       0.06144329       0.37246217      -0.47860477 </v>
   <v>      -0.43482987      -0.45859503      -0.25595000 </v>
   <v>      -0.06323109      -0.37806089      -0.47857908 </v>
   <v>       0.18696819      -0.37862732      -0.47854404 </v>
   <v>      -0.31325697       0.12189220      -0.47860080 </v>
   <v>       0.43683350       0.12171958      -0.47852550 </v>
   <v>       0.31178695       0.37206328      -0.47861534 </v>
   <v>      -0.18801519       0.37207863      -0.47860807 </v>
   <v>       0.43667004      -0.37791423      -0.47863666 </v>
   <v>      -0.31344489      -0.37846187      -0.47866092 </v>
   <v>      -0.43790411      -0.12781194      -0.47851398 </v>
   <v>      -0.43817119       0.37189565      -0.47858367 </v>
   <v>       0.18506932      -0.04225209      -0.30022063 </v>
   <v>      -0.06461347      -0.04187290      -0.30033575 </v>
   <v>       0.06043380       0.20774135      -0.30031211 </v>
   <v>       0.06071016      -0.29227534      -0.30034918 </v>
   <v>       0.31049435       0.20735977      -0.30015889 </v>
   <v>      -0.18926615       0.20743531      -0.30017175 </v>
   <v>       0.31041240      -0.29305475      -0.30023740 </v>
   <v>      -0.18964435      -0.29258057      -0.30028279 </v>
   <v>       0.43522533      -0.04227911      -0.30029453 </v>
   <v>      -0.31482867      -0.04285928      -0.30022438 </v>
   <v>       0.18524328       0.45792876      -0.30032167 </v>
   <v>      -0.06482208       0.45803847      -0.30036158 </v>
   <v>      -0.43951755       0.20714095      -0.30019910 </v>
   <v>       0.43563992       0.45761061      -0.30025608 </v>
   <v>      -0.31519762       0.45776069      -0.30021914 </v>
   <v>      -0.43962383      -0.29272608      -0.30026430 </v>
   <v>       0.18687372      -0.04265421      -0.43449011 </v>
   <v>      -0.06332042      -0.04288213      -0.43449201 </v>
   <v>       0.06225555       0.20715202      -0.43460964 </v>
   <v>       0.06186260      -0.29331099      -0.43444958 </v>
   <v>       0.31137208       0.20654881      -0.43448333 </v>
   <v>      -0.18879241       0.20700787      -0.43448655 </v>
   <v>       0.31126224      -0.29286936      -0.43450219 </v>
   <v>      -0.18872824      -0.29348591      -0.43453350 </v>
   <v>       0.43674716      -0.04287766      -0.43456530 </v>
   <v>      -0.31271384      -0.04309549      -0.43445938 </v>
   <v>       0.18716770       0.45708071      -0.43448194 </v>
   <v>      -0.06361807       0.45645142      -0.43437949 </v>
   <v>      -0.43781248       0.20722146      -0.43445533 </v>
   <v>      -0.31337490       0.45688181      -0.43459984 </v>
   <v>       0.43663979       0.45693390      -0.43443980 </v>
   <v>      -0.43782373      -0.29284894      -0.43445533 </v>
   <v>       0.06644618      -0.12521508      -0.34505491 </v>
   <v>       0.19118145       0.12516895      -0.34487929 </v>
   <v>      -0.05886706       0.12491538      -0.34503289 </v>
   <v>      -0.18383801      -0.12513001      -0.34495677 </v>
   <v>       0.31633533      -0.12496379      -0.34495164 </v>
   <v>       0.06645542       0.37463815      -0.34505031 </v>
   <v>       0.19111789      -0.37481798      -0.34492824 </v>
   <v>      -0.05855603      -0.37492106      -0.34509287 </v>
   <v>      -0.30875876       0.12495923      -0.34498409 </v>
   <v>      -0.18374723       0.37485333      -0.34503252 </v>
   <v>       0.44121850       0.12467693      -0.34508565 </v>
   <v>       0.31610420       0.37426608      -0.34501845 </v>
   <v>      -0.30869611      -0.37506372      -0.34478439 </v>
   <v>      -0.43380900      -0.12534994      -0.34505001 </v>
   <v>       0.44128828      -0.37501795      -0.34497870 </v>
   <v>      -0.43372948       0.37456512      -0.34504662 </v>
   <v>       0.05881581       0.03785852      -0.38910126 </v>
   <v>       0.18365588      -0.21203085      -0.38909118 </v>
   <v>      -0.06629395      -0.21244120      -0.38906819 </v>
   <v>       0.30910628       0.03837448      -0.38895210 </v>
   <v>      -0.06633682       0.28783061      -0.38909883 </v>
   <v>      -0.19100663       0.03841763      -0.38899635 </v>
   <v>       0.18406527       0.28855634      -0.38892382 </v>
   <v>       0.43374030      -0.21193066      -0.38904941 </v>
   <v>       0.05885185      -0.46194495      -0.38901348 </v>
   <v>      -0.31616194      -0.21202453      -0.38904164 </v>
   <v>       0.43396195       0.28819767      -0.38903876 </v>
   <v>      -0.31602928       0.28848837      -0.38894044 </v>
   <v>       0.30907057      -0.46183522      -0.38902055 </v>
   <v>      -0.19095746      -0.46159923      -0.38895391 </v>
   <v>      -0.44086648       0.03856604      -0.38889088 </v>
   <v>      -0.44115428      -0.46174428      -0.38900501 </v>
  </varray>
 </structure>
 <varray name="primitive_index" >
  <v type="int" >        1 </v>
  <v type="int" >      125 </v>
  <v type="int" >       60 </v>
  <v type="int" >       83 </v>
  <v type="int" >       44 </v>
  <v type="int" >       26 </v>
  <v type="int" >      202 </v>
  <v type="int" >      256 </v>
  <v type="int" >      111 </v>
  <v type="int" >      155 </v>
  <v type="int" >      277 </v>
  <v type="int" >       51 </v>
  <v type="int" >      102 </v>
  <v type="int" >      182 </v>
  <v type="int" >      212 </v>
  <v type="int" >      108 </v>
  <v type="int" >      170 </v>
  <v type="int" >       20 </v>
  <v type="int" >       50 </v>
  <v type="int" >      146 </v>
  <v type="int" >      163 </v>
  <v type="int" >      104 </v>
  <v type="int" >      284 </v>
  <v type="int" >      176 </v>
  <v type="int" >      166 </v>
  <v type="int" >      117 </v>
  <v type="int" >      145 </v>
  <v type="int" >      250 </v>
  <v type="int" >      167 </v>
  <v type="int" >      114 </v>
  <v type="int" >      205 </v>
  <v type="int" >      249 </v>
  <v type="int" >       91 </v>
  <v type="int" >      213 </v>
  <v type="int" >      192 </v>
  <v type="int" >       92 </v>
  <v type="int" >      174 </v>
  <v type="int" >      276 </v>
  <v type="int" >      189 </v>
  <v type="int" >      229 </v>
  <v type="int" >      175 </v>
  <v type="int" >       97 </v>
  <v type="int" >      288 </v>
  <v type="int" >      185 </v>
  <v type="int" >      200 </v>
  <v type="int" >      179 </v>
  <v type="int" >      103 </v>
  <v type="int" >       52 </v>
  <v type="int" >      112 </v>
  <v type="int" >       24 </v>
  <v type="int" >      283 </v>
  <v type="int" >      127 </v>
  <v type="int" >      261 </v>
  <v type="int" >      139 </v>
  <v type="int" >       30 </v>
  <v type="int" >      137 </v>
  <v type="int" >      168 </v>
  <v type="int" >      118 </v>
  <v type="int" >      265 </v>
  <v type="int" >       58 </v>
  <v type="int" >      275 </v>
  <v type="int" >      221 </v>
  <v type="int" >       81 </v>
  <v type="int" >      214 </v>
  <v type="int" >      135 </v>
  <v type="int" >      215 </v>
  <v type="int" >       72 </v>
  <v type="int" >       98 </v>
  <v type="int" >      226 </v>
  <v type="int" >      178 </v>
  <v type="int" >       28 </v>
  <v type="int" >      109 </v>
  <v type="int" >      263 </v>
  <v type="int" >      220 </v>
  <v type="int" >      242 </v>
  <v type="int" >      159 </v>
  <v type="int" >      130 </v>
  <v type="int" >      210 </v>
  <v type="int" >      101 </v>
  <v type="int" >      171 </v>
  <v type="int" >      194 </v>
  <v type="int" >      258 </v>
  <v type="int" >       47 </v>
  <v type="int" >      216 </v>
  <v type="int" >       86 </v>
  <v type="int" >      207 </v>
  <v type="int" >      208 </v>
  <v type="int" >      172 </v>
  <v type="int" >       73 </v>
  <v type="int" >       25 </v>
  <v type="int" >      116 </v>
  <v type="int" >       12 </v>
  <v type="int" >      219 </v>
  <v type="int" >      206 </v>
  <v type="int" >       48 </v>
  <v type="int" >      282 </v>
  <v type="int" >      164 </v>
  <v type="int" >      268 </v>
  <v type="int" >      281 </v>
  <v type="int" >       14 </v>
  <v type="int" >      245 </v>
  <v type="int" >      120 </v>
  <v type="int" >      280 </v>
  <v type="int" >      150 </v>
  <v type="int" >      266 </v>
  <v type="int" >       29 </v>
  <v type="int" >      124 </v>
  <v type="int" >      255 </v>
  <v type="int" >      191 </v>
  <v type="int" >      190 </v>
  <v type="int" >       18 </v>
  <v type="int" >      287 </v>
  <v type="int" >      231 </v>
  <v type="int" >      279 </v>
  <v type="int" >       13 </v>
  <v type="int" >      165 </v>
  <v type="int" >      161 </v>
  <v type="int" >      248 </v>
  <v type="int" >       45 </v>
  <v type="int" >      273 </v>
  <v type="int" >       84 </v>
  <v type="int" >      264 </v>
  <v type="int" >        4 </v>
  <v type="int" >      123 </v>
  <v type="int" >       67 </v>
  <v type="int" >       64 </v>
  <v type="int" >       16 </v>
  <v type="int" >       17 </v>
  <v type="int" >      259 </v>
  <v type="int" >        7 </v>
  <v type="int" >      134 </v>
  <v type="int" >        6 </v>
  <v type="int" >       39 </v>
  <v type="int" >      222 </v>
  <v type="int" >      253 </v>
  <v type="int" >       88 </v>
  <v type="int" >        5 </v>
  <v type="int" >      110 </v>
  <v type="int" >       36 </v>
  <v type="int" >      181 </v>
  <v type="int" >      285 </v>
  <v type="int" >      160 </v>
  <v type="int" >      143 </v>
  <v type="int" >      158 </v>
  <v type="int" >       82 </v>
  <v type="int" >       74 </v>
  <v type="int" >      241 </v>
  <v type="int" >      235 </v>
  <v type="int" >       23 </v>
  <v type="int" >      218 </v>
  <v type="int" >      131 </v>
  <v type="int" >      238 </v>
  <v type="int" >      257 </v>
  <v type="int" >       80 </v>
  <v type="int" >      201 </v>
  <v type="int" >      113 </v>
  <v type="int" >      278 </v>
  <v type="int" >      232 </v>
  <v type="int" >       69 </v>
  <v type="int" >      251 </v>
  <v type="int" >        3 </v>
  <v type="int" >      197 </v>
  <v type="int" >      149 </v>
  <v type="int" >      224 </v>
  <v type="int" >       55 </v>
  <v type="int" >      254 </v>
  <v type="int" >       49 </v>
  <v type="int" >      272 </v>
  <v type="int" >      132 </v>
  <v type="int" >      138 </v>
  <v type="int" >      188 </v>
  <v type="int" >       57 </v>
  <v type="int" >      184 </v>
  <v type="int" >       33 </v>
  <v type="int" >       66 </v>
  <v type="int" >       94 </v>
  <v type="int" >      236 </v>
  <v type="int" >      223 </v>
  <v type="int" >      106 </v>
  <v type="int" >      157 </v>
  <v type="int" >       21 </v>
  <v type="int" >      230 </v>
  <v type="int" >      234 </v>
  <v type="int" >       99 </v>
  <v type="int" >       75 </v>
  <v type="int" >      105 </v>
  <v type="int" >      269 </v>
  <v type="int" >      244 </v>
  <v type="int" >      237 </v>
  <v type="int" >      199 </v>
  <v type="int" >      156 </v>
  <v type="int" >      169 </v>
  <v type="int" >        9 </v>
  <v type="int" >       46 </v>
  <v type="int" >      262 </v>
  <v type="int" >      151 </v>
  <v type="int" >      187 </v>
  <v type="int" >       11 </v>
  <v type="int" >      239 </v>
  <v type="int" >      211 </v>
  <v type="int" >       43 </v>
  <v type="int" >       31 </v>
  <v type="int" >       19 </v>
  <v type="int" >       71 </v>
  <v type="int" >       87 </v>
  <v type="int" >      243 </v>
  <v type="int" >      267 </v>
  <v type="int" >       27 </v>
  <v type="int" >      140 </v>
  <v type="int" >      286 </v>
  <v type="int" >      144 </v>
  <v type="int" >       10 </v>
  <v type="int" >      107 </v>
  <v type="int" >      270 </v>
  <v type="int" >      203 </v>
  <v type="int" >       68 </v>
  <v type="int" >       34 </v>
  <v type="int" >      119 </v>
  <v type="int" >      183 </v>
  <v type="int" >      177 </v>
  <v type="int" >      252 </v>
  <v type="int" >      195 </v>
  <v type="int" >       77 </v>
  <v type="int" >      247 </v>
  <v type="int" >      173 </v>
  <v type="int" >      225 </v>
  <v type="int" >       37 </v>
  <v type="int" >      274 </v>
  <v type="int" >       63 </v>
  <v type="int" >      233 </v>
  <v type="int" >      154 </v>
  <v type="int" >      141 </v>
  <v type="int" >       38 </v>
  <v type="int" >       54 </v>
  <v type="int" >      246 </v>
  <v type="int" >      152 </v>
  <v type="int" >       53 </v>
  <v type="int" >      193 </v>
  <v type="int" >       76 </v>
  <v type="int" >      133 </v>
  <v type="int" >      162 </v>
  <v type="int" >      129 </v>
  <v type="int" >       62 </v>
  <v type="int" >       65 </v>
  <v type="int" >       93 </v>
  <v type="int" >      271 </v>
  <v type="int" >       90 </v>
  <v type="int" >       32 </v>
  <v type="int" >       56 </v>
  <v type="int" >       95 </v>
  <v type="int" >       59 </v>
  <v type="int" >       42 </v>
  <v type="int" >        8 </v>
  <v type="int" >      228 </v>
  <v type="int" >       70 </v>
  <v type="int" >      186 </v>
  <v type="int" >      196 </v>
  <v type="int" >      121 </v>
  <v type="int" >      122 </v>
  <v type="int" >       79 </v>
  <v type="int" >        2 </v>
  <v type="int" >      198 </v>
  <v type="int" >      153 </v>
  <v type="int" >      240 </v>
  <v type="int" >      209 </v>
  <v type="int" >       35 </v>
  <v type="int" >      204 </v>
  <v type="int" >       85 </v>
  <v type="int" >      227 </v>
  <v type="int" >       89 </v>
  <v type="int" >       40 </v>
  <v type="int" >       78 </v>
  <v type="int" >      142 </v>
  <v type="int" >       15 </v>
  <v type="int" >      136 </v>
  <v type="int" >      148 </v>
  <v type="int" >      100 </v>
  <v type="int" >      217 </v>
  <v type="int" >       61 </v>
  <v type="int" >       96 </v>
  <v type="int" >      126 </v>
  <v type="int" >      180 </v>
  <v type="int" >      115 </v>
  <v type="int" >      147 </v>
  <v type="int" >       41 </v>
  <v type="int" >       22 </v>
  <v type="int" >      260 </v>
  <v type="int" >      128 </v>
 </varray>
 <kpoints>
  <generation param="Gamma">
   <v type="int" name="divisions">       4        4        1 </v>
   <v name="usershift">      0.00000000       0.00000000       0.00000000 </v>
   <v name="genvec1">      0.25000000       0.00000000       0.00000000 </v>
   <v name="genvec2">      0.00000000       0.25000000       0.00000000 </v>
   <v name="genvec3">      0.00000000       0.00000000       1.00000000 </v>
   <v name="shift">      0.00000000       0.00000000       0.00000000 </v>
  </generation>
  <varray name="kpointlist" >
   <v>       0.00000000       0.00000000       0.00000000 </v>
   <v>       0.25000000       0.00000000       0.00000000 </v>
   <v>       0.50000000       0.00000000       0.00000000 </v>
   <v>       0.00000000       0.25000000       0.00000000 </v>
   <v>       0.25000000       0.25000000       0.00000000 </v>
   <v>       0.50000000       0.25000000       0.00000000 </v>
   <v>      -0.25000000       0.25000000       0.00000000 </v>
   <v>       0.00000000       0.50000000       0.00000000 </v>
   <v>       0.25000000       0.50000000       0.00000000 </v>
   <v>       0.50000000       0.50000000       0.00000000 </v>
  </varray>
  <varray name="weights" >
   <v>       0.06250000 </v>
   <v>       0.12500000 </v>
   <v>       0.06250000 </v>
   <v>       0.12500000 </v>
   <v>       0.12500000 </v>
   <v>       0.12500000 </v>
   <v>       0.12500000 </v>
   <v>       0.06250000 </v>
   <v>       0.12500000 </v>
   <v>       0.06250000 </v>
  </varray>
 </kpoints>
 <parameters>
  <separator name="general" >
   <i type="string" name="SYSTEM">unknown system</i>
   <i type="logical" name="LCOMPAT"> F  </i>
  </separator>
  <separator name="electronic" >
   <i type="string" name="PREC">accura</i>
   <i name="ENMAX">    450.00000000</i>
   <i name="ENAUG">    838.43500000</i>
   <i name="EDIFF">      0.00000100</i>
   <i type="int" name="IALGO">    68</i>
   <i type="int" name="IWAVPR">    11</i>
   <i type="int" name="NBANDS">  1386</i>
   <i name="NELECT">   2290.00000000</i>
   <i type="int" name="TURBO">     0</i>
   <i type="int" name="IRESTART">     0</i>
   <i type="int" name="NREBOOT">     0</i>
   <i type="int" name="NMIN">     0</i>
   <i name="EREF">      0.00000000</i>
   <separator name="electronic smearing" >
    <i type="int" name="ISMEAR">     0</i>
    <i name="SIGMA">      0.15000000</i>
    <i name="KSPACING">      0.50000000</i>
    <i type="logical" name="KGAMMA"> T  </i>
   </separator>
   <separator name="electronic projectors" >
    <i type="logical" name="LREAL"> T  </i>
    <v name="ROPT">     -0.00025000     -0.00025000</v>
    <i type="int" name="LMAXPAW">  -100</i>
    <i type="int" name="LMAXMIX">     2</i>
    <i type="logical" name="NLSPLINE"> F  </i>
   </separator>
   <separator name="electronic startup" >
    <i type="int" name="ISTART">     0</i>
    <i type="int" name="ICHARG">     2</i>
    <i type="int" name="INIWAV">     1</i>
   </separator>
   <separator name="electronic spin" >
    <i type="int" name="ISPIN">     1</i>
    <i type="logical" name="LNONCOLLINEAR"> F  </i>
    <v name="MAGMOM">      1.00000000      1.00000000      1.00000000      1.00000000      1.00000000      1.00000000      1.00000000      1.00000000      1.00000000      1.00000000      1.00000000      1.00000000      1.00000000      1.00000000      1.00000000      1.00000000      1.00000000      1.00000000      1.00000000      1.00000000
      1.00000000      1.00000000      1.00000000      1.00000000      1.00000000      1.00000000      1.00000000      1.00000000      1.00000000      1.00000000      1.00000000      1.00000000      1.00000000      1.00000000      1.00000000      1.00000000      1.00000000      1.00000000      1.00000000      1.00000000
      1.00000000      1.00000000      1.00000000      1.00000000      1.00000000      1.00000000      1.00000000      1.00000000      1.00000000      1.00000000      1.00000000      1.00000000      1.00000000      1.00000000      1.00000000      1.00000000      1.00000000      1.00000000      1.00000000      1.00000000
      1.00000000      1.00000000      1.00000000      1.00000000      1.00000000      1.00000000      1.00000000      1.00000000      1.00000000      1.00000000      1.00000000      1.00000000      1.00000000      1.00000000      1.00000000      1.00000000      1.00000000      1.00000000      1.00000000      1.00000000
      1.00000000      1.00000000      1.00000000      1.00000000      1.00000000      1.00000000      1.00000000      1.00000000      1.00000000      1.00000000      1.00000000      1.00000000      1.00000000      1.00000000      1.00000000      1.00000000      1.00000000      1.00000000      1.00000000      1.00000000
      1.00000000      1.00000000      1.00000000      1.00000000      1.00000000      1.00000000      1.00000000      1.00000000      1.00000000      1.00000000      1.00000000      1.00000000      1.00000000      1.00000000      1.00000000      1.00000000      1.00000000      1.00000000      1.00000000      1.00000000
      1.00000000      1.00000000      1.00000000      1.00000000      1.00000000      1.00000000      1.00000000      1.00000000      1.00000000      1.00000000      1.00000000      1.00000000      1.00000000      1.00000000      1.00000000      1.00000000      1.00000000      1.00000000      1.00000000      1.00000000
      1.00000000      1.00000000      1.00000000      1.00000000      1.00000000      1.00000000      1.00000000      1.00000000      1.00000000      1.00000000      1.00000000      1.00000000      1.00000000      1.00000000      1.00000000      1.00000000      1.00000000      1.00000000      1.00000000      1.00000000
      1.00000000      1.00000000      1.00000000      1.00000000      1.00000000      1.00000000      1.00000000      1.00000000      1.00000000      1.00000000      1.00000000      1.00000000      1.00000000      1.00000000      1.00000000      1.00000000      1.00000000      1.00000000      1.00000000      1.00000000
      1.00000000      1.00000000      1.00000000      1.00000000      1.00000000      1.00000000      1.00000000      1.00000000      1.00000000      1.00000000      1.00000000      1.00000000      1.00000000      1.00000000      1.00000000      1.00000000      1.00000000      1.00000000      1.00000000      1.00000000
      1.00000000      1.00000000      1.00000000      1.00000000      1.00000000      1.00000000      1.00000000      1.00000000      1.00000000      1.00000000      1.00000000      1.00000000      1.00000000      1.00000000      1.00000000      1.00000000      1.00000000      1.00000000      1.00000000      1.00000000
      1.00000000      1.00000000      1.00000000      1.00000000      1.00000000      1.00000000      1.00000000      1.00000000      1.00000000      1.00000000      1.00000000      1.00000000      1.00000000      1.00000000      1.00000000      1.00000000      1.00000000      1.00000000      1.00000000      1.00000000
      1.00000000      1.00000000      1.00000000      1.00000000      1.00000000      1.00000000      1.00000000      1.00000000      1.00000000      1.00000000      1.00000000      1.00000000      1.00000000      1.00000000      1.00000000      1.00000000      1.00000000      1.00000000      1.00000000      1.00000000
      1.00000000      1.00000000      1.00000000      1.00000000      1.00000000      1.00000000      1.00000000      1.00000000      1.00000000      1.00000000      1.00000000      1.00000000      1.00000000      1.00000000      1.00000000      1.00000000      1.00000000      1.00000000      1.00000000      1.00000000
      1.00000000      1.00000000      1.00000000      1.00000000      1.00000000      1.00000000      1.00000000      1.00000000</v>
    <i name="NUPDOWN">     -1.00000000</i>
    <i type="logical" name="LSORBIT"> F  </i>
    <v name="SAXIS">      0.00000000      0.00000000      1.00000000</v>
    <i type="logical" name="LSPIRAL"> F  </i>
    <v name="QSPIRAL">      0.00000000      0.00000000      0.00000000</v>
    <i type="logical" name="LZEROZ"> F  </i>
   </separator>
   <separator name="electronic exchange-correlation" >
    <i type="logical" name="LASPH"> F  </i>
    <i type="logical" name="LMETAGGA"> F  </i>
   </separator>
   <separator name="electronic convergence" >
    <i type="int" name="NELM">   100</i>
    <i type="int" name="NELMDL">     0</i>
    <i type="int" name="NELMIN">     4</i>
    <i name="ENINI">    450.00000000</i>
    <separator name="electronic convergence detail" >
     <i type="logical" name="LDIAG"> T  </i>
     <i type="logical" name="LSUBROT"> F  </i>
     <i name="WEIMIN">      0.00100000</i>
     <i name="EBREAK">      0.00000000</i>
     <i name="DEPER">      0.30000000</i>
     <i type="int" name="NRMM">     4</i>
     <i name="TIME">      0.40000000</i>
    </separator>
   </separator>
   <separator name="electronic mixer" >
    <i name="AMIX">      0.40000000</i>
    <i name="BMIX">      1.00000000</i>
    <i name="AMIN">      0.10000000</i>
    <i name="AMIX_MAG">      1.60000000</i>
    <i name="BMIX_MAG">      1.00000000</i>
    <separator name="electronic mixer details" >
     <i type="int" name="IMIX">     4</i>
     <i type="logical" name="MIXFIRST"> F  </i>
     <i type="int" name="MAXMIX">   -45</i>
     <i name="WC">    100.00000000</i>
     <i type="int" name="INIMIX">     1</i>
     <i type="int" name="MIXPRE">     1</i>
     <i type="int" name="MREMOVE">     5</i>
    </separator>
   </separator>
   <separator name="electronic dipolcorrection" >
    <i type="logical" name="LDIPOL"> F  </i>
    <i type="logical" name="LMONO"> F  </i>
    <i type="int" name="IDIPOL">     0</i>
    <i name="EPSILON">      1.00000000</i>
    <v name="DIPOL">   -100.00000000   -100.00000000   -100.00000000</v>
    <i name="EFIELD">      0.00000000</i>
   </separator>
  </separator>
  <separator name="grids" >
   <i type="int" name="NGX">    70</i>
   <i type="int" name="NGY">    60</i>
   <i type="int" name="NGZ">   320</i>
   <i type="int" name="NGXF">   140</i>
   <i type="int" name="NGYF">   120</i>
   <i type="int" name="NGZF">   640</i>
   <i type="logical" name="ADDGRID"> F  </i>
  </separator>
  <separator name="ionic" >
   <i type="int" name="NSW">     5</i>
   <i type="int" name="IBRION">     2</i>
   <i type="int" name="MDALGO">     0</i>
   <i type="int" name="ISIF">     2</i>
   <i name="PSTRESS">      0.00000000</i>
   <i name="EDIFFG">      0.00001000</i>
   <i type="int" name="NFREE">     1</i>
   <i name="POTIM">      0.25000000</i>
   <i name="SMASS">     -3.00000000</i>
   <i name="SCALEE">      1.00000000</i>
  </separator>
  <separator name="ionic md" >
   <i name="TEBEG">      0.00010000</i>
   <i name="TEEND">      0.00010000</i>
   <i type="int" name="NBLOCK">     1</i>
   <i type="int" name="KBLOCK">     5</i>
   <i type="int" name="NPACO">   256</i>
   <i name="APACO">     16.00000000</i>
  </separator>
  <separator name="symmetry" >
   <i type="int" name="ISYM">     2</i>
   <i name="SYMPREC">      0.00001000</i>
  </separator>
  <separator name="dos" >
   <i type="int" name="LORBIT">     0</i>
   <v name="RWIGS">     -1.00000000     -1.00000000</v>
   <i type="int" name="NEDOS">   301</i>
   <i name="EMIN">     10.00000000</i>
   <i name="EMAX">    -10.00000000</i>
   <i name="EFERMI">      0.00000000</i>
  </separator>
  <separator name="writing" >
   <i type="int" name="NWRITE">     2</i>
   <i type="logical" name="LWAVE"> F  </i>
   <i type="logical" name="LDOWNSAMPLE"> F  </i>
   <i type="logical" name="LCHARG"> F  </i>
   <i type="logical" name="LPARD"> F  </i>
   <i type="logical" name="LVTOT"> F  </i>
   <i type="logical" name="LVHAR"> F  </i>
   <i type="logical" name="LELF"> F  </i>
   <i type="logical" name="LOPTICS"> F  </i>
   <v name="STM">      0.00000000      0.00000000      0.00000000      0.00000000      0.00000000      0.00000000      0.00000000</v>
  </separator>
  <separator name="performance" >
   <i type="int" name="NPAR">    14</i>
   <i type="int" name="NSIM">     4</i>
   <i type="int" name="NBLK">    -1</i>
   <i type="logical" name="LPLANE"> T  </i>
   <i type="logical" name="LSCALAPACK"> T  </i>
   <i type="logical" name="LSCAAWARE"> T  </i>
   <i type="logical" name="LSCALU"> F  </i>
   <i type="logical" name="LASYNC"> F  </i>
   <i type="logical" name="LORBITALREAL"> F  </i>
  </separator>
  <separator name="miscellaneous" >
   <i type="int" name="IDIOT">     3</i>
   <i type="int" name="ISPECIAL">     0</i>
   <i type="logical" name="LMUSIC"> F  </i>
   <v name="POMASS">     55.84700000     54.93800000</v>
   <v name="DARWINR">      0.00000000      0.00000000</v>
   <v name="DARWINV">      1.00000000      1.00000000</v>
   <i type="logical" name="LCORR"> T  </i>
  </separator>
  <i type="logical" name="GGA_COMPAT"> T  </i>
  <i type="logical" name="LBERRY"> F  </i>
  <i type="int" name="ICORELEVEL">     0</i>
  <i type="logical" name="LDAU"> F  </i>
  <i type="int" name="I_CONSTRAINED_M">     0</i>
  <separator name="electronic exchange-correlation" >
   <i type="string" name="GGA">--</i>
   <i type="int" name="VOSKOWN">     0</i>
   <i type="logical" name="LHFCALC"> F  </i>
   <i type="string" name="PRECFOCK"></i>
   <i type="logical" name="LSYMGRAD"> F  </i>
   <i type="logical" name="LHFONE"> F  </i>
   <i type="logical" name="LRHFCALC"> F  </i>
   <i type="logical" name="LTHOMAS"> F  </i>
   <i type="logical" name="LMODELHF"> F  </i>
   <i name="ENCUT4O">     -1.00000000</i>
   <i type="int" name="EXXOEP">     0</i>
   <i type="int" name="FOURORBIT">     0</i>
   <i name="AEXX">      0.00000000</i>
   <i name="HFALPHA">      0.00000000</i>
   <i name="MCALPHA">      0.00000000</i>
   <i name="ALDAX">      1.00000000</i>
   <i name="AGGAX">      1.00000000</i>
   <i name="ALDAC">      1.00000000</i>
   <i name="AGGAC">      1.00000000</i>
   <i type="int" name="NKREDX">     1</i>
   <i type="int" name="NKREDY">     1</i>
   <i type="int" name="NKREDZ">     1</i>
   <i type="logical" name="SHIFTRED"> F  </i>
   <i type="logical" name="ODDONLY"> F  </i>
   <i type="logical" name="EVENONLY"> F  </i>
   <i type="int" name="LMAXFOCK">     0</i>
   <i type="int" name="NMAXFOCKAE">     0</i>
   <i type="logical" name="LFOCKAEDFT"> F  </i>
   <i name="HFSCREEN">      0.00000000</i>
   <i name="HFSCREENC">      0.00000000</i>
   <i type="int" name="NBANDSGWLOW">     0</i>
  </separator>
  <separator name="vdW DFT" >
   <i type="logical" name="LUSE_VDW"> F  </i>
   <i name="Zab_VDW">     -0.84910000</i>
   <i name="PARAM1">      0.12340000</i>
   <i name="PARAM2">      1.00000000</i>
   <i name="PARAM3">      0.00000000</i>
  </separator>
  <separator name="model GW" >
   <i type="int" name="MODEL_GW">     0</i>
   <i name="MODEL_EPS0">      7.68123389</i>
   <i name="MODEL_ALPHA">      1.00000000</i>
  </separator>
  <separator name="linear response parameters" >
   <i type="logical" name="LEPSILON"> F  </i>
   <i type="logical" name="LRPA"> F  </i>
   <i type="logical" name="LNABLA"> F  </i>
   <i type="logical" name="LVEL"> F  </i>
   <i type="int" name="KINTER">     0</i>
   <i name="CSHIFT">      0.10000000</i>
   <i name="OMEGAMAX">     -1.00000000</i>
   <i name="DEG_THRESHOLD">      0.00200000</i>
   <i name="RTIME">     -0.10000000</i>
   <i name="WPLASMAI">      0.00000000</i>
   <v name="DFIELD">      0.00000000      0.00000000      0.00000000</v>
   <v name="WPLASMA">      0.00000000      0.00000000      0.00000000      0.00000000      0.00000000      0.00000000      0.00000000      0.00000000      0.00000000</v>
  </separator>
  <separator name="orbital magnetization" >
   <i type="logical" name="NUCIND"> F  </i>
   <v name="MAGPOS">      0.00000000      0.00000000      0.00000000</v>
   <i type="logical" name="LNICSALL"> T  </i>
   <i type="logical" name="ORBITALMAG"> F  </i>
   <i type="logical" name="LMAGBLOCH"> F  </i>
   <i type="logical" name="LCHIMAG"> F  </i>
   <i type="logical" name="LGAUGE"> T  </i>
   <i type="int" name="MAGATOM">     0</i>
   <v name="MAGDIPOL">      0.00000000      0.00000000      0.00000000</v>
   <v name="AVECCONST">      0.00000000      0.00000000      0.00000000</v>
  </separator>
  <separator name="response functions" >
   <i type="logical" name="LADDER"> F  </i>
   <i type="logical" name="LRPAFORCE"> F  </i>
   <i type="logical" name="LFXC"> F  </i>
   <i type="logical" name="LHARTREE"> T  </i>
   <i type="int" name="IBSE">     0</i>
   <v type="int" name="KPOINT">    -1     0     0     0</v>
   <i type="logical" name="LTCTE"> F  </i>
   <i type="logical" name="LTETE"> F  </i>
   <i type="logical" name="LTRIPLET"> F  </i>
   <i type="logical" name="LFXCEPS"> F  </i>
   <i type="logical" name="LFXHEG"> F  </i>
   <i type="int" name="NATURALO">     2</i>
   <i type="logical" name="L2ORDER"> F  </i>
   <i type="logical" name="LMP2LT"> F  </i>
   <i type="logical" name="LUSEW"> F  </i>
   <i name="ENCUTGW">     -2.00000000</i>
   <i name="ENCUTGWSOFT">     -2.00000000</i>
   <i name="ENCUTLF">     -1.00000000</i>
   <i type="int" name="LMAXMP2">    -1</i>
   <i name="SCISSOR">      0.00000000</i>
   <i type="int" name="NOMEGA">     0</i>
   <i type="int" name="NOMEGAR">     0</i>
   <i type="int" name="NBANDSGW">    -1</i>
   <i type="int" name="NBANDSO">    -1</i>
   <i type="int" name="NBANDSV">    -1</i>
   <i type="int" name="NELM">   100</i>
   <i type="int" name="NELMHF">     1</i>
   <i type="int" name="DIM">     3</i>
   <i type="int" name="ANTIRES">     0</i>
   <i name="OMEGAMAX">    -30.00000000</i>
   <i name="OMEGAMIN">    -30.00000000</i>
   <i name="OMEGATL">   -200.00000000</i>
   <i type="int" name="OMEGAGRID">   140</i>
   <i name="CSHIFT">     -0.10000000</i>
   <i type="logical" name="SELFENERGY"> F  </i>
   <i type="logical" name="LSPECTRAL"> F  </i>
   <i type="logical" name="LSPECTRALGW"> F  </i>
   <i type="logical" name="LSINGLES"> F  </i>
   <i type="logical" name="LFERMIGW"> F  </i>
   <i type="logical" name="ODDONLYGW"> F  </i>
   <i type="logical" name="EVENONLYGW"> F  </i>
   <i type="int" name="NKREDLFX">     1</i>
   <i type="int" name="NKREDLFY">     1</i>
   <i type="int" name="NKREDLFZ">     1</i>
   <i type="int" name="MAXMEM">  2800</i>
   <i type="int" name="TELESCOPE">     0</i>
   <i type="int" name="TAUPAR">     1</i>
   <i type="int" name="OMEGAPAR">    -1</i>
   <i name="LAMBDA">      1.00000000</i>
  </separator>
  <separator name="External order field" >
   <i name="OFIELD_KAPPA">      0.00000000</i>
   <v name="OFIELD_K">      0.00000000      0.00000000      0.00000000</v>
   <i name="OFIELD_Q6_NEAR">      0.00000000</i>
   <i name="OFIELD_Q6_FAR">      0.00000000</i>
   <i name="OFIELD_A">      0.00000000</i>
  </separator>
 </parameters>
 <atominfo>
  <atoms>     288 </atoms>
  <types>       2 </types>
  <array name="atoms" >
   <dimension dim="1">ion</dimension>
   <field type="string">element</field>
   <field type="int">atomtype</field>
   <set>
    <rc><c>Fe</c><c>   1</c></rc>
    <rc><c>Fe</c><c>   1</c></rc>
    <rc><c>Fe</c><c>   1</c></rc>
    <rc><c>Fe</c><c>   1</c></rc>
    <rc><c>Fe</c><c>   1</c></rc>
    <rc><c>Fe</c><c>   1</c></rc>
    <rc><c>Fe</c><c>   1</c></rc>
    <rc><c>Fe</c><c>   1</c></rc>
    <rc><c>Fe</c><c>   1</c></rc>
    <rc><c>Fe</c><c>   1</c></rc>
    <rc><c>Fe</c><c>   1</c></rc>
    <rc><c>Fe</c><c>   1</c></rc>
    <rc><c>Fe</c><c>   1</c></rc>
    <rc><c>Fe</c><c>   1</c></rc>
    <rc><c>Fe</c><c>   1</c></rc>
    <rc><c>Fe</c><c>   1</c></rc>
    <rc><c>Fe</c><c>   1</c></rc>
    <rc><c>Fe</c><c>   1</c></rc>
    <rc><c>Fe</c><c>   1</c></rc>
    <rc><c>Fe</c><c>   1</c></rc>
    <rc><c>Fe</c><c>   1</c></rc>
    <rc><c>Fe</c><c>   1</c></rc>
    <rc><c>Fe</c><c>   1</c></rc>
    <rc><c>Fe</c><c>   1</c></rc>
    <rc><c>Fe</c><c>   1</c></rc>
    <rc><c>Fe</c><c>   1</c></rc>
    <rc><c>Fe</c><c>   1</c></rc>
    <rc><c>Fe</c><c>   1</c></rc>
    <rc><c>Fe</c><c>   1</c></rc>
    <rc><c>Fe</c><c>   1</c></rc>
    <rc><c>Fe</c><c>   1</c></rc>
    <rc><c>Fe</c><c>   1</c></rc>
    <rc><c>Fe</c><c>   1</c></rc>
    <rc><c>Fe</c><c>   1</c></rc>
    <rc><c>Fe</c><c>   1</c></rc>
    <rc><c>Fe</c><c>   1</c></rc>
    <rc><c>Fe</c><c>   1</c></rc>
    <rc><c>Fe</c><c>   1</c></rc>
    <rc><c>Fe</c><c>   1</c></rc>
    <rc><c>Fe</c><c>   1</c></rc>
    <rc><c>Fe</c><c>   1</c></rc>
    <rc><c>Fe</c><c>   1</c></rc>
    <rc><c>Fe</c><c>   1</c></rc>
    <rc><c>Fe</c><c>   1</c></rc>
    <rc><c>Fe</c><c>   1</c></rc>
    <rc><c>Fe</c><c>   1</c></rc>
    <rc><c>Fe</c><c>   1</c></rc>
    <rc><c>Fe</c><c>   1</c></rc>
    <rc><c>Fe</c><c>   1</c></rc>
    <rc><c>Fe</c><c>   1</c></rc>
    <rc><c>Fe</c><c>   1</c></rc>
    <rc><c>Fe</c><c>   1</c></rc>
    <rc><c>Fe</c><c>   1</c></rc>
    <rc><c>Fe</c><c>   1</c></rc>
    <rc><c>Fe</c><c>   1</c></rc>
    <rc><c>Fe</c><c>   1</c></rc>
    <rc><c>Fe</c><c>   1</c></rc>
    <rc><c>Fe</c><c>   1</c></rc>
    <rc><c>Fe</c><c>   1</c></rc>
    <rc><c>Fe</c><c>   1</c></rc>
    <rc><c>Fe</c><c>   1</c></rc>
    <rc><c>Fe</c><c>   1</c></rc>
    <rc><c>Fe</c><c>   1</c></rc>
    <rc><c>Fe</c><c>   1</c></rc>
    <rc><c>Fe</c><c>   1</c></rc>
    <rc><c>Fe</c><c>   1</c></rc>
    <rc><c>Fe</c><c>   1</c></rc>
    <rc><c>Fe</c><c>   1</c></rc>
    <rc><c>Fe</c><c>   1</c></rc>
    <rc><c>Fe</c><c>   1</c></rc>
    <rc><c>Fe</c><c>   1</c></rc>
    <rc><c>Fe</c><c>   1</c></rc>
    <rc><c>Fe</c><c>   1</c></rc>
    <rc><c>Fe</c><c>   1</c></rc>
    <rc><c>Fe</c><c>   1</c></rc>
    <rc><c>Fe</c><c>   1</c></rc>
    <rc><c>Fe</c><c>   1</c></rc>
    <rc><c>Fe</c><c>   1</c></rc>
    <rc><c>Fe</c><c>   1</c></rc>
    <rc><c>Fe</c><c>   1</c></rc>
    <rc><c>Fe</c><c>   1</c></rc>
    <rc><c>Fe</c><c>   1</c></rc>
    <rc><c>Fe</c><c>   1</c></rc>
    <rc><c>Fe</c><c>   1</c></rc>
    <rc><c>Fe</c><c>   1</c></rc>
    <rc><c>Fe</c><c>   1</c></rc>
    <rc><c>Fe</c><c>   1</c></rc>
    <rc><c>Fe</c><c>   1</c></rc>
    <rc><c>Fe</c><c>   1</c></rc>
    <rc><c>Fe</c><c>   1</c></rc>
    <rc><c>Fe</c><c>   1</c></rc>
    <rc><c>Fe</c><c>   1</c></rc>
    <rc><c>Fe</c><c>   1</c></rc>
    <rc><c>Fe</c><c>   1</c></rc>
    <rc><c>Fe</c><c>   1</c></rc>
    <rc><c>Fe</c><c>   1</c></rc>
    <rc><c>Fe</c><c>   1</c></rc>
    <rc><c>Fe</c><c>   1</c></rc>
    <rc><c>Fe</c><c>   1</c></rc>
    <rc><c>Fe</c><c>   1</c></rc>
    <rc><c>Fe</c><c>   1</c></rc>
    <rc><c>Fe</c><c>   1</c></rc>
    <rc><c>Fe</c><c>   1</c></rc>
    <rc><c>Fe</c><c>   1</c></rc>
    <rc><c>Fe</c><c>   1</c></rc>
    <rc><c>Fe</c><c>   1</c></rc>
    <rc><c>Fe</c><c>   1</c></rc>
    <rc><c>Fe</c><c>   1</c></rc>
    <rc><c>Fe</c><c>   1</c></rc>
    <rc><c>Fe</c><c>   1</c></rc>
    <rc><c>Fe</c><c>   1</c></rc>
    <rc><c>Fe</c><c>   1</c></rc>
    <rc><c>Fe</c><c>   1</c></rc>
    <rc><c>Fe</c><c>   1</c></rc>
    <rc><c>Fe</c><c>   1</c></rc>
    <rc><c>Fe</c><c>   1</c></rc>
    <rc><c>Fe</c><c>   1</c></rc>
    <rc><c>Fe</c><c>   1</c></rc>
    <rc><c>Fe</c><c>   1</c></rc>
    <rc><c>Fe</c><c>   1</c></rc>
    <rc><c>Fe</c><c>   1</c></rc>
    <rc><c>Fe</c><c>   1</c></rc>
    <rc><c>Fe</c><c>   1</c></rc>
    <rc><c>Fe</c><c>   1</c></rc>
    <rc><c>Fe</c><c>   1</c></rc>
    <rc><c>Fe</c><c>   1</c></rc>
    <rc><c>Fe</c><c>   1</c></rc>
    <rc><c>Fe</c><c>   1</c></rc>
    <rc><c>Fe</c><c>   1</c></rc>
    <rc><c>Fe</c><c>   1</c></rc>
    <rc><c>Fe</c><c>   1</c></rc>
    <rc><c>Fe</c><c>   1</c></rc>
    <rc><c>Fe</c><c>   1</c></rc>
    <rc><c>Fe</c><c>   1</c></rc>
    <rc><c>Fe</c><c>   1</c></rc>
    <rc><c>Fe</c><c>   1</c></rc>
    <rc><c>Fe</c><c>   1</c></rc>
    <rc><c>Fe</c><c>   1</c></rc>
    <rc><c>Fe</c><c>   1</c></rc>
    <rc><c>Fe</c><c>   1</c></rc>
    <rc><c>Fe</c><c>   1</c></rc>
    <rc><c>Fe</c><c>   1</c></rc>
    <rc><c>Fe</c><c>   1</c></rc>
    <rc><c>Fe</c><c>   1</c></rc>
    <rc><c>Fe</c><c>   1</c></rc>
    <rc><c>Fe</c><c>   1</c></rc>
    <rc><c>Fe</c><c>   1</c></rc>
    <rc><c>Fe</c><c>   1</c></rc>
    <rc><c>Fe</c><c>   1</c></rc>
    <rc><c>Fe</c><c>   1</c></rc>
    <rc><c>Fe</c><c>   1</c></rc>
    <rc><c>Fe</c><c>   1</c></rc>
    <rc><c>Fe</c><c>   1</c></rc>
    <rc><c>Fe</c><c>   1</c></rc>
    <rc><c>Fe</c><c>   1</c></rc>
    <rc><c>Fe</c><c>   1</c></rc>
    <rc><c>Fe</c><c>   1</c></rc>
    <rc><c>Fe</c><c>   1</c></rc>
    <rc><c>Fe</c><c>   1</c></rc>
    <rc><c>Fe</c><c>   1</c></rc>
    <rc><c>Fe</c><c>   1</c></rc>
    <rc><c>Fe</c><c>   1</c></rc>
    <rc><c>Fe</c><c>   1</c></rc>
    <rc><c>Fe</c><c>   1</c></rc>
    <rc><c>Fe</c><c>   1</c></rc>
    <rc><c>Fe</c><c>   1</c></rc>
    <rc><c>Fe</c><c>   1</c></rc>
    <rc><c>Fe</c><c>   1</c></rc>
    <rc><c>Fe</c><c>   1</c></rc>
    <rc><c>Fe</c><c>   1</c></rc>
    <rc><c>Fe</c><c>   1</c></rc>
    <rc><c>Fe</c><c>   1</c></rc>
    <rc><c>Fe</c><c>   1</c></rc>
    <rc><c>Fe</c><c>   1</c></rc>
    <rc><c>Fe</c><c>   1</c></rc>
    <rc><c>Fe</c><c>   1</c></rc>
    <rc><c>Fe</c><c>   1</c></rc>
    <rc><c>Fe</c><c>   1</c></rc>
    <rc><c>Fe</c><c>   1</c></rc>
    <rc><c>Fe</c><c>   1</c></rc>
    <rc><c>Fe</c><c>   1</c></rc>
    <rc><c>Fe</c><c>   1</c></rc>
    <rc><c>Fe</c><c>   1</c></rc>
    <rc><c>Fe</c><c>   1</c></rc>
    <rc><c>Fe</c><c>   1</c></rc>
    <rc><c>Fe</c><c>   1</c></rc>
    <rc><c>Fe</c><c>   1</c></rc>
    <rc><c>Fe</c><c>   1</c></rc>
    <rc><c>Fe</c><c>   1</c></rc>
    <rc><c>Fe</c><c>   1</c></rc>
    <rc><c>Fe</c><c>   1</c></rc>
    <rc><c>Fe</c><c>   1</c></rc>
    <rc><c>Fe</c><c>   1</c></rc>
    <rc><c>Fe</c><c>   1</c></rc>
    <rc><c>Fe</c><c>   1</c></rc>
    <rc><c>Fe</c><c>   1</c></rc>
    <rc><c>Fe</c><c>   1</c></rc>
    <rc><c>Fe</c><c>   1</c></rc>
    <rc><c>Fe</c><c>   1</c></rc>
    <rc><c>Fe</c><c>   1</c></rc>
    <rc><c>Fe</c><c>   1</c></rc>
    <rc><c>Fe</c><c>   1</c></rc>
    <rc><c>Fe</c><c>   1</c></rc>
    <rc><c>Fe</c><c>   1</c></rc>
    <rc><c>Fe</c><c>   1</c></rc>
    <rc><c>Fe</c><c>   1</c></rc>
    <rc><c>Fe</c><c>   1</c></rc>
    <rc><c>Fe</c><c>   1</c></rc>
    <rc><c>Fe</c><c>   1</c></rc>
    <rc><c>Fe</c><c>   1</c></rc>
    <rc><c>Fe</c><c>   1</c></rc>
    <rc><c>Fe</c><c>   1</c></rc>
    <rc><c>Fe</c><c>   1</c></rc>
    <rc><c>Fe</c><c>   1</c></rc>
    <rc><c>Fe</c><c>   1</c></rc>
    <rc><c>Fe</c><c>   1</c></rc>
    <rc><c>Fe</c><c>   1</c></rc>
    <rc><c>Fe</c><c>   1</c></rc>
    <rc><c>Fe</c><c>   1</c></rc>
    <rc><c>Fe</c><c>   1</c></rc>
    <rc><c>Fe</c><c>   1</c></rc>
    <rc><c>Fe</c><c>   1</c></rc>
    <rc><c>Fe</c><c>   1</c></rc>
    <rc><c>Fe</c><c>   1</c></rc>
    <rc><c>Fe</c><c>   1</c></rc>
    <rc><c>Fe</c><c>   1</c></rc>
    <rc><c>Fe</c><c>   1</c></rc>
    <rc><c>Fe</c><c>   1</c></rc>
    <rc><c>Fe</c><c>   1</c></rc>
    <rc><c>Fe</c><c>   1</c></rc>
    <rc><c>Fe</c><c>   1</c></rc>
    <rc><c>Fe</c><c>   1</c></rc>
    <rc><c>Fe</c><c>   1</c></rc>
    <rc><c>Fe</c><c>   1</c></rc>
    <rc><c>Fe</c><c>   1</c></rc>
    <rc><c>Fe</c><c>   1</c></rc>
    <rc><c>Fe</c><c>   1</c></rc>
    <rc><c>Fe</c><c>   1</c></rc>
    <rc><c>Fe</c><c>   1</c></rc>
    <rc><c>Fe</c><c>   1</c></rc>
    <rc><c>Fe</c><c>   1</c></rc>
    <rc><c>Fe</c><c>   1</c></rc>
    <rc><c>Fe</c><c>   1</c></rc>
    <rc><c>Fe</c><c>   1</c></rc>
    <rc><c>Fe</c><c>   1</c></rc>
    <rc><c>Fe</c><c>   1</c></rc>
    <rc><c>Fe</c><c>   1</c></rc>
    <rc><c>Fe</c><c>   1</c></rc>
    <rc><c>Fe</c><c>   1</c></rc>
    <rc><c>Fe</c><c>   1</c></rc>
    <rc><c>Fe</c><c>   1</c></rc>
    <rc><c>Fe</c><c>   1</c></rc>
    <rc><c>Fe</c><c>   1</c></rc>
    <rc><c>Fe</c><c>   1</c></rc>
    <rc><c>Fe</c><c>   1</c></rc>
    <rc><c>Fe</c><c>   1</c></rc>
    <rc><c>Fe</c><c>   1</c></rc>
    <rc><c>Fe</c><c>   1</c></rc>
    <rc><c>Fe</c><c>   1</c></rc>
    <rc><c>Fe</c><c>   1</c></rc>
    <rc><c>Fe</c><c>   1</c></rc>
    <rc><c>Fe</c><c>   1</c></rc>
    <rc><c>Fe</c><c>   1</c></rc>
    <rc><c>Fe</c><c>   1</c></rc>
    <rc><c>Fe</c><c>   1</c></rc>
    <rc><c>Fe</c><c>   1</c></rc>
    <rc><c>Fe</c><c>   1</c></rc>
    <rc><c>Fe</c><c>   1</c></rc>
    <rc><c>Fe</c><c>   1</c></rc>
    <rc><c>Fe</c><c>   1</c></rc>
    <rc><c>Fe</c><c>   1</c></rc>
    <rc><c>Fe</c><c>   1</c></rc>
    <rc><c>Fe</c><c>   1</c></rc>
    <rc><c>Fe</c><c>   1</c></rc>
    <rc><c>Mn</c><c>   2</c></rc>
    <rc><c>Mn</c><c>   2</c></rc>
    <rc><c>Mn</c><c>   2</c></rc>
    <rc><c>Mn</c><c>   2</c></rc>
    <rc><c>Mn</c><c>   2</c></rc>
    <rc><c>Mn</c><c>   2</c></rc>
    <rc><c>Mn</c><c>   2</c></rc>
    <rc><c>Mn</c><c>   2</c></rc>
    <rc><c>Mn</c><c>   2</c></rc>
    <rc><c>Mn</c><c>   2</c></rc>
    <rc><c>Mn</c><c>   2</c></rc>
    <rc><c>Mn</c><c>   2</c></rc>
    <rc><c>Mn</c><c>   2</c></rc>
    <rc><c>Mn</c><c>   2</c></rc>
   </set>
  </array>
  <array name="atomtypes" >
   <dimension dim="1">type</dimension>
   <field type="int">atomspertype</field>
   <field type="string">element</field>
   <field>mass</field>
   <field>valence</field>
   <field type="string">pseudopotential</field>
   <set>
    <rc><c> 274</c><c>Fe</c><c>     55.84700000</c><c>      8.00000000</c><c>  PAW_PBE Fe_GW 31Mar2010               </c></rc>
    <rc><c>  14</c><c>Mn</c><c>     54.93800000</c><c>      7.00000000</c><c>  PAW_PBE Mn_GW 31Mar2010               </c></rc>
   </set>
  </array>
 </atominfo>
 <structure name="initialpos" >
  <crystal>
   <varray name="basis" >
    <v>       9.72667804       0.00000000       0.00000000 </v>
    <v>       0.00000000       8.42355028       0.00000000 </v>
    <v>       0.00000000       0.00000000      45.00000000 </v>
   </varray>
   <i name="volume">   3686.99226691 </i>
   <varray name="rec_basis" >
    <v>       0.10281002       0.00000000       0.00000000 </v>
    <v>       0.00000000       0.11871479       0.00000000 </v>
    <v>       0.00000000       0.00000000       0.02222222 </v>
   </varray>
  </crystal>
  <varray name="positions" >
   <v>       0.06188562       0.03061934       0.12415204 </v>
   <v>       0.31633533       0.87503621       0.65504836 </v>
   <v>       0.18366406       0.12319627       0.78866637 </v>
   <v>       0.44136413       0.28763232       0.38908796 </v>
   <v>       0.31819629       0.71390283       0.83322013 </v>
   <v>       0.81811632       0.21520467       0.83362171 </v>
   <v>       0.19175852       0.96350145       0.83359191 </v>
   <v>       0.56218752       0.20722146       0.56554467 </v>
   <v>       0.06556565       0.04036045       0.74414380 </v>
   <v>       0.81166118       0.87154815       0.52136946 </v>
   <v>       0.19077120       0.29115386       0.74438583 </v>
   <v>       0.93371368       0.45258350       0.34480096 </v>
   <v>       0.94110356       0.28633359       0.38892495 </v>
   <v>       0.81280025       0.04079002       0.87577429 </v>
   <v>       0.18365588       0.78796915       0.61090882 </v>
   <v>       0.56638631       0.03781631       0.38906710 </v>
   <v>       0.94257193       0.96486801       0.83389936 </v>
   <v>       0.31324573       0.54073915       0.87608121 </v>
   <v>       0.69006430       0.29155231       0.74424159 </v>
   <v>       0.18235765       0.61369188       0.16667744 </v>
   <v>       0.81223160       0.20575052       0.47867506 </v>
   <v>       0.80904254       0.53840077       0.61104609 </v>
   <v>       0.31207766       0.87075504       0.43443932 </v>
   <v>       0.80868015       0.03665468       0.25583386 </v>
   <v>       0.68329988       0.95159818       0.34472086 </v>
   <v>       0.93194800       0.11357817       0.16689456 </v>
   <v>       0.06180495       0.87169248       0.52141689 </v>
   <v>       0.55793639       0.53685951       0.25575229 </v>
   <v>       0.68455897       0.79782093       0.87595237 </v>
   <v>       0.56618127       0.70318297       0.21144476 </v>
   <v>       0.43962551       0.79215091       0.74441643 </v>
   <v>       0.81127176       0.70651409       0.56546650 </v>
   <v>       0.55905494       0.87366991       0.78862333 </v>
   <v>       0.68674303       0.12189220       0.52139920 </v>
   <v>       0.81625277       0.37485333       0.65496748 </v>
   <v>       0.94227522       0.46440078       0.83376903 </v>
   <v>       0.06043380       0.20774135       0.69968789 </v>
   <v>       0.43522533       0.95772089       0.69970547 </v>
   <v>       0.31699104       0.21282830       0.83347429 </v>
   <v>       0.44128828       0.62498205       0.65502130 </v>
   <v>       0.30907057       0.53816478       0.61097945 </v>
   <v>       0.93638193       0.45645142       0.56562051 </v>
   <v>       0.69025319       0.79167148       0.74425944 </v>
   <v>       0.93500391       0.78770062       0.12444479 </v>
   <v>       0.69202360       0.78796468       0.38901348 </v>
   <v>       0.94034804       0.79097440       0.74449553 </v>
   <v>       0.05872478       0.20303885       0.34483614 </v>
   <v>       0.68370844       0.45235522       0.34496424 </v>
   <v>       0.43373661       0.12254665       0.78899448 </v>
   <v>       0.06484854       0.20349164       0.21126896 </v>
   <v>       0.05468033       0.36567175       0.16671743 </v>
   <v>       0.93270259       0.78733363       0.25562055 </v>
   <v>       0.56048245       0.20714095       0.69980090 </v>
   <v>       0.68517133       0.95714072       0.69977562 </v>
   <v>       0.80878991       0.87358060       0.78836732 </v>
   <v>       0.43674716       0.95712234       0.56543470 </v>
   <v>       0.80883211       0.37490433       0.78853943 </v>
   <v>       0.68369042       0.28762792       0.25584586 </v>
   <v>       0.18716770       0.45708071       0.56551806 </v>
   <v>       0.05634351       0.86502146       0.16656017 </v>
   <v>       0.18406527       0.28855634       0.61107618 </v>
   <v>       0.06225555       0.20715202       0.56539036 </v>
   <v>       0.31049435       0.20735977       0.69984111 </v>
   <v>       0.56240746       0.54090707       0.87600166 </v>
   <v>       0.06186260       0.70668901       0.56555042 </v>
   <v>       0.68295193       0.62236249       0.78859520 </v>
   <v>       0.31588622       0.53836298       0.38890426 </v>
   <v>       0.18696819       0.62137268       0.52145596 </v>
   <v>       0.56255431       0.87046238       0.43448686 </v>
   <v>       0.43663979       0.45693390       0.56556020 </v>
   <v>       0.43988737       0.29159695       0.74426009 </v>
   <v>       0.82091138       0.87368917       0.30017733 </v>
   <v>       0.80864691       0.70257928       0.34495462 </v>
   <v>       0.44234737       0.46286461       0.83340077 </v>
   <v>       0.68747581       0.95585513       0.47866436 </v>
   <v>       0.68480238       0.45776069       0.69978086 </v>
   <v>       0.56209589       0.87218806       0.52148602 </v>
   <v>       0.56627052       0.37456512       0.65495338 </v>
   <v>       0.81616199       0.87486999       0.65504323 </v>
   <v>       0.81174213       0.37129460       0.43416486 </v>
   <v>       0.80876553       0.53676776       0.25593440 </v>
   <v>       0.69207804       0.46224200       0.83328688 </v>
   <v>       0.18584471       0.78755508       0.12399219 </v>
   <v>       0.69144891       0.28743106       0.38889768 </v>
   <v>       0.31610420       0.37426608       0.65498155 </v>
   <v>       0.30876285       0.20256197       0.34468160 </v>
   <v>       0.81573760       0.54030752       0.74416511 </v>
   <v>       0.69159525       0.96238257       0.83349822 </v>
   <v>       0.56619100       0.87465006       0.65494999 </v>
   <v>       0.31126224       0.70713064       0.56549781 </v>
   <v>       0.31196097       0.53082886       0.12408606 </v>
   <v>       0.68988104       0.95379634       0.21141307 </v>
   <v>       0.31137208       0.20654881       0.56551667 </v>
   <v>       0.18738838       0.95579506       0.47866692 </v>
   <v>       0.68728616       0.95690451       0.56554062 </v>
   <v>       0.43374030       0.78806934       0.61095059 </v>
   <v>       0.68247066       0.61184817       0.16655603 </v>
   <v>       0.31969930       0.87284942       0.29992165 </v>
   <v>       0.31224377       0.70579241       0.47864996 </v>
   <v>       0.93366318       0.28783061       0.61090117 </v>
   <v>       0.44631300       0.62373263       0.30008558 </v>
   <v>       0.80716168       0.86369281       0.16695271 </v>
   <v>       0.56678291       0.20183796       0.21140143 </v>
   <v>       0.93332350       0.61242997       0.16681465 </v>
   <v>       0.43729139       0.95575438       0.47867658 </v>
   <v>       0.55903556       0.37340050       0.78876119 </v>
   <v>       0.06144329       0.37246217       0.52139523 </v>
   <v>       0.30759903       0.36422145       0.16660361 </v>
   <v>       0.69579739       0.12328965       0.30019433 </v>
   <v>       0.44267396       0.96331940       0.83330852 </v>
   <v>       0.18403591       0.28671097       0.12429349 </v>
   <v>       0.18344569       0.28730871       0.25576935 </v>
   <v>       0.31232918       0.37034465       0.43443942 </v>
   <v>       0.56333938       0.03164021       0.12420935 </v>
   <v>       0.43396195       0.28819767       0.61096124 </v>
   <v>       0.18363907       0.45270344       0.34489273 </v>
   <v>       0.43553884       0.28715279       0.12399380 </v>
   <v>       0.68369475       0.78732286       0.25580494 </v>
   <v>       0.43683350       0.12171958       0.52147450 </v>
   <v>       0.18840859       0.29689420       0.87616749 </v>
   <v>       0.19118145       0.12516895       0.65512071 </v>
   <v>       0.94113294       0.12491538       0.65496711 </v>
   <v>       0.81625711       0.53741826       0.38904719 </v>
   <v>       0.06641879       0.03795066       0.38906056 </v>
   <v>       0.18342081       0.11216243       0.16646025 </v>
   <v>       0.05885185       0.53805505       0.61098652 </v>
   <v>       0.93379442       0.28733401       0.25580974 </v>
   <v>       0.55884572       0.53825572       0.61099499 </v>
   <v>       0.93667958       0.95711787       0.56550799 </v>
   <v>       0.69472345       0.62425281       0.30004970 </v>
   <v>       0.93739896       0.62059207       0.43441199 </v>
   <v>       0.93318655       0.62448369       0.78835519 </v>
   <v>       0.56037617       0.70727392       0.69973570 </v>
   <v>       0.06609773       0.71680263       0.83391283 </v>
   <v>       0.94536973       0.12259669       0.30007200 </v>
   <v>       0.93370605       0.78755880       0.61093181 </v>
   <v>       0.43296051       0.78807137       0.25571003 </v>
   <v>       0.30892606       0.37409960       0.78873651 </v>
   <v>       0.43913605       0.45395914       0.21160239 </v>
   <v>       0.18690862       0.12182208       0.52138979 </v>
   <v>       0.81035565       0.70741943       0.69971721 </v>
   <v>       0.05881581       0.03785852       0.61089874 </v>
   <v>       0.56615286       0.21368762       0.83324170 </v>
   <v>       0.31177858       0.87193557       0.52138393 </v>
   <v>       0.68635215       0.28616475       0.12414613 </v>
   <v>       0.19005009       0.95447845       0.21171521 </v>
   <v>       0.68397072       0.28848837       0.61105956 </v>
   <v>       0.30910628       0.03837448       0.61104790 </v>
   <v>       0.93402270       0.12477600       0.78860080 </v>
   <v>       0.43656182       0.79787034       0.87622416 </v>
   <v>       0.81550778       0.04080568       0.74422549 </v>
   <v>       0.93517792       0.45803847       0.69963842 </v>
   <v>       0.19111789       0.62518202       0.65507176 </v>
   <v>       0.31041240       0.70694525       0.69976260 </v>
   <v>       0.93562178       0.28723616       0.12407607 </v>
   <v>       0.43744886       0.45604518       0.47857832 </v>
   <v>       0.06233092       0.70575998       0.47858303 </v>
   <v>       0.93688627       0.11984363       0.43458304 </v>
   <v>       0.44490211       0.12292783       0.30037252 </v>
   <v>       0.18808230       0.12062577       0.43430090 </v>
   <v>       0.56287746       0.04070535       0.87604216 </v>
   <v>       0.18687372       0.95734579       0.56550989 </v>
   <v>       0.68496658       0.78805456       0.12457847 </v>
   <v>       0.55880017       0.70221426       0.34492030 </v>
   <v>       0.31614579       0.03674316       0.38890114 </v>
   <v>       0.68207552       0.11360307       0.16676937 </v>
   <v>       0.81519665       0.20365975       0.21130406 </v>
   <v>       0.05889502       0.53648861       0.25577437 </v>
   <v>       0.56247384       0.70567139       0.47864044 </v>
   <v>       0.43399728       0.78729397       0.12426853 </v>
   <v>       0.56979519       0.37247220       0.30013461 </v>
   <v>       0.43364098       0.95253045       0.34491772 </v>
   <v>       0.18506932       0.95774791       0.69977937 </v>
   <v>       0.43243731       0.61247643       0.16610384 </v>
   <v>       0.93987341       0.45392590       0.21171157 </v>
   <v>       0.06174755       0.53067393       0.12418008 </v>
   <v>       0.81198481       0.37207863       0.52139193 </v>
   <v>       0.94532568       0.62346145       0.29986007 </v>
   <v>       0.30874951       0.03722230       0.25544854 </v>
   <v>       0.68383806       0.78797547       0.61095836 </v>
   <v>       0.19168083       0.46338936       0.83351309 </v>
   <v>       0.43337707       0.11216574       0.16647618 </v>
   <v>       0.31178695       0.37206328       0.52138466 </v>
   <v>       0.43313358       0.62292420       0.78893470 </v>
   <v>       0.05874886       0.03745391       0.25582295 </v>
   <v>       0.56217627       0.70715106       0.56554467 </v>
   <v>       0.94009599       0.29068115       0.74449827 </v>
   <v>       0.68226972       0.12272026       0.78856112 </v>
   <v>       0.19003271       0.45308600       0.21110417 </v>
   <v>       0.94127443       0.78782033       0.38899517 </v>
   <v>       0.68551023       0.29909243       0.87601967 </v>
   <v>       0.55669600       0.86293942       0.16649425 </v>
   <v>       0.43563992       0.45761061       0.69974392 </v>
   <v>       0.93398448       0.95123145       0.34477934 </v>
   <v>       0.68655511       0.62153813       0.52133908 </v>
   <v>       0.06644618       0.87478492       0.65494509 </v>
   <v>       0.05903775       0.87414509       0.78846169 </v>
   <v>       0.06645542       0.37463815       0.65494969 </v>
   <v>       0.68723854       0.45568480       0.47862336 </v>
   <v>       0.18413750       0.78781809       0.25555612 </v>
   <v>       0.43697933       0.12086744       0.43437968 </v>
   <v>       0.81379043       0.03002577       0.12412217 </v>
   <v>       0.93676891       0.62193911       0.52142092 </v>
   <v>       0.44121850       0.12467693       0.65491435 </v>
   <v>       0.81332919       0.53041279       0.12413444 </v>
   <v>       0.43371489       0.45246287       0.34499773 </v>
   <v>       0.80860248       0.20235183       0.34491469 </v>
   <v>       0.30921292       0.70231479       0.34479148 </v>
   <v>       0.69124124       0.12495923       0.65501591 </v>
   <v>       0.57043604       0.87310380       0.30031609 </v>
   <v>       0.06543678       0.54100293       0.74432656 </v>
   <v>       0.94120968       0.95368725       0.21128697 </v>
   <v>       0.81645624       0.70317248       0.21127057 </v>
   <v>       0.07004747       0.87328204       0.30024223 </v>
   <v>       0.19535393       0.12298739       0.30017444 </v>
   <v>       0.05853081       0.70231196       0.34488285 </v>
   <v>       0.80899337       0.03841763       0.61100365 </v>
   <v>       0.06310195       0.37153735       0.43424300 </v>
   <v>       0.55871035       0.20271312       0.34486478 </v>
   <v>       0.82075233       0.37352201       0.30010247 </v>
   <v>       0.55977979       0.03757429       0.25549280 </v>
   <v>       0.56634071       0.53757379       0.38906863 </v>
   <v>       0.06262769       0.20580730       0.47866123 </v>
   <v>       0.31004156       0.87314979       0.78844684 </v>
   <v>       0.93538653       0.95812710       0.69966425 </v>
   <v>       0.06987190       0.37423818       0.30008050 </v>
   <v>       0.69130389       0.62493628       0.65521561 </v>
   <v>       0.68662510       0.45688181       0.56540016 </v>
   <v>       0.44112867       0.95492766       0.21194468 </v>
   <v>       0.31247678       0.20578509       0.47875962 </v>
   <v>       0.81220347       0.54028844       0.87585330 </v>
   <v>       0.68807446       0.62035903       0.43445583 </v>
   <v>       0.81073385       0.20743531       0.69982825 </v>
   <v>       0.81254912       0.70581622       0.47865138 </v>
   <v>       0.81169004       0.87144122       0.43423321 </v>
   <v>       0.93740223       0.95537684       0.47871905 </v>
   <v>       0.56227607       0.20563252       0.47863607 </v>
   <v>       0.18723060       0.62021508       0.43447798 </v>
   <v>       0.31500411       0.04178860       0.74407898 </v>
   <v>       0.94144397       0.62507894       0.65490713 </v>
   <v>       0.56612209       0.71356470       0.83333361 </v>
   <v>       0.32056056       0.37241917       0.30012177 </v>
   <v>       0.31516079       0.54144009       0.74425325 </v>
   <v>       0.18729096       0.45581385       0.47867698 </v>
   <v>       0.31431381       0.04114294       0.87588748 </v>
   <v>       0.18524328       0.45792876       0.69967833 </v>
   <v>       0.56182881       0.37189565       0.52141633 </v>
   <v>       0.19108563       0.28778430       0.38893580 </v>
   <v>       0.31598990       0.20386278       0.21134718 </v>
   <v>       0.06717855       0.70394724       0.21133584 </v>
   <v>       0.56199118       0.37137598       0.43436076 </v>
   <v>       0.43667004       0.62208577       0.52136334 </v>
   <v>       0.81707408       0.71543749       0.83337531 </v>
   <v>       0.05874612       0.37524817       0.78843262 </v>
   <v>       0.43674766       0.29829320       0.87636097 </v>
   <v>       0.31053108       0.03015331       0.12409910 </v>
   <v>       0.68825703       0.12025413       0.43425284 </v>
   <v>       0.18385707       0.95251418       0.34498856 </v>
   <v>       0.06677202       0.21530025       0.83404657 </v>
   <v>       0.55913352       0.03856604       0.61110912 </v>
   <v>       0.69025612       0.45402848       0.21185759 </v>
   <v>       0.18972334       0.79173272       0.74438665 </v>
   <v>       0.19484318       0.62344092       0.30033460 </v>
   <v>       0.44140633       0.78754736       0.38906608 </v>
   <v>       0.43356031       0.28772523       0.25583547 </v>
   <v>       0.06331382       0.54088938       0.87589433 </v>
   <v>       0.56541292       0.04130071       0.74422752 </v>
   <v>       0.18768575       0.79732247       0.87607159 </v>
   <v>       0.93735701       0.45571915       0.47865292 </v>
   <v>       0.56517013       0.54140497       0.74405000 </v>
   <v>       0.81120759       0.20700787       0.56551345 </v>
   <v>       0.18449163       0.62278534       0.78848302 </v>
   <v>       0.06753911       0.53869053       0.38908231 </v>
   <v>       0.06071016       0.70772466       0.69965082 </v>
   <v>       0.30764331       0.53731185       0.25556482 </v>
   <v>       0.31507160       0.70219084       0.21235800 </v>
   <v>       0.30510981       0.86591710       0.16576677 </v>
   <v>       0.43673529       0.62114452       0.43436451 </v>
   <v>       0.81783272       0.03912512       0.38915047 </v>
   <v>       0.93484916       0.29798871       0.87555901 </v>
   <v>       0.93699711       0.79545690       0.87555339 </v>
   <v>       0.06538123       0.03902659       0.87575266 </v>
   <v>       0.56187520       0.52884978       0.12457957 </v>
   <v>       0.80596957       0.36563479       0.16608025 </v>
   <v>       0.06202908       0.87111607       0.43438986 </v>
   <v>       0.93654494       0.12172258       0.52155532 </v>
   <v>       0.19333558       0.78775217       0.38889764 </v>
   <v>       0.55464015       0.36522271       0.16592457 </v>
  </varray>
 </structure>
 <calculation>
  <scstep>
   <time name="dav">   54.55   54.57</time>
   <time name="total">   54.70   54.75</time>
   <energy>
    <i name="alphaZ">  16293.21160653 </i>
    <i name="ewald"> 729663.02268218 </i>
    <i name="hartreedc">-920176.24056438 </i>
    <i name="XCdc">  -6512.61302186 </i>
    <i name="pawpsdc"> 162273.92519768 </i>
    <i name="pawaedc">-159623.75899949 </i>
    <i name="eentropy">     -1.08018016 </i>
    <i name="bandstr">  38487.63602945 </i>
    <i name="atom"> 168671.76673737 </i>
    <i name="e_fr_energy">  29075.86948732 </i>
    <i name="e_wo_entrp">  29076.94966748 </i>
    <i name="e_0_energy">  29076.40957740 </i>
   </energy>
  </scstep>
  <scstep>
   <time name="dav">   54.15   54.18</time>
   <time name="total">   54.15   54.19</time>
   <energy>
    <i name="e_fr_energy">   1187.91164860 </i>
    <i name="e_wo_entrp">   1189.40697381 </i>
    <i name="e_0_energy">   1188.65931121 </i>
   </energy>
  </scstep>
  <scstep>
   <time name="dav">   70.95   70.99</time>
   <time name="total">   70.96   70.99</time>
   <energy>
    <i name="e_fr_energy">  -1949.31743668 </i>
    <i name="e_wo_entrp">  -1945.76626604 </i>
    <i name="e_0_energy">  -1947.54185136 </i>
   </energy>
  </scstep>
  <scstep>
   <time name="dav">   88.99   89.03</time>
   <time name="total">   89.00   89.03</time>
   <energy>
    <i name="e_fr_energy">  -2618.85558371 </i>
    <i name="e_wo_entrp">  -2615.32427026 </i>
    <i name="e_0_energy">  -2617.08992698 </i>
   </energy>
  </scstep>
  <scstep>
   <time name="dav">   85.04   85.08</time>
   <time name="total">   87.11   87.15</time>
   <energy>
    <i name="e_fr_energy">  -2738.38249057 </i>
    <i name="e_wo_entrp">  -2734.72739450 </i>
    <i name="e_0_energy">  -2736.55494254 </i>
   </energy>
  </scstep>
  <scstep>
   <time name="diag">    8.33    8.33</time>
   <time name="diis">   37.19   37.20</time>
   <time name="orth">    2.35    2.35</time>
   <time name="total">   49.99   50.05</time>
   <energy>
    <i name="e_fr_energy">  -5474.95982625 </i>
    <i name="e_wo_entrp">  -5472.45826131 </i>
    <i name="e_0_energy">  -5473.70904378 </i>
   </energy>
  </scstep>
  <scstep>
   <time name="diag">    8.29    8.29</time>
   <time name="diis">   22.33   22.34</time>
   <time name="orth">    2.36    2.36</time>
   <time name="total">   35.05   35.10</time>
[...]
       <r>     5.9182     0.0000  2772.0000 </r>
       <r>     5.9612     0.0000  2772.0000 </r>
       <r>     6.0041     0.0000  2772.0000 </r>
       <r>     6.0471     0.0000  2772.0000 </r>
       <r>     6.0901     0.0000  2772.0000 </r>
       <r>     6.1330     0.0000  2772.0000 </r>
       <r>     6.1760     0.0000  2772.0000 </r>
       <r>     6.2189     0.0000  2772.0000 </r>
       <r>     6.2619     0.0000  2772.0000 </r>
       <r>     6.3049     0.0000  2772.0000 </r>
       <r>     6.3478     0.0000  2772.0000 </r>
       <r>     6.3908     0.0000  2772.0000 </r>
       <r>     6.4338     0.0000  2772.0000 </r>
       <r>     6.4767     0.0000  2772.0000 </r>
       <r>     6.5197     0.0000  2772.0000 </r>
       <r>     6.5626     0.0000  2772.0000 </r>
       <r>     6.6056     0.0000  2772.0000 </r>
       <r>     6.6486     0.0000  2772.0000 </r>
       <r>     6.6915     0.0000  2772.0000 </r>
       <r>     6.7345     0.0000  2772.0000 </r>
       <r>     6.7774     0.0000  2772.0000 </r>
       <r>     6.8204     0.0000  2772.0000 </r>
       <r>     6.8634     0.0000  2772.0000 </r>
      </set>
     </set>
    </array>
   </total>
  </dos>
 </calculation>
 <structure name="finalpos" >
  <crystal>
   <varray name="basis" >
    <v>       9.72667804       0.00000000       0.00000000 </v>
    <v>       0.00000000       8.42355028       0.00000000 </v>
    <v>       0.00000000       0.00000000      45.00000000 </v>
   </varray>
   <i name="volume">   3686.99226691 </i>
   <varray name="rec_basis" >
    <v>       0.10281002       0.00000000       0.00000000 </v>
    <v>       0.00000000       0.11871479       0.00000000 </v>
    <v>       0.00000000       0.00000000       0.02222222 </v>
   </varray>
  </crystal>
  <varray name="positions" >
   <v>       0.06169293       0.03261589       0.12438243 </v>
   <v>       0.31369625       0.87405299       0.65502192 </v>
   <v>       0.18633919       0.12506089       0.78834739 </v>
   <v>       0.44005010       0.28798558       0.38933311 </v>
   <v>       0.31483868       0.71154177       0.83340688 </v>
   <v>       0.81574731       0.21263860       0.83357463 </v>
   <v>       0.18926651       0.96225509       0.83375729 </v>
   <v>       0.56184462       0.20632113       0.56579312 </v>
   <v>       0.06351116       0.04144300       0.74412714 </v>
   <v>       0.81138513       0.87245630       0.52175477 </v>
   <v>       0.18841775       0.29141090       0.74419300 </v>
   <v>       0.93723628       0.45388668       0.34488618 </v>
   <v>       0.93941322       0.28745958       0.38918369 </v>
   <v>       0.81233944       0.04538378       0.87550458 </v>
   <v>       0.18590220       0.78908532       0.61058816 </v>
   <v>       0.56430856       0.03801783       0.38929032 </v>
   <v>       0.94096539       0.96242451       0.83370277 </v>
   <v>       0.31352585       0.54481467       0.87563748 </v>
   <v>       0.68854296       0.29133677       0.74419910 </v>
   <v>       0.18490209       0.61682739       0.16649279 </v>
   <v>       0.81224267       0.20532463       0.47839435 </v>
   <v>       0.81089241       0.53909907       0.61066375 </v>
   <v>       0.31298167       0.87165658       0.43422636 </v>
   <v>       0.81168298       0.03683632       0.25593891 </v>
   <v>       0.68716612       0.95381021       0.34492821 </v>
   <v>       0.93368588       0.11588592       0.16659018 </v>
   <v>       0.06229831       0.87251053       0.52162391 </v>
   <v>       0.56130372       0.53673214       0.25595109 </v>
   <v>       0.68669907       0.79456050       0.87553679 </v>
   <v>       0.56340504       0.70206276       0.21161867 </v>
   <v>       0.43850338       0.79193484       0.74427059 </v>
   <v>       0.81177484       0.70627330       0.56579975 </v>
   <v>       0.56113865       0.87428413       0.78834388 </v>
   <v>       0.68663921       0.12212730       0.52167946 </v>
   <v>       0.81362195       0.37396976       0.65503307 </v>
   <v>       0.94031646       0.46255246       0.83367397 </v>
   <v>       0.06163910       0.20746617       0.69978184 </v>
   <v>       0.43674393       0.95734156       0.69975352 </v>
   <v>       0.31449226       0.21175623       0.83370258 </v>
   <v>       0.43875652       0.62396833       0.65497706 </v>
   <v>       0.31100510       0.53927048       0.61061096 </v>
   <v>       0.93676613       0.45598782       0.56585167 </v>
   <v>       0.68854067       0.79153065       0.74423253 </v>
   <v>       0.93450768       0.78322863       0.12465150 </v>
   <v>       0.68990663       0.78775711       0.38922281 </v>
   <v>       0.93849283       0.79129805       0.74418931 </v>
   <v>       0.06233087       0.20406525       0.34485733 </v>
   <v>       0.68745579       0.45358470       0.34483233 </v>
   <v>       0.43592252       0.12490182       0.78844988 </v>
   <v>       0.06355616       0.20298541       0.21154154 </v>
   <v>       0.05707246       0.36625466       0.16640554 </v>
   <v>       0.93659792       0.78702003       0.25589802 </v>
   <v>       0.56162437       0.20726525       0.69978493 </v>
   <v>       0.68676936       0.95763977       0.69982821 </v>
   <v>       0.81076203       0.87492782       0.78829103 </v>
   <v>       0.43684863       0.95622044       0.56580742 </v>
   <v>       0.81103996       0.37496443       0.78829516 </v>
   <v>       0.68631947       0.28693894       0.25595171 </v>
   <v>       0.18659185       0.45612806       0.56580648 </v>
   <v>       0.05939247       0.86657626       0.16639221 </v>
   <v>       0.18607447       0.28929127       0.61073722 </v>
   <v>       0.06161163       0.20631592       0.56573841 </v>
   <v>       0.31189787       0.20741861       0.69978647 </v>
   <v>       0.56369530       0.54513947       0.87552795 </v>
   <v>       0.06152629       0.70605220       0.56578544 </v>
   <v>       0.68576406       0.62502121       0.78828130 </v>
   <v>       0.31457291       0.53757326       0.38927819 </v>
   <v>       0.18704349       0.62265363       0.52172423 </v>
   <v>       0.56260615       0.87153452       0.43416651 </v>
   <v>       0.43687077       0.45632461       0.56585267 </v>
   <v>       0.43855304       0.29192432       0.74420092 </v>
   <v>       0.81585076       0.87211319       0.30027606 </v>
   <v>       0.81217379       0.70349038       0.34493859 </v>
   <v>       0.44000848       0.46137970       0.83365250 </v>
   <v>       0.68761897       0.95510433       0.47835463 </v>
   <v>       0.68684141       0.45718477       0.69978221 </v>
   <v>       0.56194355       0.87249146       0.52166040 </v>
   <v>       0.56380884       0.37384914       0.65499973 </v>
   <v>       0.81367253       0.87403259       0.65500855 </v>
   <v>       0.81208980       0.37084987       0.43403915 </v>
   <v>       0.81148561       0.53661926       0.25609167 </v>
   <v>       0.69022664       0.46192392       0.83358075 </v>
   <v>       0.18548225       0.78383621       0.12418631 </v>
   <v>       0.68937790       0.28743966       0.38923317 </v>
   <v>       0.31358426       0.37390371       0.65496857 </v>
   <v>       0.31207018       0.20361660       0.34496434 </v>
   <v>       0.81349282       0.54139388       0.74411379 </v>
   <v>       0.69040044       0.96159136       0.83359709 </v>
   <v>       0.56373450       0.87414354       0.65501884 </v>
   <v>       0.31177430       0.70629566       0.56579321 </v>
   <v>       0.31039502       0.53355461       0.12433905 </v>
   <v>       0.68823918       0.95346370       0.21170714 </v>
   <v>       0.31177238       0.20651875       0.56578795 </v>
   <v>       0.18739460       0.95532955       0.47836908 </v>
   <v>       0.68711851       0.95620775       0.56585732 </v>
   <v>       0.43595987       0.78917096       0.61061126 </v>
   <v>       0.68352097       0.61390203       0.16651750 </v>
   <v>       0.31592245       0.87186328       0.30022405 </v>
   <v>       0.31214942       0.70529368       0.47825919 </v>
   <v>       0.93588285       0.28919915       0.61059263 </v>
   <v>       0.44080562       0.62158872       0.30034582 </v>
   <v>       0.80904267       0.86526484       0.16653379 </v>
   <v>       0.56392226       0.20220969       0.21174410 </v>
   <v>       0.93460828       0.61515316       0.16661468 </v>
   <v>       0.43744307       0.95489449       0.47831805 </v>
   <v>       0.56092209       0.37428832       0.78838439 </v>
   <v>       0.06178374       0.37277257       0.52163735 </v>
   <v>       0.30927968       0.36610908       0.16625061 </v>
   <v>       0.69106441       0.12180807       0.30038514 </v>
   <v>       0.44056573       0.96107246       0.83361391 </v>
   <v>       0.18482039       0.28328838       0.12468064 </v>
   <v>       0.18685177       0.28648599       0.25592786 </v>
   <v>       0.31284606       0.37121213       0.43415809 </v>
   <v>       0.56060942       0.03311899       0.12446855 </v>
   <v>       0.43597153       0.28939911       0.61061977 </v>
   <v>       0.18703983       0.45376601       0.34487955 </v>
   <v>       0.43420293       0.28266825       0.12426683 </v>
   <v>       0.68643282       0.78712783       0.25600996 </v>
   <v>       0.43691769       0.12279166       0.52160958 </v>
   <v>       0.18946505       0.29419180       0.87583721 </v>
   <v>       0.18860348       0.12410676       0.65509717 </v>
   <v>       0.93867380       0.12412417       0.65507292 </v>
   <v>       0.81461033       0.53749699       0.38921556 </v>
   <v>       0.06471706       0.03816462       0.38919765 </v>
   <v>       0.18409184       0.11459711       0.16649483 </v>
   <v>       0.06080797       0.53912966       0.61061356 </v>
   <v>       0.93677599       0.28649937       0.25590364 </v>
   <v>       0.56103192       0.53932680       0.61060367 </v>
   <v>       0.93672996       0.95584217       0.56577272 </v>
   <v>       0.69107634       0.62203806       0.30043990 </v>
   <v>       0.93774530       0.62135871       0.43412154 </v>
   <v>       0.93579974       0.62601896       0.78829550 </v>
   <v>       0.56165656       0.70723006       0.69975724 </v>
   <v>       0.06446588       0.71330561       0.83364615 </v>
   <v>       0.94103085       0.12205783       0.30033351 </v>
   <v>       0.93576209       0.78885901       0.61066303 </v>
   <v>       0.43670833       0.78705728       0.25607450 </v>
   <v>       0.31116862       0.37430337       0.78836501 </v>
   <v>       0.43850569       0.45295227       0.21178419 </v>
   <v>       0.18698161       0.12237404       0.52166412 </v>
   <v>       0.81186759       0.70757967       0.69979243 </v>
   <v>       0.06078354       0.03946462       0.61059904 </v>
   <v>       0.56450989       0.21161050       0.83340625 </v>
   <v>       0.31182921       0.87242843       0.52173266 </v>
   <v>       0.68599390       0.28251015       0.12420251 </v>
   <v>       0.18847932       0.95401578       0.21174443 </v>
   <v>       0.68584600       0.28942725       0.61071261 </v>
   <v>       0.31080380       0.03923333       0.61066916 </v>
   <v>       0.93606103       0.12573791       0.78838813 </v>
   <v>       0.43740137       0.79380174       0.87559733 </v>
   <v>       0.81354129       0.04164997       0.74407319 </v>
   <v>       0.93679456       0.45720428       0.69976401 </v>
   <v>       0.18864369       0.62400234       0.65498311 </v>
   <v>       0.31182861       0.70738990       0.69983075 </v>
   <v>       0.93458932       0.28344362       0.12437330 </v>
   <v>       0.43735378       0.45470275       0.47825360 </v>
   <v>       0.06248007       0.70469647       0.47834848 </v>
   <v>       0.93759071       0.12119515       0.43440849 </v>
   <v>       0.44105491       0.12143775       0.30035058 </v>
   <v>       0.18742172       0.12108760       0.43400432 </v>
   <v>       0.56407753       0.04538589       0.87561273 </v>
   <v>       0.18635986       0.95628886       0.56581919 </v>
   <v>       0.68551672       0.78400321       0.12467769 </v>
   <v>       0.56237927       0.70376163       0.34498008 </v>
   <v>       0.31465762       0.03780605       0.38926179 </v>
   <v>       0.68443927       0.11615267       0.16656985 </v>
   <v>       0.81341174       0.20245621       0.21166404 </v>
   <v>       0.06169662       0.53686379       0.25583700 </v>
   <v>       0.56251216       0.70523380       0.47829796 </v>
   <v>       0.43434251       0.78432720       0.12424412 </v>
   <v>       0.56572151       0.37181059       0.30026956 </v>
   <v>       0.43690297       0.95381691       0.34486079 </v>
   <v>       0.18670036       0.95764435       0.69981317 </v>
   <v>       0.43383396       0.61547394       0.16639415 </v>
   <v>       0.93864736       0.45297847       0.21186899 </v>
   <v>       0.06029772       0.53293598       0.12443602 </v>
   <v>       0.81187236       0.37279588       0.52165204 </v>
   <v>       0.94116966       0.62234019       0.30023865 </v>
   <v>       0.31192045       0.03682219       0.25586112 </v>
   <v>       0.68602928       0.78890847       0.61062238 </v>
   <v>       0.18999501       0.46240564       0.83373797 </v>
   <v>       0.43502638       0.11420300       0.16656383 </v>
   <v>       0.31156286       0.37267425       0.52168383 </v>
   <v>       0.43599837       0.62459526       0.78854737 </v>
   <v>       0.06140363       0.03688451       0.25591629 </v>
   <v>       0.56172735       0.70618158       0.56582879 </v>
   <v>       0.93845546       0.29126122       0.74414741 </v>
   <v>       0.68581215       0.12503378       0.78824954 </v>
   <v>       0.18792068       0.45289940       0.21159794 </v>
   <v>       0.93926156       0.78751616       0.38922142 </v>
   <v>       0.68662098       0.29462635       0.87569611 </v>
   <v>       0.55741913       0.86538480       0.16632103 </v>
   <v>       0.43667844       0.45693010       0.69981992 </v>
   <v>       0.93774233       0.95378018       0.34495987 </v>
   <v>       0.68673470       0.62240232       0.52164290 </v>
   <v>       0.06343866       0.87408318       0.65500002 </v>
   <v>       0.06141438       0.87522221       0.78841473 </v>
   <v>       0.06351628       0.37397364       0.65504158 </v>
   <v>       0.68721394       0.45481942       0.47817744 </v>
   <v>       0.18658055       0.78711614       0.25602920 </v>
   <v>       0.43757527       0.12132281       0.43419915 </v>
   <v>       0.81115904       0.03291311       0.12455186 </v>
   <v>       0.93666413       0.62238567       0.52165464 </v>
   <v>       0.43875657       0.12407214       0.65508519 </v>
   <v>       0.81218125       0.53323825       0.12428375 </v>
   <v>       0.43726725       0.45377752       0.34489688 </v>
   <v>       0.81238727       0.20344463       0.34494495 </v>
   <v>       0.31237850       0.70386305       0.34487838 </v>
   <v>       0.68861887       0.12424462       0.65509421 </v>
   <v>       0.56596729       0.87195549       0.30031423 </v>
   <v>       0.06336714       0.54114400       0.74412326 </v>
   <v>       0.93898582       0.95373747       0.21166092 </v>
   <v>       0.81409113       0.70241188       0.21175265 </v>
   <v>       0.06575227       0.87198335       0.30046581 </v>
   <v>       0.19085539       0.12224023       0.30021266 </v>
   <v>       0.06214880       0.70399337       0.34496018 </v>
   <v>       0.81115294       0.03913095       0.61062311 </v>
   <v>       0.06282201       0.37086608       0.43404358 </v>
   <v>       0.56229729       0.20335790       0.34500027 </v>
   <v>       0.81585786       0.37226227       0.30030366 </v>
   <v>       0.56184678       0.03731008       0.25598205 </v>
   <v>       0.56421797       0.53732441       0.38926377 </v>
   <v>       0.06259059       0.20510156       0.47834015 </v>
   <v>       0.31159504       0.87418570       0.78821865 </v>
   <v>       0.93670440       0.95782394       0.69972567 </v>
   <v>       0.06635395       0.37188887       0.30035762 </v>
   <v>       0.68863196       0.62402725       0.65498989 </v>
   <v>       0.68670747       0.45622326       0.56579527 </v>
   <v>       0.43841361       0.95389762       0.21173424 </v>
   <v>       0.31224093       0.20493135       0.47828203 </v>
   <v>       0.81266146       0.54477843       0.87548999 </v>
   <v>       0.68813463       0.62093789       0.43413119 </v>
   <v>       0.81182426       0.20751771       0.69978420 </v>
   <v>       0.81247493       0.70512360       0.47830902 </v>
   <v>       0.81190654       0.87146032       0.43415367 </v>
   <v>       0.93736580       0.95462670       0.47841711 </v>
   <v>       0.56256411       0.20500388       0.47831951 </v>
   <v>       0.18729938       0.62086503       0.43419549 </v>
   <v>       0.31339675       0.04171855       0.74419369 </v>
   <v>       0.93851412       0.62416337       0.65493778 </v>
   <v>       0.56461907       0.71144763       0.83336118 </v>
   <v>       0.31591780       0.37158310       0.30036855 </v>
   <v>       0.31351256       0.54134451       0.74427117 </v>
   <v>       0.18763307       0.45489622       0.47826453 </v>
   <v>       0.31500347       0.04624031       0.87564406 </v>
   <v>       0.18659421       0.45724845       0.69982395 </v>
   <v>       0.56210800       0.37266030       0.52165961 </v>
   <v>       0.18918833       0.28778700       0.38928301 </v>
   <v>       0.31392461       0.20305404       0.21161321 </v>
   <v>       0.06401639       0.70251716       0.21154035 </v>
   <v>       0.56250980       0.37107916       0.43418506 </v>
   <v>       0.43689618       0.62263177       0.52153919 </v>
   <v>       0.81512754       0.71285553       0.83330652 </v>
   <v>       0.06148378       0.37545459       0.78836761 </v>
   <v>       0.43725548       0.29443545       0.87579581 </v>
   <v>       0.31076981       0.03262892       0.12412421 </v>
   <v>       0.68784666       0.12158921       0.43411816 </v>
   <v>       0.18702083       0.95364124       0.34495206 </v>
   <v>       0.06455094       0.21218967       0.83363318 </v>
   <v>       0.56109789       0.03923848       0.61065886 </v>
   <v>       0.68816269       0.45274914       0.21176911 </v>
   <v>       0.18844243       0.79146726       0.74416988 </v>
   <v>       0.19091190       0.62165628       0.30026437 </v>
   <v>       0.43988412       0.78758146       0.38928476 </v>
   <v>       0.43665356       0.28691046       0.25586519 </v>
   <v>       0.06516094       0.54475608       0.87565608 </v>
   <v>       0.56372635       0.04173288       0.74421018 </v>
   <v>       0.18857470       0.79385686       0.87577345 </v>
   <v>       0.93730156       0.45460856       0.47825129 </v>
   <v>       0.56361872       0.54171411       0.74417406 </v>
   <v>       0.81165502       0.20645593       0.56579833 </v>
   <v>       0.18648101       0.62509354       0.78833950 </v>
   <v>       0.06508117       0.53806461       0.38934645 </v>
   <v>       0.06157926       0.70765112       0.69975103 </v>
   <v>       0.31108295       0.53656639       0.25588177 </v>
   <v>       0.31376347       0.70238530       0.21198870 </v>
   <v>       0.30744235       0.86632440       0.16583948 </v>
   <v>       0.43706742       0.62104351       0.43410162 </v>
   <v>       0.81551845       0.03792118       0.38921646 </v>
   <v>       0.93643578       0.29544062       0.87565685 </v>
   <v>       0.93723669       0.79214934       0.87554966 </v>
   <v>       0.06557859       0.04413838       0.87547312 </v>
   <v>       0.56139878       0.53281343       0.12443305 </v>
   <v>       0.80893057       0.36642962       0.16592869 </v>
   <v>       0.06225280       0.87161961       0.43414404 </v>
   <v>       0.93697706       0.12269491       0.52154649 </v>
   <v>       0.19039744       0.78698644       0.38899868 </v>
   <v>       0.55683160       0.36570574       0.16602265 </v>
  </varray>
 </structure>
</modeling>
