       N       E                     dE             d eps       ncg     rms          rms(c)
DAV:   1     0.303912987047E+05    0.30391E+05   -0.91690E+05 27770   0.213E+03
DAV:   2     0.152340627990E+04   -0.28868E+05   -0.28272E+05 27600   0.616E+02
DAV:   3    -0.189728743403E+04   -0.34207E+04   -0.29728E+04 38490   0.298E+02
DAV:   4    -0.260968657963E+04   -0.71240E+03   -0.64882E+03 50740   0.103E+02
DAV:   5    -0.273939964884E+04   -0.12971E+03   -0.12130E+03 48280   0.422E+01    0.206E+02
RMM:   6    -0.601302061061E+04   -0.32736E+04   -0.12819E+04 48174   0.258E+02    0.674E+02
RMM:   7    -0.407944797689E+04    0.19336E+04   -0.36028E+03 48898   0.104E+02    0.395E+02
RMM:   8    -0.717915528552E+04   -0.30997E+04   -0.14768E+04 47504   0.287E+02    0.905E+02
RMM:   9    -0.743639422947E+04   -0.25724E+03   -0.11282E+04 49335   0.148E+02    0.801E+02
RMM:  10    -0.146623609929E+05   -0.72260E+04   -0.13521E+04 49304   0.224E+02    0.879E+02
RMM:  11    -0.127249521407E+05    0.19374E+04   -0.10291E+04 44795   0.169E+02    0.845E+02
RMM:  12    -0.114366988238E+05    0.12883E+04   -0.56815E+03 47336   0.108E+02    0.707E+02
RMM:  13    -0.585382957324E+04    0.55829E+04   -0.53775E+03 37614   0.189E+02    0.506E+02
RMM:  14    -0.624384300373E+04   -0.39001E+03   -0.30928E+03 34639   0.998E+01    0.491E+02
RMM:  15    -0.649236583967E+04   -0.24852E+03   -0.51164E+03 37462   0.168E+02    0.493E+02
RMM:  16    -0.530984368660E+04    0.11825E+04   -0.38108E+03 48811   0.104E+02    0.399E+02
RMM:  17    -0.477561022505E+04    0.53423E+03   -0.22238E+03 41380   0.685E+01    0.402E+02
RMM:  18    -0.281105338634E+04    0.19646E+04   -0.12896E+03 30484   0.678E+01    0.281E+02
RMM:  19    -0.276215320245E+04    0.48900E+02   -0.16212E+03 48289   0.303E+01    0.247E+02
RMM:  20    -0.288231937140E+04   -0.12017E+03   -0.12163E+03 47375   0.308E+01    0.257E+02
RMM:  21    -0.285137457513E+04    0.30945E+02   -0.83990E+02 46388   0.275E+01    0.233E+02
RMM:  22    -0.280217736335E+04    0.49197E+02   -0.83265E+02 48907   0.211E+01    0.198E+02
RMM:  23    -0.282473008144E+04   -0.22553E+02   -0.64122E+02 45899   0.166E+01    0.196E+02
RMM:  24    -0.287427145947E+04   -0.49541E+02   -0.57718E+02 48858   0.119E+01    0.206E+02
RMM:  25    -0.295711196193E+04   -0.82841E+02   -0.64075E+02 44707   0.210E+01    0.229E+02
RMM:  26    -0.300321030248E+04   -0.46098E+02   -0.63907E+02 47553   0.160E+01    0.235E+02
RMM:  27    -0.305174022313E+04   -0.48530E+02   -0.54499E+02 47950   0.108E+01    0.246E+02
RMM:  28    -0.313639067469E+04   -0.84650E+02   -0.38760E+02 40810   0.114E+01    0.259E+02
RMM:  29    -0.309472929588E+04    0.41661E+02   -0.19121E+02 40429   0.835E+00    0.264E+02
RMM:  30    -0.314890918303E+04   -0.54180E+02   -0.14225E+02 45911   0.387E+00    0.274E+02
RMM:  31    -0.311928239077E+04    0.29627E+02   -0.12065E+02 34849   0.117E+01    0.282E+02
RMM:  32    -0.280556818673E+04    0.31371E+03   -0.13291E+02 30937   0.185E+01    0.248E+02
RMM:  33    -0.261761130574E+04    0.18796E+03   -0.14558E+02 34210   0.166E+01    0.214E+02
RMM:  34    -0.244526065317E+04    0.17235E+03   -0.13863E+02 34079   0.159E+01    0.149E+02
RMM:  35    -0.237280908057E+04    0.72452E+02   -0.11420E+02 33364   0.143E+01    0.997E+01
RMM:  36    -0.235066262516E+04    0.22146E+02   -0.14065E+02 41497   0.102E+01    0.788E+01
RMM:  37    -0.236094545819E+04   -0.10283E+02   -0.84314E+01 34914   0.100E+01    0.920E+01
RMM:  38    -0.237998430983E+04   -0.19039E+02   -0.80535E+01 43030   0.580E+00    0.105E+02
RMM:  39    -0.239194922715E+04   -0.11965E+02   -0.47311E+01 40111   0.331E+00    0.110E+02
RMM:  40    -0.239593377402E+04   -0.39845E+01   -0.35678E+01 45872   0.140E+00    0.110E+02
RMM:  41    -0.238635265721E+04    0.95811E+01   -0.15890E+01 31634   0.494E+00    0.103E+02
RMM:  42    -0.238114063194E+04    0.52120E+01   -0.16903E+01 43764   0.206E+00    0.977E+01
RMM:  43    -0.238027646717E+04    0.86416E+00   -0.41392E+00 33552   0.186E+00    0.972E+01
RMM:  44    -0.238125534989E+04   -0.97888E+00   -0.43068E+00 41431   0.161E+00    0.979E+01
RMM:  45    -0.238424288822E+04   -0.29875E+01   -0.38396E+00 43438   0.103E+00    0.100E+02
RMM:  46    -0.240533419752E+04   -0.21091E+02   -0.81323E+00 34670   0.304E+00    0.114E+02
RMM:  47    -0.241102529286E+04   -0.56911E+01   -0.89974E+00 44511   0.143E+00    0.117E+02
RMM:  48    -0.240958935995E+04    0.14359E+01   -0.24579E+00 40377   0.115E+00    0.117E+02
RMM:  49    -0.240877869503E+04    0.81066E+00   -0.14123E+00 30248   0.174E+00    0.118E+02
RMM:  50    -0.240369135659E+04    0.50873E+01   -0.19810E+00 35944   0.158E+00    0.116E+02
RMM:  51    -0.263420030120E+04   -0.23051E+03   -0.18850E+02 33614   0.194E+01    0.210E+02
RMM:  52    -0.265883767789E+04   -0.24637E+02   -0.25274E+02 43024   0.134E+01    0.207E+02
RMM:  53    -0.268705999576E+04   -0.28222E+02   -0.19273E+02 45965   0.732E+00    0.212E+02
RMM:  54    -0.270192715788E+04   -0.14867E+02   -0.13688E+02 46464   0.439E+00    0.218E+02
RMM:  55    -0.274079133261E+04   -0.38864E+02   -0.10426E+02 44501   0.477E+00    0.228E+02
RMM:  56    -0.251723957943E+04    0.22355E+03   -0.21767E+02 29332   0.266E+01    0.166E+02
RMM:  57    -0.242297938072E+04    0.94260E+02   -0.13626E+02 29915   0.206E+01    0.132E+02
RMM:  58    -0.242058594342E+04    0.23934E+01   -0.15872E+02 32094   0.194E+01    0.129E+02
RMM:  59    -0.240452302391E+04    0.16063E+02   -0.16483E+02 35650   0.161E+01    0.116E+02
RMM:  60    -0.239215341958E+04    0.12370E+02   -0.16618E+02 37705   0.134E+01    0.103E+02
RMM:  61    -0.239063246171E+04    0.15210E+01   -0.13238E+02 29944   0.193E+01    0.110E+02
RMM:  62    -0.238779804567E+04    0.28344E+01   -0.18591E+02 36295   0.176E+01    0.828E+01
RMM:  63    -0.240507988161E+04   -0.17282E+02   -0.21874E+02 44315   0.119E+01    0.749E+01
RMM:  64    -0.242263964513E+04   -0.17560E+02   -0.17656E+02 44721   0.977E+00    0.749E+01
RMM:  65    -0.243469899941E+04   -0.12059E+02   -0.14253E+02 47976   0.605E+00    0.796E+01
RMM:  66    -0.246470099631E+04   -0.30002E+02   -0.14422E+02 41041   0.880E+00    0.867E+01
RMM:  67    -0.244234893026E+04    0.22352E+02   -0.96836E+01 40901   0.752E+00    0.864E+01
RMM:  68    -0.242454400451E+04    0.17805E+02   -0.71564E+01 39501   0.591E+00    0.859E+01
RMM:  69    -0.242638054993E+04   -0.18365E+01   -0.75517E+01 45403   0.365E+00    0.918E+01
RMM:  70    -0.243900087507E+04   -0.12620E+02   -0.81422E+01 47979   0.243E+00    0.100E+02
RMM:  71    -0.240391374686E+04    0.35087E+02   -0.55859E+01 31505   0.111E+01    0.114E+02
RMM:  72    -0.240900362620E+04   -0.50899E+01   -0.30172E+01 30190   0.973E+00    0.105E+02
RMM:  73    -0.240668469936E+04    0.23189E+01   -0.33907E+01 35032   0.502E+00    0.105E+02
RMM:  74    -0.239835294622E+04    0.83318E+01   -0.26042E+01 39082   0.341E+00    0.105E+02
RMM:  75    -0.239765659330E+04    0.69635E+00   -0.19585E+01 37873   0.274E+00    0.106E+02
RMM:  76    -0.240491434444E+04   -0.72578E+01   -0.48116E+01 30031   0.116E+01    0.116E+02
RMM:  77    -0.236978015279E+04    0.35134E+02   -0.19921E+01 27610   0.112E+01    0.969E+01
RMM:  78    -0.238112066341E+04   -0.11341E+02   -0.13788E+01 31534   0.547E+00    0.106E+02
RMM:  79    -0.237281561619E+04    0.83050E+01   -0.13158E+01 32245   0.546E+00    0.974E+01
RMM:  80    -0.237985113478E+04   -0.70355E+01   -0.77235E+00 32262   0.360E+00    0.102E+02
RMM:  81    -0.240591838561E+04   -0.26067E+02   -0.49770E+01 29734   0.126E+01    0.115E+02
RMM:  82    -0.238682000428E+04    0.19098E+02   -0.15896E+01 28500   0.862E+00    0.105E+02
RMM:  83    -0.237006310447E+04    0.16757E+02   -0.11920E+01 31232   0.541E+00    0.946E+01
RMM:  84    -0.235453479531E+04    0.15528E+02   -0.10646E+01 30869   0.493E+00    0.789E+01
RMM:  85    -0.234479255689E+04    0.97422E+01   -0.10970E+01 32262   0.474E+00    0.640E+01
RMM:  86    -0.236515146046E+04   -0.20359E+02   -0.42980E+01 28721   0.129E+01    0.861E+01
RMM:  87    -0.234702407210E+04    0.18127E+02   -0.19582E+01 27600   0.112E+01    0.670E+01
RMM:  88    -0.234084763390E+04    0.61764E+01   -0.10408E+01 28328   0.672E+00    0.579E+01
RMM:  89    -0.233285169346E+04    0.79959E+01   -0.11223E+01 31443   0.515E+00    0.421E+01
RMM:  90    -0.233052995305E+04    0.23217E+01   -0.90552E+00 34835   0.366E+00    0.355E+01
RMM:  91    -0.237849710914E+04   -0.47967E+02   -0.57987E+01 30756   0.124E+01    0.919E+01
RMM:  92    -0.233344434620E+04    0.45053E+02   -0.22842E+01 27601   0.117E+01    0.400E+01
RMM:  93    -0.233218430379E+04    0.12600E+01   -0.99124E+00 28491   0.663E+00    0.364E+01
RMM:  94    -0.232905976979E+04    0.31245E+01   -0.58417E+00 28769   0.489E+00    0.278E+01
RMM:  95    -0.232859278249E+04    0.46699E+00   -0.55563E+00 30237   0.402E+00    0.256E+01
RMM:  96    -0.234895092575E+04   -0.20358E+02   -0.23624E+01 29530   0.872E+00    0.605E+01
RMM:  97    -0.233050919363E+04    0.18442E+02   -0.10415E+01 27607   0.797E+00    0.296E+01
RMM:  98    -0.232825211390E+04    0.22571E+01   -0.64530E+00 30151   0.435E+00    0.216E+01
RMM:  99    -0.232823622695E+04    0.15887E-01   -0.32546E+00 28291   0.397E+00    0.219E+01
RMM: 100    -0.232754808354E+04    0.68814E+00   -0.23988E+00 28845   0.306E+00
   1 F= -.23275481E+04 E0= -.23247856E+04  d E =-.232755E+04
       N       E                     dE             d eps       ncg     rms          rms(c)
DAV:   1    -0.233604472252E+04   -0.78085E+01   -0.74881E+01 48350   0.207E+01    0.447E+01
RMM:   2    -0.603909048301E+04   -0.37030E+04   -0.32997E+03 44735   0.117E+02    0.401E+02
RMM:   3    -0.525133259023E+04    0.78776E+03   -0.21449E+03 36374   0.109E+02    0.346E+02
RMM:   4    -0.300669569440E+04    0.22446E+04   -0.62647E+02 27603   0.572E+01    0.258E+02
RMM:   5    -0.379660564473E+04   -0.78991E+03   -0.71892E+02 33359   0.574E+01    0.287E+02
RMM:   6    -0.277970938277E+04    0.10169E+04   -0.22123E+02 32906   0.249E+01    0.233E+02
RMM:   7    -0.242260819897E+04    0.35710E+03   -0.18705E+02 27933   0.269E+01    0.123E+02
RMM:   8    -0.235705102841E+04    0.65557E+02   -0.18963E+02 38317   0.156E+01    0.787E+01
RMM:   9    -0.234869714785E+04    0.83539E+01   -0.71932E+01 31977   0.127E+01    0.663E+01
RMM:  10    -0.245994645165E+04   -0.11125E+03   -0.10472E+02 36510   0.122E+01    0.140E+02
RMM:  11    -0.234727753747E+04    0.11267E+03   -0.44620E+01 31151   0.105E+01    0.575E+01
RMM:  12    -0.233806442533E+04    0.92131E+01   -0.17333E+01 28660   0.827E+00    0.467E+01
RMM:  13    -0.234203965114E+04   -0.39752E+01   -0.21475E+01 38260   0.473E+00    0.538E+01
RMM:  14    -0.234318253609E+04   -0.11429E+01   -0.98399E+00 36956   0.313E+00    0.559E+01
RMM:  15    -0.234332735785E+04   -0.14482E+00   -0.48335E+00 39500   0.179E+00    0.568E+01
RMM:  16    -0.234097088784E+04    0.23565E+01   -0.22609E+00 42423   0.955E-01    0.535E+01
RMM:  17    -0.233586553116E+04    0.51054E+01   -0.59928E-01 29526   0.140E+00    0.440E+01
RMM:  18    -0.233075418901E+04    0.51113E+01   -0.21420E+00 29193   0.265E+00    0.314E+01
RMM:  19    -0.232719379584E+04    0.35604E+01   -0.17876E+00 30892   0.220E+00    0.177E+01
RMM:  20    -0.232719650027E+04   -0.27044E-02   -0.17993E+00 38543   0.142E+00    0.172E+01
RMM:  21    -0.232687042257E+04    0.32608E+00   -0.74532E-01 43104   0.617E-01    0.148E+01
RMM:  22    -0.232694425337E+04   -0.73831E-01   -0.24368E-01 33088   0.613E-01    0.154E+01
RMM:  23    -0.232687666260E+04    0.67591E-01   -0.22718E-01 37352   0.534E-01    0.148E+01
RMM:  24    -0.232714732628E+04   -0.27066E+00   -0.19522E-01 28511   0.934E-01    0.161E+01
RMM:  25    -0.232670479210E+04    0.44253E+00   -0.42809E-01 29334   0.118E+00    0.134E+01
RMM:  26    -0.232615293626E+04    0.55186E+00   -0.30494E-01 28051   0.113E+00    0.840E+00
RMM:  27    -0.232611641240E+04    0.36524E-01   -0.36706E-01 32313   0.862E-01    0.806E+00
RMM:  28    -0.232605973587E+04    0.56677E-01   -0.16820E-01 32624   0.594E-01    0.693E+00
RMM:  29    -0.232615606568E+04   -0.96330E-01   -0.19957E-01 28554   0.903E-01    0.797E+00
RMM:  30    -0.232602786872E+04    0.12820E+00   -0.27019E-01 27684   0.112E+00    0.641E+00
RMM:  31    -0.232588156018E+04    0.14631E+00   -0.14482E-01 27763   0.913E-01    0.412E+00
RMM:  32    -0.232584885297E+04    0.32707E-01   -0.77493E-02 30231   0.479E-01    0.313E+00
RMM:  33    -0.232585329492E+04   -0.44419E-02   -0.70666E-02 34823   0.338E-01    0.287E+00
RMM:  34    -0.232591366892E+04   -0.60374E-01   -0.33679E-02 31309   0.285E-01    0.427E+00
RMM:  35    -0.232597131843E+04   -0.57650E-01   -0.40045E-02 39116   0.216E-01    0.531E+00
RMM:  36    -0.232605008122E+04   -0.78763E-01   -0.28992E-02 33764   0.217E-01    0.642E+00
RMM:  37    -0.232605706894E+04   -0.69877E-02   -0.23956E-02 38801   0.157E-01    0.643E+00
RMM:  38    -0.232602831540E+04    0.28754E-01   -0.14994E-02 33908   0.160E-01    0.601E+00
RMM:  39    -0.232596288469E+04    0.65431E-01   -0.11402E-02 30310   0.186E-01    0.495E+00
RMM:  40    -0.232594861156E+04    0.14273E-01   -0.14898E-02 38018   0.147E-01    0.474E+00
RMM:  41    -0.232594182742E+04    0.67841E-02   -0.11240E-02 33227   0.151E-01    0.471E+00
RMM:  42    -0.232593586907E+04    0.59583E-02   -0.52371E-03 31929   0.111E-01    0.462E+00
RMM:  43    -0.232593451172E+04    0.13573E-02   -0.56323E-03 38252   0.846E-02    0.462E+00
RMM:  44    -0.232592316659E+04    0.11345E-01   -0.25282E-03 35679   0.650E-02    0.443E+00
RMM:  45    -0.232591167277E+04    0.11494E-01   -0.16509E-03 28911   0.802E-02    0.423E+00
RMM:  46    -0.232588904441E+04    0.22628E-01   -0.54804E-03 31512   0.114E-01    0.375E+00
RMM:  47    -0.232581853204E+04    0.70512E-01   -0.63373E-02 36129   0.323E-01    0.126E+00
RMM:  48    -0.232581695933E+04    0.15727E-02   -0.31293E-02 39698   0.172E-01    0.109E+00
RMM:  49    -0.232581852289E+04   -0.15636E-02   -0.12217E-02 35162   0.131E-01    0.121E+00
RMM:  50    -0.232581823424E+04    0.28865E-03   -0.45722E-03 31891   0.975E-02    0.119E+00
RMM:  51    -0.232581858234E+04   -0.34809E-03   -0.36726E-03 34783   0.771E-02    0.119E+00
RMM:  52    -0.232583294209E+04   -0.14360E-01   -0.66144E-03 29928   0.148E-01    0.199E+00
RMM:  53    -0.232583111423E+04    0.18279E-02   -0.34474E-03 28294   0.132E-01    0.185E+00
RMM:  54    -0.232582404299E+04    0.70712E-02   -0.42720E-03 28380   0.128E-01    0.145E+00
RMM:  55    -0.232581803300E+04    0.60100E-02   -0.23248E-03 27730   0.103E-01    0.101E+00
RMM:  56    -0.232581720187E+04    0.83114E-03   -0.26049E-03 31957   0.765E-02    0.919E-01
RMM:  57    -0.232581622488E+04    0.97699E-03   -0.18948E-03 29051   0.794E-02    0.809E-01
RMM:  58    -0.232581544291E+04    0.78197E-03   -0.96226E-04 27803   0.679E-02    0.713E-01
RMM:  59    -0.232581406578E+04    0.13771E-02   -0.10968E-03 29355   0.592E-02    0.494E-01
RMM:  60    -0.232581314375E+04    0.92202E-03   -0.55173E-04 27892   0.490E-02    0.276E-01
RMM:  61    -0.232581302605E+04    0.11770E-03   -0.63712E-04 33833   0.332E-02    0.231E-01
RMM:  62    -0.232581324038E+04   -0.21433E-03   -0.90766E-04 28578   0.593E-02    0.296E-01
RMM:  63    -0.232581283062E+04    0.40976E-03   -0.33091E-04 27675   0.436E-02    0.116E-01
RMM:  64    -0.232581282924E+04    0.13760E-05   -0.31207E-04 33135   0.210E-02    0.111E-01
RMM:  65    -0.232581289752E+04   -0.68274E-04   -0.13328E-04 27736   0.171E-02    0.157E-01
RMM:  66    -0.232581283757E+04    0.59944E-04   -0.72190E-05 23199   0.148E-02    0.112E-01
RMM:  67    -0.232581290975E+04   -0.72182E-04   -0.19924E-04 27882   0.291E-02    0.156E-01
RMM:  68    -0.232581279231E+04    0.11744E-03   -0.78068E-05 25799   0.245E-02    0.578E-02
RMM:  69    -0.232581278225E+04    0.10064E-04   -0.16926E-05 16980   0.845E-03    0.415E-02
RMM:  70    -0.232581277921E+04    0.30347E-05   -0.14152E-05 15704   0.934E-03
   2 F= -.23258128E+04 E0= -.23230413E+04  d E =0.173530E+01
       N       E                     dE             d eps       ncg     rms          rms(c)
DAV:   1    -0.232581828078E+04   -0.54985E-02   -0.10645E+00 29580   0.109E+00    0.277E-01
RMM:   2    -0.232599888220E+04   -0.18060E+00   -0.74003E-02 30947   0.467E-01    0.582E+00
RMM:   3    -0.232602117417E+04   -0.22292E-01   -0.43795E-02 38384   0.232E-01    0.606E+00
RMM:   4    -0.232595992656E+04    0.61248E-01   -0.17464E-02 27845   0.277E-01    0.508E+00
RMM:   5    -0.232584185830E+04    0.11807E+00   -0.11961E-02 29584   0.195E-01    0.179E+00
RMM:   6    -0.232582687644E+04    0.14982E-01   -0.11118E-02 28314   0.199E-01    0.121E+00
RMM:   7    -0.232583634745E+04   -0.94710E-02   -0.28669E-02 33471   0.236E-01    0.179E+00
RMM:   8    -0.232583748334E+04   -0.11359E-02   -0.12605E-02 33297   0.162E-01    0.190E+00
RMM:   9    -0.232582116715E+04    0.16316E-01   -0.49150E-03 28047   0.138E-01    0.601E-01
RMM:  10    -0.232581985958E+04    0.13076E-02   -0.51361E-03 36299   0.833E-02    0.433E-01
RMM:  11    -0.232581977577E+04    0.83808E-04   -0.31356E-03 36005   0.698E-02    0.388E-01
RMM:  12    -0.232581930818E+04    0.46759E-03   -0.10490E-03 28929   0.598E-02    0.255E-01
RMM:  13    -0.232581902289E+04    0.28529E-03   -0.46304E-04 28222   0.433E-02    0.138E-01
RMM:  14    -0.232581906106E+04   -0.38169E-04   -0.55713E-04 36246   0.278E-02    0.148E-01
RMM:  15    -0.232581905410E+04    0.69604E-05   -0.26598E-04 28862   0.299E-02    0.139E-01
RMM:  16    -0.232581897458E+04    0.79519E-04   -0.13040E-04 26691   0.245E-02    0.739E-02
RMM:  17    -0.232581895652E+04    0.18058E-04   -0.66780E-05 23668   0.141E-02    0.474E-02
RMM:  18    -0.232581896234E+04   -0.58198E-05   -0.50711E-05 20981   0.119E-02
   3 F= -.23258190E+04 E0= -.23230471E+04  d E =0.172912E+01
       N       E                     dE             d eps       ncg     rms          rms(c)
DAV:   1    -0.232582181280E+04   -0.28563E-02   -0.47552E-01 28840   0.726E-01    0.185E-01
RMM:   2    -0.232587861761E+04   -0.56805E-01   -0.31018E-02 30894   0.306E-01    0.325E+00
RMM:   3    -0.232590970172E+04   -0.31084E-01   -0.18314E-02 37621   0.160E-01    0.400E+00
RMM:   4    -0.232587761383E+04    0.32088E-01   -0.63620E-03 27721   0.171E-01    0.319E+00
RMM:   5    -0.232583204770E+04    0.45566E-01   -0.47773E-03 30791   0.115E-01    0.119E+00
RMM:   6    -0.232582586304E+04    0.61847E-02   -0.41076E-03 28024   0.125E-01    0.820E-01
RMM:   7    -0.232584580944E+04   -0.19946E-01   -0.13718E-02 35243   0.150E-01    0.213E+00
RMM:   8    -0.232582629716E+04    0.19512E-01   -0.59056E-03 31435   0.127E-01    0.827E-01
RMM:   9    -0.232582285049E+04    0.34467E-02   -0.27721E-03 27795   0.113E-01    0.385E-01
RMM:  10    -0.232582245900E+04    0.39149E-03   -0.25273E-03 36911   0.560E-02    0.264E-01
RMM:  11    -0.232582247612E+04   -0.17112E-04   -0.14404E-03 35433   0.471E-02    0.254E-01
RMM:  12    -0.232582232594E+04    0.15018E-03   -0.51483E-04 29390   0.402E-02    0.188E-01
RMM:  13    -0.232582216002E+04    0.16592E-03   -0.22327E-04 28198   0.301E-02    0.812E-02
RMM:  14    -0.232582219781E+04   -0.37788E-04   -0.27605E-04 33600   0.198E-02    0.108E-01
RMM:  15    -0.232582217565E+04    0.22160E-04   -0.11722E-04 27199   0.206E-02    0.844E-02
RMM:  16    -0.232582214465E+04    0.31000E-04   -0.55351E-05 21925   0.158E-02    0.438E-02
RMM:  17    -0.232582213822E+04    0.64269E-05   -0.25542E-05 17703   0.961E-03
   4 F= -.23258221E+04 E0= -.23230499E+04  d E =0.172595E+01
       N       E                     dE             d eps       ncg     rms          rms(c)
DAV:   1    -0.232582372938E+04   -0.15847E-02   -0.57338E+00 27740   0.252E+00    0.640E-01
RMM:   2    -0.232652233648E+04   -0.69861E+00   -0.38729E-01 31002   0.107E+00    0.115E+01
RMM:   3    -0.232676582178E+04   -0.24349E+00   -0.20988E-01 35551   0.601E-01    0.130E+01
RMM:   4    -0.232604171969E+04    0.72410E+00   -0.73443E-02 27607   0.612E-01    0.604E+00
RMM:   5    -0.232608147798E+04   -0.39758E-01   -0.58463E-02 36558   0.288E-01    0.669E+00
RMM:   6    -0.232586304736E+04    0.21843E+00   -0.31490E-02 27856   0.348E-01    0.239E+00
RMM:   7    -0.232603319843E+04   -0.17015E+00   -0.10370E-01 34532   0.409E-01    0.625E+00
RMM:   8    -0.232586292316E+04    0.17028E+00   -0.58753E-02 29353   0.435E-01    0.240E+00
RMM:   9    -0.232583586353E+04    0.27060E-01   -0.24941E-02 27744   0.342E-01    0.130E+00
RMM:  10    -0.232583049310E+04    0.53704E-02   -0.20189E-02 33479   0.182E-01    0.806E-01
RMM:  11    -0.232583012252E+04    0.37058E-03   -0.13431E-02 34528   0.151E-01    0.726E-01
RMM:  12    -0.232582964232E+04    0.48019E-03   -0.59284E-03 29787   0.134E-01    0.633E-01
RMM:  13    -0.232582769727E+04    0.19451E-02   -0.20897E-03 27699   0.104E-01    0.281E-01
RMM:  14    -0.232582760789E+04    0.89380E-04   -0.17529E-03 32659   0.596E-02    0.235E-01
RMM:  15    -0.232582774605E+04   -0.13817E-03   -0.15359E-03 30881   0.621E-02    0.268E-01
RMM:  16    -0.232582754382E+04    0.20223E-03   -0.75652E-04 28612   0.540E-02    0.186E-01
RMM:  17    -0.232582741270E+04    0.13111E-03   -0.46771E-04 30737   0.356E-02    0.104E-01
RMM:  18    -0.232582743707E+04   -0.24366E-04   -0.44317E-04 36397   0.205E-02    0.107E-01
RMM:  19    -0.232582741509E+04    0.21978E-04   -0.14540E-04 28875   0.212E-02    0.841E-02
RMM:  20    -0.232582738800E+04    0.27098E-04   -0.67567E-05 23072   0.143E-02    0.419E-02
RMM:  21    -0.232582739556E+04   -0.75630E-05   -0.54288E-05 21591   0.113E-02
   5 F= -.23258274E+04 E0= -.23230541E+04  d E =0.172069E+01
       N       E                     dE             d eps       ncg     rms          rms(c)
DAV:   1    -0.232584403941E+04   -0.16651E-01   -0.46885E+00 27600   0.226E+00    0.391E-01
RMM:   2    -0.232622312119E+04   -0.37908E+00   -0.12040E-01 28898   0.662E-01    0.835E+00
RMM:   3    -0.232591970678E+04    0.30341E+00   -0.60151E-02 37772   0.297E-01    0.330E+00
RMM:   4    -0.232589164174E+04    0.28065E-01   -0.22939E-02 27600   0.365E-01    0.276E+00
RMM:   5    -0.232588602801E+04    0.56137E-02   -0.14521E-02 39418   0.119E-01    0.260E+00
RMM:   6    -0.232588721535E+04   -0.11873E-02   -0.17466E-02 30327   0.209E-01    0.260E+00
RMM:   7    -0.232589086524E+04   -0.36499E-02   -0.27208E-02 31073   0.262E-01    0.275E+00
RMM:   8    -0.232587095473E+04    0.19911E-01   -0.16938E-02 30757   0.214E-01    0.193E+00
RMM:   9    -0.232585399495E+04    0.16960E-01   -0.80296E-03 27607   0.210E-01    0.920E-01
RMM:  10    -0.232585111855E+04    0.28764E-02   -0.47250E-03 29188   0.123E-01    0.616E-01
RMM:  11    -0.232585163648E+04   -0.51793E-03   -0.68073E-03 32865   0.114E-01    0.649E-01
RMM:  12    -0.232585192736E+04   -0.29088E-03   -0.34069E-03 29981   0.987E-02    0.687E-01
RMM:  13    -0.232584973720E+04    0.21902E-02   -0.12468E-03 27681   0.773E-02    0.291E-01
RMM:  14    -0.232584948683E+04    0.25037E-03   -0.93907E-04 30653   0.499E-02    0.216E-01
RMM:  15    -0.232584951600E+04   -0.29168E-04   -0.10201E-03 32872   0.450E-02    0.225E-01
RMM:  16    -0.232584928957E+04    0.22642E-03   -0.38926E-04 28262   0.388E-02    0.894E-02
RMM:  17    -0.232584929228E+04   -0.27110E-05   -0.39322E-04 36011   0.199E-02    0.751E-02
RMM:  18    -0.232584929628E+04   -0.39913E-05   -0.11526E-04 27577   0.170E-02    0.811E-02
RMM:  19    -0.232584926928E+04    0.26993E-04   -0.45785E-05 20663   0.151E-02    0.444E-02
RMM:  20    -0.232584926442E+04    0.48615E-05   -0.20924E-05 17639   0.850E-03
   6 F= -.23258493E+04 E0= -.23230753E+04  d E =-.218689E-01
       N       E                     dE             d eps       ncg     rms          rms(c)
DAV:   1    -0.232584763322E+04    0.16361E-02   -0.15334E+01 27600   0.409E+00    0.722E-01
RMM:   2    -0.232702054001E+04   -0.11729E+01   -0.40273E-01 28671   0.124E+00    0.147E+01
RMM:   3    -0.232612171347E+04    0.89883E+00   -0.20891E-01 38212   0.536E-01    0.637E+00
RMM:   4    -0.232644238861E+04   -0.32068E+00   -0.75633E-02 27609   0.646E-01    0.104E+01
RMM:   5    -0.232592578499E+04    0.51660E+00   -0.54115E-02 37154   0.290E-01    0.287E+00
RMM:   6    -0.232604361289E+04   -0.11783E+00   -0.87170E-02 29128   0.512E-01    0.555E+00
RMM:   7    -0.232598057095E+04    0.63042E-01   -0.95818E-02 31291   0.494E-01    0.457E+00
RMM:   8    -0.232597294156E+04    0.76294E-02   -0.56267E-02 29627   0.398E-01    0.439E+00
RMM:   9    -0.232588081123E+04    0.92130E-01   -0.26915E-02 27624   0.379E-01    0.162E+00
RMM:  10    -0.232587139565E+04    0.94156E-02   -0.18657E-02 30324   0.225E-01    0.112E+00
RMM:  11    -0.232587271890E+04   -0.13232E-02   -0.22915E-02 32407   0.217E-01    0.113E+00
RMM:  12    -0.232586710038E+04    0.56185E-02   -0.69490E-03 27892   0.176E-01    0.589E-01
RMM:  13    -0.232586644972E+04    0.65066E-03   -0.38376E-03 29366   0.112E-01    0.504E-01
RMM:  14    -0.232586610004E+04    0.34968E-03   -0.35130E-03 36058   0.692E-02    0.419E-01
RMM:  15    -0.232586629105E+04   -0.19100E-03   -0.21943E-03 28895   0.864E-02    0.457E-01
RMM:  16    -0.232586539201E+04    0.89904E-03   -0.12756E-03 28307   0.725E-02    0.194E-01
RMM:  17    -0.232586534848E+04    0.43528E-04   -0.11176E-03 35688   0.386E-02    0.156E-01
RMM:  18    -0.232586536287E+04   -0.14382E-04   -0.45760E-04 31764   0.327E-02    0.165E-01
RMM:  19    -0.232586524867E+04    0.11419E-03   -0.19678E-04 28472   0.285E-02    0.846E-02
RMM:  20    -0.232586523892E+04    0.97583E-05   -0.16836E-04 28465   0.147E-02    0.594E-02
RMM:  21    -0.232586524712E+04   -0.82060E-05   -0.94044E-05 25690   0.135E-02
   7 F= -.23258652E+04 E0= -.23230900E+04  d E =-.378516E-01
       N       E                     dE             d eps       ncg     rms          rms(c)
DAV:   1    -0.232587238278E+04   -0.71439E-02   -0.23938E+00 27760   0.163E+00    0.316E-01
RMM:   2    -0.232698840374E+04   -0.11160E+01   -0.14167E-01 31277   0.606E-01    0.143E+01
RMM:   3    -0.232594154142E+04    0.10469E+01   -0.39908E-02 29449   0.389E-01    0.276E+00
RMM:   4    -0.232625666884E+04   -0.31513E+00   -0.25838E-02 29301   0.295E-01    0.842E+00
RMM:   5    -0.232589468879E+04    0.36198E+00   -0.16108E-02 27677   0.273E-01    0.129E+00
RMM:   6    -0.232598648876E+04   -0.91800E-01   -0.48189E-02 30672   0.339E-01    0.463E+00
RMM:   7    -0.232593790606E+04    0.48583E-01   -0.33255E-02 28996   0.327E-01    0.333E+00
RMM:   8    -0.232589120347E+04    0.46703E-01   -0.14392E-02 27659   0.251E-01    0.168E+00
RMM:   9    -0.232587794911E+04    0.13254E-01   -0.74905E-03 27841   0.194E-01    0.790E-01
RMM:  10    -0.232587669082E+04    0.12583E-02   -0.67262E-03 32106   0.116E-01    0.676E-01
RMM:  11    -0.232587615123E+04    0.53958E-03   -0.52738E-03 32235   0.110E-01    0.561E-01
RMM:  12    -0.232587489171E+04    0.12595E-02   -0.16443E-03 27983   0.873E-02    0.307E-01
RMM:  13    -0.232587452190E+04    0.36981E-03   -0.85678E-04 29727   0.531E-02    0.169E-01
RMM:  14    -0.232587460437E+04   -0.82472E-04   -0.90099E-04 35797   0.350E-02    0.187E-01
RMM:  15    -0.232587460242E+04    0.19575E-05   -0.51216E-04 31027   0.355E-02    0.176E-01
RMM:  16    -0.232587448769E+04    0.11472E-03   -0.21441E-04 28459   0.288E-02    0.102E-01
RMM:  17    -0.232587447395E+04    0.13740E-04   -0.20351E-04 30270   0.166E-02    0.805E-02
RMM:  18    -0.232587447894E+04   -0.49922E-05   -0.10859E-04 26445   0.155E-02    0.827E-02
RMM:  19    -0.232587445270E+04    0.26239E-04   -0.49244E-05 21127   0.150E-02    0.445E-02
RMM:  20    -0.232587444692E+04    0.57821E-05   -0.22461E-05 17743   0.889E-03
   8 F= -.23258744E+04 E0= -.23230985E+04  d E =-.919980E-02
       N       E                     dE             d eps       ncg     rms          rms(c)
DAV:   1    -0.232586865085E+04    0.58019E-02   -0.21539E+01 27600   0.489E+00    0.920E-01
RMM:   2    -0.233125190882E+04   -0.53833E+01   -0.88113E-01 30129   0.171E+00    0.312E+01
RMM:   3    -0.232634769563E+04    0.49042E+01   -0.34297E-01 33307   0.927E-01    0.797E+00
RMM:   4    -0.232766944790E+04   -0.13218E+01   -0.17098E-01 27707   0.947E-01    0.181E+01
RMM:   5    -0.232599083726E+04    0.16786E+01   -0.88127E-02 32704   0.472E-01    0.332E+00
RMM:   6    -0.232660007323E+04   -0.60924E+00   -0.25959E-01 30774   0.777E-01    0.119E+01
RMM:   7    -0.232614189736E+04    0.45818E+00   -0.20447E-01 29891   0.779E-01    0.651E+00
RMM:   8    -0.232596770505E+04    0.17419E+00   -0.82212E-02 27610   0.651E-01    0.362E+00
RMM:   9    -0.232591045278E+04    0.57252E-01   -0.35653E-02 27862   0.397E-01    0.201E+00
RMM:  10    -0.232590151325E+04    0.89395E-02   -0.38287E-02 32468   0.276E-01    0.163E+00
RMM:  11    -0.232589830157E+04    0.32117E-02   -0.28496E-02 30199   0.282E-01    0.136E+00
RMM:  12    -0.232589109385E+04    0.72077E-02   -0.10237E-02 27878   0.222E-01    0.791E-01
RMM:  13    -0.232588906411E+04    0.20297E-02   -0.52075E-03 29342   0.138E-01    0.498E-01
RMM:  14    -0.232588913626E+04   -0.72149E-04   -0.51406E-03 32977   0.999E-02    0.486E-01
RMM:  15    -0.232588873826E+04    0.39800E-03   -0.32104E-03 30489   0.951E-02    0.379E-01
RMM:  16    -0.232588819617E+04    0.54209E-03   -0.14053E-03 29325   0.733E-02    0.223E-01
RMM:  17    -0.232588820774E+04   -0.11565E-04   -0.14556E-03 36689   0.411E-02    0.197E-01
RMM:  18    -0.232588827625E+04   -0.68518E-04   -0.80296E-04 32133   0.402E-02    0.209E-01
RMM:  19    -0.232588812296E+04    0.15329E-03   -0.33516E-04 29411   0.340E-02    0.136E-01
RMM:  20    -0.232588808685E+04    0.36114E-04   -0.30842E-04 33069   0.199E-02    0.912E-02
RMM:  21    -0.232588810649E+04   -0.19636E-04   -0.19001E-04 30911   0.204E-02    0.104E-01
RMM:  22    -0.232588807397E+04    0.32515E-04   -0.78357E-05 24585   0.176E-02    0.687E-02
RMM:  23    -0.232588806635E+04    0.76152E-05   -0.42456E-05 20401   0.992E-03
   9 F= -.23258881E+04 E0= -.23231105E+04  d E =-.228192E-01
       N       E                     dE             d eps       ncg     rms          rms(c)
DAV:   1    -0.232588791747E+04    0.15650E-03   -0.39340E-01 28160   0.660E-01    0.129E-01
RMM:   2    -0.232599512826E+04   -0.10721E+00   -0.16988E-02 30225   0.235E-01    0.441E+00
RMM:   3    -0.232590253393E+04    0.92594E-01   -0.75893E-03 34882   0.125E-01    0.147E+00
RMM:   4    -0.232593940388E+04   -0.36870E-01   -0.45847E-03 30093   0.110E-01    0.308E+00
RMM:   5    -0.232589141504E+04    0.47989E-01   -0.28552E-03 27617   0.118E-01    0.603E-01
RMM:   6    -0.232589818246E+04   -0.67674E-02   -0.54718E-03 34551   0.989E-02    0.139E+00
RMM:   7    -0.232589307520E+04    0.51073E-02   -0.43419E-03 28230   0.124E-01    0.908E-01
RMM:   8    -0.232589092643E+04    0.21488E-02   -0.22755E-03 28543   0.901E-02    0.660E-01
RMM:   9    -0.232588864934E+04    0.22771E-02   -0.10013E-03 27608   0.723E-02    0.263E-01
RMM:  10    -0.232588848071E+04    0.16863E-03   -0.72104E-04 30370   0.438E-02    0.205E-01
RMM:  11    -0.232588863246E+04   -0.15175E-03   -0.92713E-04 36993   0.346E-02    0.261E-01
RMM:  12    -0.232588841021E+04    0.22225E-03   -0.25597E-04 27754   0.317E-02    0.157E-01
RMM:  13    -0.232588829413E+04    0.11608E-03   -0.11413E-04 26505   0.237E-02    0.711E-02
RMM:  14    -0.232588828806E+04    0.60633E-05   -0.75612E-05 23297   0.128E-02
  10 F= -.23258883E+04 E0= -.23231105E+04  d E =-.230409E-01
       N       E                     dE             d eps       ncg     rms          rms(c)
DAV:   1    -0.232589194404E+04   -0.36499E-02   -0.54096E+00 27600   0.244E+00    0.395E-01
RMM:   2    -0.232808454001E+04   -0.21926E+01   -0.21451E-01 30000   0.826E-01    0.200E+01
RMM:   3    -0.232597372574E+04    0.21108E+01   -0.59889E-02 28040   0.534E-01    0.229E+00
RMM:   4    -0.232636593521E+04   -0.39221E+00   -0.35457E-02 28519   0.381E-01    0.945E+00
RMM:   5    -0.232597921102E+04    0.38672E+00   -0.37121E-02 32239   0.290E-01    0.355E+00
RMM:   6    -0.232603008171E+04   -0.50871E-01   -0.51169E-02 29148   0.395E-01    0.498E+00
RMM:   7    -0.232599615505E+04    0.33927E-01   -0.45566E-02 28110   0.426E-01    0.414E+00
RMM:   8    -0.232591255536E+04    0.83600E-01   -0.18754E-02 27626   0.320E-01    0.157E+00
RMM:   9    -0.232589846446E+04    0.14091E-01   -0.95997E-03 27668   0.236E-01    0.616E-01
RMM:  10    -0.232590131355E+04   -0.28491E-02   -0.86156E-03 29092   0.167E-01    0.952E-01
RMM:  11    -0.232590018295E+04    0.11306E-02   -0.61804E-03 29566   0.140E-01    0.819E-01
RMM:  12    -0.232589694453E+04    0.32384E-02   -0.22641E-03 27701   0.112E-01    0.309E-01
RMM:  13    -0.232589650205E+04    0.44248E-03   -0.16423E-03 33193   0.512E-02    0.125E-01
RMM:  14    -0.232589662983E+04   -0.12778E-03   -0.11000E-03 37096   0.376E-02    0.179E-01
RMM:  15    -0.232589658172E+04    0.48112E-04   -0.44345E-04 30852   0.344E-02    0.136E-01
RMM:  16    -0.232589653546E+04    0.46261E-04   -0.25805E-04 30899   0.253E-02    0.906E-02
RMM:  17    -0.232589657923E+04   -0.43771E-04   -0.25531E-04 31706   0.233E-02    0.119E-01
RMM:  18    -0.232589653026E+04    0.48970E-04   -0.11090E-04 26859   0.215E-02    0.715E-02
RMM:  19    -0.232589651814E+04    0.12116E-04   -0.67480E-05 22560   0.129E-02    0.506E-02
RMM:  20    -0.232589652048E+04   -0.23437E-05   -0.35655E-05 19657   0.993E-03
  11 F= -.23258965E+04 E0= -.23231188E+04  d E =-.823242E-02
       N       E                     dE             d eps       ncg     rms          rms(c)
DAV:   1    -0.232589139336E+04    0.51248E-02   -0.15317E+01 27600   0.410E+00    0.644E-01
RMM:   2    -0.233078629330E+04   -0.48949E+01   -0.49241E-01 29421   0.133E+00    0.297E+01
RMM:   3    -0.232608997303E+04    0.46963E+01   -0.14091E-01 28329   0.796E-01    0.383E+00
RMM:   4    -0.232719281891E+04   -0.11028E+01   -0.98204E-02 29563   0.554E-01    0.154E+01
RMM:   5    -0.232604621883E+04    0.11466E+01   -0.69925E-02 27889   0.529E-01    0.460E+00
RMM:   6    -0.232621988007E+04   -0.17366E+00   -0.15676E-01 31642   0.606E-01    0.773E+00
RMM:   7    -0.232626597320E+04   -0.46093E-01   -0.13099E-01 28720   0.662E-01    0.792E+00
RMM:   8    -0.232593401517E+04    0.33196E+00   -0.49040E-02 27631   0.531E-01    0.199E+00
RMM:   9    -0.232590859919E+04    0.25416E-01   -0.22860E-02 27780   0.349E-01    0.940E-01
RMM:  10    -0.232592266135E+04   -0.14062E-01   -0.31914E-02 31581   0.262E-01    0.184E+00
RMM:  11    -0.232591036833E+04    0.12293E-01   -0.11815E-02 27966   0.219E-01    0.100E+00
RMM:  12    -0.232590525697E+04    0.51114E-02   -0.54706E-03 28304   0.162E-01    0.405E-01
RMM:  13    -0.232590518385E+04    0.73121E-04   -0.48693E-03 36076   0.721E-02    0.316E-01
RMM:  14    -0.232590529154E+04   -0.10769E-03   -0.27200E-03 34581   0.666E-02    0.330E-01
RMM:  15    -0.232590506375E+04    0.22780E-03   -0.11561E-03 30215   0.584E-02    0.250E-01
RMM:  16    -0.232590481580E+04    0.24795E-03   -0.55884E-04 30201   0.404E-02    0.133E-01
RMM:  17    -0.232590486046E+04   -0.44659E-04   -0.61703E-04 34712   0.314E-02    0.148E-01
RMM:  18    -0.232590485465E+04    0.58044E-05   -0.30893E-04 29555   0.320E-02    0.135E-01
RMM:  19    -0.232590479814E+04    0.56509E-04   -0.15191E-04 28367   0.239E-02    0.890E-02
RMM:  20    -0.232590481142E+04   -0.13273E-04   -0.16712E-04 28801   0.144E-02    0.915E-02
RMM:  21    -0.232590479764E+04    0.13772E-04   -0.67020E-05 23499   0.150E-02    0.757E-02
RMM:  22    -0.232590478066E+04    0.16985E-04   -0.27674E-05 18276   0.114E-02    0.491E-02
RMM:  23    -0.232590477882E+04    0.18424E-05   -0.22128E-05 18027   0.746E-03
  12 F= -.23259048E+04 E0= -.23231270E+04  d E =-.164908E-01
       N       E                     dE             d eps       ncg     rms          rms(c)
DAV:   1    -0.232584285798E+04    0.61923E-01   -0.61238E+01 27600   0.821E+00    0.137E+00
RMM:   2    -0.234838565892E+04   -0.22543E+02   -0.24608E+00 29759   0.292E+00    0.635E+01
RMM:   3    -0.232657263738E+04    0.21813E+02   -0.65268E-01 28237   0.173E+00    0.710E+00
RMM:   4    -0.232827770247E+04   -0.17051E+01   -0.49122E-01 27939   0.149E+00    0.208E+01
RMM:   5    -0.232714047593E+04    0.11372E+01   -0.41990E-01 38968   0.693E-01    0.153E+01
RMM:   6    -0.232715935349E+04   -0.18878E-01   -0.53033E-01 30387   0.114E+00    0.153E+01
RMM:   7    -0.232719992736E+04   -0.40574E-01   -0.48941E-01 28746   0.131E+00    0.150E+01
RMM:   8    -0.232601636471E+04    0.11836E+01   -0.18575E-01 27685   0.100E+00    0.409E+00
RMM:   9    -0.232593779891E+04    0.78566E-01   -0.12110E-01 27666   0.776E-01    0.278E+00
RMM:  10    -0.232598727813E+04   -0.49479E-01   -0.13789E-01 30111   0.608E-01    0.405E+00
RMM:  11    -0.232592333616E+04    0.63942E-01   -0.49534E-02 27646   0.475E-01    0.210E+00
RMM:  12    -0.232590266852E+04    0.20668E-01   -0.27785E-02 29130   0.310E-01    0.907E-01
RMM:  13    -0.232590254556E+04    0.12296E-03   -0.24663E-02 37375   0.161E-01    0.800E-01
RMM:  14    -0.232590250618E+04    0.39377E-04   -0.11801E-02 33497   0.146E-01    0.746E-01
RMM:  15    -0.232590053600E+04    0.19702E-02   -0.38672E-03 29077   0.121E-01    0.428E-01
RMM:  16    -0.232590036086E+04    0.17514E-03   -0.32647E-03 32591   0.781E-02    0.356E-01
RMM:  17    -0.232590042321E+04   -0.62349E-04   -0.25600E-03 31572   0.777E-02    0.348E-01
RMM:  18    -0.232590003891E+04    0.38430E-03   -0.97320E-04 28475   0.675E-02    0.230E-01
RMM:  19    -0.232589996780E+04    0.71108E-04   -0.78250E-04 30574   0.473E-02    0.191E-01
RMM:  20    -0.232590011902E+04   -0.15122E-03   -0.96453E-04 32701   0.440E-02    0.235E-01
RMM:  21    -0.232589998088E+04    0.13814E-03   -0.31461E-04 28599   0.359E-02    0.171E-01
RMM:  22    -0.232589994884E+04    0.32039E-04   -0.31397E-04 32484   0.197E-02    0.138E-01
RMM:  23    -0.232589992312E+04    0.25713E-04   -0.18307E-04 30380   0.165E-02    0.107E-01
RMM:  24    -0.232589987784E+04    0.45287E-04   -0.10439E-04 26254   0.162E-02    0.480E-02
RMM:  25    -0.232589987560E+04    0.22386E-05   -0.56271E-05 21719   0.106E-02
  13 F= -.23258999E+04 E0= -.23231223E+04  d E =-.115875E-01
       N       E                     dE             d eps       ncg     rms          rms(c)
DAV:   1    -0.232588006385E+04    0.19814E-01   -0.29279E+01 27600   0.568E+00    0.895E-01
RMM:   2    -0.233621063516E+04   -0.10331E+02   -0.10230E+00 30020   0.183E+00    0.427E+01
RMM:   3    -0.232616251512E+04    0.10048E+02   -0.26637E-01 28062   0.113E+00    0.377E+00
RMM:   4    -0.232873891510E+04   -0.25764E+01   -0.23087E-01 29416   0.871E-01    0.228E+01
RMM:   5    -0.232628377558E+04    0.24551E+01   -0.16941E-01 31717   0.656E-01    0.780E+00
RMM:   6    -0.232672897616E+04   -0.44520E+00   -0.34200E-01 31628   0.862E-01    0.126E+01
RMM:   7    -0.232605985661E+04    0.66912E+00   -0.16301E-01 27614   0.916E-01    0.496E+00
RMM:   8    -0.232599928772E+04    0.60569E-01   -0.76096E-02 27795   0.591E-01    0.396E+00
RMM:   9    -0.232593186116E+04    0.67427E-01   -0.44847E-02 27880   0.433E-01    0.219E+00
RMM:  10    -0.232596148684E+04   -0.29626E-01   -0.74222E-02 30677   0.422E-01    0.316E+00
RMM:  11    -0.232591612674E+04    0.45360E-01   -0.23728E-02 27619   0.343E-01    0.130E+00
RMM:  12    -0.232590738907E+04    0.87377E-02   -0.94643E-03 27936   0.224E-01    0.609E-01
RMM:  13    -0.232590679412E+04    0.59495E-03   -0.79353E-03 35346   0.959E-02    0.433E-01
RMM:  14    -0.232590722114E+04   -0.42702E-03   -0.53539E-03 34819   0.887E-02    0.461E-01
RMM:  15    -0.232590665162E+04    0.56952E-03   -0.21365E-03 30203   0.769E-02    0.309E-01
RMM:  16    -0.232590644645E+04    0.20517E-03   -0.15614E-03 33072   0.545E-02    0.210E-01
RMM:  17    -0.232590658880E+04   -0.14234E-03   -0.13873E-03 31428   0.576E-02    0.249E-01
RMM:  18    -0.232590641203E+04    0.17677E-03   -0.48910E-04 28083   0.487E-02    0.178E-01
RMM:  19    -0.232590636038E+04    0.51648E-04   -0.33429E-04 29693   0.334E-02    0.147E-01
RMM:  20    -0.232590646553E+04   -0.10515E-03   -0.49203E-04 32680   0.313E-02    0.191E-01
RMM:  21    -0.232590640152E+04    0.64003E-04   -0.16950E-04 27959   0.263E-02    0.159E-01
RMM:  22    -0.232590637188E+04    0.29640E-04   -0.13986E-04 26689   0.152E-02    0.132E-01
RMM:  23    -0.232590633442E+04    0.37462E-04   -0.85256E-05 24429   0.122E-02    0.940E-02
RMM:  24    -0.232590629700E+04    0.37427E-04   -0.44467E-05 20654   0.122E-02    0.323E-02
RMM:  25    -0.232590629562E+04    0.13779E-05   -0.33867E-05 19413   0.766E-03
  14 F= -.23259063E+04 E0= -.23231285E+04  d E =-.180076E-01
       N       E                     dE             d eps       ncg     rms          rms(c)
DAV:   1    -0.232590711643E+04   -0.81943E-03   -0.96897E+00 27600   0.327E+00    0.570E-01
RMM:   2    -0.233069939593E+04   -0.47923E+01   -0.51233E-01 30680   0.120E+00    0.2