unknown system                          
            1
     9.726678    0.000000    0.000000
     0.000000    8.423550    0.000000
     0.000000    0.000000   45.000000
   Fe   Mn
 273  15
Direct configuration=     1
   0.93787847  0.12543854  0.65471389
   0.93731124  0.78132014  0.25627534
   0.43718917  0.78153133  0.25638857
   0.68782854  0.95801245  0.56562085
   0.56303200  0.37581423  0.65457942
   0.68709949  0.28169411  0.25641951
   0.18729138  0.12260952  0.52145199
   0.68830805  0.28086113  0.12511443
   0.31251389  0.20730221  0.56569620
   0.06270112  0.20759598  0.56564232
   0.43796482  0.12623922  0.65477407
   0.81233708  0.03636459  0.38953509
   0.18821733  0.96369490  0.83278467
   0.43785663  0.78140001  0.12495804
   0.31147891  0.87159902  0.52154253
   0.06186528  0.38181302  0.78767610
   0.31179565  0.36513396  0.16721081
   0.18788006  0.28608597  0.38946925
   0.18737912  0.62034591  0.43461169
   0.93816889  0.28005049  0.12498708
   0.68834168  0.94673898  0.21216137
   0.93848396  0.78091474  0.12526631
   0.31160437  0.38093043  0.78780618
   0.18707715  0.78101554  0.12515875
   0.93722852  0.62013143  0.43440070
   0.56254424  0.53655908  0.38948303
   0.06185610  0.71093016  0.69950841
   0.43779437  0.62250480  0.52145156
   0.56372334  0.52847808  0.12533897
   0.81308018  0.54612362  0.74356656
   0.43672836  0.11369936  0.16722362
   0.81306477  0.37534718  0.65471973
   0.31286995  0.02880053  0.12510706
   0.93792831  0.45771039  0.56578846
   0.18721514  0.29140081  0.61061477
   0.56284329  0.70391658  0.47867606
   0.31192816  0.20199537  0.34524184
   0.56330110  0.69665175  0.21245681
   0.81320598  0.52909416  0.12522629
   0.93656739  0.13138758  0.78766760
   0.56301757  0.86646115  0.30051436
   0.43761548  0.79202179  0.61056829
   0.43817146  0.62580767  0.65475001
   0.43810213  0.28131411  0.12526818
   0.06205973  0.70184700  0.34523846
   0.18810661  0.62570092  0.65469657
   0.93721710  0.12062853  0.43442137
   0.43684945  0.63121228  0.78780616
   0.31185315  0.70223686  0.34527858
   0.93820641  0.61625769  0.30056144
   0.56282267  0.19644153  0.21233501
   0.56303215  0.21357855  0.83276377
   0.18803832  0.44679029  0.21219202
   0.56177923  0.38112709  0.78772147
   0.43707700  0.28187659  0.25641499
   0.43729322  0.78599597  0.38943475
   0.43807195  0.96300808  0.83281134
   0.68720239  0.46129441  0.69941125
   0.06228543  0.53187480  0.25652636
   0.18683751  0.28065296  0.12517512
   0.06241795  0.54145052  0.61046859
   0.06229118  0.37040848  0.43431870
   0.68787610  0.11996451  0.43423031
   0.68732578  0.45174885  0.34510774
   0.18790292  0.11644510  0.30051939
   0.93712570  0.11579920  0.16713046
   0.68794048  0.62027916  0.43419446
   0.43744582  0.95781988  0.56561008
   0.93766582  0.45556786  0.47852353
   0.56224906  0.21116775  0.69943183
   0.56283218  0.87617450  0.65475247
   0.31224173  0.86420937  0.16698640
   0.18714169  0.11446993  0.16725279
   0.31235317  0.04193722  0.61058706
   0.18733405  0.78640382  0.38942854
   0.68775445  0.78591855  0.38946448
   0.18711016  0.95207982  0.34519885
   0.81283659  0.20534657  0.47858656
   0.68701247  0.61513751  0.16733119
   0.68703661  0.79777548  0.87478110
   0.81196829  0.04838193  0.87478240
   0.06256572  0.37268643  0.52156788
   0.81237641  0.86608256  0.30072250
   0.81314261  0.21326204  0.83278287
   0.31204793  0.20514283  0.47850263
   0.06312761  0.02897588  0.12520176
   0.68781459  0.95572025  0.47864417
   0.43802219  0.29773472  0.87471001
   0.93675032  0.63153768  0.78780478
   0.81246894  0.86984247  0.43441603
   0.56205038  0.53183189  0.25643536
   0.43722000  0.79774320  0.87480955
   0.56227912  0.04183388  0.61054088
   0.31293220  0.53689780  0.38950225
   0.06304531  0.36668981  0.30068866
   0.31221114  0.21116595  0.69937638
   0.56271349  0.36686218  0.30072781
   0.81193359  0.54907821  0.87467268
   0.06265091  0.53638264  0.38951412
   0.81266022  0.36629131  0.30056312
   0.06213346  0.54837804  0.87470245
   0.93710145  0.46108489  0.69939705
   0.31260438  0.37010699  0.43424740
   0.31191232  0.37248181  0.52150258
   0.06086685  0.70540580  0.47881693
   0.43711953  0.61981028  0.43416957
   0.06291324  0.54612812  0.74355573
   0.06296635  0.87540928  0.65473513
   0.18737587  0.78149860  0.25640032
   0.18745500  0.79176031  0.61063579
   0.93697946  0.12261192  0.52151534
   0.68773842  0.79619603  0.74359960
   0.06275999  0.20553902  0.47861390
   0.56293172  0.71327406  0.83274355
   0.18784462  0.79603371  0.74360301
   0.93663752  0.79732852  0.87468008
   0.06210810  0.03168721  0.25649478
   0.31230530  0.54906547  0.87467435
   0.56272140  0.02854633  0.12503653
   0.56280304  0.37307921  0.52154695
   0.43710366  0.95636762  0.47859412
   0.18713573  0.61385798  0.16715280
   0.81224295  0.70212816  0.34519878
   0.43803573  0.79591669  0.74365604
   0.18768256  0.79721779  0.87468659
   0.81271485  0.53582441  0.38951951
   0.81227875  0.53138084  0.25627445
   0.93692809  0.61472203  0.16717986
   0.43661005  0.13132546  0.78789747
   0.93719866  0.96128117  0.69943000
   0.81171885  0.88155387  0.78779018
   0.31217883  0.53165413  0.25633252
   0.68719139  0.96185242  0.69944835
   0.18797838  0.94578211  0.21202938
   0.31268291  0.04611405  0.74351399
   0.06252610  0.03570411  0.38945415
   0.68778231  0.29621467  0.74354701
   0.93717411  0.29735292  0.87488754
   0.93776638  0.62300513  0.52140904
   0.43796288  0.94586028  0.21217199
   0.31175202  0.87009623  0.43432231
   0.43744776  0.61423875  0.16732939
   0.31282789  0.03600174  0.38949043
   0.31289694  0.37548328  0.65478483
   0.81290610  0.87181127  0.52140874
   0.68709139  0.29154544  0.61055040
   0.43726877  0.29159108  0.61058977
   0.81300665  0.02935841  0.12522902
   0.06242187  0.87018599  0.43423698
   0.56190007  0.88121683  0.78785440
   0.06297686  0.71360342  0.83267484
   0.43717217  0.45715099  0.56555573
   0.18680863  0.63147386  0.78787467
   0.93824254  0.94640889  0.21197211
   0.31338271  0.70773398  0.56566698
   0.18754472  0.61620824  0.30053455
   0.31228656  0.54197769  0.61060412
   0.93686065  0.28162203  0.25642463
   0.18828421  0.12572002  0.65472319
   0.31299850  0.19598333  0.21241482
   0.43864551  0.12188595  0.52135180
   0.06282403  0.87205225  0.52152596
   0.43760526  0.61621903  0.30055460
   0.68845590  0.44672859  0.21206042
   0.31292849  0.87607777  0.65489325
   0.81291755  0.69714325  0.21220117
   0.81236230  0.20770049  0.56568573
   0.31220691  0.04805648  0.87481343
   0.06359501  0.19697002  0.21217504
   0.93748524  0.29177052  0.61068238
   0.68681469  0.78141502  0.25650425
   0.93807558  0.28620955  0.38955755
   0.06286207  0.04628864  0.74364197
   0.43797986  0.29601302  0.74356656
   0.18813758  0.95567331  0.47849586
   0.93800108  0.29615588  0.74362751
   0.81242344  0.03158227  0.25640869
   0.06203791  0.86452955  0.16726432
   0.93844278  0.46352855  0.83267206
   0.43739472  0.28637608  0.38955834
   0.68806663  0.61636069  0.30046038
   0.18759378  0.95750213  0.56563580
   0.31303128  0.36663817  0.30066422
   0.18748693  0.45431660  0.47866858
   0.56204157  0.71159051  0.69941783
   0.56286085  0.54615052  0.74353293
   0.81198518  0.86493729  0.16720071
   0.56211253  0.37000623  0.43456484
   0.31315446  0.86615174  0.30061058
   0.68796389  0.62584999  0.65476001
   0.81251865  0.71330699  0.83271839
   0.68675253  0.62264421  0.52142838
   0.68678374  0.63126455  0.78781089
   0.68766095  0.96290331  0.83270849
   0.93760418  0.96353301  0.83272623
   0.56205548  0.54872370  0.87475316
   0.06227887  0.20173275  0.34523837
   0.43817763  0.44671833  0.21216920
   0.18726434  0.96142769  0.69949591
   0.06213992  0.04884348  0.87492726
   0.81291927  0.87550290  0.65485841
   0.43740435  0.45554504  0.47852043
   0.93710607  0.45147463  0.34526742
   0.93788375  0.44652205  0.21212670
   0.18701858  0.13112408  0.78773523
   0.68722045  0.95277921  0.34520535
   0.68686860  0.12249807  0.52155499
   0.81236399  0.04203213  0.61071822
   0.18693589  0.45150157  0.34517747
   0.31348153  0.71340238  0.83270878
   0.93816396  0.78611629  0.38946351
   0.56178365  0.20226497  0.34528368
   0.93710156  0.79223699  0.61063766
   0.68734865  0.79203008  0.61061796
   0.56214692  0.03187538  0.25633759
   0.56170656  0.36445585  0.16715857
   0.56202606  0.04834864  0.87474948
   0.68752822  0.11479623  0.16715490
   0.06271772  0.36428550  0.16714825
   0.06159576  0.88149568  0.78781312
   0.68733385  0.45567019  0.47866769
   0.06227615  0.04196255  0.61068607
   0.68803446  0.46345699  0.83272062
   0.56239621  0.87009589  0.43457645
   0.68750502  0.45689831  0.56549045
   0.06282671  0.69735593  0.21238147
   0.93739986  0.95799506  0.56560170
   0.68778434  0.78108071  0.12503971
   0.81246754  0.36442437  0.16708762
   0.31195104  0.88120745  0.78775190
   0.31214455  0.03197660  0.25640059
   0.18709222  0.29741824  0.87492457
   0.31344283  0.69677738  0.21222828
   0.43742177  0.95248726  0.34522633
   0.31280618  0.21343732  0.83276070
   0.81260799  0.37161838  0.52146827
   0.06271673  0.37480061  0.65483541
   0.31330344  0.70597275  0.47865713
   0.31264302  0.54601594  0.74354642
   0.43767021  0.11683808  0.30052178
   0.43705218  0.46166728  0.69941463
   0.93671491  0.95484255  0.47848469
   0.81198684  0.70793616  0.56567030
   0.81274503  0.20236913  0.34524917
   0.68687803  0.13144077  0.78784654
   0.56250351  0.70742541  0.56550860
   0.43727854  0.45250720  0.34518168
   0.93705722  0.95229033  0.34525370
   0.81200715  0.71123987  0.69945025
   0.68782784  0.12593926  0.65476361
   0.56324260  0.03588537  0.38934273
   0.43786853  0.46347886  0.83276674
   0.18780217  0.45729598  0.56553502
   0.06187428  0.21113231  0.69938285
   0.68637183  0.29752309  0.87470104
   0.06200257  0.52842850  0.12521664
   0.93824166  0.11655052  0.30049107
   0.81204734  0.38136713  0.78774600
   0.56212342  0.20450430  0.47861522
   0.18726405  0.28209145  0.25644978
   0.56224657  0.54141841  0.61064362
   0.81238141  0.37051007  0.43448344
   0.56273944  0.20711148  0.56563125
   0.93770489  0.79594534  0.74353631
   0.81180730  0.21104491  0.69938650
   0.43673270  0.96183983  0.69936397
   0.18736512  0.12041444  0.43447331
   0.81308354  0.04641736  0.74359449
   0.81237571  0.54182840  0.61057564
   0.18770393  0.29618447  0.74355015
   0.18695661  0.46142802  0.69943547
   0.81295928  0.70584519  0.47854012
   0.18746508  0.46347817  0.83270935
   0.06303272  0.86608660  0.30060113
   0.06204287  0.70783333  0.56573424
   0.56223420  0.86522584  0.16665067
   0.68794094  0.11715953  0.30051690
   0.43723230  0.12031822  0.43422213
   0.56325589  0.04645800  0.74362640
   0.31290951  0.52874723  0.12554419
   0.68765951  0.28553897  0.38942007
   0.56208191  0.70254714  0.34531149
   0.93788437  0.62523610  0.65470206
   0.06316326  0.21317041  0.83326626
   0.31198029  0.71137358  0.69941947
   0.18739827  0.62293868  0.52141471
   0.81313743  0.19709397  0.21238782
   0.56250981  0.87203087  0.52148914
Direct configuration=     2
   0.93788513  0.12555948  0.65469013
   0.93748233  0.78138647  0.25613273
   0.43716754  0.78159537  0.25634499
   0.68779274  0.95847617  0.56563539
   0.56316213  0.37563375  0.65452640
   0.68700478  0.28169978  0.25626965
   0.18735156  0.12255602  0.52154374
   0.68808302  0.28073145  0.12510694
   0.31245627  0.20717298  0.56572255
   0.06279905  0.20732139  0.56568460
   0.43789459  0.12645965  0.65467988
   0.81210999  0.03612401  0.38952651
   0.18758157  0.96419790  0.83276453
   0.43785715  0.78161726  0.12502979
   0.31144631  0.87222495  0.52160642
   0.06166642  0.38147049  0.78791585
   0.31224179  0.36498559  0.16727506
   0.18815108  0.28613538  0.38950660
   0.18744817  0.62055276  0.43454449
   0.93751809  0.27977704  0.12507594
   0.68854559  0.94700116  0.21207058
   0.93848348  0.78115042  0.12515786
   0.31130930  0.38073844  0.78798130
   0.18652796  0.78147908  0.12504841
   0.93725367  0.62021616  0.43429715
   0.56224192  0.53683514  0.38953425
   0.06163239  0.71103126  0.69949092
   0.43753692  0.62225967  0.52150116
   0.56413884  0.52849751  0.12537156
   0.81320455  0.54622152  0.74356758
   0.43700125  0.11369624  0.16726426
   0.81306157  0.37502613  0.65471729
   0.31274959  0.02884399  0.12509699
   0.93793956  0.45715524  0.56578331
   0.18727211  0.29107946  0.61056884
   0.56262230  0.70441548  0.47850418
   0.31218655  0.20186625  0.34535816
   0.56352165  0.69650108  0.21234869
   0.81292414  0.52979877  0.12521438
   0.93657069  0.13110407  0.78794224
   0.56283980  0.86671114  0.30046614
   0.43736182  0.79217483  0.61050805
   0.43804989  0.62564360  0.65474081
   0.43855003  0.28106531  0.12533258
   0.06218984  0.70171085  0.34535941
   0.18787318  0.62572513  0.65468206
   0.93726790  0.12053943  0.43440007
   0.43701729  0.63150390  0.78792854
   0.31194592  0.70222283  0.34542274
   0.93832011  0.61624078  0.30047179
   0.56274955  0.19671597  0.21223037
   0.56329413  0.21321169  0.83280510
   0.18792179  0.44692741  0.21225436
   0.56216045  0.38089109  0.78787541
   0.43701042  0.28189835  0.25630890
   0.43719609  0.78618021  0.38951870
   0.43803989  0.96306624  0.83280538
   0.68748473  0.46120879  0.69934082
   0.06243308  0.53172134  0.25637698
   0.18719091  0.28008631  0.12517554
   0.06248387  0.54127605  0.61047322
   0.06235873  0.37048774  0.43426982
   0.68796911  0.11985053  0.43421400
   0.68732229  0.45153256  0.34524590
   0.18792177  0.11653301  0.30042137
   0.93693691  0.11529307  0.16720804
   0.68777922  0.62044740  0.43409908
   0.43726459  0.95801233  0.56563900
   0.93770939  0.45537648  0.47850070
   0.56269034  0.21128431  0.69934026
   0.56278086  0.87647196  0.65477051
   0.31225995  0.86437229  0.16696708
   0.18727219  0.11410047  0.16727106
   0.31216367  0.04228825  0.61051912
   0.18783546  0.78630257  0.38950596
   0.68733455  0.78600646  0.38951013
   0.18741323  0.95205582  0.34531393
   0.81260288  0.20516819  0.47852085
   0.68715555  0.61501738  0.16738503
   0.68735518  0.79796626  0.87477784
   0.81226513  0.04826699  0.87479232
   0.06249497  0.37259541  0.52160814
   0.81238225  0.86626193  0.30072062
   0.81363312  0.21292511  0.83281947
   0.31205800  0.20516655  0.47849077
   0.06315849  0.02810800  0.12512346
   0.68755598  0.95559807  0.47852686
   0.43811727  0.29759081  0.87474512
   0.93665944  0.63164536  0.78801738
   0.81235851  0.86993700  0.43435962
   0.56192394  0.53158215  0.25630856
   0.43760659  0.79770932  0.87478619
   0.56235154  0.04246849  0.61047754
   0.31306973  0.53718676  0.38954547
   0.06324416  0.36672041  0.30058717
   0.31200890  0.21118637  0.69928477
   0.56236990  0.36678432  0.30065964
   0.81206340  0.54912089  0.87465795
   0.06279482  0.53647531  0.38955706
   0.81278865  0.36622736  0.30050785
   0.06192726  0.54810582  0.87466635
   0.93702282  0.46099925  0.69933546
   0.31254884  0.37027997  0.43417300
   0.31227320  0.37241404  0.52154916
   0.06155125  0.70547467  0.47868021
   0.43719548  0.62020597  0.43403077
   0.06280242  0.54634089  0.74354488
   0.06289957  0.87580071  0.65472718
   0.18731964  0.78141440  0.25632359
   0.18728490  0.79200738  0.61061569
   0.93724355  0.12263486  0.52156365
   0.68788884  0.79630202  0.74363407
   0.06272964  0.20520679  0.47855475
   0.56331306  0.71360377  0.83277736
   0.18768252  0.79607645  0.74364377
   0.93647166  0.79767477  0.87465884
   0.06214113  0.03183386  0.25638303
   0.31212500  0.54882719  0.87469117
   0.56296221  0.02884265  0.12504335
   0.56243151  0.37272667  0.52157640
   0.43718973  0.95575052  0.47850472
   0.18723788  0.61402031  0.16717919
   0.81225856  0.70229315  0.34532127
   0.43788093  0.79589746  0.74371018
   0.18727802  0.79739865  0.87465005
   0.81263777  0.53609922  0.38955035
   0.81246527  0.53127827  0.25610065
   0.93650646  0.61502517  0.16723343
   0.43661901  0.13088449  0.78807373
   0.93726336  0.96137121  0.69938489
   0.81188092  0.88164989  0.78803582
   0.31209086  0.53137687  0.25625606
   0.68750769  0.96181599  0.69943780
   0.18757775  0.94589956  0.21199415
   0.31244822  0.04557891  0.74356994
   0.06279559  0.03556043  0.38952718
   0.68816403  0.29611265  0.74355604
   0.93741961  0.29692837  0.87481150
   0.93752099  0.62252222  0.52142176
   0.43799640  0.94632093  0.21210220
   0.31185024  0.87009977  0.43419013
   0.43782687  0.61391111  0.16736223
   0.31309357  0.03565219  0.38953445
   0.31277716  0.37545081  0.65472138
   0.81302551  0.87222771  0.52145708
   0.68712617  0.29132982  0.61051878
   0.43737225  0.29148975  0.61051481
   0.81272359  0.02891249  0.12517047
   0.06261571  0.87029910  0.43421129
   0.56223012  0.88120596  0.78805335
   0.06258036  0.71391105  0.83271116
   0.43715356  0.45675508  0.56555881
   0.18664679  0.63155371  0.78802138
   0.93819460  0.94636980  0.21191324
   0.31347250  0.70768433  0.56568248
   0.18771343  0.61618429  0.30043972
   0.31220264  0.54163279  0.61054838
   0.93711299  0.28170769  0.25629012
   0.18786847  0.12575729  0.65465664
   0.31303925  0.19620933  0.21238548
   0.43808847  0.12247490  0.52142243
   0.06285282  0.87277456  0.52152367
   0.43723193  0.61612980  0.30046774
   0.68844061  0.44678383  0.21195161
   0.31255021  0.87633084  0.65484448
   0.81304148  0.69711475  0.21206591
   0.81235445  0.20751434  0.56575915
   0.31189276  0.04804956  0.87476166
   0.06352588  0.19703729  0.21218958
   0.93740808  0.29135779  0.61067119
   0.68689524  0.78162229  0.25636792
   0.93812945  0.28640185  0.38957728
   0.06265933  0.04604378  0.74366437
   0.43790131  0.29603456  0.74359737
   0.18791280  0.95550966  0.47840862
   0.93793937  0.29602615  0.74362745
   0.81250676  0.03169068  0.25627832
   0.06174495  0.86426591  0.16724721
   0.93850244  0.46323606  0.83270959
   0.43723191  0.28637502  0.38954052
   0.68803558  0.61635397  0.30037019
   0.18760023  0.95793809  0.56565738
   0.31298198  0.36670902  0.30056284
   0.18751516  0.45451559  0.47859088
   0.56231788  0.71156141  0.69943067
   0.56290823  0.54647195  0.74352736
   0.81206203  0.86454200  0.16719720
   0.56212516  0.37033018  0.43452186
   0.31311376  0.86612743  0.30055038
   0.68803293  0.62555642  0.65481190
   0.81251148  0.71370799  0.83274902
   0.68721467  0.62251090  0.52143872
   0.68705631  0.63151047  0.78800539
   0.68807351  0.96285184  0.83270402
   0.93770488  0.96397773  0.83272147
   0.56244259  0.54876622  0.87479862
   0.06222556  0.20168079  0.34529090
   0.43824405  0.44647734  0.21211823
   0.18691132  0.96132688  0.69945115
   0.06170364  0.04910927  0.87483324
   0.81323757  0.87601151  0.65486992
   0.43727285  0.45521457  0.47848636
   0.93704812  0.45141736  0.34539607
   0.93775216  0.44689218  0.21209745
   0.18678310  0.13083190  0.78797973
   0.68723619  0.95291087  0.34532646
   0.68712190  0.12274586  0.52160474
   0.81258335  0.04258644  0.61069562
   0.18713931  0.45154029  0.34527866
   0.31331573  0.71377969  0.83274555
   0.93812024  0.78594379  0.38951294
   0.56180561  0.20190778  0.34539008
   0.93748228  0.79254707  0.61064023
   0.68746002  0.79224992  0.61058306
   0.56218103  0.03206933  0.25624672
   0.56198540  0.36431467  0.16720999
   0.56261177  0.04813173  0.87477750
   0.68748337  0.11486382  0.16717365
   0.06258321  0.36442309  0.16726156
   0.06142942  0.88163304  0.78803569
   0.68738219  0.45529305  0.47858795
   0.06225849  0.04214548  0.61065997
   0.68839375  0.46366599  0.83277841
   0.56226781  0.86989987  0.43447857
   0.68729005  0.45642864  0.56555302
   0.06252979  0.69732912  0.21231724
   0.93757559  0.95850828  0.56565097
   0.68826775  0.78109999  0.12506799
   0.81202520  0.36463534  0.16718381
   0.31181323  0.88131310  0.78791323
   0.31218538  0.03221118  0.25632054
   0.18643506  0.29713325  0.87484550
   0.31324210  0.69658127  0.21218404
   0.43758476  0.95255137  0.34539697
   0.31215053  0.21325951  0.83278644
   0.81270468  0.37183807  0.52147450
   0.06253561  0.37463577  0.65481842
   0.31311878  0.70585734  0.47852983
   0.31242886  0.54632173  0.74357645
   0.43752883  0.11679705  0.30045945
   0.43721609  0.46173796  0.69933294
   0.93710616  0.95509735  0.47840351
   0.81194377  0.70784976  0.56565675
   0.81267537  0.20199175  0.34531668
   0.68731538  0.13097262  0.78804855
   0.56224761  0.70728920  0.56551868
   0.43728623  0.45224513  0.34531726
   0.93670007  0.95234263  0.34530276
   0.81222366  0.71119124  0.69943998
   0.68811752  0.12628251  0.65471011
   0.56285782  0.03538675  0.38932883
   0.43786111  0.46375381  0.83283883
   0.18797826  0.45677241  0.56556354
   0.06154612  0.21107763  0.69930630
   0.68681171  0.29736924  0.87473995
   0.06166549  0.52966292  0.12521497
   0.93825450  0.11650023  0.30043001
   0.81232744  0.38100885  0.78796257
   0.56238010  0.20481767  0.47857155
   0.18734512  0.28220031  0.25635391
   0.56220549  0.54073074  0.61058159
   0.81238904  0.37065456  0.43446491
   0.56267689  0.20722497  0.56570976
   0.93770430  0.79606678  0.74356781
   0.81203649  0.21110098  0.69930199
   0.43684198  0.96168386  0.69935431
   0.18736847  0.12023814  0.43440702
   0.81318743  0.04621125  0.74363047
   0.81252622  0.54124225  0.61058044
   0.18729205  0.29613440  0.74357434
   0.18672821  0.46151409  0.69938176
   0.81265187  0.70561608  0.47845377
   0.18685644  0.46321375  0.83276093
   0.06315862  0.86620926  0.30048864
   0.06222211  0.70808159  0.56584418
   0.56273111  0.86522633  0.16658367
   0.68784980  0.11687080  0.30048243
   0.43708178  0.12006959  0.43405986
   0.56347736  0.04608394  0.74369955
   0.31297096  0.52911904  0.12558998
   0.68732616  0.28555190  0.38941964
   0.56194880  0.70281457  0.34555754
   0.93800697  0.62519740  0.65475574
   0.06275426  0.21283113  0.83344006
   0.31180673  0.71135037  0.69942125
   0.18751676  0.62262768  0.52137112
   0.81306712  0.19728983  0.21226868
   0.56239538  0.87229684  0.52152620
Direct configuration=     3
   0.93788418  0.12554228  0.65469351
   0.93745800  0.78137703  0.25615301
   0.43717062  0.78158626  0.25635118
   0.68779783  0.95841022  0.56563332
   0.56314362  0.37565942  0.65453394
   0.68701825  0.28169898  0.25629097
   0.18734301  0.12256363  0.52153070
   0.68811502  0.28074989  0.12510801
   0.31246446  0.20719136  0.56571880
   0.06278512  0.20736044  0.56567859
   0.43790458  0.12642830  0.65469327
   0.81214228  0.03615823  0.38952773
   0.18767199  0.96412637  0.83276740
   0.43785708  0.78158636  0.12501958
   0.31145095  0.87213593  0.52159734
   0.06169470  0.38151920  0.78788176
   0.31217834  0.36500669  0.16726592
   0.18811254  0.28612835  0.38950128
   0.18743835  0.62052334  0.43455405
   0.93761064  0.27981593  0.12506331
   0.68851660  0.94696387  0.21208349
   0.93848355  0.78111690  0.12517329
   0.31135126  0.38076574  0.78795640
   0.18660606  0.78141316  0.12506410
   0.93725009  0.62020411  0.43431188
   0.56228491  0.53679588  0.38952696
   0.06166420  0.71101688  0.69949340
   0.43757353  0.62229453  0.52149410
   0.56407975  0.52849475  0.12536693
   0.81318686  0.54620760  0.74356744
   0.43696244  0.11369669  0.16725848
   0.81306203  0.37507179  0.65471763
   0.31276671  0.02883781  0.12509843
   0.93793796  0.45723419  0.56578404
   0.18726401  0.29112516  0.61057537
   0.56265372  0.70434453  0.47852862
   0.31214980  0.20188461  0.34534162
   0.56349028  0.69652251  0.21236407
   0.81296422  0.52969856  0.12521607
   0.93657022  0.13114439  0.78790319
   0.56286508  0.86667559  0.30047300
   0.43739790  0.79215306  0.61051662
   0.43806717  0.62566694  0.65474212
   0.43848633  0.28110070  0.12532342
   0.06217134  0.70173021  0.34534221
   0.18790637  0.62572169  0.65468412
   0.93726067  0.12055210  0.43440310
   0.43699342  0.63146242  0.78791114
   0.31193272  0.70222482  0.34540224
   0.93830394  0.61624319  0.30048454
   0.56275995  0.19667695  0.21224525
   0.56325687  0.21326386  0.83279923
   0.18793836  0.44690791  0.21224550
   0.56210624  0.38092465  0.78785352
   0.43701989  0.28189526  0.25632399
   0.43720990  0.78615401  0.38950676
   0.43804445  0.96305797  0.83280623
   0.68744458  0.46122097  0.69935084
   0.06241208  0.53174316  0.25639823
   0.18714065  0.28016690  0.12517548
   0.06247450  0.54130086  0.61047256
   0.06234912  0.37047647  0.43427677
   0.68795588  0.11986674  0.43421632
   0.68732278  0.45156332  0.34522625
   0.18791909  0.11652051  0.30043531
   0.93696376  0.11536505  0.16719701
   0.68780216  0.62042348  0.43411265
   0.43729036  0.95798496  0.56563489
   0.93770319  0.45540370  0.47850394
   0.56262759  0.21126774  0.69935328
   0.56278816  0.87642966  0.65476795
   0.31225735  0.86434912  0.16696982
   0.18725363  0.11415301  0.16726846
   0.31219062  0.04223832  0.61052878
   0.18776415  0.78631697  0.38949495
   0.68739427  0.78599395  0.38950364
   0.18737013  0.95205923  0.34529756
   0.81263611  0.20519356  0.47853020
   0.68713520  0.61503447  0.16737737
   0.68730988  0.79793913  0.87477830
   0.81222292  0.04828334  0.87479091
   0.06250503  0.37260836  0.52160242
   0.81238142  0.86623642  0.30072089
   0.81356337  0.21297303  0.83281427
   0.31205657  0.20516318  0.47849245
   0.06315410  0.02823142  0.12513460
   0.68759275  0.95561545  0.47854354
   0.43810375  0.29761128  0.87474013
   0.93667236  0.63163004  0.78798714
   0.81237421  0.86992356  0.43436764
   0.56194192  0.53161767  0.25632659
   0.43755161  0.79771414  0.87478951
   0.56234124  0.04237824  0.61048654
   0.31305017  0.53714567  0.38953932
   0.06321588  0.36671606  0.30060160
   0.31203766  0.21118347  0.69929780
   0.56241876  0.36679539  0.30066933
   0.81204494  0.54911482  0.87466004
   0.06277435  0.53646213  0.38955095
   0.81277039  0.36623646  0.30051571
   0.06195658  0.54814454  0.87467148
   0.93703401  0.46101143  0.69934422
   0.31255674  0.37025537  0.43418358
   0.31222188  0.37242368  0.52154254
   0.06145392  0.70546488  0.47869965
   0.43718468  0.62014970  0.43405051
   0.06281818  0.54631063  0.74354642
   0.06290907  0.87574504  0.65472831
   0.18732763  0.78142638  0.25633450
   0.18730909  0.79197224  0.61061855
   0.93720599  0.12263160  0.52155678
   0.68786745  0.79628695  0.74362917
   0.06273396  0.20525404  0.47856316
   0.56325883  0.71355688  0.83277255
   0.18770557  0.79607037  0.74363798
   0.93649525  0.79762553  0.87466186
   0.06213643  0.03181301  0.25639892
   0.31215064  0.54886108  0.87468878
   0.56292797  0.02880051  0.12504238
   0.56248435  0.37277681  0.52157221
   0.43717749  0.95583828  0.47851743
   0.18722335  0.61399722  0.16717544
   0.81225634  0.70226969  0.34530385
   0.43790294  0.79590019  0.74370248
   0.18733555  0.79737293  0.87465525
   0.81264873  0.53606014  0.38954596
   0.81243874  0.53129285  0.25612537
   0.93656642  0.61498206  0.16722581
   0.43661774  0.13094720  0.78804866
   0.93725416  0.96135841  0.69939131
   0.81185787  0.88163624  0.78800089
   0.31210337  0.53141630  0.25626694
   0.68746270  0.96182117  0.69943930
   0.18763472  0.94588286  0.21199916
   0.31248159  0.04565502  0.74356198
   0.06275726  0.03558086  0.38951680
   0.68810974  0.29612716  0.74355476
   0.93738470  0.29698875  0.87482231
   0.93755588  0.62259090  0.52141995
   0.43799163  0.94625542  0.21211212
   0.31183627  0.87009927  0.43420892
   0.43777295  0.61395771  0.16735756
   0.31305579  0.03570190  0.38952819
   0.31279419  0.37545543  0.65473040
   0.81300853  0.87216849  0.52145020
   0.68712122  0.29136048  0.61052328
   0.43735753  0.29150416  0.61052547
   0.81276384  0.02897590  0.12517879
   0.06258814  0.87028301  0.43421494
   0.56218318  0.88120751  0.78802506
   0.06263675  0.71386730  0.83270600
   0.43715621  0.45681138  0.56555837
   0.18666981  0.63154236  0.78800052
   0.93820142  0.94637536  0.21192161
   0.31345973  0.70769139  0.56568027
   0.18768944  0.61618769  0.30045320
   0.31221457  0.54168184  0.61055631
   0.93707710  0.28169551  0.25630925
   0.18792760  0.12575199  0.65466610
   0.31303346  0.19617719  0.21238965
   0.43816769  0.12239115  0.52141239
   0.06284873  0.87267184  0.52152399
   0.43728502  0.61614249  0.30048010
   0.68844278  0.44677598  0.21196708
   0.31260400  0.87629485  0.65485142
   0.81302386  0.69711880  0.21208514
   0.81235557  0.20754081  0.56574871
   0.31193744  0.04805054  0.87476902
   0.06353571  0.19702772  0.21218752
   0.93741906  0.29141649  0.61067278
   0.68688379  0.78159282  0.25638731
   0.93812179  0.28637450  0.38957447
   0.06268816  0.04607860  0.74366119
   0.43791248  0.29603150  0.74359299
   0.18794476  0.95553294  0.47842103
   0.93794814  0.29604460  0.74362746
   0.81249491  0.03167527  0.25629686
   0.06178662  0.86430340  0.16724964
   0.93849395  0.46327765  0.83270425
   0.43725507  0.28637517  0.38954305
   0.68804000  0.61635492  0.30038302
   0.18759931  0.95787609  0.56565432
   0.31298899  0.36669895  0.30057725
   0.18751115  0.45448729  0.47860193
   0.56227859  0.71156555  0.69942885
   0.56290149  0.54642624  0.74352815
   0.81205110  0.86459822  0.16719770
   0.56212337  0.37028411  0.43452797
   0.31311955  0.86613088  0.30055894
   0.68802312  0.62559817  0.65480452
   0.81251250  0.71365096  0.83274466
   0.68714894  0.62252985  0.52143725
   0.68701755  0.63147550  0.78797773
   0.68801484  0.96285916  0.83270465
   0.93769056  0.96391449  0.83272215
   0.56238754  0.54876017  0.87479216
   0.06223314  0.20168818  0.34528343
   0.43823460  0.44651162  0.21212548
   0.18696152  0.96134122  0.69945752
   0.06176569  0.04907147  0.87484661
   0.81319230  0.87593918  0.65486829
   0.43729155  0.45526157  0.47849120
   0.93705636  0.45142551  0.34537777
   0.93777087  0.44683954  0.21210161
   0.18681659  0.13087346  0.78794496
   0.68723395  0.95289214  0.34530924