 288 288   0   0
  0.1280206E+02  0.9726678E-09  0.8423550E-09  0.4500000E-08  0.2500000E-15
  1.000000000000000E-004
  CAR 
 unknown system                          
      6.80948110     -6.02594007  301      4.31573871      1.00000000
     -6.026  0.0000E+00  0.0000E+00
     -5.983  0.0000E+00  0.0000E+00
     -5.940  0.0000E+00  0.0000E+00
     -5.898  0.0000E+00  0.0000E+00
     -5.855  0.0000E+00  0.0000E+00
     -5.812  0.0000E+00  0.0000E+00
     -5.769  0.0000E+00  0.0000E+00
     -5.726  0.0000E+00  0.0000E+00
     -5.684  0.0000E+00  0.0000E+00
     -5.641  0.0000E+00  0.0000E+00
     -5.598  0.0000E+00  0.0000E+00
     -5.555  0.0000E+00  0.0000E+00
     -5.513  0.0000E+00  0.0000E+00
     -5.470  0.0000E+00  0.0000E+00
     -5.427  0.0000E+00  0.0000E+00
     -5.384  0.1622E-15  0.6939E-17
     -5.341  0.4217E-14  0.1874E-15
     -5.299  0.8988E-13  0.4033E-14
     -5.256  0.1640E-11  0.7419E-13
     -5.213  0.2547E-10  0.1164E-11
     -5.170  0.3368E-09  0.1558E-10
     -5.127  0.3794E-08  0.1779E-09
     -5.085  0.3640E-07  0.1735E-08
     -5.042  0.2976E-06  0.1447E-07
     -4.999  0.2075E-05  0.1033E-06
     -4.956  0.1235E-04  0.6317E-06
     -4.914  0.6285E-04  0.3321E-05
     -4.871  0.2740E-03  0.1504E-04
     -4.828  0.1027E-02  0.5897E-04
     -4.785  0.3323E-02  0.2012E-03
     -4.742  0.9354E-02  0.6014E-03
     -4.700  0.2311E-01  0.1590E-02
     -4.657  0.5068E-01  0.3759E-02
     -4.614  0.9997E-01  0.8036E-02
     -4.571  0.1796E+00  0.1572E-01
     -4.528  0.2972E+00  0.2844E-01
     -4.486  0.4563E+00  0.4796E-01
     -4.443  0.6540E+00  0.7594E-01
     -4.400  0.8791E+00  0.1136E+00
     -4.357  0.1113E+01  0.1612E+00
     -4.315  0.1334E+01  0.2182E+00
     -4.272  0.1519E+01  0.2832E+00
     -4.229  0.1657E+01  0.3542E+00
     -4.186  0.1750E+01  0.4290E+00
     -4.143  0.1815E+01  0.5067E+00
     -4.101  0.1880E+01  0.5871E+00
     -4.058  0.1978E+01  0.6718E+00
     -4.015  0.2132E+01  0.7630E+00
     -3.972  0.2343E+01  0.8632E+00
     -3.929  0.2592E+01  0.9741E+00
     -3.887  0.2841E+01  0.1096E+01
     -3.844  0.3044E+01  0.1226E+01
     -3.801  0.3166E+01  0.1361E+01
     -3.758  0.3197E+01  0.1498E+01
     -3.716  0.3154E+01  0.1633E+01
     -3.673  0.3084E+01  0.1765E+01
     -3.630  0.3043E+01  0.1895E+01
     -3.587  0.3075E+01  0.2027E+01
     -3.544  0.3200E+01  0.2164E+01
     -3.502  0.3406E+01  0.2309E+01
     -3.459  0.3653E+01  0.2466E+01
     -3.416  0.3893E+01  0.2632E+01
     -3.373  0.4079E+01  0.2807E+01
     -3.331  0.4187E+01  0.2986E+01
     -3.288  0.4216E+01  0.3166E+01
     -3.245  0.4192E+01  0.3346E+01
     -3.202  0.4161E+01  0.3524E+01
     -3.159  0.4171E+01  0.3702E+01
     -3.117  0.4260E+01  0.3884E+01
     -3.074  0.4434E+01  0.4074E+01
     -3.031  0.4671E+01  0.4274E+01
     -2.988  0.4927E+01  0.4485E+01
     -2.945  0.5150E+01  0.4705E+01
     -2.903  0.5303E+01  0.4932E+01
     -2.860  0.5372E+01  0.5162E+01
     -2.817  0.5381E+01  0.5392E+01
     -2.774  0.5379E+01  0.5622E+01
     -2.732  0.5417E+01  0.5854E+01
     -2.689  0.5510E+01  0.6090E+01
     -2.646  0.5621E+01  0.6330E+01
     -2.603  0.5685E+01  0.6573E+01
     -2.560  0.5653E+01  0.6815E+01
     -2.518  0.5547E+01  0.7053E+01
     -2.475  0.5463E+01  0.7286E+01
     -2.432  0.5527E+01  0.7523E+01
     -2.389  0.5825E+01  0.7772E+01
     -2.346  0.6343E+01  0.8043E+01
     -2.304  0.6950E+01  0.8341E+01
     -2.261  0.7441E+01  0.8659E+01
     -2.218  0.7637E+01  0.8986E+01
     -2.175  0.7493E+01  0.9306E+01
     -2.133  0.7135E+01  0.9612E+01
     -2.090  0.6801E+01  0.9903E+01
     -2.047  0.6716E+01  0.1019E+02
     -2.004  0.6977E+01  0.1049E+02
     -1.961  0.7520E+01  0.1081E+02
     -1.919  0.8153E+01  0.1116E+02
     -1.876  0.8662E+01  0.1153E+02
     -1.833  0.8904E+01  0.1191E+02
     -1.790  0.8883E+01  0.1229E+02
     -1.747  0.8729E+01  0.1266E+02
     -1.705  0.8614E+01  0.1303E+02
     -1.662  0.8647E+01  0.1340E+02
     -1.619  0.8835E+01  0.1378E+02
     -1.576  0.9112E+01  0.1417E+02
     -1.534  0.9408E+01  0.1457E+02
     -1.491  0.9689E+01  0.1499E+02
     -1.448  0.9953E+01  0.1541E+02
     -1.405  0.1019E+02  0.1585E+02
     -1.362  0.1039E+02  0.1629E+02
     -1.320  0.1053E+02  0.1674E+02
     -1.277  0.1068E+02  0.1720E+02
     -1.234  0.1100E+02  0.1767E+02
     -1.191  0.1163E+02  0.1817E+02
     -1.148  0.1262E+02  0.1871E+02
     -1.106  0.1379E+02  0.1930E+02
     -1.063  0.1481E+02  0.1993E+02
     -1.020  0.1540E+02  0.2059E+02
     -0.977  0.1553E+02  0.2126E+02
     -0.935  0.1549E+02  0.2192E+02
     -0.892  0.1571E+02  0.2259E+02
     -0.849  0.1650E+02  0.2330E+02
     -0.806  0.1795E+02  0.2407E+02
     -0.763  0.1993E+02  0.2492E+02
     -0.721  0.2233E+02  0.2587E+02
     -0.678  0.2523E+02  0.2695E+02
     -0.635  0.2879E+02  0.2819E+02
     -0.592  0.3305E+02  0.2960E+02
     -0.549  0.3771E+02  0.3121E+02
     -0.507  0.4220E+02  0.3302E+02
     -0.464  0.4601E+02  0.3499E+02
     -0.421  0.4892E+02  0.3708E+02
     -0.378  0.5109E+02  0.3927E+02
     -0.336  0.5284E+02  0.4153E+02
     -0.293  0.5439E+02  0.4385E+02
     -0.250  0.5574E+02  0.4624E+02
     -0.207  0.5676E+02  0.4867E+02
     -0.164  0.5734E+02  0.5112E+02
     -0.122  0.5753E+02  0.5358E+02
     -0.079  0.5755E+02  0.5604E+02
     -0.036  0.5767E+02  0.5851E+02
      0.007  0.5810E+02  0.6100E+02
      0.049  0.5899E+02  0.6352E+02
      0.092  0.6048E+02  0.6611E+02
      0.135  0.6272E+02  0.6879E+02
      0.178  0.6569E+02  0.7160E+02
      0.221  0.6918E+02  0.7456E+02
      0.263  0.7281E+02  0.7768E+02
      0.306  0.7623E+02  0.8094E+02
      0.349  0.7920E+02  0.8433E+02
      0.392  0.8166E+02  0.8782E+02
      0.435  0.8363E+02  0.9140E+02
      0.477  0.8512E+02  0.9504E+02
      0.520  0.8611E+02  0.9873E+02
      0.563  0.8657E+02  0.1024E+03
      0.606  0.8655E+02  0.1061E+03
      0.648  0.8615E+02  0.1098E+03
      0.691  0.8544E+02  0.1135E+03
      0.734  0.8441E+02  0.1171E+03
      0.777  0.8295E+02  0.1206E+03
      0.820  0.8114E+02  0.1241E+03
      0.862  0.7926E+02  0.1275E+03
      0.905  0.7772E+02  0.1308E+03
      0.948  0.7678E+02  0.1341E+03
      0.991  0.7637E+02  0.1374E+03
      1.034  0.7618E+02  0.1406E+03
      1.076  0.7584E+02  0.1439E+03
      1.119  0.7517E+02  0.1471E+03
      1.162  0.7426E+02  0.1503E+03
      1.205  0.7348E+02  0.1534E+03
      1.247  0.7317E+02  0.1565E+03
      1.290  0.7342E+02  0.1597E+03
      1.333  0.7386E+02  0.1628E+03
      1.376  0.7388E+02  0.1660E+03
      1.419  0.7304E+02  0.1691E+03
      1.461  0.7140E+02  0.1722E+03
      1.504  0.6952E+02  0.1752E+03
      1.547  0.6810E+02  0.1781E+03
      1.590  0.6764E+02  0.1810E+03
      1.633  0.6826E+02  0.1839E+03
      1.675  0.6981E+02  0.1869E+03
      1.718  0.7197E+02  0.1900E+03
      1.761  0.7443E+02  0.1931E+03
      1.804  0.7693E+02  0.1964E+03
      1.846  0.7930E+02  0.1998E+03
      1.889  0.8146E+02  0.2033E+03
      1.932  0.8337E+02  0.2069E+03
      1.975  0.8509E+02  0.2105E+03
      2.018  0.8669E+02  0.2142E+03
      2.060  0.8824E+02  0.2180E+03
      2.103  0.8978E+02  0.2218E+03
      2.146  0.9133E+02  0.2258E+03
      2.189  0.9288E+02  0.2297E+03
      2.232  0.9447E+02  0.2338E+03
      2.274  0.9624E+02  0.2379E+03
      2.317  0.9846E+02  0.2421E+03
      2.360  0.1014E+03  0.2464E+03
      2.403  0.1051E+03  0.2509E+03
      2.445  0.1095E+03  0.2556E+03
      2.488  0.1141E+03  0.2605E+03
      2.531  0.1185E+03  0.2656E+03
      2.574  0.1223E+03  0.2708E+03
      2.617  0.1253E+03  0.2762E+03
      2.659  0.1272E+03  0.2816E+03
      2.702  0.1284E+03  0.2871E+03
      2.745  0.1291E+03  0.2926E+03
      2.788  0.1299E+03  0.2982E+03
      2.831  0.1314E+03  0.3038E+03
      2.873  0.1340E+03  0.3095E+03
      2.916  0.1373E+03  0.3154E+03
      2.959  0.1404E+03  0.3214E+03
      3.002  0.1419E+03  0.3275E+03
      3.044  0.1403E+03  0.3335E+03
      3.087  0.1351E+03  0.3393E+03
      3.130  0.1269E+03  0.3447E+03
      3.173  0.1173E+03  0.3497E+03
      3.216  0.1082E+03  0.3544E+03
      3.258  0.1007E+03  0.3587E+03
      3.301  0.9554E+02  0.3627E+03
      3.344  0.9254E+02  0.3667E+03
      3.387  0.9121E+02  0.3706E+03
      3.429  0.9079E+02  0.3745E+03
      3.472  0.9047E+02  0.3784E+03
      3.515  0.8958E+02  0.3822E+03
      3.558  0.8789E+02  0.3860E+03
      3.601  0.8577E+02  0.3896E+03
      3.643  0.8398E+02  0.3932E+03
      3.686  0.8338E+02  0.3968E+03
      3.729  0.8436E+02  0.4004E+03
      3.772  0.8671E+02  0.4041E+03
      3.815  0.8974E+02  0.4079E+03
      3.857  0.9271E+02  0.4119E+03
      3.900  0.9523E+02  0.4160E+03
      3.943  0.9728E+02  0.4201E+03
      3.986  0.9908E+02  0.4244E+03
      4.028  0.1008E+03  0.4287E+03
      4.071  0.1022E+03  0.4331E+03
      4.114  0.1032E+03  0.4375E+03
      4.157  0.1034E+03  0.4419E+03
      4.200  0.1028E+03  0.4463E+03
      4.242  0.1017E+03  0.4507E+03
      4.285  0.1004E+03  0.4550E+03
      4.328  0.9951E+02  0.4592E+03
      4.371  0.9911E+02  0.4635E+03
      4.414  0.9925E+02  0.4677E+03
      4.456  0.9969E+02  0.4720E+03
      4.499  0.1001E+03  0.4762E+03
      4.542  0.1002E+03  0.4805E+03
      4.585  0.9975E+02  0.4848E+03
      4.627  0.9903E+02  0.4890E+03
      4.670  0.9840E+02  0.4932E+03
      4.713  0.9836E+02  0.4975E+03
      4.756  0.9930E+02  0.5017E+03
      4.799  0.1013E+03  0.5060E+03
      4.841  0.1041E+03  0.5105E+03
      4.884  0.1072E+03  0.5151E+03
      4.927  0.1100E+03  0.5198E+03
      4.970  0.1119E+03  0.5246E+03
      5.013  0.1124E+03  0.5294E+03
      5.055  0.1106E+03  0.5341E+03
      5.098  0.1056E+03  0.5386E+03
      5.141  0.9658E+02  0.5428E+03
      5.184  0.8337E+02  0.5463E+03
      5.226  0.6697E+02  0.5492E+03
      5.269  0.4941E+02  0.5513E+03
      5.312  0.3309E+02  0.5527E+03
      5.355  0.1993E+02  0.5536E+03
      5.398  0.1071E+02  0.5540E+03
      5.440  0.5100E+01  0.5543E+03
      5.483  0.2143E+01  0.5544E+03
      5.526  0.7912E+00  0.5544E+03
      5.569  0.2559E+00  0.5544E+03
      5.612  0.7228E-01  0.5544E+03
      5.654  0.1780E-01  0.5544E+03
      5.697  0.3812E-02  0.5544E+03
      5.740  0.7094E-03  0.5544E+03
      5.783  0.1145E-03  0.5544E+03
      5.825  0.1600E-04  0.5544E+03
      5.868  0.1934E-05  0.5544E+03
      5.911  0.2020E-06  0.5544E+03
      5.954  0.1821E-07  0.5544E+03
      5.997  0.1415E-08  0.5544E+03
      6.039  0.9467E-10  0.5544E+03
      6.082  0.5450E-11  0.5544E+03
      6.125  0.2680E-12  0.5544E+03
      6.168  0.1109E-13  0.5544E+03
      6.210  0.1946E-15  0.5544E+03
      6.253  0.0000E+00  0.5544E+03
      6.296  0.0000E+00  0.5544E+03
      6.339  0.0000E+00  0.5544E+03
      6.382  0.0000E+00  0.5544E+03
      6.424  0.0000E+00  0.5544E+03
      6.467  0.0000E+00  0.5544E+03
      6.510  0.0000E+00  0.5544E+03
      6.553  0.0000E+00  0.5544E+03
      6.596  0.0000E+00  0.5544E+03
      6.638  0.0000E+00  0.5544E+03
      6.681  0.0000E+00  0.5544E+03
      6.724  0.0000E+00  0.5544E+03
      6.767  0.0000E+00  0.5544E+03
      6.809  0.0000E+00  0.5544E+03
