<?xml version="1.0" encoding="ISO-8859-1"?>
<modeling>
 <generator>
  <i name="program" type="string">vasp </i>
  <i name="version" type="string">5.4.4.18Apr17-6-g9f103f2a35  </i>
  <i name="subversion" type="string">(build Sep 27 2018 12:46:37) complex + VL-xray_ parallel </i>
  <i name="platform" type="string">LLNL_Quartz_ifc </i>
  <i name="date" type="string">2021 09 27 </i>
  <i name="time" type="string">00:35:16 </i>
 </generator>
 <incar>
  <i type="int" name="ISTART">     2</i>
  <i type="string" name="PREC">accurate</i>
  <i type="string" name="ALGO"> Fast</i>
  <i type="int" name="ICHARG">     2</i>
  <i type="int" name="INIWAV">     1</i>
  <i type="int" name="NELM">   100</i>
  <i type="int" name="NELMIN">     4</i>
  <i type="int" name="IBRION">     2</i>
  <i name="EDIFF">      0.00000100</i>
  <i type="int" name="NSW">     5</i>
  <i type="int" name="ISIF">     2</i>
  <i type="int" name="ISYM">     2</i>
  <i name="ENCUT">    450.00000000</i>
  <i name="POTIM">      0.25000000</i>
  <i type="string" name="LREAL"> Auto</i>
  <i type="int" name="ISMEAR">     0</i>
  <i name="SIGMA">      0.15000000</i>
  <i type="logical" name="LWAVE"> F  </i>
  <i type="logical" name="LCHARG"> F  </i>
  <i type="int" name="ICORELEVEL">     0</i>
  <i type="int" name="CLNT">     1</i>
  <i type="int" name="CLN">     1</i>
  <i type="int" name="INCAR     ">     0</i>
  <i name="CLZ">      0.00000000</i>
  <v type="int" name="KPOINT_BSE">    -1     0     0     0</v>
  <i type="int" name="NELM">   100</i>
 </incar>
 <structure name="primitive_cell" >
  <crystal>
   <varray name="basis" >
    <v>       9.72667804       0.00000000       0.00000000 </v>
    <v>       0.00000000       8.42355028       0.00000000 </v>
    <v>       0.00000000       0.00000000      45.00000000 </v>
   </varray>
   <i name="volume">   3686.99226691 </i>
   <varray name="rec_basis" >
    <v>       0.10281002       0.00000000       0.00000000 </v>
    <v>       0.00000000       0.11871479       0.00000000 </v>
    <v>       0.00000000       0.00000000       0.02222222 </v>
   </varray>
  </crystal>
  <varray name="positions" >
   <v>       0.06185159       0.03012247       0.12409148 </v>
   <v>       0.18288366       0.11200310       0.16649137 </v>
   <v>       0.18558657      -0.21143873       0.12403001 </v>
   <v>       0.05615084      -0.13530987       0.16660144 </v>
   <v>      -0.06607575      -0.21221480       0.12439796 </v>
   <v>      -0.06794861       0.11351628       0.16696583 </v>
   <v>      -0.18652602       0.03095466       0.12415018 </v>
   <v>       0.31154937       0.03061391       0.12422288 </v>
   <v>       0.18395378       0.28658598       0.12400979 </v>
   <v>      -0.06422098       0.28635056       0.12394774 </v>
   <v>       0.30547541      -0.13555511       0.16574445 </v>
   <v>       0.05566834       0.36503022       0.16667003 </v>
   <v>      -0.19279984      -0.13647328       0.16688661 </v>
   <v>       0.43284197       0.11201305       0.16652359 </v>
   <v>      -0.05909514      -0.04587262       0.21134423 </v>
   <v>       0.30718977       0.36456966       0.16652826 </v>
   <v>       0.18194757      -0.38642716       0.16656614 </v>
   <v>       0.43549137      -0.21288099       0.12416851 </v>
   <v>       0.06529382       0.20331602       0.21099431 </v>
   <v>       0.19036492      -0.04529313       0.21171064 </v>
   <v>      -0.06772213      -0.38638674       0.16673900 </v>
   <v>      -0.31506766      -0.21201337       0.12428073 </v>
   <v>       0.06163677      -0.47110479       0.12397475 </v>
   <v>      -0.31793789       0.11393241       0.16694295 </v>
   <v>      -0.19412119       0.36543931       0.16685448 </v>
   <v>      -0.31296694       0.28521193       0.12419299 </v>
   <v>       0.43605297       0.28679434       0.12404848 </v>
   <v>       0.06739253      -0.29631335       0.21124433 </v>
   <v>      -0.18421697       0.20340883       0.21110112 </v>
   <v>      -0.43638813       0.03281703       0.12428469 </v>
   <v>      -0.18645890      -0.47085674       0.12397983 </v>
   <v>       0.31533138       0.20386679       0.21110557 </v>
   <v>       0.31268678      -0.47070258       0.12389042 </v>
   <v>      -0.18375542      -0.29628407       0.21150067 </v>
   <v>       0.43130278      -0.38781315       0.16581151 </v>
   <v>      -0.44316369      -0.13790764       0.16656957 </v>
   <v>      -0.31047505      -0.04541485       0.21178001 </v>
   <v>       0.31458197      -0.29803295       0.21227140 </v>
   <v>       0.19023212       0.45309863       0.21102811 </v>
   <v>      -0.06036158       0.45351361       0.21149209 </v>
   <v>      -0.31774953      -0.38693323       0.16644284 </v>
   <v>       0.44162512      -0.04412304       0.21206998 </v>
   <v>      -0.44410150       0.36520011       0.16663929 </v>
   <v>       0.05891876       0.03727591       0.25581941 </v>
   <v>       0.18371342      -0.21280478       0.25547698 </v>
   <v>       0.30888449       0.03719318       0.25549555 </v>
   <v>      -0.06673043      -0.21286007       0.25557925 </v>
   <v>      -0.43374461       0.20255522       0.21141277 </v>
   <v>      -0.43691099      -0.47116026       0.12456386 </v>
   <v>       0.18375002       0.28744652       0.25582966 </v>
   <v>      -0.19022515       0.03737444       0.25604240 </v>
   <v>      -0.30952667       0.45405352       0.21155077 </v>
   <v>      -0.06610082       0.28712854       0.25585624 </v>
   <v>       0.43940817       0.45379720       0.21142932 </v>
   <v>      -0.43289229      -0.29599406       0.21199529 </v>
   <v>       0.43263804      -0.21251128       0.25560518 </v>
   <v>       0.05905723      -0.46279312       0.25564258 </v>
   <v>      -0.31629165      -0.21267082       0.25581300 </v>
   <v>       0.43334462       0.28789833       0.25576402 </v>
   <v>      -0.31622193       0.28714527       0.25584030 </v>
   <v>       0.30834914      -0.46208891       0.25551662 </v>
   <v>      -0.43979483       0.03737367       0.25551667 </v>
   <v>      -0.19134586      -0.46290441       0.25591504 </v>
   <v>       0.07013775      -0.12650374       0.30028703 </v>
   <v>      -0.05463191       0.12254925       0.30008775 </v>
   <v>       0.19505885       0.12371203       0.30027336 </v>
   <v>      -0.17885512      -0.12620207       0.30021314 </v>
   <v>       0.31902664      -0.12646399       0.30010859 </v>
   <v>       0.06949793       0.37447575       0.30001441 </v>
   <v>      -0.44208700      -0.46239782       0.25566253 </v>
   <v>      -0.05503653      -0.37726384       0.29988281 </v>
   <v>      -0.30452596       0.12302935       0.30030260 </v>
   <v>       0.19437833      -0.37679956       0.30023196 </v>
   <v>      -0.18014164       0.37284527       0.29996291 </v>
   <v>       0.32014515       0.37200532       0.30013969 </v>
   <v>       0.44451805       0.12317687       0.30049974 </v>
   <v>      -0.30515436      -0.37656323       0.30011958 </v>
   <v>      -0.42945720      -0.12685406       0.30030194 </v>
   <v>       0.44623097      -0.37639991       0.30009752 </v>
   <v>      -0.43028281       0.37160686       0.30004247 </v>
   <v>      -0.06612055      -0.04879680       0.34470034 </v>
   <v>       0.18373821      -0.04770379       0.34490433 </v>
   <v>       0.05878039       0.20295662       0.34496951 </v>
   <v>       0.05862646      -0.29788402       0.34490507 </v>
   <v>       0.30896643       0.20273079       0.34465620 </v>
   <v>      -0.19088146       0.20267357       0.34502460 </v>
   <v>       0.30912583      -0.29821109       0.34485538 </v>
   <v>       0.43361094      -0.04749202       0.34488128 </v>
   <v>      -0.19128696      -0.29744443       0.34495494 </v>
   <v>      -0.31705813      -0.04833776       0.34465179 </v>
   <v>       0.18359832       0.45266130       0.34489398 </v>
   <v>      -0.06647285       0.45233130       0.34483970 </v>
   <v>      -0.44091073       0.20257544       0.34480853 </v>
   <v>       0.43387441       0.45258821       0.34495891 </v>
   <v>       0.06522407       0.03870347      -0.12422167 </v>
   <v>      -0.31622469       0.45236035       0.34496574 </v>
   <v>      -0.44108644      -0.29791044       0.34488271 </v>
   <v>       0.18764678      -0.20263065      -0.12394652 </v>
   <v>      -0.06308670      -0.20399558      -0.12442943 </v>
   <v>      -0.18736321       0.04078727      -0.12421454 </v>
   <v>       0.31416669       0.04096366      -0.12407043 </v>
   <v>       0.18856424       0.29687951      -0.12384174 </v>
   <v>      -0.06517956       0.29818945      -0.12443542 </v>
   <v>       0.43659622      -0.20186045      -0.12377946 </v>
   <v>       0.06327764      -0.45938889      -0.12411553 </v>
   <v>      -0.31558807      -0.20154652      -0.12405046 </v>
   <v>       0.06657451       0.03830511       0.38914144 </v>
   <v>       0.43641614       0.29838684      -0.12362054 </v>
   <v>      -0.31462042       0.29921024      -0.12395432 </v>
   <v>       0.31347826      -0.45920044      -0.12389075 </v>
   <v>      -0.05885524      -0.21232131       0.38886561 </v>
   <v>      -0.18793962      -0.45965884      -0.12411573 </v>
   <v>       0.19348889      -0.21255519       0.38888031 </v>
   <v>      -0.18206315       0.03933398       0.38916994 </v>
   <v>      -0.05904732       0.28637695       0.38893078 </v>
   <v>      -0.43720546       0.04077668      -0.12391764 </v>
   <v>       0.31642602       0.03708790       0.38890876 </v>
   <v>       0.19107950       0.28761845       0.38895651 </v>
   <v>      -0.30817557      -0.21221731       0.38903824 </v>
   <v>       0.06752183      -0.46163011       0.38901187 </v>
   <v>      -0.30866999       0.28733910       0.38905574 </v>
   <v>       0.44141773      -0.21236771       0.38910166 </v>
   <v>       0.44155434       0.28753367       0.38910757 </v>
   <v>      -0.18393151      -0.46242370       0.38899212 </v>
   <v>      -0.43763814      -0.45917729      -0.12399940 </v>
   <v>       0.31582677      -0.46176267       0.38889303 </v>
   <v>      -0.43361153       0.03779162       0.38904444 </v>
   <v>      -0.05736453      -0.03502751      -0.16606688 </v>
   <v>       0.19168632      -0.03623623      -0.16640931 </v>
   <v>       0.06695012       0.21537397      -0.16598291 </v>
   <v>       0.06645007      -0.28329813      -0.16618083 </v>
   <v>      -0.18171877       0.21526478      -0.16640332 </v>
   <v>       0.31708769       0.21299137      -0.16650559 </v>
   <v>      -0.43358354      -0.46231021       0.38902327 </v>
   <v>      -0.18273637      -0.28456593      -0.16673688 </v>
   <v>      -0.30810367      -0.03759784      -0.16651268 </v>
   <v>       0.31810258      -0.28594381      -0.16679956 </v>
   <v>       0.44297906      -0.03627966      -0.16665513 </v>
   <v>      -0.05777450       0.46388105      -0.16626846 </v>
   <v>       0.19183974       0.46361820      -0.16650031 </v>
   <v>       0.06206196      -0.12884484       0.43441115 </v>
   <v>       0.18727367       0.12040173       0.43424501 </v>
   <v>      -0.43374775       0.21371899      -0.16675837 </v>
   <v>      -0.06302787       0.12011722       0.43452133 </v>
   <v>      -0.30766068       0.46211770      -0.16660488 </v>
   <v>       0.44254893       0.46323183      -0.16657367 </v>
   <v>      -0.43349328      -0.28633856      -0.16666261 </v>
   <v>      -0.18835262      -0.12859041       0.43421009 </v>
   <v>       0.31193560      -0.12935509       0.43444897 </v>
   <v>       0.06283676       0.37192640       0.43427466 </v>
   <v>      -0.06246176      -0.37936873       0.43443977 </v>
   <v>       0.18748198      -0.37970164       0.43448506 </v>
   <v>      -0.31172595       0.12008652       0.43426902 </v>
   <v>       0.43682124       0.12102578       0.43428554 </v>
   <v>      -0.18824145       0.37146890       0.43420613 </v>
   <v>       0.31246383       0.37045706       0.43449069 </v>
   <v>       0.43670717      -0.37874950       0.43438219 </v>
   <v>      -0.31190017      -0.37940001       0.43448204 </v>
   <v>      -0.43736198      -0.12948623       0.43445114 </v>
   <v>      -0.43801858       0.37125530       0.43437263 </v>
   <v>       0.05881668      -0.12560496      -0.21151912 </v>
   <v>       0.18370715       0.12308389      -0.21140526 </v>
   <v>      -0.06602119       0.12416399      -0.21143471 </v>
   <v>       0.31004344      -0.12653693      -0.21143178 </v>
   <v>      -0.19227283      -0.12633645      -0.21163516 </v>
   <v>       0.05826558       0.37546526      -0.21143888 </v>
   <v>       0.43360943       0.12264137      -0.21089940 </v>
   <v>       0.18384712      -0.37742937      -0.21145248 </v>
   <v>      -0.06734081      -0.37570457      -0.21167142 </v>
   <v>       0.30838770       0.37454884      -0.21119997 </v>
   <v>      -0.31811340       0.12298403      -0.21144183 </v>
   <v>      -0.19176250       0.37541667      -0.21147460 </v>
   <v>       0.43297594      -0.37704545      -0.21106396 </v>
   <v>      -0.44162600      -0.12608656      -0.21117758 </v>
   <v>      -0.31733350      -0.37719278      -0.21133606 </v>
   <v>       0.18737670      -0.04425969       0.47866636 </v>
   <v>      -0.06252594      -0.04458735       0.47870525 </v>
   <v>       0.06249723       0.20597886       0.47864465 </v>
   <v>      -0.44173286       0.37386770      -0.21115623 </v>
   <v>       0.06228875      -0.29424143       0.47851659 </v>
   <v>      -0.18782113       0.20593003       0.47869224 </v>
   <v>       0.31248235       0.20582185       0.47875662 </v>
   <v>      -0.18751345      -0.29426647       0.47864548 </v>
   <v>       0.31229451      -0.29428405       0.47864394 </v>
   <v>      -0.31255094      -0.04398391       0.47865278 </v>
   <v>       0.43732220      -0.04414934       0.47865311 </v>
   <v>      -0.06265284       0.45569551       0.47866307 </v>
   <v>       0.18741895       0.45569582       0.47866280 </v>
   <v>      -0.43787718       0.20578216       0.47866782 </v>
   <v>       0.43740313       0.45605483       0.47856454 </v>
   <v>      -0.31280988       0.45584816       0.47865166 </v>
   <v>      -0.43756085      -0.29425402       0.47869549 </v>
   <v>       0.06562283       0.04046491      -0.25584953 </v>
   <v>      -0.06010836      -0.20867165      -0.25538834 </v>
   <v>       0.18963861      -0.20837087      -0.25554483 </v>
   <v>      -0.18413315       0.04059186      -0.25575127 </v>
   <v>      -0.06066094       0.29081747      -0.25546338 </v>
   <v>       0.31523864       0.04158427      -0.25582499 </v>
   <v>       0.19064554       0.29092024      -0.25570896 </v>
   <v>      -0.30959356      -0.20840105      -0.25566478 </v>
   <v>       0.06554066      -0.45920002      -0.25576403 </v>
   <v>       0.43967019      -0.20810487      -0.25560312 </v>
   <v>      -0.30999840       0.29136256      -0.25580349 </v>
   <v>       0.43966289       0.29147887      -0.25570091 </v>
   <v>       0.31530941      -0.45865367      -0.25560712 </v>
   <v>      -0.18415101      -0.45958841      -0.25602714 </v>
   <v>      -0.43425126       0.04120617      -0.25580226 </v>
   <v>       0.06189520      -0.12830286      -0.47858811 </v>
   <v>       0.18681952       0.12179878      -0.47857110 </v>
   <v>      -0.06342739       0.12168531      -0.47854765 </v>
   <v>       0.31179081      -0.12814371      -0.47860597 </v>
   <v>      -0.18836338      -0.12852748      -0.47860603 </v>
   <v>       0.06148866       0.37232808      -0.47860556 </v>
   <v>      -0.43414027      -0.45915602      -0.25594358 </v>
   <v>      -0.06325505      -0.37806111      -0.47858587 </v>
   <v>       0.18690171      -0.37848015      -0.47857583 </v>
   <v>      -0.31325189       0.12169988      -0.47857363 </v>
   <v>       0.43692073       0.12171652      -0.47854208 </v>
   <v>      -0.18809292       0.37206703      -0.47861676 </v>
   <v>       0.31165406       0.37210627      -0.47860862 </v>
   <v>       0.43666335      -0.37800018      -0.47861870 </v>
   <v>      -0.31345130      -0.37853055      -0.47865546 </v>
   <v>      -0.43787597      -0.12792844      -0.47854290 </v>
   <v>      -0.43821503       0.37197180      -0.47858221 </v>
   <v>       0.18545411      -0.04218176      -0.30027776 </v>
   <v>      -0.06445820      -0.04219121      -0.30034234 </v>
   <v>       0.06074024       0.20745548      -0.30024672 </v>
   <v>       0.06105762      -0.29221728      -0.30034273 </v>
   <v>       0.31081948       0.20751361      -0.30010584 </v>
   <v>      -0.18896018       0.20719134      -0.30019271 </v>
   <v>       0.31102452      -0.29290804      -0.30024896 </v>
   <v>      -0.18969797      -0.29213644      -0.30031374 </v>
   <v>       0.43587429      -0.04234891      -0.30030714 </v>
   <v>      -0.31433071      -0.04249590      -0.30026442 </v>
   <v>       0.18554984       0.45767801      -0.30026600 </v>
   <v>      -0.06469750       0.45810684      -0.30037928 </v>
   <v>      -0.43968104       0.20742239      -0.30018743 </v>
   <v>       0.43453093       0.45702407      -0.30004352 </v>
   <v>      -0.31523540       0.45772049      -0.30022114 </v>
   <v>      -0.44019569      -0.29311390      -0.30025059 </v>
   <v>      -0.06327375      -0.04273076      -0.43454251 </v>
   <v>       0.18695641      -0.04275626      -0.43449390 </v>
   <v>       0.06226223       0.20742338      -0.43461024 </v>
   <v>       0.06235788      -0.29313962      -0.43443499 </v>
   <v>       0.31136492       0.20648237      -0.43449355 </v>
   <v>      -0.18877958       0.20720459      -0.43451192 </v>
   <v>       0.31134239      -0.29287255      -0.43451455 </v>
   <v>      -0.18862237      -0.29330064      -0.43448518 </v>
   <v>       0.43672522      -0.04310049      -0.43460076 </v>
   <v>      -0.31271574      -0.04292078      -0.43448000 </v>
   <v>       0.18718971       0.45720115      -0.43447601 </v>
   <v>      -0.06345779       0.45659365      -0.43440471 </v>
   <v>      -0.43772341       0.20695913      -0.43448749 </v>
   <v>      -0.31344777       0.45669029      -0.43459620 </v>
   <v>       0.43659613       0.45680690      -0.43443285 </v>
   <v>      -0.43764823      -0.29305616      -0.43443524 </v>
   <v>       0.06649976      -0.12513511      -0.34505903 </v>
   <v>      -0.05877145       0.12501425      -0.34502213 </v>
   <v>       0.19127660       0.12518063      -0.34491411 </v>
   <v>      -0.18385801      -0.12488140      -0.34502016 </v>
   <v>       0.31638177      -0.12492657      -0.34499479 </v>
   <v>       0.06619580       0.37487240      -0.34497182 </v>
   <v>       0.19121141      -0.37499031      -0.34491954 </v>
   <v>      -0.05848922      -0.37490098      -0.34510568 </v>
   <v>      -0.30872422       0.12490952      -0.34509369 </v>
   <v>      -0.18364619       0.37481482      -0.34486423 </v>
   <v>       0.44158175       0.12486367      -0.34507135 </v>
   <v>       0.31650402       0.37496644      -0.34513438 </v>
   <v>      -0.30886555      -0.37501248      -0.34483963 </v>
   <v>      -0.43387231      -0.12495572      -0.34495444 </v>
   <v>       0.44111267      -0.37510898      -0.34485848 </v>
   <v>      -0.43364656       0.37505584      -0.34513230 </v>
   <v>       0.05871500       0.03780634      -0.38912875 </v>
   <v>       0.18375956      -0.21194197      -0.38904484 </v>
   <v>       0.30867760       0.03806469      -0.38909446 </v>
   <v>      -0.06633241      -0.21239637      -0.38906673 </v>
   <v>      -0.06635729       0.28785838      -0.38909875 </v>
   <v>      -0.19111409       0.03829650      -0.38898060 </v>
   <v>       0.18378909       0.28818972      -0.38898194 </v>
   <v>       0.43372644      -0.21192651      -0.38910026 </v>
   <v>       0.05877798      -0.46207348      -0.38905054 </v>
   <v>      -0.31627656      -0.21211426      -0.38909470 </v>
   <v>       0.43401349       0.28836017      -0.38900270 </v>
   <v>      -0.31610245       0.28837400      -0.38905846 </v>
   <v>       0.30879522      -0.46210788      -0.38913760 </v>
   <v>      -0.19098264      -0.46164143      -0.38892165 </v>
   <v>      -0.44091256       0.03849321      -0.38896298 </v>
   <v>      -0.44125658      -0.46210903      -0.38910651 </v>
  </varray>
 </structure>
 <varray name="primitive_index" >
  <v type="int" >        1 </v>
  <v type="int" >      125 </v>
  <v type="int" >       83 </v>
  <v type="int" >       60 </v>
  <v type="int" >       44 </v>
  <v type="int" >       26 </v>
  <v type="int" >      202 </v>
  <v type="int" >      256 </v>
  <v type="int" >      111 </v>
  <v type="int" >      155 </v>
  <v type="int" >      277 </v>
  <v type="int" >       51 </v>
  <v type="int" >      102 </v>
  <v type="int" >      182 </v>
  <v type="int" >      212 </v>
  <v type="int" >      108 </v>
  <v type="int" >       20 </v>
  <v type="int" >      170 </v>
  <v type="int" >       50 </v>
  <v type="int" >      146 </v>
  <v type="int" >      104 </v>
  <v type="int" >      163 </v>
  <v type="int" >      176 </v>
  <v type="int" >      166 </v>
  <v type="int" >      193 </v>
  <v type="int" >      145 </v>
  <v type="int" >      117 </v>
  <v type="int" >      250 </v>
  <v type="int" >      167 </v>
  <v type="int" >      114 </v>
  <v type="int" >      205 </v>
  <v type="int" >      249 </v>
  <v type="int" >       91 </v>
  <v type="int" >      213 </v>
  <v type="int" >      174 </v>
  <v type="int" >      192 </v>
  <v type="int" >       92 </v>
  <v type="int" >      276 </v>
  <v type="int" >      189 </v>
  <v type="int" >      175 </v>
  <v type="int" >       97 </v>
  <v type="int" >      229 </v>
  <v type="int" >       30 </v>
  <v type="int" >      185 </v>
  <v type="int" >      200 </v>
  <v type="int" >      179 </v>
  <v type="int" >       52 </v>
  <v type="int" >      103 </v>
  <v type="int" >      283 </v>
  <v type="int" >      112 </v>
  <v type="int" >       24 </v>
  <v type="int" >      261 </v>
  <v type="int" >      127 </v>
  <v type="int" >      139 </v>
  <v type="int" >      288 </v>
  <v type="int" >      137 </v>
  <v type="int" >      168 </v>
  <v type="int" >      118 </v>
  <v type="int" >      265 </v>
  <v type="int" >       58 </v>
  <v type="int" >      275 </v>
  <v type="int" >      221 </v>
  <v type="int" >       81 </v>
  <v type="int" >      214 </v>
  <v type="int" >      135 </v>
  <v type="int" >      215 </v>
  <v type="int" >       72 </v>
  <v type="int" >       98 </v>
  <v type="int" >      226 </v>
  <v type="int" >       28 </v>
  <v type="int" >      178 </v>
  <v type="int" >      109 </v>
  <v type="int" >      263 </v>
  <v type="int" >      220 </v>
  <v type="int" >      242 </v>
  <v type="int" >      159 </v>
  <v type="int" >      130 </v>
  <v type="int" >      210 </v>
  <v type="int" >      101 </v>
  <v type="int" >      171 </v>
  <v type="int" >      194 </v>
  <v type="int" >      258 </v>
  <v type="int" >       47 </v>
  <v type="int" >      216 </v>
  <v type="int" >       86 </v>
  <v type="int" >      207 </v>
  <v type="int" >      208 </v>
  <v type="int" >      172 </v>
  <v type="int" >       73 </v>
  <v type="int" >       25 </v>
  <v type="int" >      116 </v>
  <v type="int" >       12 </v>
  <v type="int" >      219 </v>
  <v type="int" >      206 </v>
  <v type="int" >      282 </v>
  <v type="int" >       48 </v>
  <v type="int" >      164 </v>
  <v type="int" >      268 </v>
  <v type="int" >      281 </v>
  <v type="int" >       14 </v>
  <v type="int" >      245 </v>
  <v type="int" >      120 </v>
  <v type="int" >      280 </v>
  <v type="int" >      150 </v>
  <v type="int" >      266 </v>
  <v type="int" >       29 </v>
  <v type="int" >      124 </v>
  <v type="int" >      255 </v>
  <v type="int" >      191 </v>
  <v type="int" >       18 </v>
  <v type="int" >      190 </v>
  <v type="int" >      231 </v>
  <v type="int" >      287 </v>
  <v type="int" >      279 </v>
  <v type="int" >       13 </v>
  <v type="int" >      161 </v>
  <v type="int" >      165 </v>
  <v type="int" >      248 </v>
  <v type="int" >       45 </v>
  <v type="int" >      273 </v>
  <v type="int" >       84 </v>
  <v type="int" >      264 </v>
  <v type="int" >        4 </v>
  <v type="int" >      123 </v>
  <v type="int" >       64 </v>
  <v type="int" >       67 </v>
  <v type="int" >       16 </v>
  <v type="int" >       17 </v>
  <v type="int" >        7 </v>
  <v type="int" >      259 </v>
  <v type="int" >      134 </v>
  <v type="int" >        6 </v>
  <v type="int" >       39 </v>
  <v type="int" >      222 </v>
  <v type="int" >      253 </v>
  <v type="int" >       88 </v>
  <v type="int" >        5 </v>
  <v type="int" >      110 </v>
  <v type="int" >       36 </v>
  <v type="int" >      181 </v>
  <v type="int" >      285 </v>
  <v type="int" >      160 </v>
  <v type="int" >      143 </v>
  <v type="int" >      158 </v>
  <v type="int" >       82 </v>
  <v type="int" >       74 </v>
  <v type="int" >      241 </v>
  <v type="int" >      235 </v>
  <v type="int" >       23 </v>
  <v type="int" >      218 </v>
  <v type="int" >      131 </v>
  <v type="int" >      238 </v>
  <v type="int" >      257 </v>
  <v type="int" >      201 </v>
  <v type="int" >       80 </v>
  <v type="int" >      113 </v>
  <v type="int" >      278 </v>
  <v type="int" >      232 </v>
  <v type="int" >       69 </v>
  <v type="int" >      251 </v>
  <v type="int" >      197 </v>
  <v type="int" >        3 </v>
  <v type="int" >      149 </v>
  <v type="int" >      224 </v>
  <v type="int" >       55 </v>
  <v type="int" >      254 </v>
  <v type="int" >       49 </v>
  <v type="int" >      272 </v>
  <v type="int" >      132 </v>
  <v type="int" >      138 </v>
  <v type="int" >      188 </v>
  <v type="int" >       57 </v>
  <v type="int" >      184 </v>
  <v type="int" >       33 </v>
  <v type="int" >       66 </v>
  <v type="int" >       94 </v>
  <v type="int" >      236 </v>
  <v type="int" >      223 </v>
  <v type="int" >      106 </v>
  <v type="int" >      157 </v>
  <v type="int" >       21 </v>
  <v type="int" >      230 </v>
  <v type="int" >      234 </v>
  <v type="int" >       99 </v>
  <v type="int" >       75 </v>
  <v type="int" >      105 </v>
  <v type="int" >      269 </v>
  <v type="int" >      244 </v>
  <v type="int" >      237 </v>
  <v type="int" >      156 </v>
  <v type="int" >      199 </v>
  <v type="int" >      169 </v>
  <v type="int" >        9 </v>
  <v type="int" >       46 </v>
  <v type="int" >      262 </v>
  <v type="int" >      151 </v>
  <v type="int" >      187 </v>
  <v type="int" >      239 </v>
  <v type="int" >       11 </v>
  <v type="int" >       43 </v>
  <v type="int" >      211 </v>
  <v type="int" >       31 </v>
  <v type="int" >       19 </v>
  <v type="int" >       71 </v>
  <v type="int" >      243 </v>
  <v type="int" >       87 </v>
  <v type="int" >      267 </v>
  <v type="int" >       27 </v>
  <v type="int" >      140 </v>
  <v type="int" >      286 </v>
  <v type="int" >      144 </v>
  <v type="int" >       10 </v>
  <v type="int" >      107 </v>
  <v type="int" >      270 </v>
  <v type="int" >      203 </v>
  <v type="int" >       68 </v>
  <v type="int" >       34 </v>
  <v type="int" >      119 </v>
  <v type="int" >      177 </v>
  <v type="int" >      183 </v>
  <v type="int" >      252 </v>
  <v type="int" >      195 </v>
  <v type="int" >       77 </v>
  <v type="int" >      247 </v>
  <v type="int" >      173 </v>
  <v type="int" >      225 </v>
  <v type="int" >       37 </v>
  <v type="int" >      274 </v>
  <v type="int" >       63 </v>
  <v type="int" >      233 </v>
  <v type="int" >      154 </v>
  <v type="int" >      141 </v>
  <v type="int" >       38 </v>
  <v type="int" >       54 </v>
  <v type="int" >      246 </v>
  <v type="int" >      152 </v>
  <v type="int" >       53 </v>
  <v type="int" >      284 </v>
  <v type="int" >       76 </v>
  <v type="int" >      133 </v>
  <v type="int" >      129 </v>
  <v type="int" >      162 </v>
  <v type="int" >       62 </v>
  <v type="int" >       65 </v>
  <v type="int" >       93 </v>
  <v type="int" >      271 </v>
  <v type="int" >       90 </v>
  <v type="int" >       32 </v>
  <v type="int" >       56 </v>
  <v type="int" >       95 </v>
  <v type="int" >       59 </v>
  <v type="int" >       42 </v>
  <v type="int" >        8 </v>
  <v type="int" >      228 </v>
  <v type="int" >       70 </v>
  <v type="int" >      186 </v>
  <v type="int" >      196 </v>
  <v type="int" >      122 </v>
  <v type="int" >      121 </v>
  <v type="int" >       79 </v>
  <v type="int" >        2 </v>
  <v type="int" >      198 </v>
  <v type="int" >      153 </v>
  <v type="int" >      240 </v>
  <v type="int" >      209 </v>
  <v type="int" >       35 </v>
  <v type="int" >      204 </v>
  <v type="int" >       85 </v>
  <v type="int" >      227 </v>
  <v type="int" >       89 </v>
  <v type="int" >       40 </v>
  <v type="int" >       78 </v>
  <v type="int" >      142 </v>
  <v type="int" >       15 </v>
  <v type="int" >      148 </v>
  <v type="int" >      136 </v>
  <v type="int" >      100 </v>
  <v type="int" >      217 </v>
  <v type="int" >       61 </v>
  <v type="int" >       96 </v>
  <v type="int" >      126 </v>
  <v type="int" >      180 </v>
  <v type="int" >      115 </v>
  <v type="int" >      147 </v>
  <v type="int" >       41 </v>
  <v type="int" >       22 </v>
  <v type="int" >      260 </v>
  <v type="int" >      128 </v>
 </varray>
 <kpoints>
  <generation param="Gamma">
   <v type="int" name="divisions">       4        4        1 </v>
   <v name="usershift">      0.00000000       0.00000000       0.00000000 </v>
   <v name="genvec1">      0.25000000       0.00000000       0.00000000 </v>
   <v name="genvec2">      0.00000000       0.25000000       0.00000000 </v>
   <v name="genvec3">      0.00000000       0.00000000       1.00000000 </v>
   <v name="shift">      0.00000000       0.00000000       0.00000000 </v>
  </generation>
  <varray name="kpointlist" >
   <v>       0.00000000       0.00000000       0.00000000 </v>
   <v>       0.25000000       0.00000000       0.00000000 </v>
   <v>       0.50000000       0.00000000       0.00000000 </v>
   <v>       0.00000000       0.25000000       0.00000000 </v>
   <v>       0.25000000       0.25000000       0.00000000 </v>
   <v>       0.50000000       0.25000000       0.00000000 </v>
   <v>      -0.25000000       0.25000000       0.00000000 </v>
   <v>       0.00000000       0.50000000       0.00000000 </v>
   <v>       0.25000000       0.50000000       0.00000000 </v>
   <v>       0.50000000       0.50000000       0.00000000 </v>
  </varray>
  <varray name="weights" >
   <v>       0.06250000 </v>
   <v>       0.12500000 </v>
   <v>       0.06250000 </v>
   <v>       0.12500000 </v>
   <v>       0.12500000 </v>
   <v>       0.12500000 </v>
   <v>       0.12500000 </v>
   <v>       0.06250000 </v>
   <v>       0.12500000 </v>
   <v>       0.06250000 </v>
  </varray>
 </kpoints>
 <parameters>
  <separator name="general" >
   <i type="string" name="SYSTEM">unknown system</i>
   <i type="logical" name="LCOMPAT"> F  </i>
  </separator>
  <separator name="electronic" >
   <i type="string" name="PREC">accura</i>
   <i name="ENMAX">    450.00000000</i>
   <i name="ENAUG">    838.43500000</i>
   <i name="EDIFF">      0.00000100</i>
   <i type="int" name="IALGO">    68</i>
   <i type="int" name="IWAVPR">    11</i>
   <i type="int" name="NBANDS">  1386</i>
   <i name="NELECT">   2290.00000000</i>
   <i type="int" name="TURBO">     0</i>
   <i type="int" name="IRESTART">     0</i>
   <i type="int" name="NREBOOT">     0</i>
   <i type="int" name="NMIN">     0</i>
   <i name="EREF">      0.00000000</i>
   <separator name="electronic smearing" >
    <i type="int" name="ISMEAR">     0</i>
    <i name="SIGMA">      0.15000000</i>
    <i name="KSPACING">      0.50000000</i>
    <i type="logical" name="KGAMMA"> T  </i>
   </separator>
   <separator name="electronic projectors" >
    <i type="logical" name="LREAL"> T  </i>
    <v name="ROPT">     -0.00025000     -0.00025000</v>
    <i type="int" name="LMAXPAW">  -100</i>
    <i type="int" name="LMAXMIX">     2</i>
    <i type="logical" name="NLSPLINE"> F  </i>
   </separator>
   <separator name="electronic startup" >
    <i type="int" name="ISTART">     0</i>
    <i type="int" name="ICHARG">     2</i>
    <i type="int" name="INIWAV">     1</i>
   </separator>
   <separator name="electronic spin" >
    <i type="int" name="ISPIN">     1</i>
    <i type="logical" name="LNONCOLLINEAR"> F  </i>
    <v name="MAGMOM">      1.00000000      1.00000000      1.00000000      1.00000000      1.00000000      1.00000000      1.00000000      1.00000000      1.00000000      1.00000000      1.00000000      1.00000000      1.00000000      1.00000000      1.00000000      1.00000000      1.00000000      1.00000000      1.00000000      1.00000000
      1.00000000      1.00000000      1.00000000      1.00000000      1.00000000      1.00000000      1.00000000      1.00000000      1.00000000      1.00000000      1.00000000      1.00000000      1.00000000      1.00000000      1.00000000      1.00000000      1.00000000      1.00000000      1.00000000      1.00000000
      1.00000000      1.00000000      1.00000000      1.00000000      1.00000000      1.00000000      1.00000000      1.00000000      1.00000000      1.00000000      1.00000000      1.00000000      1.00000000      1.00000000      1.00000000      1.00000000      1.00000000      1.00000000      1.00000000      1.00000000
      1.00000000      1.00000000      1.00000000      1.00000000      1.00000000      1.00000000      1.00000000      1.00000000      1.00000000      1.00000000      1.00000000      1.00000000      1.00000000      1.00000000      1.00000000      1.00000000      1.00000000      1.00000000      1.00000000      1.00000000
      1.00000000      1.00000000      1.00000000      1.00000000      1.00000000      1.00000000      1.00000000      1.00000000      1.00000000      1.00000000      1.00000000      1.00000000      1.00000000      1.00000000      1.00000000      1.00000000      1.00000000      1.00000000      1.00000000      1.00000000
      1.00000000      1.00000000      1.00000000      1.00000000      1.00000000      1.00000000      1.00000000      1.00000000      1.00000000      1.00000000      1.00000000      1.00000000      1.00000000      1.00000000      1.00000000      1.00000000      1.00000000      1.00000000      1.00000000      1.00000000
      1.00000000      1.00000000      1.00000000      1.00000000      1.00000000      1.00000000      1.00000000      1.00000000      1.00000000      1.00000000      1.00000000      1.00000000      1.00000000      1.00000000      1.00000000      1.00000000      1.00000000      1.00000000      1.00000000      1.00000000
      1.00000000      1.00000000      1.00000000      1.00000000      1.00000000      1.00000000      1.00000000      1.00000000      1.00000000      1.00000000      1.00000000      1.00000000      1.00000000      1.00000000      1.00000000      1.00000000      1.00000000      1.00000000      1.00000000      1.00000000
      1.00000000      1.00000000      1.00000000      1.00000000      1.00000000      1.00000000      1.00000000      1.00000000      1.00000000      1.00000000      1.00000000      1.00000000      1.00000000      1.00000000      1.00000000      1.00000000      1.00000000      1.00000000      1.00000000      1.00000000
      1.00000000      1.00000000      1.00000000      1.00000000      1.00000000      1.00000000      1.00000000      1.00000000      1.00000000      1.00000000      1.00000000      1.00000000      1.00000000      1.00000000      1.00000000      1.00000000      1.00000000      1.00000000      1.00000000      1.00000000
      1.00000000      1.00000000      1.00000000      1.00000000      1.00000000      1.00000000      1.00000000      1.00000000      1.00000000      1.00000000      1.00000000      1.00000000      1.00000000      1.00000000      1.00000000      1.00000000      1.00000000      1.00000000      1.00000000      1.00000000
      1.00000000      1.00000000      1.00000000      1.00000000      1.00000000      1.00000000      1.00000000      1.00000000      1.00000000      1.00000000      1.00000000      1.00000000      1.00000000      1.00000000      1.00000000      1.00000000      1.00000000      1.00000000      1.00000000      1.00000000
      1.00000000      1.00000000      1.00000000      1.00000000      1.00000000      1.00000000      1.00000000      1.00000000      1.00000000      1.00000000      1.00000000      1.00000000      1.00000000      1.00000000      1.00000000      1.00000000      1.00000000      1.00000000      1.00000000      1.00000000
      1.00000000      1.00000000      1.00000000      1.00000000      1.00000000      1.00000000      1.00000000      1.00000000      1.00000000      1.00000000      1.00000000      1.00000000      1.00000000      1.00000000      1.00000000      1.00000000      1.00000000      1.00000000      1.00000000      1.00000000
      1.00000000      1.00000000      1.00000000      1.00000000      1.00000000      1.00000000      1.00000000      1.00000000</v>
    <i name="NUPDOWN">     -1.00000000</i>
    <i type="logical" name="LSORBIT"> F  </i>
    <v name="SAXIS">      0.00000000      0.00000000      1.00000000</v>
    <i type="logical" name="LSPIRAL"> F  </i>
    <v name="QSPIRAL">      0.00000000      0.00000000      0.00000000</v>
    <i type="logical" name="LZEROZ"> F  </i>
   </separator>
   <separator name="electronic exchange-correlation" >
    <i type="logical" name="LASPH"> F  </i>
    <i type="logical" name="LMETAGGA"> F  </i>
   </separator>
   <separator name="electronic convergence" >
    <i type="int" name="NELM">   100</i>
    <i type="int" name="NELMDL">     0</i>
    <i type="int" name="NELMIN">     4</i>
    <i name="ENINI">    450.00000000</i>
    <separator name="electronic convergence detail" >
     <i type="logical" name="LDIAG"> T  </i>
     <i type="logical" name="LSUBROT"> F  </i>
     <i name="WEIMIN">      0.00100000</i>
     <i name="EBREAK">      0.00000000</i>
     <i name="DEPER">      0.30000000</i>
     <i type="int" name="NRMM">     4</i>
     <i name="TIME">      0.40000000</i>
    </separator>
   </separator>
   <separator name="electronic mixer" >
    <i name="AMIX">      0.40000000</i>
    <i name="BMIX">      1.00000000</i>
    <i name="AMIN">      0.10000000</i>
    <i name="AMIX_MAG">      1.60000000</i>
    <i name="BMIX_MAG">      1.00000000</i>
    <separator name="electronic mixer details" >
     <i type="int" name="IMIX">     4</i>
     <i type="logical" name="MIXFIRST"> F  </i>
     <i type="int" name="MAXMIX">   -45</i>
     <i name="WC">    100.00000000</i>
     <i type="int" name="INIMIX">     1</i>
     <i type="int" name="MIXPRE">     1</i>
     <i type="int" name="MREMOVE">     5</i>
    </separator>
   </separator>
   <separator name="electronic dipolcorrection" >
    <i type="logical" name="LDIPOL"> F  </i>
    <i type="logical" name="LMONO"> F  </i>
    <i type="int" name="IDIPOL">     0</i>
    <i name="EPSILON">      1.00000000</i>
    <v name="DIPOL">   -100.00000000   -100.00000000   -100.00000000</v>
    <i name="EFIELD">      0.00000000</i>
   </separator>
  </separator>
  <separator name="grids" >
   <i type="int" name="NGX">    70</i>
   <i type="int" name="NGY">    60</i>
   <i type="int" name="NGZ">   320</i>
   <i type="int" name="NGXF">   140</i>
   <i type="int" name="NGYF">   120</i>
   <i type="int" name="NGZF">   640</i>
   <i type="logical" name="ADDGRID"> F  </i>
  </separator>
  <separator name="ionic" >
   <i type="int" name="NSW">     5</i>
   <i type="int" name="IBRION">     2</i>
   <i type="int" name="MDALGO">     0</i>
   <i type="int" name="ISIF">     2</i>
   <i name="PSTRESS">      0.00000000</i>
   <i name="EDIFFG">      0.00001000</i>
   <i type="int" name="NFREE">     1</i>
   <i name="POTIM">      0.25000000</i>
   <i name="SMASS">     -3.00000000</i>
   <i name="SCALEE">      1.00000000</i>
  </separator>
  <separator name="ionic md" >
   <i name="TEBEG">      0.00010000</i>
   <i name="TEEND">      0.00010000</i>
   <i type="int" name="NBLOCK">     1</i>
   <i type="int" name="KBLOCK">     5</i>
   <i type="int" name="NPACO">   256</i>
   <i name="APACO">     16.00000000</i>
  </separator>
  <separator name="symmetry" >
   <i type="int" name="ISYM">     2</i>
   <i name="SYMPREC">      0.00001000</i>
  </separator>
  <separator name="dos" >
   <i type="int" name="LORBIT">     0</i>
   <v name="RWIGS">     -1.00000000     -1.00000000</v>
   <i type="int" name="NEDOS">   301</i>
   <i name="EMIN">     10.00000000</i>
   <i name="EMAX">    -10.00000000</i>
   <i name="EFERMI">      0.00000000</i>
  </separator>
  <separator name="writing" >
   <i type="int" name="NWRITE">     2</i>
   <i type="logical" name="LWAVE"> F  </i>
   <i type="logical" name="LDOWNSAMPLE"> F  </i>
   <i type="logical" name="LCHARG"> F  </i>
   <i type="logical" name="LPARD"> F  </i>
   <i type="logical" name="LVTOT"> F  </i>
   <i type="logical" name="LVHAR"> F  </i>
   <i type="logical" name="LELF"> F  </i>
   <i type="logical" name="LOPTICS"> F  </i>
   <v name="STM">      0.00000000      0.00000000      0.00000000      0.00000000      0.00000000      0.00000000      0.00000000</v>
  </separator>
  <separator name="performance" >
   <i type="int" name="NPAR">    14</i>
   <i type="int" name="NSIM">     4</i>
   <i type="int" name="NBLK">    -1</i>
   <i type="logical" name="LPLANE"> T  </i>
   <i type="logical" name="LSCALAPACK"> T  </i>
   <i type="logical" name="LSCAAWARE"> T  </i>
   <i type="logical" name="LSCALU"> F  </i>
   <i type="logical" name="LASYNC"> F  </i>
   <i type="logical" name="LORBITALREAL"> F  </i>
  </separator>
  <separator name="miscellaneous" >
   <i type="int" name="IDIOT">     3</i>
   <i type="int" name="ISPECIAL">     0</i>
   <i type="logical" name="LMUSIC"> F  </i>
   <v name="POMASS">     55.84700000     54.93800000</v>
   <v name="DARWINR">      0.00000000      0.00000000</v>
   <v name="DARWINV">      1.00000000      1.00000000</v>
   <i type="logical" name="LCORR"> T  </i>
  </separator>
  <i type="logical" name="GGA_COMPAT"> T  </i>
  <i type="logical" name="LBERRY"> F  </i>
  <i type="int" name="ICORELEVEL">     0</i>
  <i type="logical" name="LDAU"> F  </i>
  <i type="int" name="I_CONSTRAINED_M">     0</i>
  <separator name="electronic exchange-correlation" >
   <i type="string" name="GGA">--</i>
   <i type="int" name="VOSKOWN">     0</i>
   <i type="logical" name="LHFCALC"> F  </i>
   <i type="string" name="PRECFOCK"></i>
   <i type="logical" name="LSYMGRAD"> F  </i>
   <i type="logical" name="LHFONE"> F  </i>
   <i type="logical" name="LRHFCALC"> F  </i>
   <i type="logical" name="LTHOMAS"> F  </i>
   <i type="logical" name="LMODELHF"> F  </i>
   <i name="ENCUT4O">     -1.00000000</i>
   <i type="int" name="EXXOEP">     0</i>
   <i type="int" name="FOURORBIT">     0</i>
   <i name="AEXX">      0.00000000</i>
   <i name="HFALPHA">      0.00000000</i>
   <i name="MCALPHA">      0.00000000</i>
   <i name="ALDAX">      1.00000000</i>
   <i name="AGGAX">      1.00000000</i>
   <i name="ALDAC">      1.00000000</i>
   <i name="AGGAC">      1.00000000</i>
   <i type="int" name="NKREDX">     1</i>
   <i type="int" name="NKREDY">     1</i>
   <i type="int" name="NKREDZ">     1</i>
   <i type="logical" name="SHIFTRED"> F  </i>
   <i type="logical" name="ODDONLY"> F  </i>
   <i type="logical" name="EVENONLY"> F  </i>
   <i type="int" name="LMAXFOCK">     0</i>
   <i type="int" name="NMAXFOCKAE">     0</i>
   <i type="logical" name="LFOCKAEDFT"> F  </i>
   <i name="HFSCREEN">      0.00000000</i>
   <i name="HFSCREENC">      0.00000000</i>
   <i type="int" name="NBANDSGWLOW">     0</i>
  </separator>
  <separator name="vdW DFT" >
   <i type="logical" name="LUSE_VDW"> F  </i>
   <i name="Zab_VDW">     -0.84910000</i>
   <i name="PARAM1">      0.12340000</i>
   <i name="PARAM2">      1.00000000</i>
   <i name="PARAM3">      0.00000000</i>
  </separator>
  <separator name="model GW" >
   <i type="int" name="MODEL_GW">     0</i>
   <i name="MODEL_EPS0">      7.68123389</i>
   <i name="MODEL_ALPHA">      1.00000000</i>
  </separator>
  <separator name="linear response parameters" >
   <i type="logical" name="LEPSILON"> F  </i>
   <i type="logical" name="LRPA"> F  </i>
   <i type="logical" name="LNABLA"> F  </i>
   <i type="logical" name="LVEL"> F  </i>
   <i type="int" name="KINTER">     0</i>
   <i name="CSHIFT">      0.10000000</i>
   <i name="OMEGAMAX">     -1.00000000</i>
   <i name="DEG_THRESHOLD">      0.00200000</i>
   <i name="RTIME">     -0.10000000</i>
   <i name="WPLASMAI">      0.00000000</i>
   <v name="DFIELD">      0.00000000      0.00000000      0.00000000</v>
   <v name="WPLASMA">      0.00000000      0.00000000      0.00000000      0.00000000      0.00000000      0.00000000      0.00000000      0.00000000      0.00000000</v>
  </separator>
  <separator name="orbital magnetization" >
   <i type="logical" name="NUCIND"> F  </i>
   <v name="MAGPOS">      0.00000000      0.00000000      0.00000000</v>
   <i type="logical" name="LNICSALL"> T  </i>
   <i type="logical" name="ORBITALMAG"> F  </i>
   <i type="logical" name="LMAGBLOCH"> F  </i>
   <i type="logical" name="LCHIMAG"> F  </i>
   <i type="logical" name="LGAUGE"> T  </i>
   <i type="int" name="MAGATOM">     0</i>
   <v name="MAGDIPOL">      0.00000000      0.00000000      0.00000000</v>
   <v name="AVECCONST">      0.00000000      0.00000000      0.00000000</v>
  </separator>
  <separator name="response functions" >
   <i type="logical" name="LADDER"> F  </i>
   <i type="logical" name="LRPAFORCE"> F  </i>
   <i type="logical" name="LFXC"> F  </i>
   <i type="logical" name="LHARTREE"> T  </i>
   <i type="int" name="IBSE">     0</i>
   <v type="int" name="KPOINT">    -1     0     0     0</v>
   <i type="logical" name="LTCTE"> F  </i>
   <i type="logical" name="LTETE"> F  </i>
   <i type="logical" name="LTRIPLET"> F  </i>
   <i type="logical" name="LFXCEPS"> F  </i>
   <i type="logical" name="LFXHEG"> F  </i>
   <i type="int" name="NATURALO">     2</i>
   <i type="logical" name="L2ORDER"> F  </i>
   <i type="logical" name="LMP2LT"> F  </i>
   <i type="logical" name="LUSEW"> F  </i>
   <i name="ENCUTGW">     -2.00000000</i>
   <i name="ENCUTGWSOFT">     -2.00000000</i>
   <i name="ENCUTLF">     -1.00000000</i>
   <i type="int" name="LMAXMP2">    -1</i>
   <i name="SCISSOR">      0.00000000</i>
   <i type="int" name="NOMEGA">     0</i>
   <i type="int" name="NOMEGAR">     0</i>
   <i type="int" name="NBANDSGW">    -1</i>
   <i type="int" name="NBANDSO">    -1</i>
   <i type="int" name="NBANDSV">    -1</i>
   <i type="int" name="NELM">   100</i>
   <i type="int" name="NELMHF">     1</i>
   <i type="int" name="DIM">     3</i>
   <i type="int" name="ANTIRES">     0</i>
   <i name="OMEGAMAX">    -30.00000000</i>
   <i name="OMEGAMIN">    -30.00000000</i>
   <i name="OMEGATL">   -200.00000000</i>
   <i type="int" name="OMEGAGRID">   140</i>
   <i name="CSHIFT">     -0.10000000</i>
   <i type="logical" name="SELFENERGY"> F  </i>
   <i type="logical" name="LSPECTRAL"> F  </i>
   <i type="logical" name="LSPECTRALGW"> F  </i>
   <i type="logical" name="LSINGLES"> F  </i>
   <i type="logical" name="LFERMIGW"> F  </i>
   <i type="logical" name="ODDONLYGW"> F  </i>
   <i type="logical" name="EVENONLYGW"> F  </i>
   <i type="int" name="NKREDLFX">     1</i>
   <i type="int" name="NKREDLFY">     1</i>
   <i type="int" name="NKREDLFZ">     1</i>
   <i type="int" name="MAXMEM">  2800</i>
   <i type="int" name="TELESCOPE">     0</i>
   <i type="int" name="TAUPAR">     1</i>
   <i type="int" name="OMEGAPAR">    -1</i>
   <i name="LAMBDA">      1.00000000</i>
  </separator>
  <separator name="External order field" >
   <i name="OFIELD_KAPPA">      0.00000000</i>
   <v name="OFIELD_K">      0.00000000      0.00000000      0.00000000</v>
   <i name="OFIELD_Q6_NEAR">      0.00000000</i>
   <i name="OFIELD_Q6_FAR">      0.00000000</i>
   <i name="OFIELD_A">      0.00000000</i>
  </separator>
 </parameters>
 <atominfo>
  <atoms>     288 </atoms>
  <types>       2 </types>
  <array name="atoms" >
   <dimension dim="1">ion</dimension>
   <field type="string">element</field>
   <field type="int">atomtype</field>
   <set>
    <rc><c>Fe</c><c>   1</c></rc>
    <rc><c>Fe</c><c>   1</c></rc>
    <rc><c>Fe</c><c>   1</c></rc>
    <rc><c>Fe</c><c>   1</c></rc>
    <rc><c>Fe</c><c>   1</c></rc>
    <rc><c>Fe</c><c>   1</c></rc>
    <rc><c>Fe</c><c>   1</c></rc>
    <rc><c>Fe</c><c>   1</c></rc>
    <rc><c>Fe</c><c>   1</c></rc>
    <rc><c>Fe</c><c>   1</c></rc>
    <rc><c>Fe</c><c>   1</c></rc>
    <rc><c>Fe</c><c>   1</c></rc>
    <rc><c>Fe</c><c>   1</c></rc>
    <rc><c>Fe</c><c>   1</c></rc>
    <rc><c>Fe</c><c>   1</c></rc>
    <rc><c>Fe</c><c>   1</c></rc>
    <rc><c>Fe</c><c>   1</c></rc>
    <rc><c>Fe</c><c>   1</c></rc>
    <rc><c>Fe</c><c>   1</c></rc>
    <rc><c>Fe</c><c>   1</c></rc>
    <rc><c>Fe</c><c>   1</c></rc>
    <rc><c>Fe</c><c>   1</c></rc>
    <rc><c>Fe</c><c>   1</c></rc>
    <rc><c>Fe</c><c>   1</c></rc>
    <rc><c>Fe</c><c>   1</c></rc>
    <rc><c>Fe</c><c>   1</c></rc>
    <rc><c>Fe</c><c>   1</c></rc>
    <rc><c>Fe</c><c>   1</c></rc>
    <rc><c>Fe</c><c>   1</c></rc>
    <rc><c>Fe</c><c>   1</c></rc>
    <rc><c>Fe</c><c>   1</c></rc>
    <rc><c>Fe</c><c>   1</c></rc>
    <rc><c>Fe</c><c>   1</c></rc>
    <rc><c>Fe</c><c>   1</c></rc>
    <rc><c>Fe</c><c>   1</c></rc>
    <rc><c>Fe</c><c>   1</c></rc>
    <rc><c>Fe</c><c>   1</c></rc>
    <rc><c>Fe</c><c>   1</c></rc>
    <rc><c>Fe</c><c>   1</c></rc>
    <rc><c>Fe</c><c>   1</c></rc>
    <rc><c>Fe</c><c>   1</c></rc>
    <rc><c>Fe</c><c>   1</c></rc>
    <rc><c>Fe</c><c>   1</c></rc>
    <rc><c>Fe</c><c>   1</c></rc>
    <rc><c>Fe</c><c>   1</c></rc>
    <rc><c>Fe</c><c>   1</c></rc>
    <rc><c>Fe</c><c>   1</c></rc>
    <rc><c>Fe</c><c>   1</c></rc>
    <rc><c>Fe</c><c>   1</c></rc>
    <rc><c>Fe</c><c>   1</c></rc>
    <rc><c>Fe</c><c>   1</c></rc>
    <rc><c>Fe</c><c>   1</c></rc>
    <rc><c>Fe</c><c>   1</c></rc>
    <rc><c>Fe</c><c>   1</c></rc>
    <rc><c>Fe</c><c>   1</c></rc>
    <rc><c>Fe</c><c>   1</c></rc>
    <rc><c>Fe</c><c>   1</c></rc>
    <rc><c>Fe</c><c>   1</c></rc>
    <rc><c>Fe</c><c>   1</c></rc>
    <rc><c>Fe</c><c>   1</c></rc>
    <rc><c>Fe</c><c>   1</c></rc>
    <rc><c>Fe</c><c>   1</c></rc>
    <rc><c>Fe</c><c>   1</c></rc>
    <rc><c>Fe</c><c>   1</c></rc>
    <rc><c>Fe</c><c>   1</c></rc>
    <rc><c>Fe</c><c>   1</c></rc>
    <rc><c>Fe</c><c>   1</c></rc>
    <rc><c>Fe</c><c>   1</c></rc>
    <rc><c>Fe</c><c>   1</c></rc>
    <rc><c>Fe</c><c>   1</c></rc>
    <rc><c>Fe</c><c>   1</c></rc>
    <rc><c>Fe</c><c>   1</c></rc>
    <rc><c>Fe</c><c>   1</c></rc>
    <rc><c>Fe</c><c>   1</c></rc>
    <rc><c>Fe</c><c>   1</c></rc>
    <rc><c>Fe</c><c>   1</c></rc>
    <rc><c>Fe</c><c>   1</c></rc>
    <rc><c>Fe</c><c>   1</c></rc>
    <rc><c>Fe</c><c>   1</c></rc>
    <rc><c>Fe</c><c>   1</c></rc>
    <rc><c>Fe</c><c>   1</c></rc>
    <rc><c>Fe</c><c>   1</c></rc>
    <rc><c>Fe</c><c>   1</c></rc>
    <rc><c>Fe</c><c>   1</c></rc>
    <rc><c>Fe</c><c>   1</c></rc>
    <rc><c>Fe</c><c>   1</c></rc>
    <rc><c>Fe</c><c>   1</c></rc>
    <rc><c>Fe</c><c>   1</c></rc>
    <rc><c>Fe</c><c>   1</c></rc>
    <rc><c>Fe</c><c>   1</c></rc>
    <rc><c>Fe</c><c>   1</c></rc>
    <rc><c>Fe</c><c>   1</c></rc>
    <rc><c>Fe</c><c>   1</c></rc>
    <rc><c>Fe</c><c>   1</c></rc>
    <rc><c>Fe</c><c>   1</c></rc>
    <rc><c>Fe</c><c>   1</c></rc>
    <rc><c>Fe</c><c>   1</c></rc>
    <rc><c>Fe</c><c>   1</c></rc>
    <rc><c>Fe</c><c>   1</c></rc>
    <rc><c>Fe</c><c>   1</c></rc>
    <rc><c>Fe</c><c>   1</c></rc>
    <rc><c>Fe</c><c>   1</c></rc>
    <rc><c>Fe</c><c>   1</c></rc>
    <rc><c>Fe</c><c>   1</c></rc>
    <rc><c>Fe</c><c>   1</c></rc>
    <rc><c>Fe</c><c>   1</c></rc>
    <rc><c>Fe</c><c>   1</c></rc>
    <rc><c>Fe</c><c>   1</c></rc>
    <rc><c>Fe</c><c>   1</c></rc>
    <rc><c>Fe</c><c>   1</c></rc>
    <rc><c>Fe</c><c>   1</c></rc>
    <rc><c>Fe</c><c>   1</c></rc>
    <rc><c>Fe</c><c>   1</c></rc>
    <rc><c>Fe</c><c>   1</c></rc>
    <rc><c>Fe</c><c>   1</c></rc>
    <rc><c>Fe</c><c>   1</c></rc>
    <rc><c>Fe</c><c>   1</c></rc>
    <rc><c>Fe</c><c>   1</c></rc>
    <rc><c>Fe</c><c>   1</c></rc>
    <rc><c>Fe</c><c>   1</c></rc>
    <rc><c>Fe</c><c>   1</c></rc>
    <rc><c>Fe</c><c>   1</c></rc>
    <rc><c>Fe</c><c>   1</c></rc>
    <rc><c>Fe</c><c>   1</c></rc>
    <rc><c>Fe</c><c>   1</c></rc>
    <rc><c>Fe</c><c>   1</c></rc>
    <rc><c>Fe</c><c>   1</c></rc>
    <rc><c>Fe</c><c>   1</c></rc>
    <rc><c>Fe</c><c>   1</c></rc>
    <rc><c>Fe</c><c>   1</c></rc>
    <rc><c>Fe</c><c>   1</c></rc>
    <rc><c>Fe</c><c>   1</c></rc>
    <rc><c>Fe</c><c>   1</c></rc>
    <rc><c>Fe</c><c>   1</c></rc>
    <rc><c>Fe</c><c>   1</c></rc>
    <rc><c>Fe</c><c>   1</c></rc>
    <rc><c>Fe</c><c>   1</c></rc>
    <rc><c>Fe</c><c>   1</c></rc>
    <rc><c>Fe</c><c>   1</c></rc>
    <rc><c>Fe</c><c>   1</c></rc>
    <rc><c>Fe</c><c>   1</c></rc>
    <rc><c>Fe</c><c>   1</c></rc>
    <rc><c>Fe</c><c>   1</c></rc>
    <rc><c>Fe</c><c>   1</c></rc>
    <rc><c>Fe</c><c>   1</c></rc>
    <rc><c>Fe</c><c>   1</c></rc>
    <rc><c>Fe</c><c>   1</c></rc>
    <rc><c>Fe</c><c>   1</c></rc>
    <rc><c>Fe</c><c>   1</c></rc>
    <rc><c>Fe</c><c>   1</c></rc>
    <rc><c>Fe</c><c>   1</c></rc>
    <rc><c>Fe</c><c>   1</c></rc>
    <rc><c>Fe</c><c>   1</c></rc>
    <rc><c>Fe</c><c>   1</c></rc>
    <rc><c>Fe</c><c>   1</c></rc>
    <rc><c>Fe</c><c>   1</c></rc>
    <rc><c>Fe</c><c>   1</c></rc>
    <rc><c>Fe</c><c>   1</c></rc>
    <rc><c>Fe</c><c>   1</c></rc>
    <rc><c>Fe</c><c>   1</c></rc>
    <rc><c>Fe</c><c>   1</c></rc>
    <rc><c>Fe</c><c>   1</c></rc>
    <rc><c>Fe</c><c>   1</c></rc>
    <rc><c>Fe</c><c>   1</c></rc>
    <rc><c>Fe</c><c>   1</c></rc>
    <rc><c>Fe</c><c>   1</c></rc>
    <rc><c>Fe</c><c>   1</c></rc>
    <rc><c>Fe</c><c>   1</c></rc>
    <rc><c>Fe</c><c>   1</c></rc>
    <rc><c>Fe</c><c>   1</c></rc>
    <rc><c>Fe</c><c>   1</c></rc>
    <rc><c>Fe</c><c>   1</c></rc>
    <rc><c>Fe</c><c>   1</c></rc>
    <rc><c>Fe</c><c>   1</c></rc>
    <rc><c>Fe</c><c>   1</c></rc>
    <rc><c>Fe</c><c>   1</c></rc>
    <rc><c>Fe</c><c>   1</c></rc>
    <rc><c>Fe</c><c>   1</c></rc>
    <rc><c>Fe</c><c>   1</c></rc>
    <rc><c>Fe</c><c>   1</c></rc>
    <rc><c>Fe</c><c>   1</c></rc>
    <rc><c>Fe</c><c>   1</c></rc>
    <rc><c>Fe</c><c>   1</c></rc>
    <rc><c>Fe</c><c>   1</c></rc>
    <rc><c>Fe</c><c>   1</c></rc>
    <rc><c>Fe</c><c>   1</c></rc>
    <rc><c>Fe</c><c>   1</c></rc>
    <rc><c>Fe</c><c>   1</c></rc>
    <rc><c>Fe</c><c>   1</c></rc>
    <rc><c>Fe</c><c>   1</c></rc>
    <rc><c>Fe</c><c>   1</c></rc>
    <rc><c>Fe</c><c>   1</c></rc>
    <rc><c>Fe</c><c>   1</c></rc>
    <rc><c>Fe</c><c>   1</c></rc>
    <rc><c>Fe</c><c>   1</c></rc>
    <rc><c>Fe</c><c>   1</c></rc>
    <rc><c>Fe</c><c>   1</c></rc>
    <rc><c>Fe</c><c>   1</c></rc>
    <rc><c>Fe</c><c>   1</c></rc>
    <rc><c>Fe</c><c>   1</c></rc>
    <rc><c>Fe</c><c>   1</c></rc>
    <rc><c>Fe</c><c>   1</c></rc>
    <rc><c>Fe</c><c>   1</c></rc>
    <rc><c>Fe</c><c>   1</c></rc>
    <rc><c>Fe</c><c>   1</c></rc>
    <rc><c>Fe</c><c>   1</c></rc>
    <rc><c>Fe</c><c>   1</c></rc>
    <rc><c>Fe</c><c>   1</c></rc>
    <rc><c>Fe</c><c>   1</c></rc>
    <rc><c>Fe</c><c>   1</c></rc>
    <rc><c>Fe</c><c>   1</c></rc>
    <rc><c>Fe</c><c>   1</c></rc>
    <rc><c>Fe</c><c>   1</c></rc>
    <rc><c>Fe</c><c>   1</c></rc>
    <rc><c>Fe</c><c>   1</c></rc>
    <rc><c>Fe</c><c>   1</c></rc>
    <rc><c>Fe</c><c>   1</c></rc>
    <rc><c>Fe</c><c>   1</c></rc>
    <rc><c>Fe</c><c>   1</c></rc>
    <rc><c>Fe</c><c>   1</c></rc>
    <rc><c>Fe</c><c>   1</c></rc>
    <rc><c>Fe</c><c>   1</c></rc>
    <rc><c>Fe</c><c>   1</c></rc>
    <rc><c>Fe</c><c>   1</c></rc>
    <rc><c>Fe</c><c>   1</c></rc>
    <rc><c>Fe</c><c>   1</c></rc>
    <rc><c>Fe</c><c>   1</c></rc>
    <rc><c>Fe</c><c>   1</c></rc>
    <rc><c>Fe</c><c>   1</c></rc>
    <rc><c>Fe</c><c>   1</c></rc>
    <rc><c>Fe</c><c>   1</c></rc>
    <rc><c>Fe</c><c>   1</c></rc>
    <rc><c>Fe</c><c>   1</c></rc>
    <rc><c>Fe</c><c>   1</c></rc>
    <rc><c>Fe</c><c>   1</c></rc>
    <rc><c>Fe</c><c>   1</c></rc>
    <rc><c>Fe</c><c>   1</c></rc>
    <rc><c>Fe</c><c>   1</c></rc>
    <rc><c>Fe</c><c>   1</c></rc>
    <rc><c>Fe</c><c>   1</c></rc>
    <rc><c>Fe</c><c>   1</c></rc>
    <rc><c>Fe</c><c>   1</c></rc>
    <rc><c>Fe</c><c>   1</c></rc>
    <rc><c>Fe</c><c>   1</c></rc>
    <rc><c>Fe</c><c>   1</c></rc>
    <rc><c>Fe</c><c>   1</c></rc>
    <rc><c>Fe</c><c>   1</c></rc>
    <rc><c>Fe</c><c>   1</c></rc>
    <rc><c>Fe</c><c>   1</c></rc>
    <rc><c>Fe</c><c>   1</c></rc>
    <rc><c>Fe</c><c>   1</c></rc>
    <rc><c>Fe</c><c>   1</c></rc>
    <rc><c>Fe</c><c>   1</c></rc>
    <rc><c>Fe</c><c>   1</c></rc>
    <rc><c>Fe</c><c>   1</c></rc>
    <rc><c>Fe</c><c>   1</c></rc>
    <rc><c>Fe</c><c>   1</c></rc>
    <rc><c>Fe</c><c>   1</c></rc>
    <rc><c>Fe</c><c>   1</c></rc>
    <rc><c>Fe</c><c>   1</c></rc>
    <rc><c>Fe</c><c>   1</c></rc>
    <rc><c>Fe</c><c>   1</c></rc>
    <rc><c>Fe</c><c>   1</c></rc>
    <rc><c>Fe</c><c>   1</c></rc>
    <rc><c>Fe</c><c>   1</c></rc>
    <rc><c>Fe</c><c>   1</c></rc>
    <rc><c>Fe</c><c>   1</c></rc>
    <rc><c>Fe</c><c>   1</c></rc>
    <rc><c>Fe</c><c>   1</c></rc>
    <rc><c>Fe</c><c>   1</c></rc>
    <rc><c>Fe</c><c>   1</c></rc>
    <rc><c>Fe</c><c>   1</c></rc>
    <rc><c>Fe</c><c>   1</c></rc>
    <rc><c>Fe</c><c>   1</c></rc>
    <rc><c>Mn</c><c>   2</c></rc>
    <rc><c>Mn</c><c>   2</c></rc>
    <rc><c>Mn</c><c>   2</c></rc>
    <rc><c>Mn</c><c>   2</c></rc>
    <rc><c>Mn</c><c>   2</c></rc>
    <rc><c>Mn</c><c>   2</c></rc>
    <rc><c>Mn</c><c>   2</c></rc>
    <rc><c>Mn</c><c>   2</c></rc>
    <rc><c>Mn</c><c>   2</c></rc>
    <rc><c>Mn</c><c>   2</c></rc>
    <rc><c>Mn</c><c>   2</c></rc>
    <rc><c>Mn</c><c>   2</c></rc>
    <rc><c>Mn</c><c>   2</c></rc>
    <rc><c>Mn</c><c>   2</c></rc>
   </set>
  </array>
  <array name="atomtypes" >
   <dimension dim="1">type</dimension>
   <field type="int">atomspertype</field>
   <field type="string">element</field>
   <field>mass</field>
   <field>valence</field>
   <field type="string">pseudopotential</field>
   <set>
    <rc><c> 274</c><c>Fe</c><c>     55.84700000</c><c>      8.00000000</c><c>  PAW_PBE Fe_GW 31Mar2010               </c></rc>
    <rc><c>  14</c><c>Mn</c><c>     54.93800000</c><c>      7.00000000</c><c>  PAW_PBE Mn_GW 31Mar2010               </c></rc>
   </set>
  </array>
 </atominfo>
 <structure name="initialpos" >
  <crystal>
   <varray name="basis" >
    <v>       9.72667804       0.00000000       0.00000000 </v>
    <v>       0.00000000       8.42355028       0.00000000 </v>
    <v>       0.00000000       0.00000000      45.00000000 </v>
   </varray>
   <i name="volume">   3686.99226691 </i>
   <varray name="rec_basis" >
    <v>       0.10281002       0.00000000       0.00000000 </v>
    <v>       0.00000000       0.11871479       0.00000000 </v>
    <v>       0.00000000       0.00000000       0.02222222 </v>
   </varray>
  </crystal>
  <varray name="positions" >
   <v>       0.06185159       0.03012247       0.12409148 </v>
   <v>       0.31638177       0.87507343       0.65500521 </v>
   <v>       0.18370715       0.12308389       0.78859474 </v>
   <v>       0.44155434       0.28753367       0.38910757 </v>
   <v>       0.31810258       0.71405619       0.83320044 </v>
   <v>       0.81828123       0.21526478       0.83359668 </v>
   <v>       0.19168632       0.96376377       0.83359069 </v>
   <v>       0.56227659       0.20695913       0.56551251 </v>
   <v>       0.06562283       0.04046491       0.74415047 </v>
   <v>       0.81163662       0.87147252       0.52139397 </v>
   <v>       0.19064554       0.29092024       0.74429104 </v>
   <v>       0.93352715       0.45233130       0.34483970 </v>
   <v>       0.94095268       0.28637695       0.38893078 </v>
   <v>       0.81263679       0.04078727       0.87578546 </v>
   <v>       0.18375956       0.78805803       0.61095516 </v>
   <v>       0.56638847       0.03779162       0.38904444 </v>
   <v>       0.94263547       0.96497249       0.83393312 </v>
   <v>       0.31347826       0.54079956       0.87610925 </v>
   <v>       0.69000160       0.29136256       0.74419651 </v>
   <v>       0.18194757       0.61357284       0.16656614 </v>
   <v>       0.81217887       0.20593003       0.47869224 </v>
   <v>       0.80901736       0.53835857       0.61107835 </v>
   <v>       0.31193560       0.87064491       0.43444897 </v>
   <v>       0.80977485       0.03737444       0.25604240 </v>
   <v>       0.68294187       0.95166224       0.34465179 </v>
   <v>       0.93205139       0.11351628       0.16696583 </v>
   <v>       0.06189520       0.87169714       0.52141189 </v>
   <v>       0.55791300       0.53760218       0.25566253 </v>
   <v>       0.68441193       0.79845348       0.87594954 </v>
   <v>       0.55589850       0.36520011       0.16663929 </v>
   <v>       0.43967019       0.79189513       0.74439688 </v>
   <v>       0.81137763       0.70669936       0.56551482 </v>
   <v>       0.55837400       0.87391344       0.78882242 </v>
   <v>       0.68674811       0.12169988       0.52142637 </v>
   <v>       0.81635381       0.37481482       0.65513577 </v>
   <v>       0.94222550       0.46388105       0.83373154 </v>
   <v>       0.06074024       0.20745548       0.69975328 </v>
   <v>       0.43587429       0.95765109       0.69969286 </v>
   <v>       0.31708769       0.21299137       0.83349441 </v>
   <v>       0.44111267       0.62489102       0.65514152 </v>
   <v>       0.30879522       0.53789212       0.61086240 </v>
   <v>       0.93654221       0.45659365       0.56559529 </v>
   <v>       0.69040644       0.79159895       0.74433522 </v>
   <v>       0.93392425       0.78778520       0.12439796 </v>
   <v>       0.69182443       0.78778269       0.38903824 </v>
   <v>       0.93989164       0.79132835       0.74461166 </v>
   <v>       0.05878039       0.20295662       0.34496951 </v>
   <v>       0.68377531       0.45236035       0.34496574 </v>
   <v>       0.43360943       0.12264137       0.78910060 </v>
   <v>       0.06529382       0.20331602       0.21099431 </v>
   <v>       0.05566834       0.36503022       0.16667003 </v>
   <v>       0.93326957       0.78713993       0.25557925 </v>
   <v>       0.56031896       0.20742239       0.69981257 </v>
   <v>       0.68566929       0.95750410       0.69973558 </v>
   <v>       0.80772717       0.87366355       0.78836484 </v>
   <v>       0.43672522       0.95689951       0.56539924 </v>
   <v>       0.80823750       0.37541667       0.78852540 </v>
   <v>       0.68377807       0.28714527       0.25584030 </v>
   <v>       0.18718971       0.45720115       0.56552399 </v>
   <v>       0.05615084       0.86469013       0.16660144 </v>
   <v>       0.18378909       0.28818972       0.61101806 </v>
   <v>       0.06226223       0.20742338       0.56538976 </v>
   <v>       0.31081948       0.20751361       0.69989416 </v>
   <v>       0.56236186       0.54082271       0.87600060 </v>
   <v>       0.06235788       0.70686038       0.56556501 </v>
   <v>       0.68266650       0.62280722       0.78866394 </v>
   <v>       0.31582677       0.53823733       0.38889303 </v>
   <v>       0.18690171       0.62151985       0.52142417 </v>
   <v>       0.56263802       0.87051377       0.43445114 </v>
   <v>       0.43659613       0.45680690       0.56556715 </v>
   <v>       0.43966289       0.29147887       0.74429909 </v>
   <v>       0.82114488       0.87379793       0.30021314 </v>
   <v>       0.80871304       0.70255557       0.34495494 </v>
   <v>       0.44254893       0.46323183       0.83342633 </v>
   <v>       0.68744906       0.95601609       0.47865278 </v>
   <v>       0.68476460       0.45772049       0.69977886 </v>
   <v>       0.56212403       0.87207156       0.52145710 </v>
   <v>       0.56635344       0.37505584       0.65486770 </v>
   <v>       0.81614199       0.87511860       0.65497984 </v>
   <v>       0.81175855       0.37146890       0.43420613 </v>
   <v>       0.80865414       0.53709559       0.25591504 </v>
   <v>       0.69233932       0.46211770       0.83339512 </v>
   <v>       0.18558657       0.78856127       0.12403001 </v>
   <v>       0.69133001       0.28733910       0.38905574 </v>
   <v>       0.31650402       0.37496644       0.65486562 </v>
   <v>       0.30896643       0.20273079       0.34465620 </v>
   <v>       0.81584899       0.54041159       0.74397286 </v>
   <v>       0.69189633       0.96240216       0.83348732 </v>
   <v>       0.56612769       0.87504428       0.65504556 </v>
   <v>       0.31134239       0.70712745       0.56548545 </v>
   <v>       0.31268678       0.52929742       0.12389042 </v>
   <v>       0.68952495       0.95458515       0.21178001 </v>
   <v>       0.31136492       0.20648237       0.56550645 </v>
   <v>       0.18737670       0.95574031       0.47866636 </v>
   <v>       0.68728426       0.95707922       0.56552000 </v>
   <v>       0.43372644       0.78807349       0.61089974 </v>
   <v>       0.68225047       0.61306677       0.16644284 </v>
   <v>       0.31902664       0.87353601       0.30010859 </v>
   <v>       0.31229451       0.70571595       0.47864394 </v>
   <v>       0.93364271       0.28785838       0.61090125 </v>
   <v>       0.44623097       0.62360009       0.30009752 </v>
   <v>       0.80720016       0.86352672       0.16688661 </v>
   <v>       0.56625539       0.20255522       0.21141277 </v>
   <v>       0.93227787       0.61361326       0.16673900 </v>
   <v>       0.43732220       0.95585066       0.47865311 </v>
   <v>       0.55826714       0.37386770       0.78884377 </v>
   <v>       0.06148866       0.37232808       0.52139444 </v>
   <v>       0.30718977       0.36456966       0.16652826 </v>
   <v>       0.69547404       0.12302935       0.30030260 </v>
   <v>       0.44297906       0.96372034       0.83334487 </v>
   <v>       0.18395378       0.28658598       0.12400979 </v>
   <v>       0.18375002       0.28744652       0.25582966 </v>
   <v>       0.31246383       0.37045706       0.43449069 </v>
   <v>       0.56361187       0.03281703       0.12428469 </v>
   <v>       0.43401349       0.28836017       0.61099730 </v>
   <v>       0.18359832       0.45266130       0.34489398 </v>
   <v>       0.43605297       0.28679434       0.12404848 </v>
   <v>       0.68370835       0.78732918       0.25581300 </v>
   <v>       0.43692073       0.12171652       0.52145792 </v>
   <v>       0.18856424       0.29687951       0.87615826 </v>
   <v>       0.19127660       0.12518063       0.65508589 </v>
   <v>       0.94122855       0.12501425       0.65497787 </v>
   <v>       0.81606849       0.53757630       0.38899212 </v>
   <v>       0.06657451       0.03830511       0.38914144 </v>
   <v>       0.18288366       0.11200310       0.16649137 </v>
   <v>       0.05877798       0.53792652       0.61094946 </v>
   <v>       0.93389918       0.28712854       0.25585624 </v>
   <v>       0.55874342       0.53789097       0.61089349 </v>
   <v>       0.93672625       0.95726924       0.56545749 </v>
   <v>       0.69484564       0.62343677       0.30011958 </v>
   <v>       0.93753824       0.62063127       0.43443977 </v>
   <v>       0.93265919       0.62429543       0.78832858 </v>
   <v>       0.55980431       0.70688610       0.69974941 </v>
   <v>       0.06645007       0.71670187       0.83381917 </v>
   <v>       0.94536809       0.12254925       0.30008775 </v>
   <v>       0.93366759       0.78760363       0.61093327 </v>
   <v>       0.43263804       0.78748872       0.25560518 </v>
   <v>       0.30838770       0.37454884       0.78880003 </v>
   <v>       0.43940817       0.45379720       0.21142932 </v>
   <v>       0.18681952       0.12179878       0.52142890 </v>
   <v>       0.81030203       0.70786356       0.69968626 </v>
   <v>       0.05871500       0.03780634       0.61087125 </v>
   <v>       0.56625225       0.21371899       0.83324163 </v>
   <v>       0.31179081       0.87185629       0.52139403 </v>
   <v>       0.68703306       0.28521193       0.12419299 </v>
   <v>       0.19036492       0.95470687       0.21171064 </v>
   <v>       0.68389755       0.28837400       0.61094154 </v>
   <v>       0.30867760       0.03806469       0.61090554 </v>
   <v>       0.93397881       0.12416399       0.78856529 </v>
   <v>       0.43659622       0.79813955       0.87622054 </v>
   <v>       0.81586685       0.04059186       0.74424873 </v>
   <v>       0.93530250       0.45810684       0.69962072 </v>
   <v>       0.19121141       0.62500969       0.65508046 </v>
   <v>       0.31102452       0.70709196       0.69975104 </v>
   <v>       0.93577902       0.28635056       0.12394774 </v>
   <v>       0.43740313       0.45605483       0.47856454 </v>
   <v>       0.06228875       0.70575857       0.47851659 </v>
   <v>       0.93697213       0.12011722       0.43452133 </v>
   <v>       0.44451805       0.12317687       0.30049974 </v>
   <v>       0.18727367       0.12040173       0.43424501 </v>
   <v>       0.56279454       0.04077668       0.87608236 </v>
   <v>       0.18695641       0.95724374       0.56550610 </v>
   <v>       0.68493234       0.78798663       0.12428073 </v>
   <v>       0.55891356       0.70208956       0.34488271 </v>
   <v>       0.31642602       0.03708790       0.38890876 </v>
   <v>       0.68206211       0.11393241       0.16694295 </v>
   <v>       0.81578303       0.20340883       0.21110112 </v>
   <v>       0.05905723       0.53720688       0.25564258 </v>
   <v>       0.56243915       0.70574598       0.47869549 </v>
   <v>       0.43549137       0.78711901       0.12416851 </v>
   <v>       0.56971719       0.37160686       0.30004247 </v>
   <v>       0.43361094       0.95250798       0.34488128 </v>
   <v>       0.18545411       0.95781824       0.69972224 </v>
   <v>       0.43130278       0.61218685       0.16581151 </v>
   <v>       0.93963842       0.45351361       0.21149209 </v>
   <v>       0.06163677       0.52889521       0.12397475 </v>
   <v>       0.81190708       0.37206703       0.52138324 </v>
   <v>       0.94496347       0.62273616       0.29988281 </v>
   <v>       0.30888449       0.03719318       0.25549555 </v>
   <v>       0.68372344       0.78788574       0.61090530 </v>
   <v>       0.19183974       0.46361820       0.83349969 </v>
   <v>       0.43284197       0.11201305       0.16652359 </v>
   <v>       0.31165406       0.37210627       0.52139138 </v>
   <v>       0.43297594       0.62295455       0.78893604 </v>
   <v>       0.05891876       0.03727591       0.25581941 </v>
   <v>       0.56235177       0.70694384       0.56556476 </v>
   <v>       0.93933906       0.29081747       0.74453662 </v>
   <v>       0.68188660       0.12298403       0.78855817 </v>
   <v>       0.19023212       0.45309863       0.21102811 </v>
   <v>       0.94114476       0.78767869       0.38886561 </v>
   <v>       0.68537958       0.29921024       0.87604568 </v>
   <v>       0.55683631       0.86209236       0.16656957 </v>
   <v>       0.80587881       0.36543931       0.16685448 </v>
   <v>       0.93387945       0.95120320       0.34470034 </v>
   <v>       0.68654870       0.62146945       0.52134454 </v>
   <v>       0.06649976       0.87486489       0.65494097 </v>
   <v>       0.05881668       0.87439504       0.78848088 </v>
   <v>       0.06619580       0.37487240       0.65502818 </v>
   <v>       0.68719012       0.45584816       0.47865166 </v>
   <v>       0.18371342       0.78719522       0.25547698 </v>
   <v>       0.43682124       0.12102578       0.43428554 </v>
   <v>       0.81347398       0.03095466       0.12415018 </v>
   <v>       0.93674495       0.62193889       0.52141413 </v>
   <v>       0.44158175       0.12486367       0.65492865 </v>
   <v>       0.81354110       0.52914326       0.12397983 </v>
   <v>       0.43387441       0.45258821       0.34495891 </v>
   <v>       0.80911854       0.20267357       0.34502460 </v>
   <v>       0.30912583       0.70178891       0.34485538 </v>
   <v>       0.69127578       0.12490952       0.65490631 </v>
   <v>       0.57054280       0.87314594       0.30030194 </v>
   <v>       0.06554066       0.54079998       0.74423597 </v>
   <v>       0.94090486       0.95412738       0.21134423 </v>
   <v>       0.81624458       0.70371593       0.21150067 </v>
   <v>       0.07013775       0.87349626       0.30028703 </v>
   <v>       0.19505885       0.12371203       0.30027336 </v>
   <v>       0.05862646       0.70211598       0.34490507 </v>
   <v>       0.80888591       0.03829650       0.61101940 </v>
   <v>       0.06283676       0.37192640       0.43427466 </v>
   <v>       0.55908927       0.20257544       0.34480853 </v>
   <v>       0.81985836       0.37284527       0.29996291 </v>
   <v>       0.56020517       0.03737367       0.25551667 </v>
   <v>       0.56641646       0.53768979       0.38902327 </v>
   <v>       0.06249723       0.20597886       0.47864465 </v>
   <v>       0.31004344       0.87346307       0.78856822 </v>
   <v>       0.93554180       0.95780879       0.69965766 </v>
   <v>       0.06949793       0.37447575       0.30001441 </v>
   <v>       0.69113445       0.62498752       0.65516037 </v>
   <v>       0.68655223       0.45669029       0.56540380 </v>
   <v>       0.44162512       0.95587696       0.21206998 </v>
   <v>       0.31248235       0.20582185       0.47875662 </v>
   <v>       0.81206038       0.54034116       0.87588427 </v>
   <v>       0.68809983       0.62059999       0.43448204 </v>
   <v>       0.81103982       0.20719134       0.69980729 </v>
   <v>       0.81248655       0.70573353       0.47864548 </v>
   <v>       0.81164738       0.87140959       0.43421009 </v>
   <v>       0.93747406       0.95541265       0.47870525 </v>
   <v>       0.56212282       0.20578216       0.47866782 </v>
   <v>       0.18748198       0.62029836       0.43448506 </v>
   <v>       0.31523864       0.04158427       0.74417501 </v>
   <v>       0.94151078       0.62509902       0.65489432 </v>
   <v>       0.56650672       0.71366144       0.83333739 </v>
   <v>       0.32014515       0.37200532       0.30013969 </v>
   <v>       0.31530941       0.54134633       0.74439288 </v>
   <v>       0.18741895       0.45569582       0.47866280 </v>
   <v>       0.31416669       0.04096366       0.87592957 </v>
   <v>       0.18554984       0.45767801       0.69973400 </v>
   <v>       0.56178497       0.37197180       0.52141779 </v>
   <v>       0.19107950       0.28761845       0.38895651 </v>
   <v>       0.31533138       0.20386679       0.21110557 </v>
   <v>       0.06739253       0.70368665       0.21124433 </v>
   <v>       0.56198142       0.37125530       0.43437263 </v>
   <v>       0.43666335       0.62199982       0.52138130 </v>
   <v>       0.81726363       0.71543407       0.83326312 </v>
   <v>       0.05826558       0.37546526       0.78856112 </v>
   <v>       0.43641614       0.29838684       0.87637946 </v>
   <v>       0.31154937       0.03061391       0.12422288 </v>
   <v>       0.68827405       0.12008652       0.43426902 </v>
   <v>       0.18373821       0.95229621       0.34490433 </v>
   <v>       0.06695012       0.21537397       0.83401709 </v>
   <v>       0.55908744       0.03849321       0.61103702 </v>
   <v>       0.69047333       0.45405352       0.21155077 </v>
   <v>       0.18963861       0.79162913       0.74445517 </v>
   <v>       0.19437833       0.62320044       0.30023196 </v>
   <v>       0.44141773       0.78763229       0.38910166 </v>
   <v>       0.43334462       0.28789833       0.25576402 </v>
   <v>       0.06327764       0.54061111       0.87588447 </v>
   <v>       0.56574874       0.04120617       0.74419774 </v>
   <v>       0.18764678       0.79736935       0.87605348 </v>
   <v>       0.93734716       0.45569551       0.47866307 </v>
   <v>       0.56585973       0.54084398       0.74405642 </v>
   <v>       0.81122042       0.20720459       0.56548808 </v>
   <v>       0.18384712       0.62257063       0.78854752 </v>
   <v>       0.06752183       0.53836989       0.38901187 </v>
   <v>       0.06105762       0.70778272       0.69965727 </v>
   <v>       0.30834914       0.53791109       0.25551662 </v>
   <v>       0.31458197       0.70196705       0.21227140 </v>
   <v>       0.30547541       0.86444489       0.16574445 </v>
   <v>       0.43670717       0.62125050       0.43438219 </v>
   <v>       0.81793685       0.03933398       0.38916994 </v>
   <v>       0.93482044       0.29818945       0.87556458 </v>
   <v>       0.93691330       0.79600442       0.87557057 </v>
   <v>       0.06522407       0.03870347       0.87577833 </v>
   <v>       0.56308901       0.52883974       0.12456386 </v>
   <v>       0.43453093       0.45702407       0.69995648 </v>
   <v>       0.06206196       0.87115516       0.43441115 </v>
   <v>       0.93657261       0.12168531       0.52145235 </v>
   <v>       0.19348889       0.78744481       0.38888031 </v>
   <v>       0.56710771       0.70400594       0.21199529 </v>
  </varray>
 </structure>
 <calculation>
  <scstep>
   <time name="dav">   54.15   54.17</time>
   <time name="total">   54.32   54.35</time>
   <energy>
    <i name="alphaZ">  16293.21160653 </i>
    <i name="ewald"> 726587.60668132 </i>
    <i name="hartreedc">-917102.95940398 </i>
    <i name="XCdc">  -6512.67879769 </i>
    <i name="pawpsdc"> 162273.92519768 </i>
    <i name="pawaedc">-159623.75899949 </i>
    <i name="eentropy">     -1.08133392 </i>
    <i name="bandstr">  38489.19755974 </i>
    <i name="atom"> 168671.76673737 </i>
    <i name="e_fr_energy">  29075.22924755 </i>
    <i name="e_wo_entrp">  29076.31058147 </i>
    <i name="e_0_energy">  29075.76991451 </i>
   </energy>
  </scstep>
  <scstep>
   <time name="dav">   53.77   53.78</time>
   <time name="total">   53.78   53.78</time>
   <energy>
    <i name="e_fr_energy">   1187.77758938 </i>
    <i name="e_wo_entrp">   1189.27533069 </i>
    <i name="e_0_energy">   1188.52646004 </i>
   </energy>
  </scstep>
  <scstep>
   <time name="dav">   70.36   70.40</time>
   <time name="total">   70.37   70.41</time>
   <energy>
    <i name="e_fr_energy">  -1948.99424890 </i>
    <i name="e_wo_entrp">  -1945.44625208 </i>
    <i name="e_0_energy">  -1947.22025049 </i>
   </energy>
  </scstep>
  <scstep>
   <time name="dav">   88.37   88.41</time>
   <time name="total">   88.38   88.42</time>
   <energy>
    <i name="e_fr_energy">  -2618.87010934 </i>
    <i name="e_wo_entrp">  -2615.33605918 </i>
    <i name="e_0_energy">  -2617.10308426 </i>
   </energy>
  </scstep>
  <scstep>
   <time name="dav">   84.56   84.60</time>
   <time name="total">   86.59   86.63</time>
   <energy>
    <i name="e_fr_energy">  -2738.51618548 </i>
    <i name="e_wo_entrp">  -2734.85117438 </i>
    <i name="e_0_energy">  -2736.68367993 </i>
   </energy>
  </scstep>
  <scstep>
   <time name="diag">    8.17    8.18</time>
   <time name="diis">   37.43   37.43</time>
   <time name="orth">    2.27    2.27</time>
   <time name="total">   49.98   49.99</time>
   <energy>
    <i name="e_fr_energy">  -5581.85372060 </i>
    <i name="e_wo_entrp">  -5579.01021791 </i>
    <i name="e_0_energy">  -5580.43196925 </i>
   </energy>
  </scstep>
  <scstep>
   <time name="diag">    8.25    8.25</time>
   <time name="diis">   22.62   22.62</time>
   <time name="orth">    2.28    2.28</time>
   <time name="total">   35.20   35.24</time>
[...]
       <r>     5.8682     0.0000  2772.0000 </r>
       <r>     5.9110     0.0000  2772.0000 </r>
       <r>     5.9538     0.0000  2772.0000 </r>
       <r>     5.9966     0.0000  2772.0000 </r>
       <r>     6.0394     0.0000  2772.0000 </r>
       <r>     6.0821     0.0000  2772.0000 </r>
       <r>     6.1249     0.0000  2772.0000 </r>
       <r>     6.1677     0.0000  2772.0000 </r>
       <r>     6.2105     0.0000  2772.0000 </r>
       <r>     6.2533     0.0000  2772.0000 </r>
       <r>     6.2961     0.0000  2772.0000 </r>
       <r>     6.3388     0.0000  2772.0000 </r>
       <r>     6.3816     0.0000  2772.0000 </r>
       <r>     6.4244     0.0000  2772.0000 </r>
       <r>     6.4672     0.0000  2772.0000 </r>
       <r>     6.5100     0.0000  2772.0000 </r>
       <r>     6.5528     0.0000  2772.0000 </r>
       <r>     6.5956     0.0000  2772.0000 </r>
       <r>     6.6383     0.0000  2772.0000 </r>
       <r>     6.6811     0.0000  2772.0000 </r>
       <r>     6.7239     0.0000  2772.0000 </r>
       <r>     6.7667     0.0000  2772.0000 </r>
       <r>     6.8095     0.0000  2772.0000 </r>
      </set>
     </set>
    </array>
   </total>
  </dos>
 </calculation>
 <structure name="finalpos" >
  <crystal>
   <varray name="basis" >
    <v>       9.72667804       0.00000000       0.00000000 </v>
    <v>       0.00000000       8.42355028       0.00000000 </v>
    <v>       0.00000000       0.00000000      45.00000000 </v>
   </varray>
   <i name="volume">   3686.99226691 </i>
   <varray name="rec_basis" >
    <v>       0.10281002       0.00000000       0.00000000 </v>
    <v>       0.00000000       0.11871479       0.00000000 </v>
    <v>       0.00000000       0.00000000       0.02222222 </v>
   </varray>
  </crystal>
  <varray name="positions" >
   <v>       0.06162398       0.03322455       0.12442661 </v>
   <v>       0.31371102       0.87418796       0.65504584 </v>
   <v>       0.18608682       0.12512044       0.78837102 </v>
   <v>       0.44016115       0.28805855       0.38928701 </v>
   <v>       0.31488719       0.71158406       0.83353061 </v>
   <v>       0.81585385       0.21276923       0.83361288 </v>
   <v>       0.18913473       0.96237353       0.83384363 </v>
   <v>       0.56167809       0.20625635       0.56578636 </v>
   <v>       0.06352076       0.04153637       0.74404530 </v>
   <v>       0.81138959       0.87252052       0.52172612 </v>
   <v>       0.18834149       0.29150203       0.74414253 </v>
   <v>       0.93703407       0.45384875       0.34479353 </v>
   <v>       0.93943754       0.28762705       0.38916957 </v>
   <v>       0.81230094       0.04560126       0.87557595 </v>
   <v>       0.18599987       0.78921123       0.61063685 </v>
   <v>       0.56435869       0.03800681       0.38927690 </v>
   <v>       0.94107652       0.96245868       0.83376087 </v>
   <v>       0.31348675       0.54483614       0.87572925 </v>
   <v>       0.68848310       0.29147650       0.74414243 </v>
   <v>       0.18457041       0.61556303       0.16637806 </v>
   <v>       0.81218789       0.20529273       0.47844099 </v>
   <v>       0.81082573       0.53885320       0.61071837 </v>
   <v>       0.31305691       0.87168470       0.43423090 </v>
   <v>       0.81197599       0.03695805       0.25596008 </v>
   <v>       0.68717062       0.95373091       0.34488794 </v>
   <v>       0.93396571       0.11595865       0.16671016 </v>
   <v>       0.06232495       0.87249774       0.52160580 </v>
   <v>       0.56148251       0.53670411       0.25577122 </v>
   <v>       0.68666519       0.79467741       0.87565807 </v>
   <v>       0.55905642       0.36615646       0.16632970 </v>
   <v>       0.43850272       0.79173943       0.74420000 </v>
   <v>       0.81179910       0.70621871       0.56576355 </v>
   <v>       0.56106247       0.87432919       0.78831643 </v>
   <v>       0.68657766       0.12218169       0.52168186 </v>
   <v>       0.81385150       0.37388764       0.65508021 </v>
   <v>       0.94035154       0.46248912       0.83374105 </v>
   <v>       0.06162335       0.20729970       0.69975456 </v>
   <v>       0.43680201       0.95715822       0.69972748 </v>
   <v>       0.31448758       0.21191918       0.83384582 </v>
   <v>       0.43868453       0.62428040       0.65497159 </v>
   <v>       0.31102313       0.53913672       0.61061611 </v>
   <v>       0.93683422       0.45605234       0.56580579 </v>
   <v>       0.68849639       0.79149109       0.74418238 </v>
   <v>       0.93391076       0.78326808       0.12475102 </v>
   <v>       0.68986748       0.78773070       0.38921092 </v>
   <v>       0.93860106       0.79116723       0.74411708 </v>
   <v>       0.06235618       0.20427825       0.34481311 </v>
   <v>       0.68741027       0.45341977       0.34479502 </v>
   <v>       0.43590405       0.12468045       0.78857129 </v>
   <v>       0.06337292       0.20270739       0.21152571 </v>
   <v>       0.05779272       0.36579138       0.16629383 </v>
   <v>       0.93655634       0.78719256       0.25582856 </v>
   <v>       0.56205109       0.20738167       0.69975580 </v>
   <v>       0.68737096       0.95741257       0.69981269 </v>
   <v>       0.81072491       0.87505411       0.78830870 </v>
   <v>       0.43675028       0.95618339       0.56582634 </v>
   <v>       0.81086425       0.37496325       0.78831705 </v>
   <v>       0.68662012       0.28680779       0.25590632 </v>
   <v>       0.18676347       0.45606820       0.56574626 </v>
   <v>       0.05855978       0.86617208       0.16651997 </v>
   <v>       0.18599450       0.28902423       0.61067326 </v>
   <v>       0.06184746       0.20634426       0.56577365 </v>
   <v>       0.31157637       0.20722409       0.69975732 </v>
   <v>       0.56379262       0.54522326       0.87567007 </v>
   <v>       0.06168919       0.70601436       0.56573979 </v>
   <v>       0.68577780       0.62504563       0.78837916 </v>
   <v>       0.31462750       0.53734198       0.38925231 </v>
   <v>       0.18712541       0.62250439       0.52171554 </v>
   <v>       0.56261752       0.87146509       0.43416638 </v>
   <v>       0.43674982       0.45613727       0.56581324 </v>
   <v>       0.43851135       0.29176154       0.74425029 </v>
   <v>       0.81599728       0.87213867       0.30023348 </v>
   <v>       0.81196297       0.70326172       0.34488560 </v>
   <v>       0.43995675       0.46134944       0.83376367 </v>
   <v>       0.68756953       0.95498586       0.47838647 </v>
   <v>       0.68738831       0.45716405       0.69974689 </v>
   <v>       0.56184026       0.87257671       0.52166728 </v>
   <v>       0.56384480       0.37393031       0.65497992 </v>
   <v>       0.81386787       0.87411720       0.65506453 </v>
   <v>       0.81197805       0.37106280       0.43403385 </v>
   <v>       0.81171726       0.53651381       0.25594634 </v>
   <v>       0.69040920       0.46181949       0.83371002 </v>
   <v>       0.18586048       0.78333965       0.12423458 </v>
   <v>       0.68929952       0.28767125       0.38919538 </v>
   <v>       0.31346679       0.37398766       0.65495671 </v>
   <v>       0.31224139       0.20385602       0.34493982 </v>
   <v>       0.81362212       0.54145146       0.74403012 </v>
   <v>       0.69054658       0.96181569       0.83372175 </v>
   <v>       0.56375871       0.87419511       0.65505643 </v>
   <v>       0.31182414       0.70635620       0.56573296 </v>
   <v>       0.31040434       0.53318939       0.12412619 </v>
   <v>       0.68869607       0.95352218       0.21179396 </v>
   <v>       0.31184638       0.20641174       0.56579143 </v>
   <v>       0.18744690       0.95539290       0.47842088 </v>
   <v>       0.68701202       0.95619839       0.56583117 </v>
   <v>       0.43580879       0.78947590       0.61057207 </v>
   <v>       0.68292991       0.61473345       0.16643513 </v>
   <v>       0.31556521       0.87205522       0.30016387 </v>
   <v>       0.31214345       0.70538232       0.47829527 </v>
   <v>       0.93591619       0.28890545       0.61062599 </v>
   <v>       0.44080486       0.62156769       0.30025250 </v>
   <v>       0.80867765       0.86569897       0.16668046 </v>
   <v>       0.56389477       0.20249390       0.21173227 </v>
   <v>       0.93442613       0.61511738       0.16661747 </v>
   <v>       0.43740098       0.95493490       0.47835468 </v>
   <v>       0.56094162       0.37428825       0.78843608 </v>
   <v>       0.06177921       0.37281256       0.52162659 </v>
   <v>       0.30894880       0.36566390       0.16621900 </v>
   <v>       0.69130729       0.12172479       0.30027235 </v>
   <v>       0.44055934       0.96139478       0.83374428 </v>
   <v>       0.18498196       0.28279658       0.12455724 </v>
   <v>       0.18631326       0.28656770       0.25586122 </v>
   <v>       0.31287933       0.37120874       0.43416048 </v>
   <v>       0.56088205       0.03351720       0.12450509 </v>
   <v>       0.43576682       0.28918308       0.61056692 </v>
   <v>       0.18704928       0.45363371       0.34482664 </v>
   <v>       0.43488069       0.28305720       0.12452332 </v>
   <v>       0.68654919       0.78724459       0.25596929 </v>
   <v>       0.43674793       0.12277473       0.52160896 </v>
   <v>       0.18934304       0.29436574       0.87588790 </v>
   <v>       0.18859970       0.12417213       0.65506470 </v>
   <v>       0.93886219       0.12397950       0.65507668 </v>
   <v>       0.81444807       0.53738829       0.38918698 </v>
   <v>       0.06475259       0.03811578       0.38923141 </v>
   <v>       0.18398038       0.11526129       0.16659416 </v>
   <v>       0.06094023       0.53885344       0.61067725 </v>
   <v>       0.93686153       0.28674130       0.25581643 </v>
   <v>       0.56068767       0.53926083       0.61060824 </v>
   <v>       0.93685872       0.95600172       0.56573737 </v>
   <v>       0.69110274       0.62170701       0.30031150 </v>
   <v>       0.93762393       0.62139370       0.43410105 </v>
   <v>       0.93564071       0.62616927       0.78831814 </v>
   <v>       0.56199607       0.70717480       0.69974186 </v>
   <v>       0.06442565       0.71335325       0.83363960 </v>
   <v>       0.94094486       0.12237554       0.30016713 </v>
   <v>       0.93585475       0.78896333       0.61070395 </v>
   <v>       0.43685132       0.78718402       0.25594026 </v>
   <v>       0.31075298       0.37435019       0.78841689 </v>
   <v>       0.43848058       0.45329838       0.21157612 </v>
   <v>       0.18703756       0.12239562       0.52167149 </v>
   <v>       0.81199394       0.70783097       0.69979087 </v>
   <v>       0.06083824       0.03947413       0.61060251 </v>
   <v>       0.56474063       0.21188596       0.83352291 </v>
   <v>       0.31186135       0.87247578       0.52174440 </v>
   <v>       0.68576704       0.28261738       0.12467382 </v>
   <v>       0.18840962       0.95409240       0.21167405 </v>
   <v>       0.68587336       0.28906621       0.61063628 </v>
   <v>       0.31080539       0.03943235       0.61064103 </v>
   <v>       0.93580095       0.12613600       0.78841370 </v>
   <v>       0.43754715       0.79361559       0.87573941 </v>
   <v>       0.81367640       0.04170470       0.74401968 </v>
   <v>       0.93672618       0.45731009       0.69974889 </v>
   <v>       0.18877677       0.62413550       0.65505537 </v>
   <v>       0.31160410       0.70748272       0.69978607 </v>
   <v>       0.93494252       0.28264834       0.12456688 </v>
   <v>       0.43731617       0.45473986       0.47831699 </v>
   <v>       0.06250880       0.70465036       0.47840029 </v>
   <v>       0.93746216       0.12120475       0.43441784 </v>
   <v>       0.44104509       0.12130309       0.30024027 </v>
   <v>       0.18767157       0.12112897       0.43402173 </v>
   <v>       0.56417784       0.04550101       0.87573360 </v>
   <v>       0.18653986       0.95639277       0.56582113 </v>
   <v>       0.68521409       0.78402341       0.12469266 </v>
   <v>       0.56249239       0.70366020       0.34496339 </v>
   <v>       0.31468603       0.03778854       0.38923524 </v>
   <v>       0.68429071       0.11532831       0.16679544 </v>
   <v>       0.81419602       0.20272612       0.21161181 </v>
   <v>       0.06123822       0.53662183       0.25567875 </v>
   <v>       0.56249098       0.70521839       0.47830922 </v>
   <v>       0.43498627       0.78349050       0.12423430 </v>
   <v>       0.56572338       0.37118345       0.30024842 </v>
   <v>       0.43701492       0.95381153       0.34486028 </v>
   <v>       0.18623293       0.95744799       0.69979196 </v>
   <v>       0.43381870       0.61505822       0.16623764 </v>
   <v>       0.93848261       0.45235202       0.21172223 </v>
   <v>       0.06096564       0.53250787       0.12436919 </v>
   <v>       0.81194961       0.37283117       0.52165116 </v>
   <v>       0.94090477       0.62235997       0.30006738 </v>
   <v>       0.31175036       0.03693326       0.25584725 </v>
   <v>       0.68585449       0.78913512       0.61066111 </v>
   <v>       0.18983758       0.46239724       0.83385582 </v>
   <v>       0.43452486       0.11480303       0.16670887 </v>
   <v>       0.31160497       0.37256561       0.52168160 </v>
   <v>       0.43586695       0.62473665       0.78857730 </v>
   <v>       0.06139170       0.03714293       0.25586367 </v>
   <v>       0.56166216       0.70629419       0.56576075 </v>
   <v>       0.93855698       0.29135951       0.74407931 </v>
   <v>       0.68575941       0.12521115       0.78827891 </v>
   <v>       0.18779554       0.45263714       0.21149177 </v>
   <v>       0.93921885       0.78746151       0.38920928 </v>
   <v>       0.68681433       0.29475371       0.87580441 </v>
   <v>       0.55806605       0.86529151       0.16646326 </v>
   <v>       0.80845938       0.36588194       0.16647041 </v>
   <v>       0.93757363       0.95364207       0.34480611 </v>
   <v>       0.68674318       0.62245910       0.52163531 </v>
   <v>       0.06364012       0.87411261       0.65506738 </v>
   <v>       0.06099385       0.87524301       0.78846838 </v>
   <v>       0.06372354       0.37390483       0.65507015 </v>
   <v>       0.68713917       0.45490483       0.47820854 </v>
   <v>       0.18626294       0.78745090       0.25588143 </v>
   <v>       0.43760541       0.12134407       0.43420651 </v>
   <v>       0.81116567       0.03314804       0.12457191 </v>
   <v>       0.93675686       0.62244928       0.52165262 </v>
   <v>       0.43864048       0.12426781       0.65504032 </v>
   <v>       0.81232126       0.53250330       0.12443730 </v>
   <v>       0.43738980       0.45359741       0.34488875 </v>
   <v>       0.81218909       0.20361276       0.34487450 </v>
   <v>       0.31245519       0.70359160       0.34481683 </v>
   <v>       0.68877036       0.12431327       0.65507653 </v>
   <v>       0.56591946       0.87171446       0.30023736 </v>
   <v>       0.06331708       0.54112802       0.74407044 </v>
   <v>       0.93876581       0.95371984       0.21170629 </v>
   <v>       0.81401645       0.70298996       0.21170361 </v>
   <v>       0.06555486       0.87201118       0.30027477 </v>
   <v>       0.19058255       0.12220843       0.30007583 </v>
   <v>       0.06210079       0.70368594       0.34484488 </v>
   <v>       0.81114551       0.03922771       0.61061316 </v>
   <v>       0.06287788       0.37106440       0.43405362 </v>
   <v>       0.56243809       0.20370509       0.34490469 </v>
   <v>       0.81583581       0.37206984       0.30014115 </v>
   <v>       0.56223011       0.03741704       0.25595356 </v>
   <v>       0.56421471       0.53722473       0.38923374 </v>
   <v>       0.06265160       0.20509516       0.47841168 </v>
   <v>       0.31114961       0.87403769       0.78823419 </v>
   <v>       0.93690207       0.95765643       0.69970310 </v>
   <v>       0.06594901       0.37183739       0.30015708 </v>
   <v>       0.68849344       0.62411526       0.65509513 </v>
   <v>       0.68659300       0.45617968       0.56573240 </v>
   <v>       0.43845833       0.95379105       0.21177997 </v>
   <v>       0.31220400       0.20495094       0.47834004 </v>
   <v>       0.81262598       0.54481342       0.87556537 </v>
   <v>       0.68806145       0.62107980       0.43410520 </v>
   <v>       0.81192833       0.20722078       0.69977770 </v>
   <v>       0.81249734       0.70516518       0.47832869 </v>
   <v>       0.81179007       0.87134459       0.43417161 </v>
   <v>       0.93728817       0.95463339       0.47845251 </v>
   <v>       0.56251003       0.20497333       0.47835170 </v>
   <v>       0.18731314       0.62087709       0.43417488 </v>
   <v>       0.31346728       0.04150427       0.74414022 </v>
   <v>       0.93870912       0.62414917       0.65507183 </v>
   <v>       0.56475713       0.71149375       0.83352381 </v>
   <v>       0.31576471       0.37142332       0.30027031 </v>
   <v>       0.31339859       0.54135350       0.74427618 </v>
   <v>       0.18758778       0.45497607       0.47832238 </v>
   <v>       0.31488963       0.04623647       0.87572037 </v>
   <v>       0.18595270       0.45732588       0.69978251 </v>
   <v>       0.56199148       0.37257007       0.52166141 </v>
   <v>       0.18920055       0.28787202       0.38924513 </v>
   <v>       0.31336855       0.20312013       0.21148486 </v>
   <v>       0.06452414       0.70261529       0.21143818 </v>
   <v>       0.56248259       0.37120928       0.43417458 </v>
   <v>       0.43684926       0.62258494       0.52153845 </v>
   <v>       0.81523417       0.71283303       0.83335697 </v>
   <v>       0.06104874       0.37554129       0.78839066 </v>
   <v>       0.43736075       0.29453853       0.87589936 </v>
   <v>       0.31109800       0.03307602       0.12415707 </v>
   <v>       0.68762048       0.12167861       0.43412820 </v>
   <v>       0.18708806       0.95360961       0.34487311 </v>
   <v>       0.06448501       0.21236412       0.83369449 </v>
   <v>       0.56083441       0.03933468       0.61064732 </v>
   <v>       0.68850324       0.45253197       0.21166092 </v>
   <v>       0.18818894       0.79147245       0.74413922 </v>
   <v>       0.19067286       0.62181605       0.30018381 </v>
   <v>       0.43997094       0.78742069       0.38928564 </v>
   <v>       0.43668846       0.28677471       0.25578879 </v>
   <v>       0.06503974       0.54476737       0.87566306 </v>
   <v>       0.56378583       0.04148951       0.74416657 </v>
   <v>       0.18848137       0.79370545       0.87579069 </v>
   <v>       0.93733099       0.45476849       0.47830741 </v>
   <v>       0.56370294       0.54173201       0.74418316 </v>
   <v>       0.81164374       0.20651333       0.56580190 </v>
   <v>       0.18592228       0.62533093       0.78845746 </v>
   <v>       0.06502984       0.53801434       0.38931478 </v>
   <v>       0.06159426       0.70789438       0.69974892 </v>
   <v>       0.31128178       0.53654017       0.25563048 </v>
   <v>       0.31267114       0.70247376       0.21182553 </v>
   <v>       0.30811640       0.86583847       0.16583842 </v>
   <v>       0.43717547       0.62110248       0.43407503 </v>
   <v>       0.81540239       0.03786302       0.38918310 </v>
   <v>       0.93610379       0.29549166       0.87563644 </v>
   <v>       0.93696703       0.79229977       0.87557602 </v>
   <v>       0.06530094       0.04433415       0.87551140 </v>
   <v>       0.56164520       0.53263782       0.12454969 </v>
   <v>       0.43666588       0.45709044       0.69977659 </v>
   <v>       0.06229342       0.87148649       0.43413516 </v>
   <v>       0.93704161       0.12276156       0.52152309 </v>
   <v>       0.19023173       0.78691068       0.38902635 </v>
   <v>       0.56462493       0.70282691       0.21183779 </v>
  </varray>
 </structure>
</modeling>
