unknown system                          
           1
     9.726678    0.000000    0.000000
     0.000000    8.423550    0.000000
     0.000000    0.000000   45.000000
   Fe   Mn
 274  14
Direct configuration=     1
   0.06185159  0.03012247  0.12409148
   0.31638177  0.87507343  0.65500521
   0.18370715  0.12308389  0.78859474
   0.44155434  0.28753367  0.38910757
   0.31810258  0.71405619  0.83320044
   0.81828123  0.21526478  0.83359668
   0.19168632  0.96376377  0.83359069
   0.56227659  0.20695913  0.56551251
   0.06562283  0.04046491  0.74415047
   0.81163662  0.87147252  0.52139397
   0.19064554  0.29092024  0.74429104
   0.93352715  0.45233130  0.34483970
   0.94095268  0.28637695  0.38893078
   0.81263679  0.04078727  0.87578546
   0.18375956  0.78805803  0.61095516
   0.56638847  0.03779162  0.38904444
   0.94263547  0.96497249  0.83393312
   0.31347826  0.54079956  0.87610925
   0.69000160  0.29136256  0.74419651
   0.18194757  0.61357284  0.16656614
   0.81217887  0.20593003  0.47869224
   0.80901736  0.53835857  0.61107835
   0.31193560  0.87064491  0.43444897
   0.80977485  0.03737444  0.25604240
   0.68294187  0.95166224  0.34465179
   0.93205139  0.11351628  0.16696583
   0.06189520  0.87169714  0.52141189
   0.55791300  0.53760218  0.25566253
   0.68441193  0.79845348  0.87594954
   0.55589850  0.36520011  0.16663929
   0.43967019  0.79189513  0.74439688
   0.81137763  0.70669936  0.56551482
   0.55837400  0.87391344  0.78882242
   0.68674811  0.12169988  0.52142637
   0.81635381  0.37481482  0.65513577
   0.94222550  0.46388105  0.83373154
   0.06074024  0.20745548  0.69975328
   0.43587429  0.95765109  0.69969286
   0.31708769  0.21299137  0.83349441
   0.44111267  0.62489102  0.65514152
   0.30879522  0.53789212  0.61086240
   0.93654221  0.45659365  0.56559529
   0.69040644  0.79159895  0.74433522
   0.93392425  0.78778520  0.12439796
   0.69182443  0.78778269  0.38903824
   0.93989164  0.79132835  0.74461166
   0.05878039  0.20295662  0.34496951
   0.68377531  0.45236035  0.34496574
   0.43360943  0.12264137  0.78910060
   0.06529382  0.20331602  0.21099431
   0.05566834  0.36503022  0.16667003
   0.93326957  0.78713993  0.25557925
   0.56031896  0.20742239  0.69981257
   0.68566929  0.95750410  0.69973558
   0.80772717  0.87366355  0.78836484
   0.43672522  0.95689951  0.56539924
   0.80823750  0.37541667  0.78852540
   0.68377807  0.28714527  0.25584030
   0.18718971  0.45720115  0.56552399
   0.05615084  0.86469013  0.16660144
   0.18378909  0.28818972  0.61101806
   0.06226223  0.20742338  0.56538976
   0.31081948  0.20751361  0.69989416
   0.56236186  0.54082271  0.87600060
   0.06235788  0.70686038  0.56556501
   0.68266650  0.62280722  0.78866394
   0.31582677  0.53823733  0.38889303
   0.18690171  0.62151985  0.52142417
   0.56263802  0.87051377  0.43445114
   0.43659613  0.45680690  0.56556715
   0.43966289  0.29147887  0.74429909
   0.82114488  0.87379793  0.30021314
   0.80871304  0.70255557  0.34495494
   0.44254893  0.46323183  0.83342633
   0.68744906  0.95601609  0.47865278
   0.68476460  0.45772049  0.69977886
   0.56212403  0.87207156  0.52145710
   0.56635344  0.37505584  0.65486770
   0.81614199  0.87511860  0.65497984
   0.81175855  0.37146890  0.43420613
   0.80865414  0.53709559  0.25591504
   0.69233932  0.46211770  0.83339512
   0.18558657  0.78856127  0.12403001
   0.69133001  0.28733910  0.38905574
   0.31650402  0.37496644  0.65486562
   0.30896643  0.20273079  0.34465620
   0.81584899  0.54041159  0.74397286
   0.69189633  0.96240216  0.83348732
   0.56612769  0.87504428  0.65504556
   0.31134239  0.70712745  0.56548545
   0.31268678  0.52929742  0.12389042
   0.68952495  0.95458515  0.21178001
   0.31136492  0.20648237  0.56550645
   0.18737670  0.95574031  0.47866636
   0.68728426  0.95707922  0.56552000
   0.43372644  0.78807349  0.61089974
   0.68225047  0.61306677  0.16644284
   0.31902664  0.87353601  0.30010859
   0.31229451  0.70571595  0.47864394
   0.93364271  0.28785838  0.61090125
   0.44623097  0.62360009  0.30009752
   0.80720016  0.86352672  0.16688661
   0.56625539  0.20255522  0.21141277
   0.93227787  0.61361326  0.16673900
   0.43732220  0.95585066  0.47865311
   0.55826714  0.37386770  0.78884377
   0.06148866  0.37232808  0.52139444
   0.30718977  0.36456966  0.16652826
   0.69547404  0.12302935  0.30030260
   0.44297906  0.96372034  0.83334487
   0.18395378  0.28658598  0.12400979
   0.18375002  0.28744652  0.25582966
   0.31246383  0.37045706  0.43449069
   0.56361187  0.03281703  0.12428469
   0.43401349  0.28836017  0.61099730
   0.18359832  0.45266130  0.34489398
   0.43605297  0.28679434  0.12404848
   0.68370835  0.78732918  0.25581300
   0.43692073  0.12171652  0.52145792
   0.18856424  0.29687951  0.87615826
   0.19127660  0.12518063  0.65508589
   0.94122855  0.12501425  0.65497787
   0.81606849  0.53757630  0.38899212
   0.06657451  0.03830511  0.38914144
   0.18288366  0.11200310  0.16649137
   0.05877798  0.53792652  0.61094946
   0.93389918  0.28712854  0.25585624
   0.55874342  0.53789097  0.61089349
   0.93672625  0.95726924  0.56545749
   0.69484564  0.62343677  0.30011958
   0.93753824  0.62063127  0.43443977
   0.93265919  0.62429543  0.78832858
   0.55980431  0.70688610  0.69974941
   0.06645007  0.71670187  0.83381917
   0.94536809  0.12254925  0.30008775
   0.93366759  0.78760363  0.61093327
   0.43263804  0.78748872  0.25560518
   0.30838770  0.37454884  0.78880003
   0.43940817  0.45379720  0.21142932
   0.18681952  0.12179878  0.52142890
   0.81030203  0.70786356  0.69968626
   0.05871500  0.03780634  0.61087125
   0.56625225  0.21371899  0.83324163
   0.31179081  0.87185629  0.52139403
   0.68703306  0.28521193  0.12419299
   0.19036492  0.95470687  0.21171064
   0.68389755  0.28837400  0.61094154
   0.30867760  0.03806469  0.61090554
   0.93397881  0.12416399  0.78856529
   0.43659622  0.79813955  0.87622054
   0.81586685  0.04059186  0.74424873
   0.93530250  0.45810684  0.69962072
   0.19121141  0.62500969  0.65508046
   0.31102452  0.70709196  0.69975104
   0.93577902  0.28635056  0.12394774
   0.43740313  0.45605483  0.47856454
   0.06228875  0.70575857  0.47851659
   0.93697213  0.12011722  0.43452133
   0.44451805  0.12317687  0.30049974
   0.18727367  0.12040173  0.43424501
   0.56279454  0.04077668  0.87608236
   0.18695641  0.95724374  0.56550610
   0.68493234  0.78798663  0.12428073
   0.55891356  0.70208956  0.34488271
   0.31642602  0.03708790  0.38890876
   0.68206211  0.11393241  0.16694295
   0.81578303  0.20340883  0.21110112
   0.05905723  0.53720688  0.25564258
   0.56243915  0.70574598  0.47869549
   0.43549137  0.78711901  0.12416851
   0.56971719  0.37160686  0.30004247
   0.43361094  0.95250798  0.34488128
   0.18545411  0.95781824  0.69972224
   0.43130278  0.61218685  0.16581151
   0.93963842  0.45351361  0.21149209
   0.06163677  0.52889521  0.12397475
   0.81190708  0.37206703  0.52138324
   0.94496347  0.62273616  0.29988281
   0.30888449  0.03719318  0.25549555
   0.68372344  0.78788574  0.61090530
   0.19183974  0.46361820  0.83349969
   0.43284197  0.11201305  0.16652359
   0.31165406  0.37210627  0.52139138
   0.43297594  0.62295455  0.78893604
   0.05891876  0.03727591  0.25581941
   0.56235177  0.70694384  0.56556476
   0.93933906  0.29081747  0.74453662
   0.68188660  0.12298403  0.78855817
   0.19023212  0.45309863  0.21102811
   0.94114476  0.78767869  0.38886561
   0.68537958  0.29921024  0.87604568
   0.55683631  0.86209236  0.16656957
   0.80587881  0.36543931  0.16685448
   0.93387945  0.95120320  0.34470034
   0.68654870  0.62146945  0.52134454
   0.06649976  0.87486489  0.65494097
   0.05881668  0.87439504  0.78848088
   0.06619580  0.37487240  0.65502818
   0.68719012  0.45584816  0.47865166
   0.18371342  0.78719522  0.25547698
   0.43682124  0.12102578  0.43428554
   0.81347398  0.03095466  0.12415018
   0.93674495  0.62193889  0.52141413
   0.44158175  0.12486367  0.65492865
   0.81354110  0.52914326  0.12397983
   0.43387441  0.45258821  0.34495891
   0.80911854  0.20267357  0.34502460
   0.30912583  0.70178891  0.34485538
   0.69127578  0.12490952  0.65490631
   0.57054280  0.87314594  0.30030194
   0.06554066  0.54079998  0.74423597
   0.94090486  0.95412738  0.21134423
   0.81624458  0.70371593  0.21150067
   0.07013775  0.87349626  0.30028703
   0.19505885  0.12371203  0.30027336
   0.05862646  0.70211598  0.34490507
   0.80888591  0.03829650  0.61101940
   0.06283676  0.37192640  0.43427466
   0.55908927  0.20257544  0.34480853
   0.81985836  0.37284527  0.29996291
   0.56020517  0.03737367  0.25551667
   0.56641646  0.53768979  0.38902327
   0.06249723  0.20597886  0.47864465
   0.31004344  0.87346307  0.78856822
   0.93554180  0.95780879  0.69965766
   0.06949793  0.37447575  0.30001441
   0.69113445  0.62498752  0.65516037
   0.68655223  0.45669029  0.56540380
   0.44162512  0.95587696  0.21206998
   0.31248235  0.20582185  0.47875662
   0.81206038  0.54034116  0.87588427
   0.68809983  0.62059999  0.43448204
   0.81103982  0.20719134  0.69980729
   0.81248655  0.70573353  0.47864548
   0.81164738  0.87140959  0.43421009
   0.93747406  0.95541265  0.47870525
   0.56212282  0.20578216  0.47866782
   0.18748198  0.62029836  0.43448506
   0.31523864  0.04158427  0.74417501
   0.94151078  0.62509902  0.65489432
   0.56650672  0.71366144  0.83333739
   0.32014515  0.37200532  0.30013969
   0.31530941  0.54134633  0.74439288
   0.18741895  0.45569582  0.47866280
   0.31416669  0.04096366  0.87592957
   0.18554984  0.45767801  0.69973400
   0.56178497  0.37197180  0.52141779
   0.19107950  0.28761845  0.38895651
   0.31533138  0.20386679  0.21110557
   0.06739253  0.70368665  0.21124433
   0.56198142  0.37125530  0.43437263
   0.43666335  0.62199982  0.52138130
   0.81726363  0.71543407  0.83326312
   0.05826558  0.37546526  0.78856112
   0.43641614  0.29838684  0.87637946
   0.31154937  0.03061391  0.12422288
   0.68827405  0.12008652  0.43426902
   0.18373821  0.95229621  0.34490433
   0.06695012  0.21537397  0.83401709
   0.55908744  0.03849321  0.61103702
   0.69047333  0.45405352  0.21155077
   0.18963861  0.79162913  0.74445517
   0.19437833  0.62320044  0.30023196
   0.44141773  0.78763229  0.38910166
   0.43334462  0.28789833  0.25576402
   0.06327764  0.54061111  0.87588447
   0.56574874  0.04120617  0.74419774
   0.18764678  0.79736935  0.87605348
   0.93734716  0.45569551  0.47866307
   0.56585973  0.54084398  0.74405642
   0.81122042  0.20720459  0.56548808
   0.18384712  0.62257063  0.78854752
   0.06752183  0.53836989  0.38901187
   0.06105762  0.70778272  0.69965727
   0.30834914  0.53791109  0.25551662
   0.31458197  0.70196705  0.21227140
   0.30547541  0.86444489  0.16574445
   0.43670717  0.62125050  0.43438219
   0.81793685  0.03933398  0.38916994
   0.93482044  0.29818945  0.87556458
   0.93691330  0.79600442  0.87557057
   0.06522407  0.03870347  0.87577833
   0.56308901  0.52883974  0.12456386
   0.43453093  0.45702407  0.69995648
   0.06206196  0.87115516  0.43441115
   0.93657261  0.12168531  0.52145235
   0.19348889  0.78744481  0.38888031
   0.56710771  0.70400594  0.21199529
Direct configuration=     2
   0.06186994  0.03067863  0.12415131
   0.31597871  0.87495189  0.65502059
   0.18402531  0.12342756  0.78855881
   0.44136281  0.28764555  0.38915085
   0.31758476  0.71364831  0.83328646
   0.81788194  0.21487515  0.83361207
   0.19128431  0.96355327  0.83366084
   0.56215597  0.20685004  0.56556622
   0.06529953  0.04065109  0.74411940
   0.81157402  0.87169589  0.52147172
   0.19026140  0.29100751  0.74426066
   0.93403870  0.45255700  0.34481934
   0.94075015  0.28662282  0.38898017
   0.81252723  0.04167638  0.87573851
   0.18410720  0.78823878  0.61088547
   0.56607887  0.03783811  0.38909139
   0.94244347  0.96459825  0.83390966
   0.31347144  0.54147978  0.87601888
   0.68980263  0.29135752  0.74418366
   0.18232904  0.61383874  0.16651088
   0.81220682  0.20579961  0.47863124
   0.80926937  0.53839899  0.61100381
   0.31214655  0.87084730  0.43440717
   0.81011788  0.03732684  0.25603326
   0.68360375  0.95199648  0.34468081
   0.93231647  0.11393146  0.16690192
   0.06199249  0.87186003  0.52146644
   0.55848440  0.53741065  0.25568263
   0.68473450  0.79775435  0.87589662
   0.55636438  0.36528832  0.16656017
   0.43952876  0.79187816  0.74436007
   0.81144477  0.70662702  0.56555778
   0.55878947  0.87393443  0.78872674
   0.68673214  0.12178245  0.52149325
   0.81600558  0.37465438  0.65514325
   0.94197765  0.46373368  0.83374921
   0.06083047  0.20743507  0.69976362
   0.43600011  0.95756546  0.69970886
   0.31670609  0.21292623  0.83359293
   0.44075540  0.62482031  0.65511482
   0.30913929  0.53805288  0.61080342
   0.93659545  0.45651624  0.56563299
   0.69010141  0.79156432  0.74430405
   0.93389446  0.78701996  0.12447669
   0.69154904  0.78776063  0.38907934
   0.93970802  0.79127892  0.74451992
   0.05933994  0.20316200  0.34493297
   0.68432942  0.45249260  0.34492968
   0.43394713  0.12299863  0.78900908
   0.06501523  0.20321970  0.21108714
   0.05595249  0.36508852  0.16657337
   0.93376877  0.78717354  0.25562880
   0.56063207  0.20739360  0.69981428
   0.68596336  0.95750434  0.69976119
   0.80818771  0.87385712  0.78835666
   0.43672517  0.95678261  0.56547827
   0.80861366  0.37527040  0.78848677
   0.68420373  0.28709736  0.25585264
   0.18712906  0.45700360  0.56556577
   0.05650900  0.86489857  0.16656488
   0.18413420  0.28828665  0.61094545
   0.06218846  0.20725085  0.56545431
   0.31088402  0.20743024  0.69987969
   0.56255383  0.54156559  0.87592718
   0.06224587  0.70671526  0.56559404
   0.68314033  0.62317306  0.78861630
   0.31566899  0.53803269  0.38896451
   0.18690440  0.62173106  0.52149540
   0.56262411  0.87067004  0.43439892
   0.43661597  0.45668574  0.56561488
   0.43951595  0.29150770  0.74429234
   0.82036493  0.87357258  0.30020366
   0.80919492  0.70262607  0.34493594
   0.44214076  0.46292438  0.83353096
   0.68749419  0.95579952  0.47858486
   0.68524010  0.45759621  0.69978251
   0.56205565  0.87214977  0.52151673
   0.56599295  0.37487126  0.65489324
   0.81583391  0.87498544  0.65500912
   0.81176787  0.37140384  0.43417189
   0.80912828  0.53696925  0.25592650
   0.69206756  0.46210998  0.83348580
   0.18565039  0.78765055  0.12407313
   0.69099791  0.28742460  0.38908756
   0.31602829  0.37480155  0.65488513
   0.30945729  0.20290541  0.34469508
   0.81551819  0.54056852  0.74397058
   0.69175789  0.96235489  0.83356186
   0.56578706  0.87492043  0.65505602
   0.31143367  0.70700747  0.56552891
   0.31233639  0.52997120  0.12392964
   0.68945305  0.95445740  0.21178500
   0.31146181  0.20648933  0.56556173
   0.18738755  0.95570497  0.47861008
   0.68723912  0.95692906  0.56557523
   0.43402717  0.78827956  0.61082939
   0.68229217  0.61332330  0.16641885
   0.31853378  0.87336598  0.30010395
   0.31225271  0.70568583  0.47856463
   0.93398730  0.28800261  0.61084237
   0.44538043  0.62328668  0.30012006
   0.80736930  0.86388057  0.16681913
   0.56590278  0.20257971  0.21146583
   0.93260805  0.61379872  0.16669358
   0.43733229  0.95566962  0.47857752
   0.55866829  0.37388759  0.78877259
   0.06152711  0.37239008  0.52145934
   0.30738497  0.36466251  0.16644311
   0.69489159  0.12285545  0.30028852
   0.44262248  0.96335410  0.83345709
   0.18412615  0.28593899  0.12413303
   0.18408511  0.28728783  0.25583482
   0.31253393  0.37057807  0.43442681
   0.56317933  0.03293274  0.12432847
   0.43425219  0.28845611  0.61090517
   0.18411228  0.45277602  0.34487585
   0.43587189  0.28617094  0.12414597
   0.68414479  0.78735128  0.25584412
   0.43686915  0.12193618  0.52150868
   0.18872949  0.29643737  0.87610738
   0.19086800  0.12503971  0.65509365
   0.94090017  0.12485265  0.65501006
   0.81582321  0.53754564  0.38903507
   0.06632763  0.03830554  0.38916452
   0.18301190  0.11254398  0.16648962
   0.05911204  0.53803089  0.61088780
   0.93437016  0.28705465  0.25584865
   0.55900407  0.53808823  0.61082890
   0.93675300  0.95707352  0.56550518
   0.69433248  0.62314224  0.30014542
   0.93753629  0.62074497  0.43437533
   0.93309269  0.62458979  0.78833269
   0.56017676  0.70695397  0.69976105
   0.06618718  0.71613865  0.83380163
   0.94470667  0.12259067  0.30008631
   0.93398784  0.78783426  0.61087818
   0.43329663  0.78750695  0.25566544
   0.30871514  0.37445992  0.78873853
   0.43928560  0.45370490  0.21145049
   0.18681007  0.12190461  0.52149093
   0.81058991  0.70786379  0.69971557
   0.05903875  0.03809628  0.61081150
   0.56605218  0.21351106  0.83331889
   0.31179297  0.87195068  0.52147673
   0.68681753  0.28475861  0.12430031
   0.19006300  0.95466378  0.21170264
   0.68417581  0.28846135  0.61087449
   0.30899305  0.03828980  0.61084276
   0.93421201  0.12447324  0.78854394
   0.43671963  0.79732745  0.87613322
   0.81553929  0.04079259  0.74420138
   0.93551167  0.45795982  0.69965192
   0.19085403  0.62488098  0.65508664
   0.31107406  0.70719141  0.69976668
   0.93565484  0.28572455  0.12408196
   0.43737533  0.45580847  0.47850187
   0.06234894  0.70554735  0.47848351
   0.93705145  0.12031268  0.43449865
   0.44403757  0.12289210  0.30044258
   0.18735997  0.12054457  0.43420214
   0.56301277  0.04162270  0.87600911
   0.18689034  0.95711128  0.56556221
   0.68495418  0.78733237  0.12437003
   0.55946748  0.70232720  0.34489263
   0.31618577  0.03722984  0.38897300
   0.68241343  0.11413148  0.16689991
   0.81559728  0.20331349  0.21119013
   0.05934471  0.53707554  0.25565137
   0.56244884  0.70569830  0.47860806
   0.43542380  0.78647807  0.12419106
   0.56914586  0.37154243  0.30006707
   0.43411645  0.95271475  0.34486921
   0.18552813  0.95777328  0.69974208
   0.43168567  0.61262868  0.16586134
   0.93950654  0.45329782  0.21153797
   0.06158650  0.52952992  0.12405705
   0.81193963  0.37218746  0.52145617
   0.94438161  0.62270347  0.29990286
   0.30931063  0.03719173  0.25556197
   0.68402894  0.78808237  0.61084753
   0.19155838  0.46349581  0.83360323
   0.43310513  0.11244572  0.16654210
   0.31164188  0.37218519  0.52147013
   0.43340957  0.62324059  0.78887807
   0.05928289  0.03729023  0.25582776
   0.56222230  0.70683958  0.56560012
   0.93923947  0.29088920  0.74444730
   0.68250734  0.12337151  0.78851022
   0.18983535  0.45299214  0.21110319
   0.94084265  0.78760883  0.38893116
   0.68555792  0.29841670  0.87599706
   0.55698459  0.86259955  0.16653429
   0.80629813  0.36542333  0.16676072
   0.93445071  0.95159444  0.34470581
   0.68659177  0.62166691  0.52142190
   0.06606298  0.87478192  0.65497670
   0.05911907  0.87449923  0.78848250
   0.06583199  0.37470341  0.65504906
   0.68717452  0.45565197  0.47854741
   0.18404300  0.78729293  0.25555053
   0.43694445  0.12106666  0.43426387
   0.81311431  0.03133993  0.12423009
   0.93675710  0.62202850  0.52147994
   0.44112571  0.12479782  0.65495249
   0.81337358  0.52975081  0.12406785
   0.43441672  0.45272747  0.34494219
   0.80955155  0.20280214  0.34498568
   0.30962726  0.70206807  0.34484078
   0.69092744  0.12485055  0.65494771
   0.56985035  0.87297799  0.30027683
   0.06518203  0.54082137  0.74419638
   0.94060284  0.95413905  0.21141317
   0.81592098  0.70360986  0.21153409
   0.06944110  0.87328762  0.30027422
   0.19435815  0.12351141  0.30022355
   0.05914105  0.70234891  0.34488391
   0.80922832  0.03844670  0.61093632
   0.06285366  0.37177693  0.43422972
   0.55960156  0.20275631  0.34481915
   0.81927931  0.37273162  0.29998344
   0.56050084  0.03743870  0.25560337
   0.56608037  0.53759586  0.38906969
   0.06250430  0.20579475  0.47859033
   0.31014432  0.87350889  0.78850778
   0.93575675  0.95780785  0.69967205
   0.06897062  0.37403072  0.30002423
   0.69074422  0.62486173  0.65516271
   0.68654435  0.45660433  0.56546323
   0.44111877  0.95556881  0.21201493
   0.31242367  0.20564379  0.47866145
   0.81211589  0.54113646  0.87581337
   0.68808996  0.62069282  0.43441125
   0.81119080  0.20720013  0.69981412
   0.81248669  0.70566834  0.47856616
   0.81163093  0.87136016  0.43419913
   0.93742626  0.95531103  0.47864756
   0.56220093  0.20562754  0.47858712
   0.18744472  0.62037289  0.43442663
   0.31497908  0.04156310  0.74416317
   0.94109364  0.62494975  0.65494073
   0.56626802  0.71330498  0.83339771
   0.31947276  0.37191599  0.30015459
   0.31502557  0.54134830  0.74437430
   0.18744606  0.45557025  0.47858223
   0.31431425  0.04194483  0.87587632
   0.18551714  0.45759463  0.69975115
   0.56178581  0.37207854  0.52148838
   0.19081090  0.28766838  0.38901567
   0.31502285  0.20375046  0.21116264
   0.06696758  0.70350706  0.21126786
   0.56204699  0.37123972  0.43432975
   0.43669267  0.62212066  0.52143730
   0.81696148  0.71499810  0.83329109
   0.05867817  0.37542230  0.78854085
   0.43652328  0.29771558  0.87628482
   0.31149647  0.03104201  0.12420307
   0.68812471  0.12037612  0.43423838
   0.18421660  0.95248999  0.34489044
   0.06661715  0.21492905  0.83397402
   0.55932182  0.03862113  0.61095225
   0.69017436  0.45380144  0.21157493
   0.18942251  0.79161490  0.74439814
   0.19381149  0.62298463  0.30021482
   0.44123306  0.78758444  0.38914398
   0.43386447  0.28768805  0.25576906
   0.06362380  0.54132403  0.87582889
   0.56547636  0.04123517  0.74418402
   0.18778906  0.79666433  0.87600425
   0.93735602  0.45553655  0.47858074
   0.56555587  0.54100439  0.74407665
   0.81129798  0.20710320  0.56554269
   0.18412065  0.62303607  0.78854237
   0.06714689  0.53831454  0.38907381
   0.06109057  0.70781480  0.69968342
   0.30874528  0.53763943  0.25553886
   0.31430674  0.70204914  0.21218738
   0.30585295  0.86463818  0.16574855
   0.43678756  0.62120942  0.43432034
   0.81755058  0.03908152  0.38918099
   0.93498324  0.29770086  0.87558670
   0.93688683  0.79531479  0.87557986
   0.06525837  0.03967396  0.87573118
   0.56286108  0.52947473  0.12456815
   0.43486629  0.45700651  0.69993413
   0.06209630  0.87119267  0.43435812
   0.93667878  0.12188416  0.52148342
   0.19298690  0.78732454  0.38891156
   0.56674388  0.70383695  0.21196305
Direct configuration=     3
   0.06192501  0.03234712  0.12433080
   0.31476952  0.87458725  0.65506671
   0.18497979  0.12445857  0.78845100
   0.44078820  0.28798121  0.38928069
   0.31603130  0.71242469  0.83354452
   0.81668404  0.21370626  0.83365822
   0.19007826  0.96292176  0.83387129
   0.56179409  0.20652278  0.56572735
   0.06432965  0.04120962  0.74402621
   0.81138625  0.87236601  0.52170496
   0.18910895  0.29126934  0.74416951
   0.93557338  0.45323411  0.34475825
   0.94014256  0.28736044  0.38912837
   0.81219854  0.04434368  0.87559765
   0.18515015  0.78878100  0.61067641
   0.56515008  0.03797756  0.38923224
   0.94186748  0.96347554  0.83383927
   0.31345095  0.54352044  0.87574774
   0.68920570  0.29134240  0.74414511
   0.18347345  0.61463644  0.16634511
   0.81229067  0.20540833  0.47844822
   0.81002539  0.53852024  0.61078020
   0.31277942  0.87145449  0.43428178
   0.81114697  0.03718404  0.25600586
   0.68558941  0.95299920  0.34476790
   0.93311171  0.11517698  0.16671017
   0.06228436  0.87234869  0.52163012
   0.56019859  0.53683603  0.25574294
   0.68570223  0.79565694  0.87573786
   0.55776200  0.36555296  0.16632280
   0.43910448  0.79182723  0.74424965
   0.81164618  0.70641001  0.56568664
   0.56003586  0.87399739  0.78843970
   0.68668425  0.12203015  0.52169391
   0.81496090  0.37417305  0.65516566
   0.94123410  0.46329158  0.83380224
   0.06110117  0.20737384  0.69979463
   0.43637756  0.95730855  0.69975685
   0.31556129  0.21273083  0.83388847
   0.43968360  0.62460816  0.65503472
   0.31017153  0.53853517  0.61062646
   0.93675517  0.45628400  0.56574610
   0.68918634  0.79146044  0.74421054
   0.93380508  0.78472424  0.12471288
   0.69072288  0.78769445  0.38920266
   0.93915717  0.79113065  0.74424471
   0.06101860  0.20377814  0.34482336
   0.68599177  0.45288936  0.34482152
   0.43496022  0.12407043  0.78873452
   0.06417949  0.20293073  0.21136562
   0.05680494  0.36526343  0.16628338
   0.93526634  0.78727436  0.25577746
   0.56157142  0.20730722  0.69981940
   0.68684556  0.95750508  0.69983803
   0.80956933  0.87443782  0.78833213
   0.43672500  0.95643188  0.56571536
   0.80974215  0.37483158  0.78837090
   0.68548071  0.28695365  0.25588967
   0.18694710  0.45641094  0.56569112
   0.05758350  0.86552387  0.16645519
   0.18516954  0.28857742  0.61072761
   0.06196718  0.20673324  0.56564798
   0.31107764  0.20718015  0.69983626
   0.56312975  0.54379423  0.87570692
   0.06190983  0.70627990  0.56568113
   0.68456182  0.62427059  0.78847338
   0.31519563  0.53741877  0.38917897
   0.18691248  0.62236470  0.52170907
   0.56258238  0.87113884  0.43424227
   0.43667550  0.45632226  0.56575806
   0.43907513  0.29159418  0.74427209
   0.81802507  0.87289653  0.30017521
   0.81064057  0.70283756  0.34487895
   0.44091627  0.46200203  0.83384485
   0.68762956  0.95514984  0.47838109
   0.68666661  0.45722338  0.69979345
   0.56185052  0.87238441  0.52169561
   0.56491148  0.37431754  0.65496988
   0.81490969  0.87458596  0.65509694
   0.81179582  0.37120864  0.43406918
   0.81055069  0.53659025  0.25596089
   0.69125228  0.46208680  0.83375786
   0.18584184  0.78491839  0.12420248
   0.69000163  0.28768108  0.38918303
   0.31460108  0.37430690  0.65494366
   0.31092989  0.20342928  0.34481171
   0.81452578  0.54103930  0.74396374
   0.69134258  0.96221308  0.83378548
   0.56476519  0.87454891  0.65508741
   0.31170752  0.70664754  0.56565929
   0.31128522  0.53199252  0.12404729
   0.68923734  0.95407413  0.21179998
   0.31175249  0.20651022  0.56572756
   0.18742012  0.95559894  0.47844123
   0.68710373  0.95647856  0.56574094
   0.43492936  0.78889778  0.61061833
   0.68241728  0.61409289  0.16634687
   0.31705520  0.87285589  0.30009003
   0.31212730  0.70559544  0.47832671
   0.93502109  0.28843532  0.61066573
   0.44282878  0.62234642  0.30018770
   0.80787669  0.86494211  0.16661667
   0.56484494  0.20265317  0.21162502
   0.93359859  0.61435509  0.16655731
   0.43736256  0.95512648  0.47835075
   0.55987174  0.37394726  0.78855907
   0.06164246  0.37257607  0.52165404
   0.30797059  0.36494106  0.16618765
   0.69314422  0.12233374  0.30024628
   0.44155274  0.96225537  0.83379375
   0.18464326  0.28399801  0.12450275
   0.18509037  0.28681177  0.25585029
   0.31274421  0.37094110  0.43423519
   0.56188171  0.03327987  0.12445981
   0.43496829  0.28874391  0.61062881
   0.18565416  0.45312017  0.34482144
   0.43532863  0.28430075  0.12443846
   0.68545409  0.78741758  0.25593746
   0.43671439  0.12259517  0.52166094
   0.18922523  0.29511097  0.87595473
   0.18964217  0.12461694  0.65511695
   0.93991503  0.12436785  0.65510666
   0.81508737  0.53745363  0.38916392
   0.06558697  0.03830682  0.38923375
   0.18339663  0.11416664  0.16648437
   0.06011419  0.53834401  0.61070282
   0.93578311  0.28683298  0.25582588
   0.55978601  0.53868002  0.61063513
   0.93683324  0.95648636  0.56564827
   0.69279302  0.62225865  0.30022292
   0.93753044  0.62108608  0.43418202
   0.93439317  0.62547288  0.78834502
   0.56129410  0.70715760  0.69979597
   0.06539850  0.71444899  0.83374899
   0.94272243  0.12271490  0.30008199
   0.93494858  0.78852614  0.61071291
   0.43527240  0.78756166  0.25584621
   0.30969746  0.37419317  0.78855404
   0.43891790  0.45342801  0.21151403
   0.18678172  0.12222209  0.52167705
   0.81145356  0.70786447  0.69980349
   0.06001001  0.03896611  0.61063227
   0.56545197  0.21288727  0.83355068
   0.31179948  0.87223385  0.52172480
   0.68617094  0.28339867  0.12462227
   0.18915723  0.95453453  0.21167865
   0.68501061  0.28872338  0.61067335
   0.30993940  0.03896513  0.61065444
   0.93491160  0.12540098  0.78847987
   0.43708984  0.79489117  0.87587126
   0.81455660  0.04139478  0.74405935
   0.93613918  0.45751877  0.69974553
   0.18978187  0.62449486  0.65510518
   0.31122268  0.70748974  0.69981360
   0.93528231  0.28384652  0.12448464
   0.43729195  0.45506941  0.47831385
   0.06252950  0.70491371  0.47838430
   0.93728940  0.12089906  0.43443061
   0.44259616  0.12203779  0.30027110
   0.18761886  0.12097310  0.43407351
   0.56366745  0.04416075  0.87578938
   0.18669212  0.95671391  0.56573054
   0.68501972  0.78536959  0.12463792
   0.56112922  0.70304011  0.34492240
   0.31546501  0.03765566  0.38916574
   0.68346738  0.11472869  0.16677078
   0.81504004  0.20302745  0.21145714
   0.06020713  0.53668152  0.25567776
   0.56247790  0.70555525  0.47834577
   0.43522109  0.78455522  0.12425871
   0.56743187  0.37134913  0.30014088
   0.43563299  0.95333507  0.34483298
   0.18575019  0.95763840  0.69980160
   0.43283435  0.61395418  0.16601081
   0.93911090  0.45265045  0.21167561
   0.06143566  0.53143406  0.12430395
   0.81203731  0.37254876  0.52167498
   0.94263605  0.62260541  0.29996303
   0.31058903  0.03718737  0.25576122
   0.68494544  0.78867227  0.61067421
   0.19071429  0.46312866  0.83391387
   0.43389462  0.11374372  0.16659766
   0.31160537  0.37242192  0.52170636
   0.43471047  0.62409872  0.78870417
   0.06037525  0.03733318  0.25585282
   0.56183392  0.70652682  0.56570622
   0.93894070  0.29110440  0.74417935
   0.68436956  0.12453397  0.78836639
   0.18864507  0.45267268  0.21132846
   0.93993634  0.78739925  0.38912781
   0.68609295  0.29603608  0.87585118
   0.55742944  0.86412114  0.16642846
   0.80755610  0.36537542  0.16647946
   0.93616448  0.95276816  0.34472222
   0.68672101  0.62225929  0.52165397
   0.06475267  0.87453299  0.65508389
   0.06002626  0.87481181  0.78848735
   0.06474055  0.37419643  0.65511169
   0.68712772  0.45506339  0.47823464
   0.18503173  0.78758607  0.25577120
   0.43731409  0.12118930  0.43419885
   0.81203530  0.03249573  0.12446982
   0.93679357  0.62229733  0.52167737
   0.43975760  0.12460024  0.65502401
   0.81287100  0.53157346  0.12433193
   0.43604365  0.45314525  0.34489202