unknown system                          
            1
     9.726678    0.000000    0.000000
     0.000000    8.423550    0.000000
     0.000000    0.000000   45.000000
   Fe   Mn
 273  15
Direct configuration=     1
   0.31275236  0.52797434  0.12456926
   0.93739692  0.12078936  0.43448595
   0.81159058  0.38139596  0.78821586
   0.31207278  0.71093577  0.69961574
   0.06198055  0.70206834  0.34501239
   0.18660584  0.13160600  0.78844161
   0.43794115  0.44596707  0.21157145
   0.68776788  0.28626803  0.38926361
   0.93719325  0.95279628  0.34512624
   0.93697372  0.78143390  0.25601937
   0.18758648  0.79167422  0.61060529
   0.06268121  0.21496497  0.83332711
   0.43713284  0.29968073  0.87534712
   0.43772823  0.78608244  0.38931836
   0.81245189  0.87048068  0.43447575
   0.06233405  0.87336214  0.52165383
   0.93794550  0.29628724  0.74394751
   0.68787560  0.45726136  0.56563898
   0.93749746  0.11281525  0.16695486
   0.68767624  0.12116986  0.43447657
   0.18774398  0.29634488  0.74390065
   0.43823071  0.94611960  0.21174398
   0.56291379  0.21509380  0.83302405
   0.18773482  0.79593309  0.74393332
   0.18763352  0.62037248  0.43472312
   0.81219769  0.20193448  0.34500501
   0.56288017  0.71514079  0.83313805
   0.81248647  0.53579641  0.38920285
   0.93767103  0.62591127  0.65493022
   0.43776272  0.46509126  0.83308786
   0.31264454  0.87051786  0.43445439
   0.81289156  0.37589717  0.65489235
   0.81231992  0.87230937  0.52154535
   0.81223586  0.86293803  0.16682154
   0.68705386  0.28205398  0.25602221
   0.93784886  0.96482843  0.83298649
   0.43704344  0.96132109  0.69974091
   0.31273013  0.21470995  0.83299583
   0.31350177  0.02813987  0.12461409
   0.81204737  0.21116154  0.69980967
   0.81275240  0.21470810  0.83295562
   0.18670836  0.45216316  0.34499971
   0.06244062  0.36678518  0.30017643
   0.81228599  0.54254659  0.61070272
   0.43798906  0.12554455  0.65493195
   0.31244652  0.55052311  0.87518708
   0.93844734  0.44604714  0.21153628
   0.31307429  0.54646378  0.74393706
   0.81318350  0.52769791  0.12441718
   0.68741844  0.29994675  0.87537919
   0.81165551  0.70250027  0.34495999
   0.31246679  0.87342827  0.52153144
   0.31295160  0.69629204  0.21165344
   0.31194151  0.88162931  0.78838774
   0.56286524  0.36729569  0.30021511
   0.81319477  0.71496605  0.83326051
   0.18806436  0.44598523  0.21160631
   0.06206636  0.04222782  0.61073860
   0.81254309  0.04972424  0.87527427
   0.18823375  0.77747275  0.12460894
   0.31244092  0.20514044  0.47854650
   0.68690227  0.95214227  0.34489173
   0.68777680  0.80003505  0.87548585
   0.56271858  0.87252521  0.52153423
   0.93766026  0.29941033  0.87547685
   0.81193184  0.03109703  0.25590072
   0.18723374  0.45656261  0.56567820
   0.68699720  0.78118161  0.25599509
   0.56236949  0.70795650  0.56557684
   0.06271524  0.69584542  0.21157462
   0.93733355  0.28173832  0.25607742
   0.68823644  0.29660018  0.74391805
   0.56205168  0.04977709  0.87520403
   0.43736904  0.63205047  0.78838622
   0.18753543  0.96503639  0.83301126
   0.31252770  0.53663652  0.38909169
   0.43681874  0.80001983  0.87547256
   0.43752781  0.11655261  0.30028413
   0.18723901  0.96134658  0.69978223
   0.18720335  0.95679461  0.56568674
   0.06190398  0.03694166  0.38937450
   0.18746088  0.95227023  0.34504817
   0.43688453  0.95168922  0.34500736
   0.93768314  0.45592955  0.47858067
   0.18798663  0.62588004  0.65482760
   0.93669993  0.62210284  0.52157416
   0.18771158  0.12640208  0.65497548
   0.56234881  0.53115760  0.25590298
   0.68783317  0.46493327  0.83303289
   0.18824416  0.94628386  0.21166826
   0.06181029  0.38124135  0.78838546
   0.93717929  0.45168575  0.34497729
   0.31271070  0.70588769  0.47864680
   0.43770937  0.28656587  0.38917633
   0.31166306  0.04968626  0.87532672
   0.43798110  0.79651008  0.74402013
   0.31272860  0.36655742  0.30019842
   0.43826496  0.62515459  0.65494246
   0.06255527  0.53520058  0.38906390
   0.56317772  0.52798181  0.12455106
   0.06187909  0.37213908  0.52169597
   0.18693531  0.78154951  0.25607601
   0.18711656  0.28125223  0.25594216
   0.81259007  0.70561263  0.47855691
   0.68817778  0.94685317  0.21162633
   0.31264451  0.19604635  0.21187435
   0.06181262  0.87020298  0.43460555
   0.93722907  0.61287813  0.16694885
   0.68712953  0.63216277  0.78844136
   0.06304143  0.87593952  0.65493739
   0.93749154  0.29172210  0.61073104
   0.56233621  0.71048727  0.69973810
   0.43813424  0.77829598  0.12460247
   0.06228600  0.70684303  0.56554777
   0.56276205  0.02821710  0.12452389
   0.68793817  0.96472388  0.83307945
   0.31325336  0.37002810  0.43454652
   0.93674705  0.79191133  0.61062720
   0.81298254  0.19680183  0.21150327
   0.56229173  0.53678493  0.38918679
   0.18712520  0.46181981  0.69968899
   0.18732643  0.29126601  0.61074621
   0.56253905  0.86596851  0.30018452
   0.18742661  0.61654898  0.30015104
   0.06184816  0.05019959  0.87539291
   0.18692656  0.46545404  0.83327145
   0.43782207  0.79196635  0.61075247
   0.68795313  0.77783956  0.12461857
   0.81268545  0.87556014  0.65482500
   0.31193502  0.53121776  0.25599017
   0.06258893  0.71387373  0.83329745
   0.31233721  0.71493945  0.83328759
   0.43810047  0.27771999  0.12465031
   0.43768092  0.12303276  0.52168057
   0.18725520  0.95443584  0.47867634
   0.81272981  0.37232336  0.52172685
   0.18628640  0.29917543  0.87543809
   0.31233468  0.03620930  0.38918809
   0.31222033  0.54169830  0.61066237
   0.81224503  0.71074666  0.69964651
   0.81212901  0.53204546  0.25605672
   0.56253186  0.20221480  0.34509695
   0.56227044  0.70181681  0.34499896
   0.56266093  0.20696680  0.56563272
   0.31313923  0.87594259  0.65492291
   0.43721452  0.29112972  0.61070014
   0.43710134  0.78098093  0.25609698
   0.68737109  0.45204409  0.34497327
   0.93782372  0.45723828  0.56568558
   0.93854687  0.46544474  0.83320565
   0.68721096  0.96118875  0.69971492
   0.81310362  0.03653699  0.38914204
   0.93801166  0.79575359  0.74397121
   0.81215900  0.88156733  0.78846915
   0.06202836  0.71116425  0.69964221
   0.43719671  0.45723877  0.56573838
   0.31208641  0.21153427  0.69984412
   0.18699308  0.12030432  0.43450491
   0.56276002  0.37098284  0.43454060
   0.56313127  0.04637020  0.74392986
   0.68717123  0.46028373  0.69977467
   0.81317136  0.69627087  0.21171925
   0.06236905  0.70513667  0.47866639
   0.43801154  0.29634693  0.74401486
   0.43729493  0.61299208  0.16702088
   0.43746374  0.46081934  0.69959420
   0.43774961  0.96478871  0.83314867
   0.06252524  0.86716169  0.30028741
   0.06215041  0.21182533  0.69969033
   0.81230413  0.36282983  0.16685016
   0.93690098  0.46149888  0.69968066
   0.43722498  0.95492263  0.47865641
   0.93804942  0.27854456  0.12470994
   0.43708678  0.45598990  0.47862923
   0.56194532  0.86372973  0.16665913
   0.43654178  0.28108458  0.25597546
   0.56200458  0.70615340  0.47854704
   0.06235185  0.36315696  0.16692463
   0.43729006  0.13181336  0.78839274
   0.43709053  0.45233119  0.34499799
   0.81170254  0.55056047  0.87522535
   0.56235135  0.21084248  0.69958435
   0.18757967  0.12224499  0.52171131
   0.06262473  0.04582342  0.74402569
   0.68825128  0.44618171  0.21167429
   0.18735916  0.45536617  0.47868233
   0.81292040  0.04627389  0.74404879
   0.56235493  0.20533238  0.47848629
   0.56300254  0.37524257  0.65487670
   0.56221922  0.54953259  0.87539257
   0.31315966  0.70692811  0.56570828
   0.43750020  0.62038126  0.43443063
   0.81220287  0.04190273  0.61069649
   0.56229161  0.88139123  0.78842899
   0.81332493  0.02789854  0.12463377
   0.68752001  0.45566132  0.47865293
   0.43815175  0.61606649  0.30012325
   0.93717619  0.13145252  0.78842531
   0.06258135  0.20517286  0.47872169
   0.31245154  0.36274582  0.16673748
   0.93647414  0.80030970  0.87544761
   0.81294758  0.36650057  0.30022016
   0.68676283  0.11325801  0.16699819
   0.93757542  0.61730212  0.30018404
   0.31258731  0.38130234  0.78818061
   0.43798105  0.62254492  0.52167982
   0.56282891  0.03655027  0.38925006
   0.43738615  0.12055399  0.43443606
   0.56221728  0.37232359  0.52173763
   0.68729497  0.78654093  0.38926616
   0.68811632  0.12556704  0.65480597
   0.18650227  0.61326184  0.16701036
   0.68805957  0.62533907  0.65485521
   0.56222558  0.36224410  0.16685467
   0.06215365  0.86276741  0.16665084
   0.31316961  0.37597907  0.65493436
   0.68756360  0.62263753  0.52146637
   0.18742220  0.11678672  0.30027375
   0.56343048  0.69619313  0.21155418
   0.18858673  0.27835160  0.12467027
   0.06197998  0.03148943  0.25598295
   0.93801243  0.94605721  0.21161152
   0.68745432  0.29159161  0.61068491
   0.93729812  0.61998291  0.43437757
   0.93652459  0.63195595  0.78852967
   0.56325684  0.19647514  0.21182221
   0.06274751  0.37621252  0.65490903
   0.68760511  0.95473494  0.47843724
   0.68714985  0.13175555  0.78849572
   0.81283255  0.54629546  0.74395336
   0.93705202  0.95731535  0.56563521
   0.93699466  0.96134235  0.69980893
   0.93714391  0.12201438  0.52173529
   0.68808766  0.95721395  0.56552076
   0.81203447  0.37062957  0.43456120
   0.18763045  0.11333078  0.16693929
   0.06178399  0.88213998  0.78820214
   0.31311472  0.20680350  0.56559948
   0.68806299  0.61250769  0.16695034
   0.56216515  0.38156841  0.78831880
   0.93831963  0.77786239  0.12460559
   0.56226259  0.54248558  0.61072546
   0.06337593  0.19606119  0.21160312
   0.81243237  0.20557306  0.47851980
   0.56317126  0.87531358  0.65480769
   0.31318430  0.04611481  0.74401588
   0.56260703  0.87075244  0.43463721
   0.93786005  0.11601059  0.30013276
   0.68775086  0.11603383  0.30018394
   0.93745417  0.78650830  0.38923102
   0.18746342  0.80042931  0.87538845
   0.31280544  0.86399649  0.16687679
   0.68722936  0.12240183  0.52170146
   0.06159383  0.53191072  0.25582814
   0.81188303  0.20713086  0.56571196
   0.31274635  0.37188074  0.52173564
   0.31225553  0.04178474  0.61066205
   0.68784466  0.27833244  0.12459931
   0.68823601  0.79645671  0.74401806
   0.93798153  0.12633240  0.65491572
   0.81219131  0.70753308  0.56546063
   0.06181210  0.36999953  0.43442273
   0.56316541  0.54658595  0.74402644
   0.56202002  0.03175216  0.25597855
   0.31236017  0.20211719  0.34505048
   0.06318181  0.52797376  0.12452866
   0.06241672  0.54141854  0.61058434
   0.06251046  0.02766739  0.12469335
   0.18799172  0.78581746  0.38930251
   0.93761202  0.95464005  0.47862537
   0.31296969  0.86662050  0.30023032
   0.18726155  0.63182208  0.78848410
   0.18729663  0.28655440  0.38917650
   0.06178538  0.20230428  0.34494503
   0.31197260  0.03176118  0.25567637
   0.68773518  0.61605377  0.30017707
   0.18736563  0.62252519  0.52137941
   0.68710625  0.79156410  0.61081086
   0.06169348  0.54934210  0.87497101
   0.68714981  0.62070960  0.43450306
   0.06251686  0.20703229  0.56559769
   0.56270444  0.04266452  0.61097677
   0.06291412  0.54603069  0.74421191
   0.31237253  0.70176800  0.34510267
   0.81311877  0.86739440  0.30025795
   0.43732892  0.11294255  0.16596840
   0.43753061  0.95656833  0.56541610
   0.93758492  0.28651324  0.38930206
Direct configuration=     2
   0.31278304  0.52829060  0.12451634
   0.93698665  0.12046756  0.43478446
   0.81125988  0.38131011  0.78843948
   0.31236618  0.71072392  0.69944414
   0.06186582  0.70269184  0.34458319
   0.18712172  0.13207395  0.78868542
   0.43776822  0.44668831  0.21196082
   0.68658451  0.28526045  0.38958321
   0.93732433  0.95347033  0.34496379
   0.93755072  0.78134328  0.25619652
   0.18703796  0.79140565  0.61067560
   0.06301361  0.21475507  0.83318295
   0.43722566  0.29997770  0.87508641
   0.43880174  0.78741293  0.38953742
   0.81126217  0.87149888  0.43473538
   0.06240393  0.87276729  0.52146712
   0.93797136  0.29635117  0.74409217
   0.68820095  0.45707892  0.56554546
   0.93728054  0.11247002  0.16685382
   0.68651852  0.12110841  0.43465596
   0.18802888  0.29632091  0.74404567
   0.43790113  0.94584789  0.21211202
   0.56247662  0.21547917  0.83282187
   0.18794219  0.79602333  0.74415837
   0.18831529  0.62031102  0.43515720
   0.81225739  0.20116063  0.34484924
   0.56228629  0.71462104  0.83295027
   0.81113705  0.53594132  0.38928287
   0.93789820  0.62560983  0.65475139
   0.43787991  0.46523121  0.83281446
   0.31369388  0.87197053  0.43473551
   0.81275541  0.37558965  0.65481131
   0.81214840  0.87231766  0.52126990
   0.81199214  0.86288199  0.16667024
   0.68718129  0.28231197  0.25624208
   0.93808171  0.96524278  0.83288901
   0.43722035  0.96201012  0.69958839
   0.31302903  0.21487337  0.83277419
   0.31303131  0.02790907  0.12446223
   0.81173171  0.21150063  0.69948137
   0.81240858  0.21497624  0.83278838
   0.18661412  0.45149675  0.34454424
   0.06318913  0.36685497  0.30004883
   0.81271324  0.54218707  0.61086367
   0.43814565  0.12667052  0.65503132
   0.31277213  0.55061545  0.87498049
   0.93854946  0.44646860  0.21217146
   0.31301581  0.54608046  0.74416720
   0.81303186  0.52823358  0.12414485
   0.68709717  0.30004617  0.87519080
   0.81146870  0.70306016  0.34485077
   0.31260956  0.87309137  0.52131813
   0.31329279  0.69607032  0.21211095
   0.31199659  0.88125027  0.78869229
   0.56236520  0.36676318  0.30007656
   0.81272893  0.71493899  0.83307729
   0.18847017  0.44664728  0.21216960
   0.06154304  0.04232559  0.61074598
   0.81269096  0.04977629  0.87515906
   0.18841256  0.77693212  0.12449471
   0.31348987  0.20523830  0.47819529
   0.68712320  0.95212484  0.34492674
   0.68734605  0.79981504  0.87528283
   0.56266827  0.87284145  0.52121653
   0.93781107  0.29885524  0.87530403
   0.81214439  0.03133049  0.25611434
   0.18693892  0.45637468  0.56555374
   0.68695245  0.78110862  0.25611003
   0.56252995  0.70828679  0.56547580
   0.06313363  0.69544724  0.21215857
   0.93765844  0.28208552  0.25628525
   0.68808570  0.29658754  0.74405989
   0.56203298  0.04993179  0.87506126
   0.43714164  0.63155844  0.78876333
   0.18783532  0.96517179  0.83288754
   0.31348206  0.53553534  0.38931497
   0.43668775  0.79961310  0.87519108
   0.43694089  0.11679447  0.30016952
   0.18742244  0.96199633  0.69957655
   0.18698121  0.95716544  0.56564675
   0.06225549  0.03731670  0.38943118
   0.18715750  0.95300889  0.34485202
   0.43693628  0.95208660  0.34493611
   0.93711100  0.45533991  0.47854921
   0.18763904  0.62543041  0.65473208
   0.93697412  0.62172815  0.52130497
   0.18730450  0.12696126  0.65500719
   0.56196114  0.53119055  0.25597772
   0.68711491  0.46500616  0.83283134
   0.18881723  0.94574724  0.21219630
   0.06232283  0.38093393  0.78856505
   0.93711963  0.45128165  0.34460835
   0.31305790  0.70554801  0.47859029
   0.43823301  0.28539392  0.38957613
   0.31137893  0.04961866  0.87509061
   0.43771601  0.79648992  0.74421193
   0.31234845  0.36670130  0.30000554
   0.43802069  0.62437237  0.65495016
   0.06278355  0.53514846  0.38906816
   0.56305201  0.52849483  0.12446036
   0.06185277  0.37263392  0.52144270
   0.18741317  0.78105344  0.25634628
   0.18725421  0.28175754  0.25626516
   0.81224179  0.70529624  0.47845432
   0.68770707  0.94665015  0.21208797
   0.31304153  0.19622205  0.21228995
   0.06204046  0.87138845  0.43494069
   0.93748550  0.61286491  0.16681580
   0.68681259  0.63152807  0.78872861
   0.06264063  0.87585028  0.65481503
   0.93729152  0.29161945  0.61085506
   0.56216273  0.71035963  0.69951552
   0.43793568  0.77734531  0.12463141
   0.06226591  0.70701584  0.56546891
   0.56308624  0.02782556  0.12439251
   0.68764342  0.96481920  0.83290956
   0.31438317  0.36875346  0.43485547
   0.93673827  0.79201628  0.61071266
   0.81275824  0.19734474  0.21209662
   0.56251522  0.53633260  0.38938844
   0.18777262  0.46074190  0.69941748
   0.18699841  0.29146822  0.61081241
   0.56203313  0.86643418  0.30016924
   0.18767894  0.61601924  0.29987470
   0.06215436  0.04999575  0.87524146
   0.18780085  0.46520843  0.83305031
   0.43791797  0.79187193  0.61077015
   0.68804130  0.77722188  0.12441826
   0.81305801  0.87582772  0.65467579
   0.31137248  0.53153402  0.25623005
   0.06314466  0.71440228  0.83315684
   0.31269453  0.71508937  0.83306447
   0.43778922  0.27893033  0.12450987
   0.43795911  0.12302992  0.52133427
   0.18773224  0.95511145  0.47843063
   0.81270854  0.37251972  0.52134600
   0.18641955  0.29883035  0.87523955
   0.31318202  0.03683941  0.38943528
   0.31183744  0.54150820  0.61083232
   0.81201319  0.71084311  0.69939124
   0.81242563  0.53170402  0.25613964
   0.56246150  0.20172955  0.34507748
   0.56264648  0.70231987  0.34495870
   0.56260383  0.20687592  0.56557461
   0.31273439  0.87571356  0.65489637
   0.43733810  0.29130947  0.61086371
   0.43632473  0.78098732  0.25616308
   0.68741384  0.45154113  0.34488455
   0.93799857  0.45686993  0.56564352
   0.93811194  0.46512669  0.83299532
   0.68693801  0.96180984  0.69945054
   0.81199533  0.03656089  0.38931130
   0.93809733  0.79576599  0.74419664
   0.81219047  0.88142542  0.78869878
   0.06228340  0.71147191  0.69933122
   0.43696507  0.45695878  0.56563254
   0.31217627  0.21188706  0.69964856
   0.18795446  0.12037599  0.43469462
   0.56236890  0.36963499  0.43481728
   0.56298087  0.04670388  0.74402518
   0.68683677  0.45937895  0.69945780
   0.81309125  0.69604085  0.21223612
   0.06230028  0.70480934  0.47867763
   0.43763132  0.29626707  0.74410404
   0.43720471  0.61296057  0.16699639
   0.43760080  0.46002528  0.69927423
   0.43737137  0.96467107  0.83294410
   0.06317420  0.86691886  0.30022096
   0.06257749  0.21192620  0.69946476
   0.81192374  0.36302821  0.16677783
   0.93657231  0.46068954  0.69928801
   0.43793086  0.95596134  0.47829586
   0.93813146  0.27910552  0.12443986
   0.43764368  0.45474767  0.47837393
   0.56132337  0.86301083  0.16672312
   0.43617318  0.28135481  0.25628864
   0.56208229  0.70601707  0.47836675
   0.06290667  0.36349530  0.16681901
   0.43722299  0.13213191  0.78871614
   0.43729616  0.45158884  0.34479704
   0.81121388  0.55023820  0.87505104
   0.56230920  0.21124830  0.69934413
   0.18761408  0.12272117  0.52151620
   0.06309275  0.04605792  0.74412702
   0.68771217  0.44636480  0.21216887
   0.18788627  0.45491411  0.47865854
   0.81256372  0.04659720  0.74414591
   0.56221782  0.20542988  0.47809967
   0.56323277  0.37501465  0.65492830
   0.56200659  0.54923410  0.87517667
   0.31271910  0.70727424  0.56558388
   0.43808000  0.62013373  0.43477715
   0.81252742  0.04207848  0.61078371
   0.56194008  0.88116127  0.78872440
   0.81320686  0.02767307  0.12442172
   0.68697334  0.45470130  0.47845759
   0.43718431  0.61563734  0.29994198
   0.93713126  0.13180942  0.78868982
   0.06247270  0.20516204  0.47854233
   0.31301099  0.36336640  0.16676115
   0.93680446  0.80055448  0.87529835
   0.81304266  0.36596580  0.30011988
   0.68658261  0.11305343  0.16695468
   0.93851930  0.61701118  0.30006998
   0.31269433  0.38131611  0.78848378
   0.43771096  0.62227158  0.52130426
   0.56271800  0.03685272  0.38962928
   0.43797525  0.12080551  0.43461182
   0.56233320  0.37229522  0.52125919
   0.68652707  0.78752964  0.38944707
   0.68839887  0.12660367  0.65479170
   0.18747955  0.61356438  0.16692485
   0.68824427  0.62466480  0.65479794
   0.56166211  0.36285839  0.16688545
   0.06281924  0.86216647  0.16661863
   0.31327176  0.37612229  0.65497736
   0.68758520  0.62250553  0.52115574
   0.18784946  0.11708591  0.30019740
   0.56259125  0.69605423  0.21196701
   0.18848357  0.27910330  0.12444516
   0.06248211  0.03134645  0.25622524
   0.93802996  0.94576137  0.21215590
   0.68794408  0.29159525  0.61089046
   0.93666018  0.62006010  0.43485755
   0.93648040  0.63173284  0.78869807
   0.56281003  0.19688607  0.21216174
   0.06240582  0.37631272  0.65480713
   0.68697535  0.95573616  0.47816141
   0.68686578  0.13225203  0.78871880
   0.81249154  0.54594160  0.74416038
   0.93738686  0.95741914  0.56568878
   0.93708471  0.96192460  0.69948144
   0.93700932  0.12258215  0.52149583
   0.68829684  0.95711632  0.56547528
   0.81077582  0.36986213  0.43495842
   0.18822204  0.11321122  0.16687291
   0.06218328  0.88192648  0.78842798
   0.31265343  0.20649430  0.56553100
   0.68708910  0.61240382  0.16676734
   0.56202570  0.38169217  0.78864743
   0.93808767  0.77730922  0.12440216
   0.56249016  0.54207386  0.61089589
   0.06348171  0.19654464  0.21221196
   0.81161652  0.20555842  0.47831842
   0.56343070  0.87543433  0.65478484
   0.31305739  0.04643956  0.74410413
   0.56258635  0.87212523  0.43479116
   0.93806543  0.11632467  0.30014826
   0.68754112  0.11640823  0.30013316
   0.93654817  0.78778021  0.38924623
   0.18771657  0.80042180  0.87521446
   0.31325461  0.86311247  0.16689201
   0.68707842  0.12282710  0.52128874
   0.06240338  0.53187993  0.25605353
   0.81237251  0.20715046  0.56574384
   0.31269446  0.37236006  0.52136362
   0.31206777  0.04198522  0.61063752
   0.68801857  0.27912070  0.12448261
   0.68798352  0.79641983  0.74416117
   0.93777512  0.12687833  0.65483855
   0.81249320  0.70760837  0.56544178
   0.06237581  0.36908298  0.43490106
   0.56306190  0.54631539  0.74418006
   0.56152913  0.03176984  0.25619763
   0.31235011  0.20168376  0.34489579
   0.06331165  0.52821322  0.12430143
   0.06220629  0.54132244  0.61075930
   0.06269374  0.02774592  0.12454773
   0.18843866  0.78737965  0.38942264
   0.93705982  0.95517378  0.47844594
   0.31252399  0.86680925  0.30004168
   0.18797069  0.63168092  0.78870077
   0.18850244  0.28511532  0.38936147
   0.06197564  0.20143126  0.34462990
   0.31197522  0.03132718  0.25607794
   0.68741541  0.61570945  0.30009272
   0.18735397  0.62223182  0.52108240
   0.68771921  0.79182497  0.61090037
   0.06225833  0.54949099  0.87494348
   0.68638513  0.62073328  0.43488745
   0.06251729  0.20676434  0.56559102
   0.56325401  0.04282293  0.61104724
   0.06334715  0.54559726  0.74445273
   0.31242040  0.70238817  0.34465170
   0.81337864  0.86784112  0.30022462
   0.43723788  0.11278677  0.16640647
   0.43718343  0.95671637  0.56527566
   0.93680044  0.28482856  0.38940972
Direct configuration=     3
   0.31277656  0.52822382  0.12452751
   0.93707328  0.12053551  0.43472143
   0.81132971  0.38132824  0.78839226
   0.31230423  0.71076866  0.69948037
   0.06189005  0.70256018  0.34467382
   0.18701279  0.13197514  0.78863394
   0.43780473  0.44653602  0.21187860
   0.68683439  0.28547321  0.38951573
   0.93729665  0.95332800  0.34499809
   0.93742889  0.78136242  0.25615912
   0.18715378  0.79146236  0.61066075
   0.06294342  0.21479939  0.83321339
   0.43720606  0.29991499  0.87514146
   0.43857506  0.78713199  0.38949116
   0.81151339  0.87128388  0.43468055
   0.06238918  0.87289290  0.52150654
   0.93796590  0.29633767  0.74406163
   0.68813225  0.45711744  0.56556521
   0.93732634  0.11254292  0.16687515
   0.68676298  0.12112138  0.43461808
   0.18796872  0.29632597  0.74401505
   0.43797073  0.94590526  0.21203431
   0.56256893  0.21539779  0.83286456
   0.18789840  0.79600427  0.74411085
   0.18817133  0.62032400  0.43506554
   0.81224478  0.20132403  0.34488213
   0.56241169  0.71473079  0.83298992
   0.81142199  0.53591072  0.38926597
   0.93785023  0.62567348  0.65478915
   0.43785516  0.46520166  0.83287219
   0.31347231  0.87166379  0.43467615
   0.81278416  0.37565459  0.65482842
   0.81218462  0.87231591  0.52132807
   0.81204361  0.86289383  0.16670219
   0.68715438  0.28225749  0.25619565
   0.93803254  0.96515528  0.83290960
   0.43718299  0.96186463  0.69962060
   0.31296592  0.21483886  0.83282099
   0.31313065  0.02795780  0.12449429
   0.81179836  0.21142903  0.69955070
   0.81248118  0.21491962  0.83282369
   0.18663402  0.45163747  0.34464042
   0.06303108  0.36684024  0.30007578
   0.81262302  0.54226299  0.61082969
   0.43811259  0.12643277  0.65501034
   0.31270338  0.55059595  0.87502411
   0.93852789  0.44637960  0.21203734
   0.31302816  0.54616140  0.74411860
   0.81306388  0.52812047  0.12420236
   0.68716500  0.30002518  0.87523058
   0.81150814  0.70294193  0.34487383
   0.31257941  0.87316251  0.52136317
   0.31322075  0.69611714  0.21201434
   0.31198496  0.88133031  0.78862798
   0.56247079  0.36687562  0.30010581
   0.81282729  0.71494471  0.83311597
   0.18838448  0.44650748  0.21205066
   0.06165354  0.04230495  0.61074442
   0.81265974  0.04976530  0.87518339
   0.18837480  0.77704628  0.12451883
   0.31326837  0.20521764  0.47826945
   0.68707655  0.95212852  0.34491935
   0.68743700  0.79986150  0.87532570
   0.56267889  0.87277467  0.52128362
   0.93777923  0.29897245  0.87534053
   0.81209951  0.03128119  0.25606923
   0.18700117  0.45641436  0.56558002
   0.68696190  0.78112403  0.25608576
   0.56249607  0.70821705  0.56549713
   0.06304528  0.69553132  0.21203527
   0.93758984  0.28201220  0.25624136
   0.68811753  0.29659021  0.74402994
   0.56203693  0.04989912  0.87509141
   0.43718966  0.63166234  0.78868370
   0.18777200  0.96514320  0.83291367
   0.31328054  0.53576786  0.38926782
   0.43671541  0.79969898  0.87525051
   0.43706482  0.11674340  0.30019372
   0.18738371  0.96185913  0.69961998
   0.18702812  0.95708713  0.56565520
   0.06218126  0.03723751  0.38941921
   0.18722156  0.95285292  0.34489344
   0.43692535  0.95200269  0.34495116
   0.93723181  0.45546442  0.47855586
   0.18771244  0.62552535  0.65475225
   0.93691622  0.62180727  0.52136181
   0.18739046  0.12684319  0.65500049
   0.56204300  0.53118359  0.25596193
   0.68726658  0.46499076  0.83287390
   0.18869623  0.94586055  0.21208480
   0.06221460  0.38099884  0.78852713
   0.93713223  0.45136698  0.34468625
   0.31298458  0.70561974  0.47860222
   0.43812244  0.28564139  0.38949171
   0.31143893  0.04963293  0.87514047
   0.43777199  0.79649418  0.74417143
   0.31242872  0.36667092  0.30004627
   0.43807227  0.62453754  0.65494853
   0.06273535  0.53515947  0.38906726
   0.56307855  0.52838650  0.12447951
   0.06185833  0.37252943  0.52149618
   0.18731226  0.78115819  0.25628921
   0.18722515  0.28165084  0.25619696
   0.81231533  0.70536305  0.47847599
   0.68780647  0.94669302  0.21199049
   0.31295769  0.19618495  0.21220219
   0.06199235  0.87113813  0.43486992
   0.93743135  0.61286770  0.16684389
   0.68687951  0.63166209  0.78866795
   0.06272526  0.87586913  0.65484086
   0.93733376  0.29164112  0.61082887
   0.56219936  0.71038658  0.69956252
   0.43797761  0.77754605  0.12462530
   0.06227015  0.70697935  0.56548556
   0.56301778  0.02790824  0.12442025
   0.68770565  0.96479907  0.83294543
   0.31414460  0.36902261  0.43479023
   0.93674012  0.79199412  0.61069461
   0.81280560  0.19723010  0.21197133
   0.56246803  0.53642811  0.38934586
   0.18763591  0.46096951  0.69947481
   0.18706768  0.29142552  0.61079843
   0.56213996  0.86633585  0.30017247
   0.18762566  0.61613110  0.29993305
   0.06208971  0.05003879  0.87527344
   0.18761624  0.46526029  0.83309700
   0.43789772  0.79189187  0.61076642
   0.68802268  0.77735231  0.12446055
   0.81297934  0.87577122  0.65470730
   0.31149126  0.53146724  0.25617940
   0.06302731  0.71429067  0.83318653
   0.31261908  0.71505771  0.83311158
   0.43785494  0.27867476  0.12453953
   0.43790037  0.12303052  0.52140739
   0.18763151  0.95496879  0.47848252
   0.81271304  0.37247826  0.52142642
   0.18639143  0.29890322  0.87528147
   0.31300310  0.03670636  0.38938308
   0.31191829  0.54154834  0.61079643
   0.81206214  0.71082275  0.69944514
   0.81236300  0.53177612  0.25612213
   0.56247636  0.20183202  0.34508159
   0.56256708  0.70221365  0.34496720
   0.56261588  0.20689511  0.56558688
   0.31281987  0.87576192  0.65490197
   0.43731201  0.29127152  0.61082917
   0.43648872  0.78098597  0.25614912
   0.68740481  0.45164733  0.34490329
   0.93796165  0.45694771  0.56565240
   0.93820378  0.46519385  0.83303973
   0.68699565  0.96167869  0.69950636
   0.81222935  0.03655585  0.38927556
   0.93807924  0.79576337  0.74414904
   0.81218383  0.88145539  0.78865029
   0.06222955  0.71140694  0.69939689
   0.43701398  0.45701790  0.56565489
   0.31215730  0.21181257  0.69968986
   0.18775146  0.12036086  0.43465456
   0.56245149  0.36991960  0.43475886
   0.56301263  0.04663342  0.74400505
   0.68690740  0.45957000  0.69952471
   0.81310817  0.69608942  0.21212697
   0.06231480  0.70487846  0.47867526
   0.43771161  0.29628393  0.74408521
   0.43722376  0.61296722  0.16700156
   0.43757186  0.46019295  0.69934179
   0.43745124  0.96469591  0.83298729
   0.06303717  0.86697013  0.30023499
   0.06248731  0.21190490  0.69951239
   0.81200406  0.36298632  0.16679310
   0.93664171  0.46086044  0.69937092
   0.43778181  0.95574201  0.47837199
   0.93811413  0.27898707  0.12449689
   0.43752609  0.45500998  0.47842784
   0.56145470  0.86316263  0.16670961
   0.43625102  0.28129775  0.25622251
   0.56206588  0.70604586  0.47840482
   0.06278952  0.36342385  0.16684131
   0.43723715  0.13206465  0.78864785
   0.43725274  0.45174559  0.34483947
   0.81131706  0.55030625  0.87508785
   0.56231810  0.21116261  0.69939486
   0.18760681  0.12262062  0.52155740
   0.06299392  0.04600840  0.74410562
   0.68782601  0.44632614  0.21206444
   0.18777497  0.45500956  0.47866356
   0.81263903  0.04652893  0.74412540
   0.56224677  0.20540929  0.47818131
   0.56318415  0.37506278  0.65491740
   0.56205149  0.54929713  0.87522226
   0.31281213  0.70720115  0.56561015
   0.43795757  0.62018600  0.43470398
   0.81245889  0.04204137  0.61076529
   0.56201431  0.88120983  0.78866202
   0.81323179  0.02772068  0.12446650
   0.68708877  0.45490401  0.47849884
   0.43738859  0.61572796  0.29998025
   0.93714075  0.13173406  0.78863397
   0.06249565  0.20516433  0.47858020
   0.31289286  0.36323536  0.16675615
   0.93673471  0.80050279  0.87532986
   0.81302259  0.36607872  0.30014106
   0.68662067  0.11309663  0.16696387
   0.93831999  0.61707261  0.30009406
   0.31267173  0.38131320  0.78841977
   0.43776800  0.62232930  0.52138356