 288 288   0   0
  0.1280206E+02  0.9726678E-09  0.8423550E-09  0.4500000E-08  0.2500000E-15
  1.000000000000000E-004
  CAR 
 unknown system                          
      6.82233152     -6.01622127  301      4.29400572      1.00000000
     -6.016  0.0000E+00  0.0000E+00
     -5.973  0.0000E+00  0.0000E+00
     -5.931  0.0000E+00  0.0000E+00
     -5.888  0.0000E+00  0.0000E+00
     -5.845  0.0000E+00  0.0000E+00
     -5.802  0.0000E+00  0.0000E+00
     -5.759  0.0000E+00  0.0000E+00
     -5.717  0.0000E+00  0.0000E+00
     -5.674  0.0000E+00  0.0000E+00
     -5.631  0.0000E+00  0.0000E+00
     -5.588  0.0000E+00  0.0000E+00
     -5.545  0.0000E+00  0.0000E+00
     -5.503  0.0000E+00  0.0000E+00
     -5.460  0.0000E+00  0.0000E+00
     -5.417  0.0000E+00  0.0000E+00
     -5.374  0.1621E-15  0.6939E-17
     -5.331  0.4281E-14  0.1901E-15
     -5.289  0.9145E-13  0.4104E-14
     -5.246  0.1671E-11  0.7560E-13
     -5.203  0.2600E-10  0.1188E-11
     -5.160  0.3446E-09  0.1594E-10
     -5.118  0.3893E-08  0.1825E-09
     -5.075  0.3749E-07  0.1787E-08
     -5.032  0.3081E-06  0.1497E-07
     -4.989  0.2162E-05  0.1075E-06
     -4.946  0.1297E-04  0.6624E-06
     -4.904  0.6663E-04  0.3514E-05
     -4.861  0.2939E-03  0.1609E-04
     -4.818  0.1117E-02  0.6390E-04
     -4.775  0.3673E-02  0.2211E-03
     -4.732  0.1052E-01  0.6712E-03
     -4.690  0.2643E-01  0.1802E-02
     -4.647  0.5883E-01  0.4320E-02
     -4.604  0.1174E+00  0.9342E-02
     -4.561  0.2121E+00  0.1842E-01
     -4.518  0.3510E+00  0.3344E-01
     -4.476  0.5362E+00  0.5639E-01
     -4.433  0.7609E+00  0.8895E-01
     -4.390  0.1008E+01  0.1321E+00
     -4.347  0.1252E+01  0.1857E+00
     -4.304  0.1466E+01  0.2484E+00
     -4.262  0.1629E+01  0.3181E+00
     -4.219  0.1734E+01  0.3923E+00
     -4.176  0.1795E+01  0.4692E+00
     -4.133  0.1844E+01  0.5481E+00
     -4.090  0.1920E+01  0.6302E+00
     -4.048  0.2058E+01  0.7183E+00
     -4.005  0.2269E+01  0.8154E+00
     -3.962  0.2535E+01  0.9239E+00
     -3.919  0.2812E+01  0.1044E+01
     -3.876  0.3046E+01  0.1175E+01
     -3.834  0.3187E+01  0.1311E+01
     -3.791  0.3219E+01  0.1449E+01
     -3.748  0.3165E+01  0.1584E+01
     -3.705  0.3077E+01  0.1716E+01
     -3.662  0.3022E+01  0.1845E+01
     -3.620  0.3053E+01  0.1976E+01
     -3.577  0.3191E+01  0.2112E+01
     -3.534  0.3413E+01  0.2258E+01
     -3.491  0.3667E+01  0.2415E+01
     -3.449  0.3892E+01  0.2582E+01
     -3.406  0.4050E+01  0.2755E+01
     -3.363  0.4130E+01  0.2932E+01
     -3.320  0.4150E+01  0.3110E+01
     -3.277  0.4145E+01  0.3287E+01
     -3.235  0.4152E+01  0.3465E+01
     -3.192  0.4201E+01  0.3644E+01
     -3.149  0.4305E+01  0.3829E+01
     -3.106  0.4463E+01  0.4020E+01
     -3.063  0.4658E+01  0.4219E+01
     -3.021  0.4866E+01  0.4427E+01
     -2.978  0.5053E+01  0.4644E+01
     -2.935  0.5195E+01  0.4866E+01
     -2.892  0.5285E+01  0.5092E+01
     -2.849  0.5337E+01  0.5320E+01
     -2.807  0.5382E+01  0.5551E+01
     -2.764  0.5454E+01  0.5784E+01
     -2.721  0.5563E+01  0.6022E+01
     -2.678  0.5680E+01  0.6265E+01
     -2.635  0.5740E+01  0.6511E+01
     -2.593  0.5688E+01  0.6754E+01
     -2.550  0.5535E+01  0.6991E+01
     -2.507  0.5379E+01  0.7222E+01
     -2.464  0.5368E+01  0.7451E+01
     -2.421  0.5619E+01  0.7692E+01
     -2.379  0.6136E+01  0.7954E+01
     -2.336  0.6790E+01  0.8245E+01
     -2.293  0.7363E+01  0.8560E+01
     -2.250  0.7660E+01  0.8888E+01
     -2.207  0.7606E+01  0.9213E+01
     -2.165  0.7291E+01  0.9525E+01
     -2.122  0.6927E+01  0.9822E+01
     -2.079  0.6746E+01  0.1011E+02
     -2.036  0.6888E+01  0.1041E+02
     -1.993  0.7335E+01  0.1072E+02
     -1.951  0.7937E+01  0.1106E+02
     -1.908  0.8488E+01  0.1142E+02
     -1.865  0.8825E+01  0.1180E+02
     -1.822  0.8904E+01  0.1218E+02
     -1.779  0.8806E+01  0.1256E+02
     -1.737  0.8683E+01  0.1293E+02
     -1.694  0.8664E+01  0.1330E+02
     -1.651  0.8792E+01  0.1368E+02
     -1.608  0.9027E+01  0.1406E+02
     -1.566  0.9303E+01  0.1446E+02
     -1.523  0.9580E+01  0.1487E+02
     -1.480  0.9851E+01  0.1529E+02
     -1.437  0.1011E+02  0.1572E+02
     -1.394  0.1033E+02  0.1617E+02
     -1.352  0.1046E+02  0.1661E+02
     -1.309  0.1055E+02  0.1707E+02
     -1.266  0.1073E+02  0.1753E+02
     -1.223  0.1122E+02  0.1801E+02
     -1.180  0.1213E+02  0.1852E+02
     -1.138  0.1335E+02  0.1910E+02
     -1.095  0.1455E+02  0.1972E+02
     -1.052  0.1537E+02  0.2038E+02
     -1.009  0.1566E+02  0.2105E+02
     -0.966  0.1559E+02  0.2171E+02
     -0.924  0.1556E+02  0.2238E+02
     -0.881  0.1599E+02  0.2306E+02
     -0.838  0.1707E+02  0.2379E+02
     -0.795  0.1873E+02  0.2460E+02
     -0.752  0.2088E+02  0.2549E+02
     -0.710  0.2353E+02  0.2650E+02
     -0.667  0.2688E+02  0.2765E+02
     -0.624  0.3108E+02  0.2898E+02
     -0.581  0.3591E+02  0.3051E+02
     -0.538  0.4082E+02  0.3226E+02
     -0.496  0.4515E+02  0.3419E+02
     -0.453  0.4851E+02  0.3627E+02
     -0.410  0.5096E+02  0.3845E+02
     -0.367  0.5281E+02  0.4071E+02
     -0.324  0.5434E+02  0.4304E+02
     -0.282  0.5559E+02  0.4541E+02
     -0.239  0.5648E+02  0.4783E+02
     -0.196  0.5692E+02  0.5027E+02
     -0.153  0.5699E+02  0.5271E+02
     -0.110  0.5687E+02  0.5514E+02
     -0.068  0.5682E+02  0.5757E+02
     -0.025  0.5711E+02  0.6002E+02
      0.018  0.5797E+02  0.6250E+02
      0.061  0.5955E+02  0.6505E+02
      0.103  0.6188E+02  0.6769E+02
      0.146  0.6489E+02  0.7047E+02
      0.189  0.6840E+02  0.7340E+02
      0.232  0.7216E+02  0.7649E+02
      0.275  0.7589E+02  0.7973E+02
      0.317  0.7928E+02  0.8313E+02
      0.360  0.8209E+02  0.8664E+02
      0.403  0.8423E+02  0.9024E+02
      0.446  0.8576E+02  0.9391E+02
      0.489  0.8676E+02  0.9763E+02
      0.531  0.8729E+02  0.1014E+03
      0.574  0.8732E+02  0.1051E+03
      0.617  0.8688E+02  0.1088E+03
      0.660  0.8605E+02  0.1125E+03
      0.703  0.8489E+02  0.1161E+03
      0.745  0.8339E+02  0.1197E+03
      0.788  0.8154E+02  0.1232E+03
      0.831  0.7950E+02  0.1266E+03
      0.874  0.7762E+02  0.1299E+03
      0.917  0.7629E+02  0.1332E+03
      0.959  0.7572E+02  0.1364E+03
      1.002  0.7579E+02  0.1397E+03
      1.045  0.7615E+02  0.1429E+03
      1.088  0.7635E+02  0.1462E+03
      1.131  0.7614E+02  0.1494E+03
      1.173  0.7555E+02  0.1527E+03
      1.216  0.7474E+02  0.1559E+03
      1.259  0.7394E+02  0.1590E+03
      1.302  0.7323E+02  0.1622E+03
      1.345  0.7252E+02  0.1653E+03
      1.387  0.7164E+02  0.1683E+03
      1.430  0.7040E+02  0.1714E+03
      1.473  0.6880E+02  0.1743E+03
      1.516  0.6713E+02  0.1772E+03
      1.559  0.6596E+02  0.1800E+03
      1.601  0.6583E+02  0.1828E+03
      1.644  0.6702E+02  0.1857E+03
      1.687  0.6935E+02  0.1887E+03
      1.730  0.7237E+02  0.1918E+03
      1.773  0.7558E+02  0.1950E+03
      1.815  0.7867E+02  0.1984E+03
      1.858  0.8153E+02  0.2018E+03
      1.901  0.8410E+02  0.2054E+03
      1.944  0.8639E+02  0.2091E+03
      1.986  0.8842E+02  0.2129E+03
      2.029  0.9028E+02  0.2168E+03
      2.072  0.9195E+02  0.2207E+03
      2.115  0.9337E+02  0.2247E+03
      2.158  0.9450E+02  0.2288E+03
      2.200  0.9550E+02  0.2328E+03
      2.243  0.9674E+02  0.2370E+03
      2.286  0.9868E+02  0.2412E+03
      2.329  0.1016E+03  0.2456E+03
      2.372  0.1055E+03  0.2501E+03
      2.414  0.1100E+03  0.2548E+03
      2.457  0.1144E+03  0.2597E+03
      2.500  0.1183E+03  0.2647E+03
      2.543  0.1215E+03  0.2699E+03
      2.586  0.1239E+03  0.2752E+03
      2.628  0.1259E+03  0.2806E+03
      2.671  0.1278E+03  0.2861E+03
      2.714  0.1298E+03  0.2917E+03
      2.757  0.1319E+03  0.2973E+03
      2.800  0.1344E+03  0.3031E+03
      2.842  0.1371E+03  0.3089E+03
      2.885  0.1399E+03  0.3149E+03
      2.928  0.1417E+03  0.3210E+03
      2.971  0.1417E+03  0.3270E+03
      3.014  0.1391E+03  0.3330E+03
      3.056  0.1336E+03  0.3387E+03
      3.099  0.1259E+03  0.3441E+03
      3.142  0.1169E+03  0.3491E+03
      3.185  0.1080E+03  0.3537E+03
      3.228  0.1001E+03  0.3580E+03
      3.270  0.9405E+02  0.3620E+03
      3.313  0.8978E+02  0.3659E+03
      3.356  0.8705E+02  0.3696E+03
      3.399  0.8543E+02  0.3732E+03
      3.442  0.8450E+02  0.3769E+03
      3.484  0.8389E+02  0.3805E+03
      3.527  0.8331E+02  0.3840E+03
      3.570  0.8268E+02  0.3876E+03
      3.613  0.8223E+02  0.3911E+03
      3.655  0.8247E+02  0.3946E+03
      3.698  0.8390E+02  0.3982E+03
      3.741  0.8674E+02  0.4019E+03
      3.784  0.9073E+02  0.4058E+03
      3.827  0.9525E+02  0.4099E+03
      3.869  0.9960E+02  0.4141E+03
      3.912  0.1033E+03  0.4186E+03
      3.955  0.1061E+03  0.4231E+03
      3.998  0.1080E+03  0.4277E+03
      4.041  0.1089E+03  0.4324E+03
      4.083  0.1090E+03  0.4370E+03
      4.126  0.1084E+03  0.4417E+03
      4.169  0.1074E+03  0.4463E+03
      4.212  0.1062E+03  0.4508E+03
      4.255  0.1049E+03  0.4553E+03
      4.297  0.1037E+03  0.4598E+03
      4.340  0.1027E+03  0.4641E+03
      4.383  0.1020E+03  0.4685E+03
      4.426  0.1015E+03  0.4729E+03
      4.469  0.1011E+03  0.4772E+03
      4.511  0.1003E+03  0.4815E+03
      4.554  0.9916E+02  0.4857E+03
      4.597  0.9790E+02  0.4899E+03
      4.640  0.9708E+02  0.4941E+03
      4.683  0.9718E+02  0.4982E+03
      4.725  0.9836E+02  0.5024E+03
      4.768  0.1005E+03  0.5067E+03
      4.811  0.1030E+03  0.5111E+03
      4.854  0.1056E+03  0.5157E+03
      4.897  0.1078E+03  0.5203E+03
      4.939  0.1091E+03  0.5249E+03
      4.982  0.1092E+03  0.5296E+03
      5.025  0.1074E+03  0.5342E+03
      5.068  0.1029E+03  0.5386E+03
      5.111  0.9479E+02  0.5427E+03
      5.153  0.8257E+02  0.5462E+03
      5.196  0.6697E+02  0.5491E+03
      5.239  0.4988E+02  0.5512E+03
      5.282  0.3374E+02  0.5526E+03
      5.325  0.2056E+02  0.5535E+03
      5.367  0.1122E+02  0.5540E+03
      5.410  0.5463E+01  0.5542E+03
      5.453  0.2371E+01  0.5543E+03
      5.496  0.9164E+00  0.5544E+03
      5.538  0.3158E+00  0.5544E+03
      5.581  0.9716E-01  0.5544E+03
      5.624  0.2671E-01  0.5544E+03
      5.667  0.6557E-02  0.5544E+03
      5.710  0.1435E-02  0.5544E+03
      5.752  0.2788E-03  0.5544E+03
      5.795  0.4784E-04  0.5544E+03
      5.838  0.7207E-05  0.5544E+03
      5.881  0.9474E-06  0.5544E+03
      5.924  0.1081E-06  0.5544E+03
      5.966  0.1066E-07  0.5544E+03
      6.009  0.9053E-09  0.5544E+03
      6.052  0.6599E-10  0.5544E+03
      6.095  0.4120E-11  0.5544E+03
      6.138  0.2194E-12  0.5544E+03
      6.180  0.9729E-14  0.5544E+03
      6.223  0.3891E-15  0.5544E+03
      6.266  0.0000E+00  0.5544E+03
      6.309  0.0000E+00  0.5544E+03
      6.352  0.0000E+00  0.5544E+03
      6.394  0.0000E+00  0.5544E+03
      6.437  0.0000E+00  0.5544E+03
      6.480  0.0000E+00  0.5544E+03
      6.523  0.0000E+00  0.5544E+03
      6.566  0.0000E+00  0.5544E+03
      6.608  0.0000E+00  0.5544E+03
      6.651  0.0000E+00  0.5544E+03
      6.694  0.0000E+00  0.5544E+03
      6.737  0.0000E+00  0.5544E+03
      6.780  0.0000E+00  0.5544E+03
      6.822  0.0000E+00  0.5544E+03
