unknown system                          
           1
     9.726678    0.000000    0.000000
     0.000000    8.423550    0.000000
     0.000000    0.000000   45.000000
   Fe   Mn
 281   7
Direct configuration=     1
   0.05401782  0.70108252  0.21120073
   0.31820820  0.72370724  0.87626080
   0.68843268  0.95876775  0.61149216
   0.43842160  0.45840515  0.61158384
   0.44064954  0.28726736  0.25508336
   0.05856881  0.38854461  0.83356056
   0.30862248  0.88771329  0.83350090
   0.44696542  0.62625249  0.70040288
   0.05977466  0.21263054  0.74492360
   0.17886410  0.45168899  0.21136294
   0.56788354  0.21068773  0.47746482
   0.06670237  0.87513086  0.56687807
   0.56831487  0.22383735  0.87614492
   0.80880551  0.52767911  0.12394580
   0.42890419  0.95156764  0.21136337
   0.56655401  0.37502003  0.56684493
   0.81107350  0.04158532  0.38825898
   0.68199304  0.78896754  0.52237162
   0.44271256  0.46087715  0.47745838
   0.43377392  0.96265214  0.74480613
   0.44145852  0.62498058  0.56684044
   0.57150653  0.87645853  0.70056804
   0.30772471  0.02636057  0.12387231
   0.68974059  0.95892149  0.34399403
   0.68611726  0.78261759  0.12415504
   0.05270742  0.37371371  0.29961331
   0.68981996  0.46788385  0.87609887
   0.42938190  0.45128906  0.21145324
   0.80852872  0.37479458  0.43310442
   0.56333967  0.70834168  0.61158637
   0.55972451  0.54062335  0.65589925
   0.81691864  0.86235563  0.16658088
   0.56537889  0.53732520  0.25510388
   0.68948260  0.45883258  0.34391530
   0.19136051  0.61147161  0.16654162
   0.19459086  0.79947031  0.78884306
   0.44720988  0.12598334  0.70042023
   0.92787541  0.62357903  0.29960898
   0.31744480  0.22359181  0.87613920
   0.31657041  0.87477380  0.56686163
   0.81746743  0.22378239  0.87620641
   0.80957571  0.54085357  0.65583328
   0.55883881  0.52763170  0.12383514
   0.56930439  0.04982914  0.78897202
   0.19036107  0.28715785  0.25510189
   0.80872327  0.87531857  0.43300731
   0.57233987  0.37626568  0.70038993
   0.05785230  0.02620931  0.12396147
   0.30971605  0.54063717  0.65591294
   0.56481899  0.20882485  0.34401189
   0.18828691  0.95861362  0.61149360
   0.30268520  0.37408036  0.29955195
   0.43473248  0.79052598  0.65596959
   0.19492406  0.29898924  0.78879012
   0.06750656  0.36251466  0.16660106
   0.69701996  0.62641243  0.70044182
   0.31141568  0.54130605  0.38845007
   0.06756506  0.72317547  0.87620933
   0.93376248  0.63757397  0.83396286
   0.31978843  0.54960739  0.78891176
   0.30482946  0.20056197  0.21116809
   0.06796245  0.71052662  0.47741867
   0.55414520  0.20090503  0.21113353
   0.30968882  0.21232273  0.74493362
   0.07191282  0.37646165  0.70054616
   0.18323558  0.63776063  0.83360480
   0.06950172  0.04958114  0.78900008
   0.44156918  0.12493269  0.56690254
   0.93462567  0.29075449  0.65584345
   0.80431861  0.20110947  0.21123303
   0.92892749  0.95151248  0.21125354
   0.94148412  0.62524867  0.56682331
   0.80843624  0.38773054  0.83355066
   0.19721655  0.62615001  0.70030653
   0.80864289  0.88772756  0.83357057
   0.68496593  0.29066900  0.65605193
   0.31301258  0.20823067  0.61152895
   0.43460839  0.46271660  0.74487740
   0.43629126  0.79105969  0.38838791
   0.68445605  0.96258383  0.74488794
   0.80403677  0.70089546  0.21128964
   0.81353847  0.70841213  0.61161737
   0.43681094  0.78316091  0.12421260
   0.30965159  0.71196637  0.74480106
   0.32016901  0.04946157  0.78886929
   0.81140943  0.54164680  0.38825617
   0.68210384  0.28880739  0.52238302
   0.69501133  0.79925122  0.78888206
   0.19073987  0.78728344  0.25522782
   0.69161838  0.11218741  0.16643172
   0.69284079  0.96068949  0.47741242
   0.94024830  0.95930214  0.34409015
   0.80723710  0.03934330  0.52258120
   0.68364202  0.62498007  0.43299170
   0.31679653  0.86199633  0.16661599
   0.81069789  0.21153615  0.74461076
   0.43960666  0.96774561  0.87607060
   0.56649252  0.87489234  0.56686847
   0.80817276  0.02700537  0.12392077
   0.42801275  0.62374033  0.29945922
   0.81684286  0.72376302  0.87632936
   0.68834423  0.45845903  0.61150170
   0.55837734  0.38756587  0.83344046
   0.80306697  0.37350678  0.29951719
   0.18635247  0.29135156  0.38841389
   0.81990340  0.54958824  0.78892956
   0.18220566  0.78935091  0.52254267
   0.30308602  0.87411153  0.29952754
   0.17904949  0.95105975  0.21122346
   0.18450533  0.46258505  0.74496299
   0.43230553  0.28896112  0.52235318
   0.06475066  0.70874404  0.34391269
   0.18487853  0.79059278  0.65587213
   0.44470597  0.79928579  0.78883646
   0.68374018  0.12493322  0.43291869
   0.93213212  0.78902939  0.52253489
   0.69180256  0.61251774  0.16671009
   0.81410781  0.70863584  0.34386463
   0.93429378  0.46268687  0.74492590
   0.18983104  0.45881741  0.34400150
   0.56987043  0.54987195  0.78902660
   0.56646120  0.36245391  0.16645472
   0.56414193  0.70839396  0.34388763
   0.55266782  0.37381995  0.29959029
   0.18961601  0.46800769  0.87609694
   0.19254280  0.11197946  0.16658328
   0.44463032  0.29910124  0.78881283
   0.69102307  0.78742671  0.25539811
   0.93371287  0.13778820  0.83355503
   0.44267303  0.96069494  0.47732522
   0.56752191  0.72474281  0.87623175
   0.19274830  0.46088614  0.47747910
   0.93553479  0.28242769  0.12422545
   0.31133147  0.04107440  0.38846771
   0.06018983  0.04040790  0.65605479
   0.55850895  0.37486323  0.43307281
   0.68425140  0.46276988  0.74496135
   0.56010197  0.21256859  0.74482976
   0.94713142  0.12634027  0.70036698
   0.55969156  0.04059544  0.65585843
   0.55695535  0.53913722  0.52246453
   0.17801883  0.12360691  0.29951728
   0.44153524  0.11231473  0.16648299
   0.67767362  0.62367402  0.29961497
   0.92823571  0.12344829  0.29964203
   0.81664582  0.37499330  0.56688309
   0.05292006  0.87384901  0.29954888
   0.19169585  0.62496352  0.56689410
   0.94476369  0.79944691  0.78883374
   0.30853453  0.38751298  0.83353476
   0.93975586  0.46839883  0.87610436
   0.43367861  0.63774413  0.83352898
   0.06451794  0.20826542  0.34372463
   0.18975849  0.96796898  0.87610611
   0.93554934  0.78191908  0.12417279
   0.68688639  0.79163871  0.38850335
   0.93482519  0.79068271  0.65590845
   0.94138954  0.11210648  0.16641491
   0.43506759  0.29082329  0.65606996
   0.05435757  0.20112857  0.21122064
   0.67897195  0.95145764  0.21131616
   0.17860121  0.62366399  0.29942017
   0.82214459  0.87618835  0.70041331
   0.94687039  0.62635700  0.70048641
   0.19716603  0.12631909  0.70033255
   0.94262149  0.46060149  0.47721348
   0.81347330  0.20846373  0.61158805
   0.18359381  0.62501019  0.43312342
   0.42795217  0.12376318  0.29954367
   0.67833545  0.12355324  0.29939275
   0.56177231  0.54133018  0.38857275
   0.81435512  0.20803609  0.34389822
   0.43989597  0.46804010  0.87592875
   0.55850614  0.88754750  0.83345718
   0.31769305  0.21038862  0.47731989
   0.19272263  0.96079028  0.47745124
   0.05863838  0.88766471  0.83346993
   0.05726577  0.53927231  0.52250983
   0.94267122  0.96065043  0.47731474
   0.06328659  0.70817244  0.61161394
   0.55735125  0.03903009  0.52244433
   0.69508807  0.29906828  0.78878650
   0.81755559  0.36159512  0.16666006
   0.43342825  0.12466974  0.43311318
   0.06791226  0.21060332  0.47742718
   0.30978468  0.04063570  0.65590977
   0.43233699  0.78903311  0.52242978
   0.18354908  0.13791970  0.83361036
   0.18604762  0.28272716  0.12422931
   0.93986007  0.45943503  0.34400728
   0.56730064  0.86205456  0.16657606
   0.30422157  0.70093323  0.21116414
   0.94134636  0.61229006  0.16661884
   0.18823411  0.45863619  0.61151615
   0.07230660  0.87650059  0.70033483
   0.05984028  0.54057030  0.65590528
   0.30808655  0.52610852  0.12397249
   0.93667757  0.79132123  0.38851869
   0.94492426  0.29871998  0.78877108
   0.18467695  0.29058614  0.65591426
   0.93817010  0.95842259  0.61151002
   0.80995638  0.71201771  0.74483042
   0.69111065  0.28741458  0.25522114
   0.05923509  0.71222071  0.74499407
   0.67898436  0.45167270  0.21120598
   0.81786832  0.21071378  0.47747578
   0.56767723  0.71058045  0.47745251
   0.06683029  0.86250171  0.16653840
   0.93244168  0.28878374  0.52241860
   0.68466445  0.79044036  0.65589735
   0.05859317  0.87478065  0.43304231
   0.06815797  0.22304775  0.87616294
   0.80979090  0.04061937  0.65594410
   0.55903178  0.02666750  0.12400556
   0.30875515  0.37523535  0.43300138
   0.31626898  0.37468350  0.56679358
   0.31770017  0.71041812  0.47730023
   0.05710299  0.03928069  0.52252236
   0.32207014  0.87629976  0.70052911
   0.06507718  0.53786680  0.25510386
   0.68335775  0.13760385  0.83351707
   0.81511794  0.03790915  0.25515968
   0.18338494  0.12510663  0.43315020
   0.69738544  0.12630486  0.70043209
   0.18235582  0.28929235  0.52251102
   0.44095904  0.78755541  0.25524526
   0.44160082  0.61116016  0.16649320
   0.06352546  0.20851324  0.61155432
   0.18611083  0.79129806  0.38832778
   0.30701466  0.53896389  0.52248448
   0.82176921  0.37645519  0.70030223
   0.68646335  0.29121484  0.38839184
   0.19147319  0.12501291  0.56688994
   0.68986089  0.96835739  0.87608536
   0.69168113  0.12504803  0.56689606
   0.43980336  0.95867056  0.34405287
   0.18388392  0.96253730  0.74475583
   0.94078304  0.78760095  0.25515599
   0.55851480  0.87474667  0.43306451
   0.30828435  0.87503235  0.43310773
   0.80730185  0.53926456  0.52252448
   0.92935878  0.45130568  0.21123990
   0.31551653  0.53759452  0.25505456
   0.56155528  0.04135634  0.38843421
   0.93832469  0.45832072  0.61158777
   0.06168499  0.04147348  0.38840539
   0.06130752  0.54163209  0.38835915
   0.43659690  0.29150340  0.38838832
   0.69289501  0.46063387  0.47745448
   0.06664397  0.37499624  0.56689665
   0.55452774  0.70064591  0.21112226
   0.94049023  0.28722560  0.25518399
   0.81930659  0.04966836  0.78905122
   0.18940341  0.95869063  0.34390382
   0.55281267  0.87398935  0.29955299
   0.05863647  0.37470716  0.43286270
   0.31485738  0.70903116  0.34397211
   0.31492941  0.20970172  0.34397822
   0.94150339  0.12523941  0.56680880
   0.43851794  0.95878614  0.61156505
   0.56545630  0.03770544  0.25506452
   0.18600509  0.78294358  0.12423835
   0.06589130  0.03765921  0.25513787
   0.69169355  0.62496416  0.56689905
   0.05724372  0.52692864  0.12408819
   0.30705940  0.03870937  0.52235601
   0.68734396  0.28208967  0.12422270
   0.81785886  0.71076115  0.47745209
   0.43353480  0.13763273  0.83354560
   0.32227952  0.37641184  0.70040733
   0.68361402  0.63774096  0.83352407
   0.55987713  0.71205466  0.74487112
   0.93683184  0.29137435  0.38856316
   0.93974638  0.96835437  0.87614152
   0.56296123  0.20805020  0.61142310
   0.81665413  0.87519431  0.56688877
   0.80330799  0.87344362  0.29943146
   0.31528018  0.03773273  0.25515810
   0.43618890  0.28310269  0.12403014
   0.31332345  0.70859036  0.61155140
   0.43370327  0.62501236  0.43293406
   0.93317290  0.62540151  0.43309110
   0.44011397  0.45817604  0.34408229
   0.07066413  0.54944881  0.78877640
   0.93320416  0.12526326  0.43311564
   0.31841683  0.36275181  0.16576963
   0.93335668  0.96209181  0.74469747
   0.81628690  0.53793261  0.25528330
Direct configuration=     2
   0.05456232  0.70105819  0.21118670
   0.31789309  0.72323192  0.87618596
   0.68841841  0.95865174  0.61148321
   0.43841225  0.45834434  0.61156696
   0.44004708  0.28721514  0.25514487
   0.05891183  0.38828684  0.83364428
   0.30898624  0.88756330  0.83360604
   0.44630779  0.62629041  0.70040120
   0.06034411  0.21271596  0.74486452
   0.17940203  0.45164078  0.21134525
   0.56730885  0.21044452  0.47752221
   0.06631990  0.87507244  0.56687895
   0.56793513  0.22327096  0.87607808
   0.80899013  0.52803772  0.12403043
   0.42948825  0.95147961  0.21133739
   0.56622404  0.37495764  0.56683225
   0.81117927  0.04165729  0.38827750
   0.68256071  0.78924964  0.52233891
   0.44216526  0.46060840  0.47750814
   0.43438061  0.96267593  0.74475993
   0.44111740  0.62493422  0.56683900
   0.57093238  0.87645593  0.70053721
   0.30806125  0.02700200  0.12396123
   0.68933291  0.95874963  0.34399886
   0.68621263  0.78213448  0.12420914
   0.05339207  0.37366846  0.29960479
   0.68968878  0.46836814  0.87601018
   0.42990048  0.45128567  0.21140792
   0.80886521  0.37491260  0.43309244
   0.56334047  0.70830700  0.61157150
   0.56017908  0.54071819  0.65588109
   0.81654524  0.86258728  0.16649750
   0.56475012  0.53729197  0.25516641
   0.68911878  0.45871098  0.34394180
   0.19094253  0.61164833  0.16649310
   0.19419180  0.79943404  0.78882738
   0.44654452  0.12606909  0.70041960
   0.92856354  0.62352289  0.29962505
   0.31715150  0.22307856  0.87607676
   0.31620295  0.87477027  0.56685108
   0.81716489  0.22323707  0.87613321
   0.81005436  0.54095830  0.65582565
   0.55897833  0.52799509  0.12391645
   0.56896386  0.04979264  0.78896895
   0.18981303  0.28711918  0.25515342
   0.80899477  0.87531849  0.43301491
   0.57160149  0.37630162  0.70040189
   0.05820622  0.02670632  0.12402746
   0.31018220  0.54071258  0.65589424
   0.56439313  0.20866213  0.34403697
   0.18829310  0.95851592  0.61148233
   0.30335838  0.37399764  0.29955118
   0.43519539  0.79067855  0.65594699
   0.19447277  0.29890922  0.78880494
   0.06705960  0.36265879  0.16651624
   0.69632770  0.62644044  0.70042976
   0.31143542  0.54139178  0.38844799
   0.06725525  0.72271831  0.87616245
   0.93411926  0.63746573  0.83400713
   0.31943851  0.54963890  0.78891841
   0.30519653  0.20058538  0.21115993
   0.06739573  0.71028104  0.47748244
   0.55464491  0.20092860  0.21112113
   0.31026960  0.21248075  0.74485855
   0.07126438  0.37652340  0.70052346
   0.18367189  0.63761054  0.83366767
   0.06912412  0.04952301  0.78899141
   0.44121178  0.12489992  0.56689228
   0.93513965  0.29089393  0.65582554
   0.80477347  0.20118202  0.21121857
   0.92948592  0.95152185  0.21124813
   0.94113636  0.62521016  0.56681723
   0.80878441  0.38756477  0.83364185
   0.19648817  0.62621933  0.70031404
   0.80899929  0.88756530  0.83366932
   0.68540209  0.29076569  0.65601837
   0.31309709  0.20820719  0.61152327
   0.43512732  0.46270465  0.74481171
   0.43633419  0.79112141  0.38838760
   0.68492031  0.96261161  0.74483423
   0.80455133  0.70092395  0.21126842
   0.81347388  0.70836812  0.61158680
   0.43684913  0.78260128  0.12427816
   0.31015213  0.71211458  0.74474596
   0.31974037  0.04948105  0.78888681
   0.81144130  0.54168805  0.38828599
   0.68266679  0.28914329  0.52235291
   0.69458291  0.79927517  0.78888532
   0.19015909  0.78733570  0.25527007
   0.69121087  0.11226934  0.16639282
   0.69226961  0.96049107  0.47748152
   0.93975272  0.95915885  0.34409014
   0.80776952  0.03949511  0.52251353
   0.68391656  0.62502168  0.43302467
   0.31641883  0.86220138  0.16651885
   0.81104872  0.21180510  0.74459582
   0.43953353  0.96828962  0.87599153
   0.56617653  0.87482342  0.56685350
   0.80846590  0.02741224  0.12398754
   0.42863348  0.62370803  0.29948114
   0.81660428  0.72328465  0.87626134
   0.68831547  0.45838729  0.61148705
   0.55878626  0.38746565  0.83353305
   0.80368944  0.37344852  0.29952451
   0.18639667  0.29140325  0.38840840
   0.81942735  0.54957323  0.78895152
   0.18279438  0.78955523  0.52248995
   0.30372918  0.87403174  0.29954592
   0.17954364  0.95109707  0.21121769
   0.18509027  0.46262798  0.74488848
   0.43283848  0.28920831  0.52231262
   0.06436955  0.70876934  0.34395588
   0.18534590  0.79066991  0.65585143
   0.44428754  0.79931022  0.78882905
   0.68390234  0.12496076  0.43294116
   0.93272255  0.78920592  0.52248894
   0.69136556  0.61268858  0.16662317
   0.81377118  0.70865873  0.34392320
   0.93487070  0.46268346  0.74485967
   0.18933825  0.45873813  0.34401675
   0.56951087  0.54977866  0.78902073
   0.56620033  0.36262936  0.16636026
   0.56376827  0.70840516  0.34394563
   0.55342732  0.37377147  0.29959068
   0.18951708  0.46846214  0.87602303
   0.19203130  0.11213229  0.16650468
   0.44423022  0.29905734  0.78881475
   0.69033181  0.78740204  0.25541457
   0.93414046  0.13763058  0.83363536
   0.44214708  0.96048970  0.47739345
   0.56722746  0.72408567  0.87615848
   0.19215355  0.46062126  0.47753268
   0.93562325  0.28201080  0.12427281
   0.31136953  0.04115791  0.38846299
   0.06057369  0.04051521  0.65601352
   0.55888336  0.37492183  0.43307458
   0.68472608  0.46272648  0.74489595
   0.56058731  0.21269552  0.74477375
   0.94647796  0.12643214  0.70037036
   0.56017742  0.04068182  0.65585186
   0.55756228  0.53938996  0.52241386
   0.17870343  0.12359323  0.29952059
   0.44106602  0.11236546  0.16642788
   0.67831951  0.62362021  0.29961639
   0.92884044  0.12337307  0.29963987
   0.81625705  0.37497786  0.56688140
   0.05362252  0.87375219  0.29955434
   0.19130509  0.62494775  0.56689455
   0.94424160  0.79940609  0.78884680
   0.30891999  0.38739804  0.83362805
   0.93968828  0.46883202  0.87603211
   0.43409542  0.63765858  0.83361203
   0.06413707  0.20828274  0.34379263
   0.18963144  0.96841261  0.87601891
   0.93568831  0.78155003  0.12422385
   0.68681467  0.79164313  0.38848851
   0.93528490  0.79079567  0.65589053
   0.94105746  0.11218352  0.16636016
   0.43544149  0.29091244  0.65603772
   0.05492076  0.20110036  0.21119899
   0.67953868  0.95145459  0.21131254
   0.17917341  0.62362215  0.29945925
   0.82142290  0.87624899  0.70040664
   0.94624270  0.62642636  0.70047646
   0.19647319  0.12639548  0.70034267
   0.94213359  0.46034886  0.47729831
   0.81342965  0.20838347  0.61156530
   0.18400429  0.62504917  0.43311860
   0.42861923  0.12375223  0.29956620
   0.67893369  0.12348601  0.29943179
   0.56171239  0.54136411  0.38855524
   0.81399486  0.20800734  0.34394701
   0.43979320  0.46852260  0.87586617
   0.55889344  0.88742062  0.83356561
   0.31716882  0.21024718  0.47739867
   0.19211719  0.96055031  0.47751107
   0.05897125  0.88756180  0.83357583
   0.05778980  0.53945655  0.52244076
   0.94215589  0.96039447  0.47738986
   0.06329359  0.70815914  0.61158384
   0.55786101  0.03929473  0.52239134
   0.69464698  0.29902671  0.78878455
   0.81710467  0.36187394  0.16655780
   0.43375255  0.12466522  0.43310916
   0.06734509  0.21039126  0.47749154
   0.31026458  0.04073387  0.65589488
   0.43286035  0.78925540  0.52238209
   0.18400220  0.13775880  0.83368220
   0.18612573  0.28216639  0.12425622
   0.93942149  0.45928038  0.34402232
   0.56698048  0.86228693  0.16648839
   0.30470423  0.70090828  0.21115364
   0.94091110  0.61248217  0.16655676
   0.18825884  0.45854347  0.61150342
   0.07159045  0.87653072  0.70032620
   0.06028494  0.54069294  0.65590023
   0.30844555  0.52672395  0.12398798
   0.93661446  0.79144305  0.38850767
   0.94445079  0.29871838  0.78878041
   0.18513827  0.29072096  0.65590432
   0.93821371  0.95835818  0.61150837
   0.81046422  0.71216602  0.74479059
   0.69044500  0.28738792  0.25525048
   0.05991065  0.71232988  0.74491325
   0.67951866  0.45158408  0.21120621
   0.81728693  0.21045400  0.47752809
   0.56714441  0.71037908  0.47751243
   0.06639534  0.86266719  0.16645954
   0.93297154  0.28904811  0.52238419
   0.68507917  0.79058988  0.65588298
   0.05896184  0.87481161  0.43303548
   0.06779829  0.22254253  0.87611234
   0.81025611  0.04069443  0.65591721
   0.55918543  0.02710073  0.12406329
   0.30903085  0.37519270  0.43301613
   0.31597265  0.37468730  0.56679169
   0.31717557  0.71025210  0.47738324
   0.05769399  0.03947084  0.52245344
   0.32137568  0.87634714  0.70051242
   0.06461694  0.53772990  0.25516935
   0.68382397  0.13755757  0.83359921
   0.81459582  0.03770507  0.25521414
   0.18389385  0.12510945  0.43313128
   0.69665086  0.12632487  0.70042107
   0.18291608  0.28952039  0.52246816
   0.44035818  0.78758202  0.25527073
   0.44121407  0.61135865  0.16642431
   0.06346815  0.20844208  0.61153494
   0.18615472  0.79134590  0.38833559
   0.30761276  0.53922982  0.52242752
   0.82112204  0.37648949  0.70030724
   0.68645207  0.29131830  0.38839529
   0.19115886  0.12496731  0.56688186
   0.68973229  0.96883684  0.87600414
   0.69126927  0.12501263  0.56689278
   0.43936583  0.95866438  0.34406717
   0.18452845  0.96258356  0.74472119
   0.94020965  0.78762844  0.25520878
   0.55891064  0.87479813  0.43305988
   0.30866605  0.87500976  0.43309779
   0.80784412  0.53944397  0.52246710
   0.92984541  0.45132222  0.21125523
   0.31496141  0.53745204  0.25513801
   0.56151868  0.04137171  0.38843185
   0.93832593  0.45824276  0.61157229
   0.06166537  0.04153171  0.38840780
   0.06132743  0.54164759  0.38837218
   0.43661194  0.29149301  0.38839959
   0.69231464  0.46043456  0.47751862
   0.06627799  0.37497097  0.56689522
   0.55499178  0.70069568  0.21112153
   0.93994552  0.28720530  0.25523471
   0.81892021  0.04962722  0.78903409
   0.18900390  0.95865234  0.34393642
   0.55351835  0.87392407  0.29956997
   0.05901111  0.37477401  0.43289005
   0.31435493  0.70887180  0.34400455
   0.31444601  0.20942935  0.34400167
   0.94115396  0.12519918  0.56680895
   0.43847559  0.95867217  0.61155126
   0.56480483  0.03763279  0.25513269
   0.18601202  0.78239907  0.12428874
   0.06532404  0.03754053  0.25519180
   0.69131145  0.62492808  0.56689531
   0.05773043  0.52735588  0.12413688
   0.30764786  0.03904231  0.52231814
   0.68734651  0.28177516  0.12427460
   0.81727282  0.71050291  0.47750228
   0.43398315  0.13751672  0.83360846
   0.32159504  0.37639417  0.70040208
   0.68408242  0.63763927  0.83360529
   0.56035623  0.71215283  0.74481538
   0.93674804  0.29148848  0.38853394
   0.93968185  0.96875903  0.87605065
   0.56303807  0.20807489  0.61142418
   0.81628225  0.87513205  0.56689027
   0.80390637  0.87342163  0.29945375
   0.31472713  0.03764020  0.25521587
   0.43626256  0.28260052  0.12405043
   0.31333020  0.70850000  0.61153761
   0.43396770  0.62499376  0.43295640
   0.93353782  0.62534090  0.43309499
   0.43966941  0.45821462  0.34409319
   0.07017457  0.54942184  0.78877999
   0.93356377  0.12523476  0.43311398
   0.31791891  0.36284322  0.16574213
   0.93396028  0.96223548  0.74468743
   0.81567381  0.53775489  0.25530303
Direct configuration=     3
   0.05619580  0.70098521  0.21114461
   0.31694779  0.72180594  0.87596145
   0.68837561  0.95830372  0.61145633
   0.43838421  0.45816192  0.61151631
   0.43823970  0.28705846  0.25532941
   0.05994092  0.38751353  0.83389547
   0.31007751  0.88711332  0.83392146
   0.44433489  0.62640416  0.70039616
   0.06205246  0.21297223  0.74468728
   0.18101581  0.45149617  0.21129218
   0.56558481  0.20971490  0.47769439
   0.06517250  0.87489721  0.56688157
   0.56679591  0.22157180  0.87587757
   0.80954401  0.52911357  0.12428435
   0.43124043  0.95121551  0.21125947
   0.56523414  0.37477047  0.56679423
   0.81149657  0.04187322  0.38833305
   0.68426374  0.79009594  0.52224078
   0.44052335  0.45980213  0.47765740
   0.43620067  0.96274728  0.74462134
   0.44009404  0.62479512  0.56683471
   0.56920994  0.87644814  0.70044471
   0.30907089  0.02892631  0.12422801
   0.68810988  0.95823407  0.34401335
   0.68649872  0.78068516  0.12437145
   0.05544602  0.37353271  0.29957924
   0.68929525  0.46982101  0.87574410
   0.43145624  0.45127551  0.21127196
   0.80987466  0.37526666  0.43305648
   0.56334287  0.70820297  0.61152687
   0.56154280  0.54100272  0.65582661
   0.81542503  0.86328225  0.16624738
   0.56286381  0.53719230  0.25535399
   0.68802732  0.45834617  0.34402130
   0.18968862  0.61217850  0.16634753
   0.19299461  0.79932523  0.78878033
   0.44454845  0.12632633  0.70041771
   0.93062792  0.62335448  0.29967325
   0.31627162  0.22153880  0.87588944
   0.31510057  0.87475969  0.56681943
   0.81625730  0.22160110  0.87591359
   0.81149031  0.54127249  0.65580275
   0.55939692  0.52908527  0.12416039
   0.56794228  0.04968316  0.78895974
   0.18816892  0.28700319  0.25530801
   0.80980928  0.87531826  0.43303773
   0.56938633  0.37640945  0.70043775
   0.05926799  0.02819734  0.12422541
   0.31158067  0.54093879  0.65583814
   0.56311555  0.20817397  0.34411219
   0.18831164  0.95822281  0.61144854
   0.30537791  0.37374948  0.29954888
   0.43658411  0.79113627  0.65587917
   0.19311889  0.29866917  0.78884938
   0.06571873  0.36309121  0.16626179
   0.69425092  0.62652448  0.70039356
   0.31149464  0.54164899  0.38844177
   0.06632584  0.72134682  0.87602179
   0.93518958  0.63714099  0.83413991
   0.31838873  0.54973342  0.78893833
   0.30629774  0.20065561  0.21113544
   0.06569557  0.70954430  0.47767375
   0.55614405  0.20099930  0.21108394
   0.31201195  0.21295481  0.74463335
   0.06931909  0.37670865  0.70045539
   0.18498081  0.63716028  0.83385630
   0.06799135  0.04934859  0.78896542
   0.44013955  0.12480159  0.56686152
   0.93668158  0.29131226  0.65577181
   0.80613804  0.20139967  0.21117518
   0.93116121  0.95154994  0.21123190
   0.94009306  0.62509463  0.56679897
   0.80982890  0.38706744  0.83391543
   0.19430304  0.62642729  0.70033656
   0.81006848  0.88707852  0.83396558
   0.68671059  0.29105576  0.65591772
   0.31335065  0.20813677  0.61150624
   0.43668411  0.46266879  0.74461464
   0.43646299  0.79130657  0.38838668
   0.68631310  0.96269494  0.74467307
   0.80609502  0.70100942  0.21120475
   0.81328008  0.70823609  0.61149509
   0.43696369  0.78092241  0.12447484
   0.31165374  0.71255919  0.74458064
   0.31845442  0.04953950  0.78893938
   0.81153691  0.54181181  0.38837547
   0.68435565  0.29015097  0.52226258
   0.69329766  0.79934701  0.78889510
   0.18841673  0.78749247  0.25539683
   0.68998834  0.11251514  0.16627614
   0.69055608  0.95989582  0.47768884
   0.93826598  0.95872899  0.34409012
   0.80936679  0.03995054  0.52231053
   0.68474018  0.62514649  0.43312358
   0.31528575  0.86281650  0.16622740
   0.81210122  0.21261195  0.74455097
   0.43931414  0.96992164  0.87575432
   0.56522854  0.87461668  0.56680859
   0.80934532  0.02863285  0.12418784
   0.43049568  0.62361113  0.29954690
   0.81588855  0.72184955  0.87605725
   0.68822921  0.45817204  0.61144311
   0.56001303  0.38716499  0.83381081
   0.80555683  0.37327375  0.29954649
   0.18652930  0.29155832  0.38839194
   0.81799920  0.54952819  0.78901742
   0.18456052  0.79016817  0.52233179
   0.30565868  0.87379238  0.29960106
   0.18102608  0.95120902  0.21120039
   0.18684508  0.46275676  0.74466497
   0.43443733  0.28994985  0.52219097
   0.06322621  0.70884522  0.34408545
   0.18674800  0.79090131  0.65578933
   0.44303226  0.79938352  0.78880680
   0.68438881  0.12504337  0.43300857
   0.93449383  0.78973552  0.52235110
   0.69005456  0.61320112  0.16636240
   0.81276130  0.70872743  0.34409893
   0.93660147  0.46267320  0.74466097
   0.18785990  0.45850030  0.34406250
   0.56843220  0.54949878  0.78900310
   0.56541771  0.36315573  0.16607686
   0.56264731  0.70843875  0.34411961
   0.55570580  0.37362605  0.29959185
   0.18922029  0.46982547  0.87580129
   0.19049678  0.11259077  0.16626891
   0.44302994  0.29892564  0.78882050
   0.68825804  0.78732801  0.25546395
   0.93542323  0.13715770  0.83387635
   0.44056923  0.95987397  0.47759815
   0.56634409  0.72211425  0.87593870
   0.19036932  0.45982659  0.47769344
   0.93588866  0.28076010  0.12441488
   0.31148371  0.04140844  0.38844884
   0.06172527  0.04083713  0.65588971
   0.56000660  0.37509763  0.43307987
   0.68615012  0.46259628  0.74469975
   0.56204333  0.21307632  0.74460574
   0.94451756  0.12670775  0.70038049
   0.56163499  0.04094097  0.65583213
   0.55938308  0.54014818  0.52226185
   0.18075722  0.12355221  0.29953053
   0.43965836  0.11251764  0.16626253
   0.68025719  0.62345878  0.29962066
   0.93065460  0.12314742  0.29963339
   0.81509074  0.37493155  0.56687632
   0.05572990  0.87346173  0.29957070
   0.19013281  0.62490047  0.56689591
   0.94267533  0.79928363  0.78888598
   0.31007638  0.38705319  0.83390791
   0.93948551  0.47013160  0.87581538
   0.43534585  0.63740195  0.83386117
   0.06299445  0.20833473  0.34399664
   0.18925028  0.96974348  0.87575729
   0.93610524  0.78044289  0.12437703
   0.68659952  0.79165638  0.38844397
   0.93666405  0.79113453  0.65583676
   0.94006121  0.11241467  0.16619592
   0.43656320  0.29117989  0.65594098
   0.05661035  0.20101572  0.21113404
   0.68123887  0.95144543  0.21130166
   0.18089001  0.62349660  0.29957652
   0.81925782  0.87643093  0.70038665
   0.94435963  0.62663445  0.70044662
   0.19439467  0.12662465  0.70037305
   0.94066986  0.45959095  0.47755281
   0.81329869  0.20814269  0.61149705
   0.18523574  0.62516612  0.43310412
   0.43062041  0.12371937  0.29963381
   0.68072842  0.12328432  0.29954890
   0.56153261  0.54146588  0.38850269
   0.81291407  0.20792111  0.34409337
   0.43948488  0.46997010  0.87567843
   0.56005533  0.88703999  0.83389091
   0.31559612  0.20982287  0.47763501
   0.19030086  0.95983042  0.47769058
   0.05996984  0.88725307  0.83389351
   0.05936188  0.54000929  0.52223353
   0.94060990  0.95962661  0.47761524
   0.06331458  0.70811924  0.61149352
   0.55939030  0.04008867  0.52223236
   0.69332373  0.29890202  0.78877870
   0.81575192  0.36271041  0.16625102
   0.43472547  0.12465165  0.43309708
   0.06564357  0.20975506  0.47768464
   0.31170429  0.04102836  0.65585021
   0.43443042  0.78992225  0.52223905
   0.18536156  0.13727609  0.83389772
   0.18636009  0.28048408  0.12433693
   0.93810576  0.45881643  0.34406746
   0.56602001  0.86298404  0.16622537
   0.30615221  0.70083342  0.21112212
   0.93960533  0.61305851  0.16637054
   0.18833303  0.45826532  0.61146524
   0.06944202  0.87662110  0.70030033
   0.06161893  0.54106086  0.65588509
   0.30952255  0.52857027  0.12403444
   0.93642516  0.79180854  0.38847461
   0.94303037  0.29871359  0.78880840
   0.18652224  0.29112543  0.65587452
   0.93834453  0.95816493  0.61150344
   0.81198773  0.71261095  0.74467111
   0.68844806  0.28730793  0.25533850
   0.06193733  0.71265740  0.74467079
   0.68112154  0.45131822  0.21120689
   0.81554276  0.20967464  0.47768503