 288 288   0   0
  0.1280206E+02  0.9726678E-09  0.8423550E-09  0.4500000E-08  0.2500000E-15
  1.000000000000000E-004
  CAR 
 unknown system                          
      6.78756524     -6.01626931  301      4.29376422      1.00000000
     -6.016  0.0000E+00  0.0000E+00
     -5.974  0.0000E+00  0.0000E+00
     -5.931  0.0000E+00  0.0000E+00
     -5.888  0.0000E+00  0.0000E+00
     -5.846  0.0000E+00  0.0000E+00
     -5.803  0.0000E+00  0.0000E+00
     -5.760  0.0000E+00  0.0000E+00
     -5.718  0.0000E+00  0.0000E+00
     -5.675  0.0000E+00  0.0000E+00
     -5.632  0.0000E+00  0.0000E+00
     -5.589  0.0000E+00  0.0000E+00
     -5.547  0.0000E+00  0.0000E+00
     -5.504  0.0000E+00  0.0000E+00
     -5.461  0.0000E+00  0.0000E+00
     -5.419  0.0000E+00  0.0000E+00
     -5.376  0.1626E-15  0.6939E-17
     -5.333  0.3707E-14  0.1651E-15
     -5.291  0.7993E-13  0.3576E-14
     -5.248  0.1460E-11  0.6587E-13
     -5.205  0.2273E-10  0.1036E-11
     -5.163  0.3017E-09  0.1391E-10
     -5.120  0.3416E-08  0.1597E-09
     -5.077  0.3301E-07  0.1568E-08
     -5.035  0.2723E-06  0.1319E-07
     -4.992  0.1920E-05  0.9513E-07
     -4.949  0.1158E-04  0.5895E-06
     -4.907  0.5990E-04  0.3146E-05
     -4.864  0.2661E-03  0.1450E-04
     -4.821  0.1019E-02  0.5798E-04
     -4.779  0.3377E-02  0.2021E-03
     -4.736  0.9747E-02  0.6181E-03
     -4.693  0.2469E-01  0.1672E-02
     -4.651  0.5539E-01  0.4036E-02
     -4.608  0.1113E+00  0.8785E-02
     -4.565  0.2025E+00  0.1743E-01
     -4.522  0.3371E+00  0.3181E-01
     -4.480  0.5179E+00  0.5392E-01
     -4.437  0.7391E+00  0.8546E-01
     -4.394  0.9843E+00  0.1275E+00
     -4.352  0.1229E+01  0.1799E+00
     -4.309  0.1446E+01  0.2416E+00
     -4.266  0.1614E+01  0.3105E+00
     -4.224  0.1724E+01  0.3841E+00
     -4.181  0.1788E+01  0.4604E+00
     -4.138  0.1835E+01  0.5387E+00
     -4.096  0.1906E+01  0.6201E+00
     -4.053  0.2036E+01  0.7069E+00
     -4.010  0.2238E+01  0.8025E+00
     -3.968  0.2500E+01  0.9092E+00
     -3.925  0.2781E+01  0.1028E+01
     -3.882  0.3024E+01  0.1157E+01
     -3.840  0.3181E+01  0.1293E+01
     -3.797  0.3227E+01  0.1430E+01
     -3.754  0.3180E+01  0.1566E+01
     -3.712  0.3090E+01  0.1698E+01
     -3.669  0.3023E+01  0.1827E+01
     -3.626  0.3037E+01  0.1957E+01
     -3.584  0.3158E+01  0.2091E+01
     -3.541  0.3370E+01  0.2235E+01
     -3.498  0.3624E+01  0.2390E+01
     -3.456  0.3861E+01  0.2555E+01
     -3.413  0.4034E+01  0.2727E+01
     -3.370  0.4127E+01  0.2903E+01
     -3.327  0.4155E+01  0.3080E+01
     -3.285  0.4148E+01  0.3257E+01
     -3.242  0.4146E+01  0.3434E+01
     -3.199  0.4181E+01  0.3613E+01
     -3.157  0.4271E+01  0.3795E+01
     -3.114  0.4418E+01  0.3984E+01
     -3.071  0.4611E+01  0.4180E+01
     -3.029  0.4823E+01  0.4386E+01
     -2.986  0.5024E+01  0.4601E+01
     -2.943  0.5182E+01  0.4822E+01
     -2.901  0.5284E+01  0.5047E+01
     -2.858  0.5338E+01  0.5275E+01
     -2.815  0.5377E+01  0.5505E+01
     -2.773  0.5435E+01  0.5737E+01
     -2.730  0.5533E+01  0.5973E+01
     -2.687  0.5652E+01  0.6214E+01
     -2.645  0.5731E+01  0.6459E+01
     -2.602  0.5708E+01  0.6702E+01
     -2.559  0.5575E+01  0.6940E+01
     -2.517  0.5410E+01  0.7171E+01
     -2.474  0.5357E+01  0.7400E+01
     -2.431  0.5545E+01  0.7636E+01
     -2.389  0.6009E+01  0.7893E+01
     -2.346  0.6646E+01  0.8176E+01
     -2.303  0.7253E+01  0.8486E+01
     -2.260  0.7620E+01  0.8811E+01
     -2.218  0.7640E+01  0.9137E+01
     -2.175  0.7366E+01  0.9452E+01
     -2.132  0.6991E+01  0.9750E+01
     -2.090  0.6753E+01  0.1004E+02
     -2.047  0.6819E+01  0.1033E+02
     -2.004  0.7208E+01  0.1064E+02
     -1.962  0.7794E+01  0.1097E+02
     -1.919  0.8375E+01  0.1133E+02
     -1.876  0.8769E+01  0.1170E+02
     -1.834  0.8900E+01  0.1208E+02
     -1.791  0.8827E+01  0.1246E+02
     -1.748  0.8693E+01  0.1283E+02
     -1.706  0.8644E+01  0.1320E+02
     -1.663  0.8744E+01  0.1357E+02
     -1.620  0.8966E+01  0.1395E+02
     -1.578  0.9241E+01  0.1435E+02
     -1.535  0.9516E+01  0.1475E+02
     -1.492  0.9780E+01  0.1517E+02
     -1.450  0.1004E+02  0.1560E+02
     -1.407  0.1027E+02  0.1604E+02
     -1.364  0.1042E+02  0.1648E+02
     -1.322  0.1052E+02  0.1693E+02
     -1.279  0.1065E+02  0.1739E+02
     -1.236  0.1104E+02  0.1786E+02
     -1.193  0.1182E+02  0.1836E+02
     -1.151  0.1297E+02  0.1892E+02
     -1.108  0.1420E+02  0.1952E+02
     -1.065  0.1517E+02  0.2017E+02
     -1.023  0.1561E+02  0.2084E+02
     -0.980  0.1562E+02  0.2150E+02
     -0.937  0.1554E+02  0.2216E+02
     -0.895  0.1580E+02  0.2284E+02
     -0.852  0.1667E+02  0.2355E+02
     -0.809  0.1815E+02  0.2433E+02
     -0.767  0.2012E+02  0.2518E+02
     -0.724  0.2257E+02  0.2615E+02
     -0.681  0.2565E+02  0.2724E+02
     -0.639  0.2956E+02  0.2850E+02
     -0.596  0.3422E+02  0.2996E+02
     -0.553  0.3917E+02  0.3164E+02
     -0.511  0.4375E+02  0.3350E+02
     -0.468  0.4745E+02  0.3553E+02
     -0.425  0.5019E+02  0.3767E+02
     -0.383  0.5221E+02  0.3990E+02
     -0.340  0.5383E+02  0.4220E+02
     -0.297  0.5519E+02  0.4455E+02
     -0.255  0.5622E+02  0.4695E+02
     -0.212  0.5682E+02  0.4938E+02
     -0.169  0.5699E+02  0.5181E+02
     -0.127  0.5690E+02  0.5424E+02
     -0.084  0.5679E+02  0.5666E+02
     -0.041  0.5693E+02  0.5909E+02
      0.002  0.5756E+02  0.6155E+02
      0.044  0.5885E+02  0.6406E+02
      0.087  0.6089E+02  0.6666E+02
      0.130  0.6365E+02  0.6937E+02
      0.172  0.6699E+02  0.7223E+02
      0.215  0.7067E+02  0.7525E+02
      0.258  0.7444E+02  0.7843E+02
      0.300  0.7800E+02  0.8175E+02
      0.343  0.8105E+02  0.8521E+02
      0.386  0.8345E+02  0.8878E+02
      0.428  0.8520E+02  0.9241E+02
      0.471  0.8640E+02  0.9610E+02
      0.514  0.8712E+02  0.9982E+02
      0.556  0.8736E+02  0.1035E+03
      0.599  0.8711E+02  0.1073E+03
      0.642  0.8644E+02  0.1110E+03
      0.684  0.8543E+02  0.1146E+03
      0.727  0.8407E+02  0.1182E+03
      0.770  0.8237E+02  0.1217E+03
      0.812  0.8038E+02  0.1251E+03
      0.855  0.7839E+02  0.1285E+03
      0.898  0.7678E+02  0.1318E+03
      0.940  0.7587E+02  0.1350E+03
      0.983  0.7569E+02  0.1382E+03
      1.026  0.7597E+02  0.1415E+03
      1.069  0.7629E+02  0.1447E+03
      1.111  0.7628E+02  0.1480E+03
      1.154  0.7585E+02  0.1512E+03
      1.197  0.7511E+02  0.1544E+03
      1.239  0.7429E+02  0.1576E+03
      1.282  0.7354E+02  0.1607E+03
      1.325  0.7285E+02  0.1638E+03
      1.367  0.7208E+02  0.1669E+03
      1.410  0.7104E+02  0.1699E+03
      1.453  0.6960E+02  0.1729E+03
      1.495  0.6792E+02  0.1758E+03
      1.538  0.6644E+02  0.1787E+03
      1.581  0.6575E+02  0.1815E+03
      1.623  0.6629E+02  0.1843E+03
      1.666  0.6811E+02  0.1872E+03
      1.709  0.7086E+02  0.1902E+03
      1.751  0.7401E+02  0.1934E+03
      1.794  0.7718E+02  0.1967E+03
      1.837  0.8014E+02  0.2001E+03
      1.879  0.8285E+02  0.2036E+03
      1.922  0.8526E+02  0.2073E+03
      1.965  0.8742E+02  0.2110E+03
      2.007  0.8936E+02  0.2148E+03
      2.050  0.9113E+02  0.2187E+03
      2.093  0.9269E+02  0.2227E+03
      2.136  0.9395E+02  0.2267E+03
      2.178  0.9497E+02  0.2307E+03
      2.221  0.9601E+02  0.2348E+03
      2.264  0.9753E+02  0.2390E+03
      2.306  0.9993E+02  0.2432E+03
      2.349  0.1034E+03  0.2477E+03
      2.392  0.1076E+03  0.2523E+03
      2.434  0.1121E+03  0.2570E+03
      2.477  0.1164E+03  0.2620E+03
      2.520  0.1199E+03  0.2671E+03
      2.562  0.1226E+03  0.2724E+03
      2.605  0.1249E+03  0.2777E+03
      2.648  0.1268E+03  0.2831E+03
      2.690  0.1287E+03  0.2886E+03
      2.733  0.1307E+03  0.2942E+03
      2.776  0.1330E+03  0.2998E+03
      2.818  0.1356E+03  0.3056E+03
      2.861  0.1384E+03  0.3115E+03
      2.904  0.1409E+03  0.3175E+03
      2.946  0.1420E+03  0.3236E+03
      2.989  0.1409E+03  0.3296E+03
      3.032  0.1370E+03  0.3355E+03
      3.074  0.1305E+03  0.3410E+03
      3.117  0.1221E+03  0.3463E+03
      3.160  0.1130E+03  0.3511E+03
      3.202  0.1044E+03  0.3555E+03
      3.245  0.9732E+02  0.3597E+03
      3.288  0.9203E+02  0.3636E+03
      3.331  0.8848E+02  0.3674E+03
      3.373  0.8630E+02  0.3711E+03
      3.416  0.8505E+02  0.3747E+03
      3.459  0.8432E+02  0.3783E+03
      3.501  0.8378E+02  0.3819E+03
      3.544  0.8319E+02  0.3854E+03
      3.587  0.8258E+02  0.3890E+03
      3.629  0.8229E+02  0.3925E+03
      3.672  0.8289E+02  0.3960E+03
      3.715  0.8480E+02  0.3996E+03
      3.757  0.8808E+02  0.4034E+03
      3.800  0.9232E+02  0.4073E+03
      3.843  0.9682E+02  0.4115E+03
      3.885  0.1010E+03  0.4158E+03
      3.928  0.1044E+03  0.4202E+03
      3.971  0.1069E+03  0.4248E+03
      4.013  0.1085E+03  0.4294E+03
      4.056  0.1092E+03  0.4341E+03
      4.099  0.1090E+03  0.4387E+03
      4.141  0.1083E+03  0.4433E+03
      4.184  0.1071E+03  0.4479E+03
      4.227  0.1058E+03  0.4524E+03
      4.269  0.1045E+03  0.4569E+03
      4.312  0.1033E+03  0.4613E+03
      4.355  0.1023E+03  0.4657E+03
      4.398  0.1017E+03  0.4700E+03
      4.440  0.1013E+03  0.4743E+03
      4.483  0.1008E+03  0.4786E+03
      4.526  0.9994E+02  0.4829E+03
      4.568  0.9876E+02  0.4871E+03
      4.611  0.9762E+02  0.4913E+03
      4.654  0.9707E+02  0.4954E+03
      4.696  0.9750E+02  0.4996E+03
      4.739  0.9899E+02  0.5038E+03
      4.782  0.1013E+03  0.5081E+03
      4.824  0.1039E+03  0.5126E+03
      4.867  0.1064E+03  0.5171E+03
      4.910  0.1084E+03  0.5217E+03
      4.952  0.1094E+03  0.5264E+03
      4.995  0.1090E+03  0.5310E+03
      5.038  0.1066E+03  0.5356E+03
      5.080  0.1011E+03  0.5399E+03
      5.123  0.9177E+02  0.5438E+03
      5.166  0.7838E+02  0.5472E+03
      5.208  0.6203E+02  0.5498E+03
      5.251  0.4488E+02  0.5517E+03
      5.294  0.2937E+02  0.5530E+03
      5.336  0.1724E+02  0.5537E+03
      5.379  0.9011E+01  0.5541E+03
      5.422  0.4174E+01  0.5543E+03
      5.465  0.1706E+01  0.5544E+03
      5.507  0.6135E+00  0.5544E+03
      5.550  0.1935E+00  0.5544E+03
      5.593  0.5340E-01  0.5544E+03
      5.635  0.1287E-01  0.5544E+03
      5.678  0.2706E-02  0.5544E+03
      5.721  0.4950E-03  0.5544E+03
      5.763  0.7871E-04  0.5544E+03
      5.806  0.1087E-04  0.5544E+03
      5.849  0.1300E-05  0.5544E+03
      5.891  0.1348E-06  0.5544E+03
      5.934  0.1208E-07  0.5544E+03
      5.977  0.9357E-09  0.5544E+03
      6.019  0.6254E-10  0.5544E+03
      6.062  0.3604E-11  0.5544E+03
      6.105  0.1782E-12  0.5544E+03
      6.147  0.7219E-14  0.5544E+03
      6.190  0.1301E-15  0.5544E+03
      6.233  0.0000E+00  0.5544E+03
      6.275  0.0000E+00  0.5544E+03
      6.318  0.0000E+00  0.5544E+03
      6.361  0.0000E+00  0.5544E+03
      6.403  0.0000E+00  0.5544E+03
      6.446  0.0000E+00  0.5544E+03
      6.489  0.0000E+00  0.5544E+03
      6.531  0.0000E+00  0.5544E+03
      6.574  0.0000E+00  0.5544E+03
      6.617  0.0000E+00  0.5544E+03
      6.660  0.0000E+00  0.5544E+03
      6.702  0.0000E+00  0.5544E+03
      6.745  0.0000E+00  0.5544E+03
      6.788  0.0000E+00  0.5544E+03
