<?xml version="1.0" encoding="ISO-8859-1"?>
<modeling>
 <generator>
  <i name="program" type="string">vasp </i>
  <i name="version" type="string">5.4.4.18Apr17-6-g9f103f2a35  </i>
  <i name="subversion" type="string">(build Sep 27 2018 12:46:37) complex + VL-xray_ parallel </i>
  <i name="platform" type="string">LLNL_Quartz_ifc </i>
  <i name="date" type="string">2021 09 26 </i>
  <i name="time" type="string">17:59:28 </i>
 </generator>
 <incar>
  <i type="int" name="ISTART">     2</i>
  <i type="string" name="PREC">accurate</i>
  <i type="string" name="ALGO"> Fast</i>
  <i type="int" name="ICHARG">     2</i>
  <i type="int" name="INIWAV">     1</i>
  <i type="int" name="NELM">   200</i>
  <i type="int" name="NELMIN">     4</i>
  <i type="int" name="IBRION">     2</i>
  <i name="EDIFF">      0.00000100</i>
  <i type="int" name="NSW">     5</i>
  <i type="int" name="ISIF">     2</i>
  <i type="int" name="ISYM">     2</i>
  <i name="ENCUT">    450.00000000</i>
  <i name="POTIM">      0.25000000</i>
  <i type="string" name="LREAL"> Auto</i>
  <i type="int" name="ISMEAR">     0</i>
  <i name="SIGMA">      0.15000000</i>
  <i type="logical" name="LWAVE"> F  </i>
  <i type="logical" name="LCHARG"> F  </i>
  <i type="int" name="ICORELEVEL">     0</i>
  <i type="int" name="CLNT">     1</i>
  <i type="int" name="CLN">     1</i>
  <i type="int" name="INCAR     ">     0</i>
  <i name="CLZ">      0.00000000</i>
  <v type="int" name="KPOINT_BSE">    -1     0     0     0</v>
  <i type="int" name="NELM">   200</i>
 </incar>
 <structure name="primitive_cell" >
  <crystal>
   <varray name="basis" >
    <v>       9.72667804       0.00000000       0.00000000 </v>
    <v>       0.00000000       8.42355028       0.00000000 </v>
    <v>       0.00000000       0.00000000      45.00000000 </v>
   </varray>
   <i name="volume">   3686.99226691 </i>
   <varray name="rec_basis" >
    <v>       0.10281002       0.00000000       0.00000000 </v>
    <v>       0.00000000       0.11871479       0.00000000 </v>
    <v>       0.00000000       0.00000000       0.02222222 </v>
   </varray>
  </crystal>
  <varray name="positions" >
   <v>       0.05410821      -0.29887367       0.21121432 </v>
   <v>      -0.05955552      -0.21257435       0.25512383 </v>
   <v>       0.06533536      -0.46221131       0.25510196 </v>
   <v>      -0.05870728      -0.38788989       0.16647499 </v>
   <v>       0.30383840      -0.29911921       0.21125198 </v>
   <v>       0.06738411      -0.13740176       0.16658068 </v>
   <v>      -0.07115661       0.45143526       0.21131698 </v>
   <v>       0.17861010      -0.04842727       0.21134747 </v>
   <v>       0.17927467       0.45093336       0.21126725 </v>
   <v>      -0.07079269      -0.04843778       0.21123046 </v>
   <v>      -0.19638404      -0.29911529       0.21133516 </v>
   <v>       0.19071675      -0.21246841       0.25526050 </v>
   <v>       0.19238737      -0.38779820       0.16650636 </v>
   <v>      -0.18258081      -0.13803820       0.16656968 </v>
   <v>      -0.18389835      -0.46174938       0.25540321 </v>
   <v>       0.06546101       0.03752594       0.25514582 </v>
   <v>       0.06684419       0.36235573       0.16655335 </v>
   <v>       0.31541466      -0.46215590       0.25520849 </v>
   <v>       0.31826420      -0.13756739       0.16579040 </v>
   <v>      -0.30885654      -0.21272253       0.25539916 </v>
   <v>      -0.30797137      -0.38790484       0.16654096 </v>
   <v>      -0.06431397      -0.21746587       0.12421304 </v>
   <v>      -0.05834840       0.11215211       0.16651515 </v>
   <v>      -0.05930234       0.28749499       0.25522218 </v>
   <v>      -0.18458210       0.03754825       0.25505961 </v>
   <v>       0.18663751      -0.21750536       0.12422364 </v>
   <v>      -0.18336833       0.36242538       0.16666492 </v>
   <v>       0.05729547      -0.47348812       0.12404039 </v>
   <v>       0.17843812      -0.37642301       0.29940299 </v>
   <v>       0.42850618       0.45138608       0.21134332 </v>
   <v>       0.05438506       0.20073030       0.21120575 </v>
   <v>      -0.32099990       0.45134979       0.21128817 </v>
   <v>       0.42915628      -0.04852499       0.21138386 </v>
   <v>      -0.07206663      -0.37648717       0.29962518 </v>
   <v>      -0.32116700      -0.04856766       0.21126411 </v>
   <v>       0.19141599       0.11154721       0.16648512 </v>
   <v>       0.19053595       0.28714123       0.25524390 </v>
   <v>       0.05300468      -0.12624026       0.29956773 </v>
   <v>       0.31555945       0.03749073       0.25518311 </v>
   <v>       0.44036907      -0.21257807       0.25519039 </v>
   <v>       0.31693733       0.36209964       0.16660020 </v>
   <v>       0.44133252      -0.38796620       0.16651880 </v>
   <v>       0.05799788       0.02775565       0.12402451 </v>
   <v>      -0.19220090      -0.47249071       0.12388149 </v>
   <v>       0.05288048       0.37374849       0.29953894 </v>
   <v>      -0.19555694       0.20110724       0.21121980 </v>
   <v>      -0.44599921      -0.29901675       0.21114722 </v>
   <v>       0.30476716       0.20063507       0.21114161 </v>
   <v>       0.30720614      -0.47296669       0.12388192 </v>
   <v>       0.30274840      -0.12616173       0.29961711 </v>
   <v>      -0.19689809      -0.12647076       0.29946740 </v>
   <v>      -0.43334344      -0.13744860       0.16647183 </v>
   <v>      -0.43452219      -0.46228522       0.25515375 </v>
   <v>      -0.30833337       0.11238970       0.16665721 </v>
   <v>      -0.31259213      -0.21783229       0.12425018 </v>
   <v>      -0.30905394       0.28748990       0.25528182 </v>
   <v>      -0.19082611       0.02808225       0.12400857 </v>
   <v>       0.30945534       0.02647614       0.12399810 </v>
   <v>      -0.06451780       0.28229708       0.12418853 </v>
   <v>       0.30298080       0.37379206       0.29955979 </v>
   <v>       0.18561665       0.28308044       0.12425352 </v>
   <v>      -0.19699861       0.37342267       0.29950501 </v>
   <v>       0.42838424      -0.37664287       0.29942946 </v>
   <v>      -0.32222225      -0.37634735       0.29957844 </v>
   <v>       0.43610046      -0.21673303       0.12401018 </v>
   <v>       0.17799493       0.12372805       0.29955641 </v>
   <v>      -0.07196504       0.12349538       0.29960491 </v>
   <v>       0.44080984       0.28722795       0.25510577 </v>
   <v>       0.44167891       0.11143132       0.16648970 </v>
   <v>      -0.43489981       0.03754080       0.25511647 </v>
   <v>      -0.43295824       0.36201422       0.16654453 </v>
   <v>       0.06500315      -0.29161922       0.34389648 </v>
   <v>      -0.31397232       0.28260536       0.12417987 </v>
   <v>      -0.44138067      -0.47298951       0.12400703 </v>
   <v>      -0.18524450      -0.29134560       0.34389904 </v>
   <v>      -0.06014777       0.45958532       0.34408067 </v>
   <v>      -0.44555891       0.20078075       0.21115796 </v>
   <v>      -0.44705956      -0.12621462       0.29962255 </v>
   <v>       0.43662047       0.28311522       0.12423445 </v>
   <v>       0.18999283       0.45897795       0.34402221 </v>
   <v>       0.42812386       0.12375718       0.29943954 </v>
   <v>      -0.05981752      -0.04084648       0.34405474 </v>
   <v>      -0.32197394       0.12371655       0.29945791 </v>
   <v>       0.31481287      -0.29113066       0.34393003 </v>
   <v>       0.18980665      -0.04110050       0.34394557 </v>
   <v>      -0.44037346       0.02785414       0.12390257 </v>
   <v>      -0.44705731       0.37378286       0.29957231 </v>
   <v>      -0.31030239       0.45883337       0.34395798 </v>
   <v>       0.06459094       0.20854066       0.34375296 </v>
   <v>      -0.31029255      -0.04101357       0.34396252 </v>
   <v>       0.43995283       0.45888424       0.34405700 </v>
   <v>       0.43995199      -0.04116606       0.34401803 </v>
   <v>      -0.18562558       0.20801361       0.34387978 </v>
   <v>      -0.43489174      -0.29105200       0.34400678 </v>
   <v>       0.31460172       0.20884831       0.34389204 </v>
   <v>       0.06153466      -0.45830529       0.38838689 </v>
   <v>      -0.06341427      -0.20867555       0.38845429 </v>
   <v>       0.18613136      -0.20874242       0.38829490 </v>
   <v>      -0.18880330      -0.45807838       0.38831851 </v>
   <v>       0.31126742      -0.45877473       0.38842509 </v>
   <v>       0.06136007       0.04147600       0.38844200 </v>
   <v>      -0.43518203       0.20894817       0.34397463 </v>
   <v>      -0.06351787       0.29145336       0.38853254 </v>
   <v>      -0.31340384      -0.20850852       0.38840668 </v>
   <v>       0.18606766       0.29119772       0.38835758 </v>
   <v>      -0.18887330       0.04194094       0.38826987 </v>
   <v>       0.43612503      -0.20886096       0.38839741 </v>
   <v>       0.31143545       0.04144299       0.38842711 </v>
   <v>      -0.31354888       0.29119081       0.38840979 </v>
   <v>      -0.43856218      -0.45846384       0.38847457 </v>
   <v>       0.43619876       0.29108721       0.38837666 </v>
   <v>      -0.43871081       0.04168656       0.38844877 </v>
   <v>      -0.06695571      -0.37519766       0.43315390 </v>
   <v>       0.05846251      -0.12503049       0.43290782 </v>
   <v>       0.18346594      -0.37515762       0.43311589 </v>
   <v>       0.05857693       0.37497960       0.43291423 </v>
   <v>      -0.19130693      -0.12462436       0.43304424 </v>
   <v>       0.30876306      -0.12497736       0.43297400 </v>
   <v>      -0.19122518       0.37533604       0.43305855 </v>
   <v>      -0.31630393      -0.37523400       0.43299612 </v>
   <v>       0.30885225       0.37515857       0.43289328 </v>
   <v>       0.43369041      -0.37477598       0.43301492 </v>
   <v>      -0.06661244       0.12463828       0.43302968 </v>
   <v>       0.18342415       0.12498889       0.43310298 </v>
   <v>      -0.44123113      -0.12479486       0.43301220 </v>
   <v>      -0.31612916       0.12484305       0.43289792 </v>
   <v>       0.43384255       0.12486417       0.43294312 </v>
   <v>      -0.44138134       0.37501670       0.43306334 </v>
   <v>       0.06791394      -0.28939369       0.47739449 </v>
   <v>      -0.05745159       0.46049950       0.47720927 </v>
   <v>      -0.18226984      -0.28942582       0.47742911 </v>
   <v>      -0.05732022      -0.03951525       0.47727593 </v>
   <v>       0.19279743       0.46077123       0.47744747 </v>
   <v>       0.31756147      -0.28956594       0.47725987 </v>
   <v>       0.19273690      -0.03924255       0.47746872 </v>
   <v>      -0.30730135       0.46077105       0.47731482 </v>
   <v>      -0.30743459      -0.03929113       0.47737649 </v>
   <v>       0.06797694       0.21068380       0.47743615 </v>
   <v>       0.44285582       0.46086635       0.47746334 </v>
   <v>       0.44272276      -0.03939876       0.47741896 </v>
   <v>      -0.18215066       0.21066138       0.47747997 </v>
   <v>      -0.43230174      -0.28946332       0.47745355 </v>
   <v>       0.31768535       0.21061961       0.47730320 </v>
   <v>      -0.43221934       0.21070724       0.47746250 </v>
   <v>       0.05735605      -0.46092684      -0.47750993 </v>
   <v>      -0.06807703      -0.21126501      -0.47756863 </v>
   <v>       0.18226490      -0.21064111      -0.47745894 </v>
   <v>      -0.19270231      -0.46080780      -0.47746765 </v>
   <v>       0.30701538      -0.46108766      -0.47757449 </v>
   <v>       0.05740190       0.03919364      -0.47756390 </v>
   <v>      -0.06764171       0.28876129      -0.47756253 </v>
   <v>       0.18269895       0.28935099      -0.47759255 </v>
   <v>      -0.31771662      -0.21093650      -0.47749667 </v>
   <v>       0.30722310       0.03849409      -0.47774283 </v>
   <v>      -0.19268918       0.03913187      -0.47748741 </v>
   <v>       0.43221104      -0.21063717      -0.47756604 </v>
   <v>      -0.31791856       0.28872805      -0.47769530 </v>
   <v>      -0.44268682      -0.46079228      -0.47752401 </v>
   <v>       0.43253277       0.28858654      -0.47769580 </v>
   <v>       0.06762105      -0.27658430      -0.12379654 </v>
   <v>      -0.44247182       0.03889863      -0.47761275 </v>
   <v>      -0.18298926      -0.27608641      -0.12365245 </v>
   <v>      -0.06034441       0.46833888      -0.12387137 </v>
   <v>       0.18954291       0.46794806      -0.12390905 </v>
   <v>      -0.06027792      -0.03163965      -0.12387503 </v>
   <v>       0.31842983      -0.27633389      -0.12373285 </v>
   <v>       0.18974085      -0.03201764      -0.12387497 </v>
   <v>       0.06816917       0.22333673      -0.12384253 </v>
   <v>      -0.31013326       0.46779383      -0.12392012 </v>
   <v>      -0.31029992      -0.03170892      -0.12390352 </v>
   <v>       0.43952409       0.46751589      -0.12407832 </v>
   <v>       0.43959072      -0.03212548      -0.12391147 </v>
   <v>      -0.18243160       0.22394663      -0.12377977 </v>
   <v>      -0.43252193      -0.27528057      -0.12377478 </v>
   <v>       0.31752068       0.22357576      -0.12385644 </v>
   <v>      -0.05838133      -0.37499950      -0.43319533 </v>
   <v>       0.19163425      -0.37516946      -0.43313569 </v>
   <v>       0.06667785      -0.12487770      -0.43308656 </v>
   <v>       0.06666452       0.37517045      -0.43318065 </v>
   <v>      -0.18334800      -0.12490806      -0.43310193 </v>
   <v>       0.31644927      -0.12503688      -0.43315213 </v>
   <v>      -0.43175809       0.22385971      -0.12386058 </v>
   <v>      -0.30847651      -0.37504628      -0.43311493 </v>
   <v>      -0.18332843       0.37511563      -0.43309515 </v>
   <v>      -0.05844852       0.12515067      -0.43319546 </v>
   <v>       0.31668032       0.37509311      -0.43312283 </v>
   <v>       0.19168632       0.12480212      -0.43315931 </v>
   <v>       0.44158141      -0.37492817      -0.43314832 </v>
   <v>      -0.43342344      -0.12499901      -0.43322984 </v>
   <v>      -0.30846719       0.12486067      -0.43309991 </v>
   <v>       0.44166902       0.12496538      -0.43308472 </v>
   <v>      -0.43344977       0.37498874      -0.43314331 </v>
   <v>      -0.06629152      -0.36235259      -0.16606060 </v>
   <v>       0.18331521      -0.36242824      -0.16640460 </v>
   <v>       0.05855627      -0.11226249      -0.16650738 </v>
   <v>       0.05849514       0.38857777      -0.16648036 </v>
   <v>      -0.19141352      -0.11231912      -0.16644786 </v>
   <v>       0.30851734      -0.11242298      -0.16648475 </v>
   <v>      -0.19156890       0.38754711      -0.16647041 </v>
   <v>       0.30841463       0.38754182      -0.16645262 </v>
   <v>      -0.31622261      -0.36216268      -0.16649225 </v>
   <v>       0.43359770      -0.36221176      -0.16647786 </v>
   <v>      -0.06622046       0.13790070      -0.16641305 </v>
   <v>       0.18370994       0.13782088      -0.16640360 </v>
   <v>      -0.44145835      -0.11240020      -0.16651422 </v>
   <v>      -0.31651051       0.13776600      -0.16648515 </v>
   <v>       0.43354158       0.13762441      -0.16648679 </v>
   <v>      -0.44163597       0.38761804      -0.16652216 </v>
   <v>       0.06310314      -0.29171379      -0.38837011 </v>
   <v>      -0.18613119      -0.29179222      -0.38839456 </v>
   <v>      -0.06159772       0.45699786      -0.38831179 </v>
   <v>       0.18791155       0.45834234      -0.38854062 </v>
   <v>      -0.06191497      -0.04181612      -0.38850303 </v>
   <v>       0.18819410      -0.04182743      -0.38868957 </v>
   <v>       0.31345099      -0.29131623      -0.38842269 </v>
   <v>      -0.31168199       0.45837331      -0.38845723 </v>
   <v>       0.06332426       0.20882264      -0.38847106 </v>
   <v>      -0.31170161      -0.04128701      -0.38845909 </v>
   <v>       0.43842916       0.45856073      -0.38845167 </v>
   <v>       0.43840921      -0.04131668      -0.38844924 </v>
   <v>      -0.18636586       0.20851205      -0.38842227 </v>
   <v>      -0.43634668      -0.29128674      -0.38842646 </v>
   <v>       0.31303864       0.20793106      -0.38857404 </v>
   <v>       0.07063302      -0.45075015      -0.21117420 </v>
   <v>      -0.05537474      -0.20025505      -0.21110916 </v>
   <v>       0.19448374      -0.20059408      -0.21116205 </v>
   <v>      -0.43711704       0.20792818      -0.38868924 </v>
   <v>      -0.18007631      -0.45048587      -0.21106802 </v>
   <v>       0.31968024      -0.45019924      -0.21105504 </v>
   <v>       0.06939287       0.04949745      -0.21095935 </v>
   <v>      -0.05518591       0.29873869      -0.21122043 </v>
   <v>      -0.30490902      -0.20066317      -0.21110917 </v>
   <v>      -0.18076421       0.04963657      -0.21092397 </v>
   <v>       0.19490259       0.29901630      -0.21121159 </v>
   <v>       0.44457218      -0.20081680      -0.21110986 </v>
   <v>       0.31996352       0.04954830      -0.21112337 </v>
   <v>      -0.43015499      -0.45035686      -0.21092531 </v>
   <v>      -0.30478434       0.29895673      -0.21122771 </v>
   <v>       0.44460366       0.29892428      -0.21116035 </v>
   <v>      -0.43075773       0.04970572      -0.21097340 </v>
   <v>       0.05983405      -0.45945224      -0.34410684 </v>
   <v>      -0.06523880      -0.20937352      -0.34412135 </v>
   <v>       0.18507532      -0.20940653      -0.34409377 </v>
   <v>      -0.19039176      -0.45924345      -0.34413797 </v>
   <v>       0.30965546      -0.45939127      -0.34410904 </v>
   <v>       0.06016535       0.04054983      -0.34390330 </v>
   <v>      -0.06526808       0.29071046      -0.34417777 </v>
   <v>      -0.31536828      -0.20967755      -0.34407493 </v>
   <v>       0.18472444       0.29060325      -0.34407362 </v>
   <v>      -0.19042536       0.04032517      -0.34408675 </v>
   <v>       0.43478412      -0.20927849      -0.34401573 </v>
   <v>       0.30983450       0.04064045      -0.34402524 </v>
   <v>      -0.44049189      -0.45947978      -0.34416976 </v>
   <v>      -0.31494614       0.29076478      -0.34392412 </v>
   <v>       0.43513535       0.29091363      -0.34390820 </v>
   <v>      -0.44032478       0.04061286      -0.34416175 </v>
   <v>       0.05911575      -0.28756596      -0.25500811 </v>
   <v>      -0.06575744       0.46271696      -0.25504903 </v>
   <v>       0.18440899       0.46251849      -0.25508404 </v>
   <v>      -0.18996806      -0.28769896      -0.25519976 </v>
   <v>       0.30975350      -0.28805748      -0.25524941 </v>
   <v>       0.18425247      -0.03731480      -0.25517502 </v>
   <v>      -0.06639868      -0.03739636      -0.25545434 </v>
   <v>      -0.31619993       0.46278719      -0.25496410 </v>
   <v>       0.05990583       0.21280876      -0.25509692 </v>
   <v>       0.43458812       0.46275544      -0.25511036 </v>
   <v>      -0.31535553      -0.03732289      -0.25515537 </v>
   <v>       0.43427839      -0.03742037      -0.25508879 </v>
   <v>      -0.18953418       0.21153104      -0.25535637 </v>
   <v>       0.30965034       0.21223482      -0.25508977 </v>
   <v>      -0.44016469      -0.28805732      -0.25514946 </v>
   <v>      -0.44003812       0.21234641      -0.25511882 </v>
   <v>      -0.05321972      -0.37363408      -0.29947783 </v>
   <v>       0.07231407      -0.12346199      -0.29959848 </v>
   <v>       0.19717735      -0.37397475      -0.29959904 </v>
   <v>      -0.17806254      -0.12414959      -0.29942870 </v>
   <v>       0.07187711       0.37660627      -0.29939360 </v>
   <v>       0.32191587      -0.12359215      -0.29945141 </v>
   <v>      -0.17789998       0.37643265      -0.29963676 </v>
   <v>      -0.30340914      -0.37390004      -0.29944471 </v>
   <v>      -0.05279493       0.12570833      -0.29950736 </v>
   <v>       0.32229488       0.37634084      -0.29956623 </v>
   <v>       0.19668547       0.12586417      -0.29961005 </v>
   <v>       0.44694715      -0.37366131      -0.29958659 </v>
   <v>      -0.42832396      -0.12368953      -0.29942743 </v>
   <v>      -0.30273708       0.12629986      -0.29958884 </v>
   <v>       0.44718049       0.12619433      -0.29963795 </v>
   <v>      -0.42768274       0.37595558      -0.29954266 </v>
  </varray>
 </structure>
 <varray name="primitive_index" >
  <v type="int" >        1 </v>
  <v type="int" >      238 </v>
  <v type="int" >      220 </v>
  <v type="int" >      193 </v>
  <v type="int" >      192 </v>
  <v type="int" >      208 </v>
  <v type="int" >      242 </v>
  <v type="int" >      109 </v>
  <v type="int" >       10 </v>
  <v type="int" >       71 </v>
  <v type="int" >       81 </v>
  <v type="int" >       89 </v>
  <v type="int" >       35 </v>
  <v type="int" >       32 </v>
  <v type="int" >      288 </v>
  <v type="int" >      263 </v>
  <v type="int" >       55 </v>
  <v type="int" >      243 </v>
  <v type="int" >      283 </v>
  <v type="int" >      128 </v>
  <v type="int" >      117 </v>
  <v type="int" >      155 </v>
  <v type="int" >      158 </v>
  <v type="int" >      252 </v>
  <v type="int" >      222 </v>
  <v type="int" >      262 </v>
  <v type="int" >      183 </v>
  <v type="int" >      265 </v>
  <v type="int" >      162 </v>
  <v type="int" >       28 </v>
  <v type="int" >      160 </v>
  <v type="int" >      205 </v>
  <v type="int" >       15 </v>
  <v type="int" >       38 </v>
  <v type="int" >      161 </v>
  <v type="int" >      126 </v>
  <v type="int" >       45 </v>
  <v type="int" >      147 </v>
  <v type="int" >      278 </v>
  <v type="int" >      226 </v>
  <v type="int" >      245 </v>
  <v type="int" >      227 </v>
  <v type="int" >       48 </v>
  <v type="int" >       14 </v>
  <v type="int" >       26 </v>
  <v type="int" >       70 </v>
  <v type="int" >      251 </v>
  <v type="int" >       61 </v>
  <v type="int" >      197 </v>
  <v type="int" >      108 </v>
  <v type="int" >      277 </v>
  <v type="int" >      191 </v>
  <v type="int" >       33 </v>
  <v type="int" >       90 </v>
  <v type="int" >       25 </v>
  <v type="int" >      203 </v>
  <v type="int" >       99 </v>
  <v type="int" >       23 </v>
  <v type="int" >      133 </v>
  <v type="int" >       52 </v>
  <v type="int" >      189 </v>
  <v type="int" >      104 </v>
  <v type="int" >      100 </v>
  <v type="int" >      144 </v>
  <v type="int" >       83 </v>
  <v type="int" >      142 </v>
  <v type="int" >      145 </v>
  <v type="int" >        5 </v>
  <v type="int" >      143 </v>
  <v type="int" >      261 </v>
  <v type="int" >      122 </v>
  <v type="int" >      112 </v>
  <v type="int" >      267 </v>
  <v type="int" >       43 </v>
  <v type="int" >      118 </v>
  <v type="int" >      190 </v>
  <v type="int" >       63 </v>
  <v type="int" >      255 </v>
  <v type="int" >      279 </v>
  <v type="int" >      120 </v>
  <v type="int" >      169 </v>
  <v type="int" >       92 </v>
  <v type="int" >      170 </v>
  <v type="int" >      257 </v>
  <v type="int" >      254 </v>
  <v type="int" >      214 </v>
  <v type="int" >      124 </v>
  <v type="int" >       34 </v>
  <v type="int" >      153 </v>
  <v type="int" >       24 </v>
  <v type="int" >       95 </v>
  <v type="int" >      236 </v>
  <v type="int" >      172 </v>
  <v type="int" >      123 </v>
  <v type="int" >      258 </v>
  <v type="int" >      247 </v>
  <v type="int" >      198 </v>
  <v type="int" >      229 </v>
  <v type="int" >       86 </v>
  <v type="int" >       57 </v>
  <v type="int" >      246 </v>
  <v type="int" >       50 </v>
  <v type="int" >      273 </v>
  <v type="int" >      156 </v>
  <v type="int" >      105 </v>
  <v type="int" >       17 </v>
  <v type="int" >       79 </v>
  <v type="int" >      134 </v>
  <v type="int" >      232 </v>
  <v type="int" >      171 </v>
  <v type="int" >      248 </v>
  <v type="int" >      244 </v>
  <v type="int" >      282 </v>
  <v type="int" >      211 </v>
  <v type="int" >      168 </v>
  <v type="int" >      256 </v>
  <v type="int" >       46 </v>
  <v type="int" >      240 </v>
  <v type="int" >       29 </v>
  <v type="int" >       94 </v>
  <v type="int" >      215 </v>
  <v type="int" >      281 </v>
  <v type="int" >      285 </v>
  <v type="int" >      223 </v>
  <v type="int" >      239 </v>
  <v type="int" >      115 </v>
  <v type="int" >      184 </v>
  <v type="int" >      136 </v>
  <v type="int" >       62 </v>
  <v type="int" >      166 </v>
  <v type="int" >      268 </v>
  <v type="int" >      179 </v>
  <v type="int" >      132 </v>
  <v type="int" >      217 </v>
  <v type="int" >      176 </v>
  <v type="int" >      249 </v>
  <v type="int" >       91 </v>
  <v type="int" >      185 </v>
  <v type="int" >       19 </v>
  <v type="int" >      130 </v>
  <v type="int" >      206 </v>
  <v type="int" >      207 </v>
  <v type="int" >      175 </v>
  <v type="int" >       11 </v>
  <v type="int" >      178 </v>
  <v type="int" >      116 </v>
  <v type="int" >      107 </v>
  <v type="int" >      241 </v>
  <v type="int" >      230 </v>
  <v type="int" >      218 </v>
  <v type="int" >      209 </v>
  <v type="int" >      225 </v>
  <v type="int" >       18 </v>
  <v type="int" >      266 </v>
  <v type="int" >       93 </v>
  <v type="int" >      187 </v>
  <v type="int" >       87 </v>
  <v type="int" >      141 </v>
  <v type="int" >      111 </v>
  <v type="int" >       58 </v>
  <v type="int" >      181 </v>
  <v type="int" >      101 </v>
  <v type="int" >      151 </v>
  <v type="int" >      125 </v>
  <v type="int" >      274 </v>
  <v type="int" >        2 </v>
  <v type="int" >      154 </v>
  <v type="int" >      212 </v>
  <v type="int" >       27 </v>
  <v type="int" >      234 </v>
  <v type="int" >      173 </v>
  <v type="int" >       97 </v>
  <v type="int" >       41 </v>
  <v type="int" >      131 </v>
  <v type="int" >       39 </v>
  <v type="int" >       72 </v>
  <v type="int" >      148 </v>
  <v type="int" >       12 </v>
  <v type="int" >      250 </v>
  <v type="int" >      276 </v>
  <v type="int" >       40 </v>
  <v type="int" >       13 </v>
  <v type="int" >      264 </v>
  <v type="int" >      146 </v>
  <v type="int" >      259 </v>
  <v type="int" >      216 </v>
  <v type="int" >      233 </v>
  <v type="int" >       21 </v>
  <v type="int" >       98 </v>
  <v type="int" >      235 </v>
  <v type="int" >       68 </v>
  <v type="int" >       16 </v>
  <v type="int" >       59 </v>
  <v type="int" >       66 </v>
  <v type="int" >      177 </v>
  <v type="int" >        6 </v>
  <v type="int" >       75 </v>
  <v type="int" >        7 </v>
  <v type="int" >       73 </v>
  <v type="int" >      150 </v>
  <v type="int" >      271 </v>
  <v type="int" >      152 </v>
  <v type="int" >      129 </v>
  <v type="int" >      188 </v>
  <v type="int" >      174 </v>
  <v type="int" >      221 </v>
  <v type="int" >      269 </v>
  <v type="int" >      103 </v>
  <v type="int" >      180 </v>
  <v type="int" >       82 </v>
  <v type="int" >      286 </v>
  <v type="int" >      194 </v>
  <v type="int" >      201 </v>
  <v type="int" >       51 </v>
  <v type="int" >      280 </v>
  <v type="int" >      102 </v>
  <v type="int" >      228 </v>
  <v type="int" >        3 </v>
  <v type="int" >        4 </v>
  <v type="int" >      260 </v>
  <v type="int" >      167 </v>
  <v type="int" >       30 </v>
  <v type="int" >       77 </v>
  <v type="int" >      284 </v>
  <v type="int" >      149 </v>
  <v type="int" >       36 </v>
  <v type="int" >      275 </v>
  <v type="int" >      106 </v>
  <v type="int" >       60 </v>
  <v type="int" >       67 </v>
  <v type="int" >      199 </v>
  <v type="int" >       88 </v>
  <v type="int" >      253 </v>
  <v type="int" >       54 </v>
  <v type="int" >      114 </v>
  <v type="int" >       85 </v>
  <v type="int" >      121 </v>
  <v type="int" >      182 </v>
  <v type="int" >      127 </v>
  <v type="int" >       44 </v>
  <v type="int" >      196 </v>
  <v type="int" >      157 </v>
  <v type="int" >      113 </v>
  <v type="int" >       42 </v>
  <v type="int" >       49 </v>
  <v type="int" >      135 </v>
  <v type="int" >       69 </v>
  <v type="int" >      210 </v>
  <v type="int" >      200 </v>
  <v type="int" >      213 </v>
  <v type="int" >       53 </v>
  <v type="int" >      186 </v>
  <v type="int" >       31 </v>
  <v type="int" >       76 </v>
  <v type="int" >      159 </v>
  <v type="int" >      140 </v>
  <v type="int" >      204 </v>
  <v type="int" >      119 </v>
  <v type="int" >      110 </v>
  <v type="int" >      202 </v>
  <v type="int" >       84 </v>
  <v type="int" >      237 </v>
  <v type="int" >      287 </v>
  <v type="int" >      137 </v>
  <v type="int" >        9 </v>
  <v type="int" >       78 </v>
  <v type="int" >       80 </v>
  <v type="int" >       20 </v>
  <v type="int" >       96 </v>
  <v type="int" >       64 </v>
  <v type="int" >      272 </v>
  <v type="int" >      138 </v>
  <v type="int" >      164 </v>
  <v type="int" >      195 </v>
  <v type="int" >       74 </v>
  <v type="int" >      163 </v>
  <v type="int" >       65 </v>
  <v type="int" >      219 </v>
  <v type="int" >      231 </v>
  <v type="int" >       56 </v>
  <v type="int" >      139 </v>
  <v type="int" >      270 </v>
  <v type="int" >      165 </v>
  <v type="int" >        8 </v>
  <v type="int" >       22 </v>
  <v type="int" >      224 </v>
  <v type="int" >       37 </v>
  <v type="int" >       47 </v>
 </varray>
 <kpoints>
  <generation param="Gamma">
   <v type="int" name="divisions">       4        4        1 </v>
   <v name="usershift">      0.00000000       0.00000000       0.00000000 </v>
   <v name="genvec1">      0.25000000       0.00000000       0.00000000 </v>
   <v name="genvec2">      0.00000000       0.25000000       0.00000000 </v>
   <v name="genvec3">      0.00000000       0.00000000       1.00000000 </v>
   <v name="shift">      0.00000000       0.00000000       0.00000000 </v>
  </generation>
  <varray name="kpointlist" >
   <v>       0.00000000       0.00000000       0.00000000 </v>
   <v>       0.25000000       0.00000000       0.00000000 </v>
   <v>       0.50000000       0.00000000       0.00000000 </v>
   <v>       0.00000000       0.25000000       0.00000000 </v>
   <v>       0.25000000       0.25000000       0.00000000 </v>
   <v>       0.50000000       0.25000000       0.00000000 </v>
   <v>      -0.25000000       0.25000000       0.00000000 </v>
   <v>       0.00000000       0.50000000       0.00000000 </v>
   <v>       0.25000000       0.50000000       0.00000000 </v>
   <v>       0.50000000       0.50000000       0.00000000 </v>
  </varray>
  <varray name="weights" >
   <v>       0.06250000 </v>
   <v>       0.12500000 </v>
   <v>       0.06250000 </v>
   <v>       0.12500000 </v>
   <v>       0.12500000 </v>
   <v>       0.12500000 </v>
   <v>       0.12500000 </v>
   <v>       0.06250000 </v>
   <v>       0.12500000 </v>
   <v>       0.06250000 </v>
  </varray>
 </kpoints>
 <parameters>
  <separator name="general" >
   <i type="string" name="SYSTEM">unknown system</i>
   <i type="logical" name="LCOMPAT"> F  </i>
  </separator>
  <separator name="electronic" >
   <i type="string" name="PREC">accura</i>
   <i name="ENMAX">    450.00000000</i>
   <i name="ENAUG">    838.43500000</i>
   <i name="EDIFF">      0.00000100</i>
   <i type="int" name="IALGO">    68</i>
   <i type="int" name="IWAVPR">    11</i>
   <i type="int" name="NBANDS">  1386</i>
   <i name="NELECT">   2297.00000000</i>
   <i type="int" name="TURBO">     0</i>
   <i type="int" name="IRESTART">     0</i>
   <i type="int" name="NREBOOT">     0</i>
   <i type="int" name="NMIN">     0</i>
   <i name="EREF">      0.00000000</i>
   <separator name="electronic smearing" >
    <i type="int" name="ISMEAR">     0</i>
    <i name="SIGMA">      0.15000000</i>
    <i name="KSPACING">      0.50000000</i>
    <i type="logical" name="KGAMMA"> T  </i>
   </separator>
   <separator name="electronic projectors" >
    <i type="logical" name="LREAL"> T  </i>
    <v name="ROPT">     -0.00025000     -0.00025000</v>
    <i type="int" name="LMAXPAW">  -100</i>
    <i type="int" name="LMAXMIX">     2</i>
    <i type="logical" name="NLSPLINE"> F  </i>
   </separator>
   <separator name="electronic startup" >
    <i type="int" name="ISTART">     0</i>
    <i type="int" name="ICHARG">     2</i>
    <i type="int" name="INIWAV">     1</i>
   </separator>
   <separator name="electronic spin" >
    <i type="int" name="ISPIN">     1</i>
    <i type="logical" name="LNONCOLLINEAR"> F  </i>
    <v name="MAGMOM">      1.00000000      1.00000000      1.00000000      1.00000000      1.00000000      1.00000000      1.00000000      1.00000000      1.00000000      1.00000000      1.00000000      1.00000000      1.00000000      1.00000000      1.00000000      1.00000000      1.00000000      1.00000000      1.00000000      1.00000000
      1.00000000      1.00000000      1.00000000      1.00000000      1.00000000      1.00000000      1.00000000      1.00000000      1.00000000      1.00000000      1.00000000      1.00000000      1.00000000      1.00000000      1.00000000      1.00000000      1.00000000      1.00000000      1.00000000      1.00000000
      1.00000000      1.00000000      1.00000000      1.00000000      1.00000000      1.00000000      1.00000000      1.00000000      1.00000000      1.00000000      1.00000000      1.00000000      1.00000000      1.00000000      1.00000000      1.00000000      1.00000000      1.00000000      1.00000000      1.00000000
      1.00000000      1.00000000      1.00000000      1.00000000      1.00000000      1.00000000      1.00000000      1.00000000      1.00000000      1.00000000      1.00000000      1.00000000      1.00000000      1.00000000      1.00000000      1.00000000      1.00000000      1.00000000      1.00000000      1.00000000
      1.00000000      1.00000000      1.00000000      1.00000000      1.00000000      1.00000000      1.00000000      1.00000000      1.00000000      1.00000000      1.00000000      1.00000000      1.00000000      1.00000000      1.00000000      1.00000000      1.00000000      1.00000000      1.00000000      1.00000000
      1.00000000      1.00000000      1.00000000      1.00000000      1.00000000      1.00000000      1.00000000      1.00000000      1.00000000      1.00000000      1.00000000      1.00000000      1.00000000      1.00000000      1.00000000      1.00000000      1.00000000      1.00000000      1.00000000      1.00000000
      1.00000000      1.00000000      1.00000000      1.00000000      1.00000000      1.00000000      1.00000000      1.00000000      1.00000000      1.00000000      1.00000000      1.00000000      1.00000000      1.00000000      1.00000000      1.00000000      1.00000000      1.00000000      1.00000000      1.00000000
      1.00000000      1.00000000      1.00000000      1.00000000      1.00000000      1.00000000      1.00000000      1.00000000      1.00000000      1.00000000      1.00000000      1.00000000      1.00000000      1.00000000      1.00000000      1.00000000      1.00000000      1.00000000      1.00000000      1.00000000
      1.00000000      1.00000000      1.00000000      1.00000000      1.00000000      1.00000000      1.00000000      1.00000000      1.00000000      1.00000000      1.00000000      1.00000000      1.00000000      1.00000000      1.00000000      1.00000000      1.00000000      1.00000000      1.00000000      1.00000000
      1.00000000      1.00000000      1.00000000      1.00000000      1.00000000      1.00000000      1.00000000      1.00000000      1.00000000      1.00000000      1.00000000      1.00000000      1.00000000      1.00000000      1.00000000      1.00000000      1.00000000      1.00000000      1.00000000      1.00000000
      1.00000000      1.00000000      1.00000000      1.00000000      1.00000000      1.00000000      1.00000000      1.00000000      1.00000000      1.00000000      1.00000000      1.00000000      1.00000000      1.00000000      1.00000000      1.00000000      1.00000000      1.00000000      1.00000000      1.00000000
      1.00000000      1.00000000      1.00000000      1.00000000      1.00000000      1.00000000      1.00000000      1.00000000      1.00000000      1.00000000      1.00000000      1.00000000      1.00000000      1.00000000      1.00000000      1.00000000      1.00000000      1.00000000      1.00000000      1.00000000
      1.00000000      1.00000000      1.00000000      1.00000000      1.00000000      1.00000000      1.00000000      1.00000000      1.00000000      1.00000000      1.00000000      1.00000000      1.00000000      1.00000000      1.00000000      1.00000000      1.00000000      1.00000000      1.00000000      1.00000000
      1.00000000      1.00000000      1.00000000      1.00000000      1.00000000      1.00000000      1.00000000      1.00000000      1.00000000      1.00000000      1.00000000      1.00000000      1.00000000      1.00000000      1.00000000      1.00000000      1.00000000      1.00000000      1.00000000      1.00000000
      1.00000000      1.00000000      1.00000000      1.00000000      1.00000000      1.00000000      1.00000000      1.00000000</v>
    <i name="NUPDOWN">     -1.00000000</i>
    <i type="logical" name="LSORBIT"> F  </i>
    <v name="SAXIS">      0.00000000      0.00000000      1.00000000</v>
    <i type="logical" name="LSPIRAL"> F  </i>
    <v name="QSPIRAL">      0.00000000      0.00000000      0.00000000</v>
    <i type="logical" name="LZEROZ"> F  </i>
   </separator>
   <separator name="electronic exchange-correlation" >
    <i type="logical" name="LASPH"> F  </i>
    <i type="logical" name="LMETAGGA"> F  </i>
   </separator>
   <separator name="electronic convergence" >
    <i type="int" name="NELM">   200</i>
    <i type="int" name="NELMDL">     0</i>
    <i type="int" name="NELMIN">     4</i>
    <i name="ENINI">    450.00000000</i>
    <separator name="electronic convergence detail" >
     <i type="logical" name="LDIAG"> T  </i>
     <i type="logical" name="LSUBROT"> F  </i>
     <i name="WEIMIN">      0.00100000</i>
     <i name="EBREAK">      0.00000000</i>
     <i name="DEPER">      0.30000000</i>
     <i type="int" name="NRMM">     4</i>
     <i name="TIME">      0.40000000</i>
    </separator>
   </separator>
   <separator name="electronic mixer" >
    <i name="AMIX">      0.40000000</i>
    <i name="BMIX">      1.00000000</i>
    <i name="AMIN">      0.10000000</i>
    <i name="AMIX_MAG">      1.60000000</i>
    <i name="BMIX_MAG">      1.00000000</i>
    <separator name="electronic mixer details" >
     <i type="int" name="IMIX">     4</i>
     <i type="logical" name="MIXFIRST"> F  </i>
     <i type="int" name="MAXMIX">   -45</i>
     <i name="WC">    100.00000000</i>
     <i type="int" name="INIMIX">     1</i>
     <i type="int" name="MIXPRE">     1</i>
     <i type="int" name="MREMOVE">     5</i>
    </separator>
   </separator>
   <separator name="electronic dipolcorrection" >
    <i type="logical" name="LDIPOL"> F  </i>
    <i type="logical" name="LMONO"> F  </i>
    <i type="int" name="IDIPOL">     0</i>
    <i name="EPSILON">      1.00000000</i>
    <v name="DIPOL">   -100.00000000   -100.00000000   -100.00000000</v>
    <i name="EFIELD">      0.00000000</i>
   </separator>
  </separator>
  <separator name="grids" >
   <i type="int" name="NGX">    70</i>
   <i type="int" name="NGY">    60</i>
   <i type="int" name="NGZ">   320</i>
   <i type="int" name="NGXF">   140</i>
   <i type="int" name="NGYF">   120</i>
   <i type="int" name="NGZF">   640</i>
   <i type="logical" name="ADDGRID"> F  </i>
  </separator>
  <separator name="ionic" >
   <i type="int" name="NSW">     5</i>
   <i type="int" name="IBRION">     2</i>
   <i type="int" name="MDALGO">     0</i>
   <i type="int" name="ISIF">     2</i>
   <i name="PSTRESS">      0.00000000</i>
   <i name="EDIFFG">      0.00001000</i>
   <i type="int" name="NFREE">     1</i>
   <i name="POTIM">      0.25000000</i>
   <i name="SMASS">     -3.00000000</i>
   <i name="SCALEE">      1.00000000</i>
  </separator>
  <separator name="ionic md" >
   <i name="TEBEG">      0.00010000</i>
   <i name="TEEND">      0.00010000</i>
   <i type="int" name="NBLOCK">     1</i>
   <i type="int" name="KBLOCK">     5</i>
   <i type="int" name="NPACO">   256</i>
   <i name="APACO">     16.00000000</i>
  </separator>
  <separator name="symmetry" >
   <i type="int" name="ISYM">     2</i>
   <i name="SYMPREC">      0.00001000</i>
  </separator>
  <separator name="dos" >
   <i type="int" name="LORBIT">     0</i>
   <v name="RWIGS">     -1.00000000     -1.00000000</v>
   <i type="int" name="NEDOS">   301</i>
   <i name="EMIN">     10.00000000</i>
   <i name="EMAX">    -10.00000000</i>
   <i name="EFERMI">      0.00000000</i>
  </separator>
  <separator name="writing" >
   <i type="int" name="NWRITE">     2</i>
   <i type="logical" name="LWAVE"> F  </i>
   <i type="logical" name="LDOWNSAMPLE"> F  </i>
   <i type="logical" name="LCHARG"> F  </i>
   <i type="logical" name="LPARD"> F  </i>
   <i type="logical" name="LVTOT"> F  </i>
   <i type="logical" name="LVHAR"> F  </i>
   <i type="logical" name="LELF"> F  </i>
   <i type="logical" name="LOPTICS"> F  </i>
   <v name="STM">      0.00000000      0.00000000      0.00000000      0.00000000      0.00000000      0.00000000      0.00000000</v>
  </separator>
  <separator name="performance" >
   <i type="int" name="NPAR">    14</i>
   <i type="int" name="NSIM">     4</i>
   <i type="int" name="NBLK">    -1</i>
   <i type="logical" name="LPLANE"> T  </i>
   <i type="logical" name="LSCALAPACK"> T  </i>
   <i type="logical" name="LSCAAWARE"> T  </i>
   <i type="logical" name="LSCALU"> F  </i>
   <i type="logical" name="LASYNC"> F  </i>
   <i type="logical" name="LORBITALREAL"> F  </i>
  </separator>
  <separator name="miscellaneous" >
   <i type="int" name="IDIOT">     3</i>
   <i type="int" name="ISPECIAL">     0</i>
   <i type="logical" name="LMUSIC"> F  </i>
   <v name="POMASS">     55.84700000     54.93800000</v>
   <v name="DARWINR">      0.00000000      0.00000000</v>
   <v name="DARWINV">      1.00000000      1.00000000</v>
   <i type="logical" name="LCORR"> T  </i>
  </separator>
  <i type="logical" name="GGA_COMPAT"> T  </i>
  <i type="logical" name="LBERRY"> F  </i>
  <i type="int" name="ICORELEVEL">     0</i>
  <i type="logical" name="LDAU"> F  </i>
  <i type="int" name="I_CONSTRAINED_M">     0</i>
  <separator name="electronic exchange-correlation" >
   <i type="string" name="GGA">--</i>
   <i type="int" name="VOSKOWN">     0</i>
   <i type="logical" name="LHFCALC"> F  </i>
   <i type="string" name="PRECFOCK"></i>
   <i type="logical" name="LSYMGRAD"> F  </i>
   <i type="logical" name="LHFONE"> F  </i>
   <i type="logical" name="LRHFCALC"> F  </i>
   <i type="logical" name="LTHOMAS"> F  </i>
   <i type="logical" name="LMODELHF"> F  </i>
   <i name="ENCUT4O">     -1.00000000</i>
   <i type="int" name="EXXOEP">     0</i>
   <i type="int" name="FOURORBIT">     0</i>
   <i name="AEXX">      0.00000000</i>
   <i name="HFALPHA">      0.00000000</i>
   <i name="MCALPHA">      0.00000000</i>
   <i name="ALDAX">      1.00000000</i>
   <i name="AGGAX">      1.00000000</i>
   <i name="ALDAC">      1.00000000</i>
   <i name="AGGAC">      1.00000000</i>
   <i type="int" name="NKREDX">     1</i>
   <i type="int" name="NKREDY">     1</i>
   <i type="int" name="NKREDZ">     1</i>
   <i type="logical" name="SHIFTRED"> F  </i>
   <i type="logical" name="ODDONLY"> F  </i>
   <i type="logical" name="EVENONLY"> F  </i>
   <i type="int" name="LMAXFOCK">     0</i>
   <i type="int" name="NMAXFOCKAE">     0</i>
   <i type="logical" name="LFOCKAEDFT"> F  </i>
   <i name="HFSCREEN">      0.00000000</i>
   <i name="HFSCREENC">      0.00000000</i>
   <i type="int" name="NBANDSGWLOW">     0</i>
  </separator>
  <separator name="vdW DFT" >
   <i type="logical" name="LUSE_VDW"> F  </i>
   <i name="Zab_VDW">     -0.84910000</i>
   <i name="PARAM1">      0.12340000</i>
   <i name="PARAM2">      1.00000000</i>
   <i name="PARAM3">      0.00000000</i>
  </separator>
  <separator name="model GW" >
   <i type="int" name="MODEL_GW">     0</i>
   <i name="MODEL_EPS0">      7.68123389</i>
   <i name="MODEL_ALPHA">      1.00000000</i>
  </separator>
  <separator name="linear response parameters" >
   <i type="logical" name="LEPSILON"> F  </i>
   <i type="logical" name="LRPA"> F  </i>
   <i type="logical" name="LNABLA"> F  </i>
   <i type="logical" name="LVEL"> F  </i>
   <i type="int" name="KINTER">     0</i>
   <i name="CSHIFT">      0.10000000</i>
   <i name="OMEGAMAX">     -1.00000000</i>
   <i name="DEG_THRESHOLD">      0.00200000</i>
   <i name="RTIME">     -0.10000000</i>
   <i name="WPLASMAI">      0.00000000</i>
   <v name="DFIELD">      0.00000000      0.00000000      0.00000000</v>
   <v name="WPLASMA">      0.00000000      0.00000000      0.00000000      0.00000000      0.00000000      0.00000000      0.00000000      0.00000000      0.00000000</v>
  </separator>
  <separator name="orbital magnetization" >
   <i type="logical" name="NUCIND"> F  </i>
   <v name="MAGPOS">      0.00000000      0.00000000      0.00000000</v>
   <i type="logical" name="LNICSALL"> T  </i>
   <i type="logical" name="ORBITALMAG"> F  </i>
   <i type="logical" name="LMAGBLOCH"> F  </i>
   <i type="logical" name="LCHIMAG"> F  </i>
   <i type="logical" name="LGAUGE"> T  </i>
   <i type="int" name="MAGATOM">     0</i>
   <v name="MAGDIPOL">      0.00000000      0.00000000      0.00000000</v>
   <v name="AVECCONST">      0.00000000      0.00000000      0.00000000</v>
  </separator>
  <separator name="response functions" >
   <i type="logical" name="LADDER"> F  </i>
   <i type="logical" name="LRPAFORCE"> F  </i>
   <i type="logical" name="LFXC"> F  </i>
   <i type="logical" name="LHARTREE"> T  </i>
   <i type="int" name="IBSE">     0</i>
   <v type="int" name="KPOINT">    -1     0     0     0</v>
   <i type="logical" name="LTCTE"> F  </i>
   <i type="logical" name="LTETE"> F  </i>
   <i type="logical" name="LTRIPLET"> F  </i>
   <i type="logical" name="LFXCEPS"> F  </i>
   <i type="logical" name="LFXHEG"> F  </i>
   <i type="int" name="NATURALO">     2</i>
   <i type="logical" name="L2ORDER"> F  </i>
   <i type="logical" name="LMP2LT"> F  </i>
   <i type="logical" name="LUSEW"> F  </i>
   <i name="ENCUTGW">     -2.00000000</i>
   <i name="ENCUTGWSOFT">     -2.00000000</i>
   <i name="ENCUTLF">     -1.00000000</i>
   <i type="int" name="LMAXMP2">    -1</i>
   <i name="SCISSOR">      0.00000000</i>
   <i type="int" name="NOMEGA">     0</i>
   <i type="int" name="NOMEGAR">     0</i>
   <i type="int" name="NBANDSGW">    -1</i>
   <i type="int" name="NBANDSO">    -1</i>
   <i type="int" name="NBANDSV">    -1</i>
   <i type="int" name="NELM">   200</i>
   <i type="int" name="NELMHF">     1</i>
   <i type="int" name="DIM">     3</i>
   <i type="int" name="ANTIRES">     0</i>
   <i name="OMEGAMAX">    -30.00000000</i>
   <i name="OMEGAMIN">    -30.00000000</i>
   <i name="OMEGATL">   -200.00000000</i>
   <i type="int" name="OMEGAGRID">   140</i>
   <i name="CSHIFT">     -0.10000000</i>
   <i type="logical" name="SELFENERGY"> F  </i>
   <i type="logical" name="LSPECTRAL"> F  </i>
   <i type="logical" name="LSPECTRALGW"> F  </i>
   <i type="logical" name="LSINGLES"> F  </i>
   <i type="logical" name="LFERMIGW"> F  </i>
   <i type="logical" name="ODDONLYGW"> F  </i>
   <i type="logical" name="EVENONLYGW"> F  </i>
   <i type="int" name="NKREDLFX">     1</i>
   <i type="int" name="NKREDLFY">     1</i>
   <i type="int" name="NKREDLFZ">     1</i>
   <i type="int" name="MAXMEM">  2800</i>
   <i type="int" name="TELESCOPE">     0</i>
   <i type="int" name="TAUPAR">     1</i>
   <i type="int" name="OMEGAPAR">    -1</i>
   <i name="LAMBDA">      1.00000000</i>
  </separator>
  <separator name="External order field" >
   <i name="OFIELD_KAPPA">      0.00000000</i>
   <v name="OFIELD_K">      0.00000000      0.00000000      0.00000000</v>
   <i name="OFIELD_Q6_NEAR">      0.00000000</i>
   <i name="OFIELD_Q6_FAR">      0.00000000</i>
   <i name="OFIELD_A">      0.00000000</i>
  </separator>
 </parameters>
 <atominfo>
  <atoms>     288 </atoms>
  <types>       2 </types>
  <array name="atoms" >
   <dimension dim="1">ion</dimension>
   <field type="string">element</field>
   <field type="int">atomtype</field>
   <set>
    <rc><c>Fe</c><c>   1</c></rc>
    <rc><c>Fe</c><c>   1</c></rc>
    <rc><c>Fe</c><c>   1</c></rc>
    <rc><c>Fe</c><c>   1</c></rc>
    <rc><c>Fe</c><c>   1</c></rc>
    <rc><c>Fe</c><c>   1</c></rc>
    <rc><c>Fe</c><c>   1</c></rc>
    <rc><c>Fe</c><c>   1</c></rc>
    <rc><c>Fe</c><c>   1</c></rc>
    <rc><c>Fe</c><c>   1</c></rc>
    <rc><c>Fe</c><c>   1</c></rc>
    <rc><c>Fe</c><c>   1</c></rc>
    <rc><c>Fe</c><c>   1</c></rc>
    <rc><c>Fe</c><c>   1</c></rc>
    <rc><c>Fe</c><c>   1</c></rc>
    <rc><c>Fe</c><c>   1</c></rc>
    <rc><c>Fe</c><c>   1</c></rc>
    <rc><c>Fe</c><c>   1</c></rc>
    <rc><c>Fe</c><c>   1</c></rc>
    <rc><c>Fe</c><c>   1</c></rc>
    <rc><c>Fe</c><c>   1</c></rc>
    <rc><c>Fe</c><c>   1</c></rc>
    <rc><c>Fe</c><c>   1</c></rc>
    <rc><c>Fe</c><c>   1</c></rc>
    <rc><c>Fe</c><c>   1</c></rc>
    <rc><c>Fe</c><c>   1</c></rc>
    <rc><c>Fe</c><c>   1</c></rc>
    <rc><c>Fe</c><c>   1</c></rc>
    <rc><c>Fe</c><c>   1</c></rc>
    <rc><c>Fe</c><c>   1</c></rc>
    <rc><c>Fe</c><c>   1</c></rc>
    <rc><c>Fe</c><c>   1</c></rc>
    <rc><c>Fe</c><c>   1</c></rc>
    <rc><c>Fe</c><c>   1</c></rc>
    <rc><c>Fe</c><c>   1</c></rc>
    <rc><c>Fe</c><c>   1</c></rc>
    <rc><c>Fe</c><c>   1</c></rc>
    <rc><c>Fe</c><c>   1</c></rc>
    <rc><c>Fe</c><c>   1</c></rc>
    <rc><c>Fe</c><c>   1</c></rc>
    <rc><c>Fe</c><c>   1</c></rc>
    <rc><c>Fe</c><c>   1</c></rc>
    <rc><c>Fe</c><c>   1</c></rc>
    <rc><c>Fe</c><c>   1</c></rc>
    <rc><c>Fe</c><c>   1</c></rc>
    <rc><c>Fe</c><c>   1</c></rc>
    <rc><c>Fe</c><c>   1</c></rc>
    <rc><c>Fe</c><c>   1</c></rc>
    <rc><c>Fe</c><c>   1</c></rc>
    <rc><c>Fe</c><c>   1</c></rc>
    <rc><c>Fe</c><c>   1</c></rc>
    <rc><c>Fe</c><c>   1</c></rc>
    <rc><c>Fe</c><c>   1</c></rc>
    <rc><c>Fe</c><c>   1</c></rc>
    <rc><c>Fe</c><c>   1</c></rc>
    <rc><c>Fe</c><c>   1</c></rc>
    <rc><c>Fe</c><c>   1</c></rc>
    <rc><c>Fe</c><c>   1</c></rc>
    <rc><c>Fe</c><c>   1</c></rc>
    <rc><c>Fe</c><c>   1</c></rc>
    <rc><c>Fe</c><c>   1</c></rc>
    <rc><c>Fe</c><c>   1</c></rc>
    <rc><c>Fe</c><c>   1</c></rc>
    <rc><c>Fe</c><c>   1</c></rc>
    <rc><c>Fe</c><c>   1</c></rc>
    <rc><c>Fe</c><c>   1</c></rc>
    <rc><c>Fe</c><c>   1</c></rc>
    <rc><c>Fe</c><c>   1</c></rc>
    <rc><c>Fe</c><c>   1</c></rc>
    <rc><c>Fe</c><c>   1</c></rc>
    <rc><c>Fe</c><c>   1</c></rc>
    <rc><c>Fe</c><c>   1</c></rc>
    <rc><c>Fe</c><c>   1</c></rc>
    <rc><c>Fe</c><c>   1</c></rc>
    <rc><c>Fe</c><c>   1</c></rc>
    <rc><c>Fe</c><c>   1</c></rc>
    <rc><c>Fe</c><c>   1</c></rc>
    <rc><c>Fe</c><c>   1</c></rc>
    <rc><c>Fe</c><c>   1</c></rc>
    <rc><c>Fe</c><c>   1</c></rc>
    <rc><c>Fe</c><c>   1</c></rc>
    <rc><c>Fe</c><c>   1</c></rc>
    <rc><c>Fe</c><c>   1</c></rc>
    <rc><c>Fe</c><c>   1</c></rc>
    <rc><c>Fe</c><c>   1</c></rc>
    <rc><c>Fe</c><c>   1</c></rc>
    <rc><c>Fe</c><c>   1</c></rc>
    <rc><c>Fe</c><c>   1</c></rc>
    <rc><c>Fe</c><c>   1</c></rc>
    <rc><c>Fe</c><c>   1</c></rc>
    <rc><c>Fe</c><c>   1</c></rc>
    <rc><c>Fe</c><c>   1</c></rc>
    <rc><c>Fe</c><c>   1</c></rc>
    <rc><c>Fe</c><c>   1</c></rc>
    <rc><c>Fe</c><c>   1</c></rc>
    <rc><c>Fe</c><c>   1</c></rc>
    <rc><c>Fe</c><c>   1</c></rc>
    <rc><c>Fe</c><c>   1</c></rc>
    <rc><c>Fe</c><c>   1</c></rc>
    <rc><c>Fe</c><c>   1</c></rc>
    <rc><c>Fe</c><c>   1</c></rc>
    <rc><c>Fe</c><c>   1</c></rc>
    <rc><c>Fe</c><c>   1</c></rc>
    <rc><c>Fe</c><c>   1</c></rc>
    <rc><c>Fe</c><c>   1</c></rc>
    <rc><c>Fe</c><c>   1</c></rc>
    <rc><c>Fe</c><c>   1</c></rc>
    <rc><c>Fe</c><c>   1</c></rc>
    <rc><c>Fe</c><c>   1</c></rc>
    <rc><c>Fe</c><c>   1</c></rc>
    <rc><c>Fe</c><c>   1</c></rc>
    <rc><c>Fe</c><c>   1</c></rc>
    <rc><c>Fe</c><c>   1</c></rc>
    <rc><c>Fe</c><c>   1</c></rc>
    <rc><c>Fe</c><c>   1</c></rc>
    <rc><c>Fe</c><c>   1</c></rc>
    <rc><c>Fe</c><c>   1</c></rc>
    <rc><c>Fe</c><c>   1</c></rc>
    <rc><c>Fe</c><c>   1</c></rc>
    <rc><c>Fe</c><c>   1</c></rc>
    <rc><c>Fe</c><c>   1</c></rc>
    <rc><c>Fe</c><c>   1</c></rc>
    <rc><c>Fe</c><c>   1</c></rc>
    <rc><c>Fe</c><c>   1</c></rc>
    <rc><c>Fe</c><c>   1</c></rc>
    <rc><c>Fe</c><c>   1</c></rc>
    <rc><c>Fe</c><c>   1</c></rc>
    <rc><c>Fe</c><c>   1</c></rc>
    <rc><c>Fe</c><c>   1</c></rc>
    <rc><c>Fe</c><c>   1</c></rc>
    <rc><c>Fe</c><c>   1</c></rc>
    <rc><c>Fe</c><c>   1</c></rc>
    <rc><c>Fe</c><c>   1</c></rc>
    <rc><c>Fe</c><c>   1</c></rc>
    <rc><c>Fe</c><c>   1</c></rc>
    <rc><c>Fe</c><c>   1</c></rc>
    <rc><c>Fe</c><c>   1</c></rc>
    <rc><c>Fe</c><c>   1</c></rc>
    <rc><c>Fe</c><c>   1</c></rc>
    <rc><c>Fe</c><c>   1</c></rc>
    <rc><c>Fe</c><c>   1</c></rc>
    <rc><c>Fe</c><c>   1</c></rc>
    <rc><c>Fe</c><c>   1</c></rc>
    <rc><c>Fe</c><c>   1</c></rc>
    <rc><c>Fe</c><c>   1</c></rc>
    <rc><c>Fe</c><c>   1</c></rc>
    <rc><c>Fe</c><c>   1</c></rc>
    <rc><c>Fe</c><c>   1</c></rc>
    <rc><c>Fe</c><c>   1</c></rc>
    <rc><c>Fe</c><c>   1</c></rc>
    <rc><c>Fe</c><c>   1</c></rc>
    <rc><c>Fe</c><c>   1</c></rc>
    <rc><c>Fe</c><c>   1</c></rc>
    <rc><c>Fe</c><c>   1</c></rc>
    <rc><c>Fe</c><c>   1</c></rc>
    <rc><c>Fe</c><c>   1</c></rc>
    <rc><c>Fe</c><c>   1</c></rc>
    <rc><c>Fe</c><c>   1</c></rc>
    <rc><c>Fe</c><c>   1</c></rc>
    <rc><c>Fe</c><c>   1</c></rc>
    <rc><c>Fe</c><c>   1</c></rc>
    <rc><c>Fe</c><c>   1</c></rc>
    <rc><c>Fe</c><c>   1</c></rc>
    <rc><c>Fe</c><c>   1</c></rc>
    <rc><c>Fe</c><c>   1</c></rc>
    <rc><c>Fe</c><c>   1</c></rc>
    <rc><c>Fe</c><c>   1</c></rc>
    <rc><c>Fe</c><c>   1</c></rc>
    <rc><c>Fe</c><c>   1</c></rc>
    <rc><c>Fe</c><c>   1</c></rc>
    <rc><c>Fe</c><c>   1</c></rc>
    <rc><c>Fe</c><c>   1</c></rc>
    <rc><c>Fe</c><c>   1</c></rc>
    <rc><c>Fe</c><c>   1</c></rc>
    <rc><c>Fe</c><c>   1</c></rc>
    <rc><c>Fe</c><c>   1</c></rc>
    <rc><c>Fe</c><c>   1</c></rc>
    <rc><c>Fe</c><c>   1</c></rc>
    <rc><c>Fe</c><c>   1</c></rc>
    <rc><c>Fe</c><c>   1</c></rc>
    <rc><c>Fe</c><c>   1</c></rc>
    <rc><c>Fe</c><c>   1</c></rc>
    <rc><c>Fe</c><c>   1</c></rc>
    <rc><c>Fe</c><c>   1</c></rc>
    <rc><c>Fe</c><c>   1</c></rc>
    <rc><c>Fe</c><c>   1</c></rc>
    <rc><c>Fe</c><c>   1</c></rc>
    <rc><c>Fe</c><c>   1</c></rc>
    <rc><c>Fe</c><c>   1</c></rc>
    <rc><c>Fe</c><c>   1</c></rc>
    <rc><c>Fe</c><c>   1</c></rc>
    <rc><c>Fe</c><c>   1</c></rc>
    <rc><c>Fe</c><c>   1</c></rc>
    <rc><c>Fe</c><c>   1</c></rc>
    <rc><c>Fe</c><c>   1</c></rc>
    <rc><c>Fe</c><c>   1</c></rc>
    <rc><c>Fe</c><c>   1</c></rc>
    <rc><c>Fe</c><c>   1</c></rc>
    <rc><c>Fe</c><c>   1</c></rc>
    <rc><c>Fe</c><c>   1</c></rc>
    <rc><c>Fe</c><c>   1</c></rc>
    <rc><c>Fe</c><c>   1</c></rc>
    <rc><c>Fe</c><c>   1</c></rc>
    <rc><c>Fe</c><c>   1</c></rc>
    <rc><c>Fe</c><c>   1</c></rc>
    <rc><c>Fe</c><c>   1</c></rc>
    <rc><c>Fe</c><c>   1</c></rc>
    <rc><c>Fe</c><c>   1</c></rc>
    <rc><c>Fe</c><c>   1</c></rc>
    <rc><c>Fe</c><c>   1</c></rc>
    <rc><c>Fe</c><c>   1</c></rc>
    <rc><c>Fe</c><c>   1</c></rc>
    <rc><c>Fe</c><c>   1</c></rc>
    <rc><c>Fe</c><c>   1</c></rc>
    <rc><c>Fe</c><c>   1</c></rc>
    <rc><c>Fe</c><c>   1</c></rc>
    <rc><c>Fe</c><c>   1</c></rc>
    <rc><c>Fe</c><c>   1</c></rc>
    <rc><c>Fe</c><c>   1</c></rc>
    <rc><c>Fe</c><c>   1</c></rc>
    <rc><c>Fe</c><c>   1</c></rc>
    <rc><c>Fe</c><c>   1</c></rc>
    <rc><c>Fe</c><c>   1</c></rc>
    <rc><c>Fe</c><c>   1</c></rc>
    <rc><c>Fe</c><c>   1</c></rc>
    <rc><c>Fe</c><c>   1</c></rc>
    <rc><c>Fe</c><c>   1</c></rc>
    <rc><c>Fe</c><c>   1</c></rc>
    <rc><c>Fe</c><c>   1</c></rc>
    <rc><c>Fe</c><c>   1</c></rc>
    <rc><c>Fe</c><c>   1</c></rc>
    <rc><c>Fe</c><c>   1</c></rc>
    <rc><c>Fe</c><c>   1</c></rc>
    <rc><c>Fe</c><c>   1</c></rc>
    <rc><c>Fe</c><c>   1</c></rc>
    <rc><c>Fe</c><c>   1</c></rc>
    <rc><c>Fe</c><c>   1</c></rc>
    <rc><c>Fe</c><c>   1</c></rc>
    <rc><c>Fe</c><c>   1</c></rc>
    <rc><c>Fe</c><c>   1</c></rc>
    <rc><c>Fe</c><c>   1</c></rc>
    <rc><c>Fe</c><c>   1</c></rc>
    <rc><c>Fe</c><c>   1</c></rc>
    <rc><c>Fe</c><c>   1</c></rc>
    <rc><c>Fe</c><c>   1</c></rc>
    <rc><c>Fe</c><c>   1</c></rc>
    <rc><c>Fe</c><c>   1</c></rc>
    <rc><c>Fe</c><c>   1</c></rc>
    <rc><c>Fe</c><c>   1</c></rc>
    <rc><c>Fe</c><c>   1</c></rc>
    <rc><c>Fe</c><c>   1</c></rc>
    <rc><c>Fe</c><c>   1</c></rc>
    <rc><c>Fe</c><c>   1</c></rc>
    <rc><c>Fe</c><c>   1</c></rc>
    <rc><c>Fe</c><c>   1</c></rc>
    <rc><c>Fe</c><c>   1</c></rc>
    <rc><c>Fe</c><c>   1</c></rc>
    <rc><c>Fe</c><c>   1</c></rc>
    <rc><c>Fe</c><c>   1</c></rc>
    <rc><c>Fe</c><c>   1</c></rc>
    <rc><c>Fe</c><c>   1</c></rc>
    <rc><c>Fe</c><c>   1</c></rc>
    <rc><c>Fe</c><c>   1</c></rc>
    <rc><c>Fe</c><c>   1</c></rc>
    <rc><c>Fe</c><c>   1</c></rc>
    <rc><c>Fe</c><c>   1</c></rc>
    <rc><c>Fe</c><c>   1</c></rc>
    <rc><c>Fe</c><c>   1</c></rc>
    <rc><c>Fe</c><c>   1</c></rc>
    <rc><c>Fe</c><c>   1</c></rc>
    <rc><c>Fe</c><c>   1</c></rc>
    <rc><c>Fe</c><c>   1</c></rc>
    <rc><c>Fe</c><c>   1</c></rc>
    <rc><c>Fe</c><c>   1</c></rc>
    <rc><c>Fe</c><c>   1</c></rc>
    <rc><c>Fe</c><c>   1</c></rc>
    <rc><c>Fe</c><c>   1</c></rc>
    <rc><c>Fe</c><c>   1</c></rc>
    <rc><c>Fe</c><c>   1</c></rc>
    <rc><c>Fe</c><c>   1</c></rc>
    <rc><c>Fe</c><c>   1</c></rc>
    <rc><c>Mn</c><c>   2</c></rc>
    <rc><c>Mn</c><c>   2</c></rc>
    <rc><c>Mn</c><c>   2</c></rc>
    <rc><c>Mn</c><c>   2</c></rc>
    <rc><c>Mn</c><c>   2</c></rc>
    <rc><c>Mn</c><c>   2</c></rc>
    <rc><c>Mn</c><c>   2</c></rc>
   </set>
  </array>
  <array name="atomtypes" >
   <dimension dim="1">type</dimension>
   <field type="int">atomspertype</field>
   <field type="string">element</field>
   <field>mass</field>
   <field>valence</field>
   <field type="string">pseudopotential</field>
   <set>
    <rc><c> 281</c><c>Fe</c><c>     55.84700000</c><c>      8.00000000</c><c>  PAW_PBE Fe_GW 31Mar2010               </c></rc>
    <rc><c>   7</c><c>Mn</c><c>     54.93800000</c><c>      7.00000000</c><c>  PAW_PBE Mn_GW 31Mar2010               </c></rc>
   </set>
  </array>
 </atominfo>
 <structure name="initialpos" >
  <crystal>
   <varray name="basis" >
    <v>       9.72667804       0.00000000       0.00000000 </v>
    <v>       0.00000000       8.42355028       0.00000000 </v>
    <v>       0.00000000       0.00000000      45.00000000 </v>
   </varray>
   <i name="volume">   3686.99226691 </i>
   <varray name="rec_basis" >
    <v>       0.10281002       0.00000000       0.00000000 </v>
    <v>       0.00000000       0.11871479       0.00000000 </v>
    <v>       0.00000000       0.00000000       0.02222222 </v>
   </varray>
  </crystal>
  <varray name="positions" >
   <v>       0.05410821       0.70112633       0.21121432 </v>
   <v>       0.31842983       0.72366611       0.87626715 </v>
   <v>       0.68829839       0.95871299       0.61154091 </v>
   <v>       0.43842916       0.45856073       0.61154833 </v>
   <v>       0.44080984       0.28722795       0.25510577 </v>
   <v>       0.05849514       0.38857777       0.83351964 </v>
   <v>       0.30851734       0.88757702       0.83351525 </v>
   <v>       0.44694715       0.62633869       0.70041341 </v>
   <v>       0.05990583       0.21280876       0.74490308 </v>
   <v>       0.17927467       0.45093336       0.21126725 </v>
   <v>       0.56778066       0.21070724       0.47746250 </v>
   <v>       0.06667785       0.87512230       0.56691344 </v>
   <v>       0.56824191       0.22385971       0.87613942 </v>
   <v>       0.80779910       0.52750929       0.12388149 </v>
   <v>       0.42915628       0.95147501       0.21138386 </v>
   <v>       0.56655023       0.37498874       0.56685669 </v>
   <v>       0.81112670       0.04194094       0.38826987 </v>
   <v>       0.68228338       0.78906350       0.52250333 </v>
   <v>       0.44285582       0.46086635       0.47746334 </v>
   <v>       0.43427839       0.96257963       0.74491121 </v>
   <v>       0.44158141       0.62507183       0.56685168 </v>
   <v>       0.57167604       0.87631047       0.70057257 </v>
   <v>       0.30945534       0.02647614       0.12399810 </v>
   <v>       0.68970745       0.95898643       0.34396252 </v>
   <v>       0.68740787       0.78216771       0.12425018 </v>
   <v>       0.05288048       0.37374849       0.29953894 </v>
   <v>       0.68986674       0.46779383       0.87607988 </v>
   <v>       0.42850618       0.45138608       0.21134332 </v>
   <v>       0.80877482       0.37533604       0.43305855 </v>
   <v>       0.56365332       0.70871326       0.61157354 </v>
   <v>       0.55950811       0.54052022       0.65583024 </v>
   <v>       0.81741919       0.86196180       0.16656968 </v>
   <v>       0.56547781       0.53771478       0.25515375 </v>
   <v>       0.68969761       0.45883337       0.34395798 </v>
   <v>       0.19238737       0.61220180       0.16650636 </v>
   <v>       0.19448374       0.79940592       0.78883795 </v>
   <v>       0.44718049       0.12619433       0.70036205 </v>
   <v>       0.92793337       0.62351283       0.29962518 </v>
   <v>       0.31752068       0.22357576       0.87614356 </v>
   <v>       0.31644927       0.87496312       0.56684787 </v>
   <v>       0.81756840       0.22394663       0.87622023 </v>
   <v>       0.80960824       0.54075655       0.65586203 </v>
   <v>       0.55861933       0.52701049       0.12400703 </v>
   <v>       0.56924227       0.04970572       0.78902660 </v>
   <v>       0.19053595       0.28714123       0.25524390 </v>
   <v>       0.80869307       0.87537564       0.43304424 </v>
   <v>       0.57231726       0.37595558       0.70045734 </v>
   <v>       0.05799788       0.02775565       0.12402451 </v>
   <v>       0.30965546       0.54060873       0.65589096 </v>
   <v>       0.56481797       0.20894817       0.34397463 </v>
   <v>       0.18819410       0.95817257       0.61131043 </v>
   <v>       0.30298080       0.37379206       0.29955979 </v>
   <v>       0.43478412       0.79072151       0.65598427 </v>
   <v>       0.19490259       0.29901630       0.78878841 </v>
   <v>       0.06684419       0.36235573       0.16655335 </v>
   <v>       0.69659086       0.62609996       0.70055529 </v>
   <v>       0.31126742       0.54122527       0.38842509 </v>
   <v>       0.06762105       0.72341570       0.87620346 </v>
   <v>       0.93370848       0.63764741       0.83393940 </v>
   <v>       0.31968024       0.54980076       0.78894496 </v>
   <v>       0.30476716       0.20063507       0.21114161 </v>
   <v>       0.06791394       0.71060631       0.47739449 </v>
   <v>       0.55444109       0.20078075       0.21115796 </v>
   <v>       0.30965034       0.21223482       0.74491023 </v>
   <v>       0.07187711       0.37660627       0.70060640 </v>
   <v>       0.18331521       0.63757176       0.83359540 </v>
   <v>       0.06939287       0.04949745       0.78904065 </v>
   <v>       0.44166902       0.12496538       0.56691528 </v>
   <v>       0.93473192       0.29071046       0.65582223 </v>
   <v>       0.80444306       0.20110724       0.21121980 </v>
   <v>       0.92920731       0.95156222       0.21123046 </v>
   <v>       0.94161867       0.62500050       0.56680467 </v>
   <v>       0.80843110       0.38754711       0.83352959 </v>
   <v>       0.19717735       0.62602525       0.70040096 </v>
   <v>       0.80858648       0.88768088       0.83355214 </v>
   <v>       0.68505386       0.29076478       0.65607588 </v>
   <v>       0.31303864       0.20793106       0.61142596 </v>
   <v>       0.43458812       0.46275544       0.74488964 </v>
   <v>       0.43612503       0.79113904       0.38839741 </v>
   <v>       0.68464447       0.96267711       0.74484463 </v>
   <v>       0.80361596       0.70088471       0.21133516 </v>
   <v>       0.81386881       0.70820778       0.61160544 </v>
   <v>       0.43610046       0.78326697       0.12401018 </v>
   <v>       0.30975350       0.71194252       0.74475059 </v>
   <v>       0.31996352       0.04954830       0.78887663 </v>
   <v>       0.81119670       0.54192162       0.38831851 </v>
   <v>       0.68208144       0.28872805       0.52230470 </v>
   <v>       0.69509098       0.79933683       0.78889083 </v>
   <v>       0.19071675       0.78753159       0.25526050 </v>
   <v>       0.69166663       0.11238970       0.16665721 </v>
   <v>       0.69256541       0.96070887       0.47737649 </v>
   <v>       0.94018248       0.95915352       0.34405474 </v>
   <v>       0.80731082       0.03913187       0.52251259 </v>
   <v>       0.68369607       0.62476600       0.43299612 </v>
   <v>       0.43995283       0.45888424       0.34405700 </v>
   <v>       0.81046582       0.21153104       0.74464363 </v>
   <v>       0.43959072       0.96787452       0.87608853 </v>
   <v>       0.56657656       0.87500099       0.56677016 </v>
   <v>       0.80917389       0.02808225       0.12400857 </v>
   <v>       0.42838424       0.62335713       0.29942946 </v>
   <v>       0.81701074       0.72391359       0.87634755 </v>
   <v>       0.68831801       0.45837331       0.61154277 </v>
   <v>       0.55836403       0.38761804       0.83347784 </v>
   <v>       0.80300139       0.37342267       0.29950501 </v>
   <v>       0.18606766       0.29119772       0.38835758 </v>
   <v>       0.81992369       0.54951413       0.78893198 </v>
   <v>       0.18226490       0.78935889       0.52254106 </v>
   <v>       0.30274840       0.87383827       0.29961711 </v>
   <v>       0.17861010       0.95157273       0.21134747 </v>
   <v>       0.18440899       0.46251849       0.74491596 </v>
   <v>       0.43253277       0.28858654       0.52230420 </v>
   <v>       0.06500315       0.70838078       0.34389648 </v>
   <v>       0.18507532       0.79059347       0.65590623 </v>
   <v>       0.44457218       0.79918320       0.78889014 </v>
   <v>       0.68387084       0.12484305       0.43289792 </v>
   <v>       0.93192297       0.78873499       0.52243137 </v>
   <v>       0.69202863       0.61209516       0.16654096 </v>
   <v>       0.81475550       0.70865440       0.34389904 </v>
   <v>       0.93424256       0.46271696       0.74495097 </v>
   <v>       0.18999283       0.45897795       0.34402221 </v>
   <v>       0.56984501       0.54964314       0.78907469 </v>
   <v>       0.56704176       0.36201422       0.16654453 </v>
   <v>       0.56510826       0.70894800       0.34400678 </v>
   <v>       0.55294269       0.37378286       0.29957231 </v>
   <v>       0.18954291       0.46794806       0.87609095 </v>
   <v>       0.19141599       0.11154721       0.16648512 </v>
   <v>       0.44460366       0.29892428       0.78883965 </v>
   <v>       0.69114346       0.78727747       0.25539916 </v>
   <v>       0.93377954       0.13790070       0.83358695 </v>
   <v>       0.44272276       0.96060124       0.47741896 </v>
   <v>       0.56747807       0.72471943       0.87622522 </v>
   <v>       0.19279743       0.46077123       0.47744747 </v>
   <v>       0.93548220       0.28229708       0.12418853 </v>
   <v>       0.31143545       0.04144299       0.38842711 </v>
   <v>       0.06016535       0.04054983       0.65609670 </v>
   <v>       0.55861866       0.37501670       0.43306334 </v>
   <v>       0.68380007       0.46278719       0.74503590 </v>
   <v>       0.55996188       0.21234641       0.74488118 </v>
   <v>       0.94720507       0.12570833       0.70049264 </v>
   <v>       0.55967522       0.04061286       0.65583825 </v>
   <v>       0.55731318       0.53920772       0.52247599 </v>
   <v>       0.17799493       0.12372805       0.29955641 </v>
   <v>       0.44167891       0.11143132       0.16648970 </v>
   <v>       0.67777775       0.62365265       0.29957844 </v>
   <v>       0.92803496       0.12349538       0.29960491 </v>
   <v>       0.81667157       0.37511563       0.56690485 </v>
   <v>       0.05300468       0.87375974       0.29956773 </v>
   <v>       0.19163425       0.62483054       0.56686431 </v>
   <v>       0.94462526       0.79974495       0.78889084 </v>
   <v>       0.30841463       0.38754182       0.83354738 </v>
   <v>       0.93965559       0.46833888       0.87612863 </v>
   <v>       0.43359770       0.63778824       0.83352214 </v>
   <v>       0.06459094       0.20854066       0.34375296 </v>
   <v>       0.18974085       0.96798236       0.87612503 </v>
   <v>       0.93568603       0.78253413       0.12421304 </v>
   <v>       0.68659616       0.79149148       0.38840668 </v>
   <v>       0.93476120       0.79062648       0.65587865 </v>
   <v>       0.94165160       0.11215211       0.16651515 </v>
   <v>       0.43513535       0.29091363       0.65609180 </v>
   <v>       0.05438506       0.20073030       0.21120575 </v>
   <v>       0.67883300       0.95143234       0.21126411 </v>
   <v>       0.17843812       0.62357699       0.29940299 </v>
   <v>       0.82193746       0.87585041       0.70057130 </v>
   <v>       0.94678028       0.62636592       0.70052217 </v>
   <v>       0.19668547       0.12586417       0.70038995 </v>
   <v>       0.94254841       0.46049950       0.47720927 </v>
   <v>       0.81363414       0.20851205       0.61157773 </v>
   <v>       0.18346594       0.62484238       0.43311589 </v>
   <v>       0.42812386       0.12375718       0.29943954 </v>
   <v>       0.67802606       0.12371655       0.29945791 </v>
   <v>       0.56143782       0.54153616       0.38847457 </v>
   <v>       0.81437442       0.20801361       0.34387978 </v>
   <v>       0.43952409       0.46751589       0.87592168 </v>
   <v>       0.55854165       0.88759980       0.83348578 </v>
   <v>       0.31768535       0.21061961       0.47730320 </v>
   <v>       0.19273690       0.96075745       0.47746872 </v>
   <v>       0.05855627       0.88773751       0.83349262 </v>
   <v>       0.05735605       0.53907316       0.52249007 </v>
   <v>       0.94267978       0.96048475       0.47727593 </v>
   <v>       0.06310314       0.70828621       0.61162989 </v>
   <v>       0.55752818       0.03889863       0.52238725 </v>
   <v>       0.69521566       0.29895673       0.78877229 </v>
   <v>       0.81663167       0.36242538       0.16666492 </v>
   <v>       0.43384255       0.12486417       0.43294312 </v>
   <v>       0.06797694       0.21068380       0.47743615 </v>
   <v>       0.30983450       0.04064045       0.65597476 </v>
   <v>       0.43221104       0.78936283       0.52243396 </v>
   <v>       0.18370994       0.13782088       0.83359640 </v>
   <v>       0.18561665       0.28308044       0.12425352 </v>
   <v>       0.93985223       0.45958532       0.34408067 </v>
   <v>       0.56665656       0.86255140       0.16647183 </v>
   <v>       0.30383840       0.70088079       0.21125198 </v>
   <v>       0.94129272       0.61211011       0.16647499 </v>
   <v>       0.18791155       0.45834234       0.61145938 </v>
   <v>       0.07231407       0.87653801       0.70040152 </v>
   <v>       0.05983405       0.54054776       0.65589316 </v>
   <v>       0.30720614       0.52703331       0.12388192 </v>
   <v>       0.93658573       0.79132445       0.38845429 </v>
   <v>       0.94481409       0.29873869       0.78877957 </v>
   <v>       0.18472444       0.29060325       0.65592638 </v>
   <v>       0.93808503       0.95818388       0.61149697 </v>
   <v>       0.81003194       0.71230104       0.74480024 </v>
   <v>       0.69094606       0.28748990       0.25528182 </v>
   <v>       0.05911575       0.71243404       0.74499189 </v>
   <v>       0.67900010       0.45134979       0.21128817 </v>
   <v>       0.81784934       0.21066138       0.47747997 </v>
   <v>       0.56769826       0.71053668       0.47745355 </v>
   <v>       0.06738411       0.86259824       0.16658068 </v>
   <v>       0.93235829       0.28876129       0.52243747 </v>
   <v>       0.68463172       0.79032245       0.65592507 </v>
   <v>       0.05846251       0.87496951       0.43290782 </v>
   <v>       0.06816917       0.22333673       0.87615747 </v>
   <v>       0.80957464       0.04032517       0.65591325 </v>
   <v>       0.55962654       0.02785414       0.12390257 </v>
   <v>       0.30885225       0.37515857       0.43289328 </v>
   <v>       0.31668032       0.37509311       0.56687717 </v>
   <v>       0.31756147       0.71043406       0.47725987 </v>
   <v>       0.05740190       0.03919364       0.52243610 </v>
   <v>       0.32191587       0.87640785       0.70054859 </v>
   <v>       0.06533536       0.53778869       0.25510196 </v>
   <v>       0.68348949       0.13776600       0.83351485 </v>
   <v>       0.81541790       0.03754825       0.25505961 </v>
   <v>       0.18342415       0.12498889       0.43310298 </v>
   <v>       0.69726292       0.12629986       0.70041116 </v>
   <v>       0.18269895       0.28935099       0.52240745 </v>
   <v>       0.44036907       0.78742193       0.25519039 </v>
   <v>       0.44133252       0.61203380       0.16651880 </v>
   <v>       0.06332426       0.20882264       0.61152894 </v>
   <v>       0.18613136       0.79125758       0.38829490 </v>
   <v>       0.30701538       0.53891234       0.52242551 </v>
   <v>       0.82210002       0.37643265       0.70036324 </v>
   <v>       0.68645112       0.29119081       0.38840979 </v>
   <v>       0.19168632       0.12480212       0.56684069 </v>
   <v>       0.68970008       0.96829108       0.87609648 </v>
   <v>       0.69153281       0.12486067       0.56690009 </v>
   <v>       0.43995199       0.95883394       0.34401803 </v>
   <v>       0.18425247       0.96268520       0.74482498 </v>
   <v>       0.94044448       0.78742565       0.25512383 </v>
   <v>       0.55876887       0.87520514       0.43301220 </v>
   <v>       0.30876306       0.87502264       0.43297400 </v>
   <v>       0.80729769       0.53919220       0.52253235 </v>
   <v>       0.92884339       0.45143526       0.21131698 </v>
   <v>       0.31541466       0.53784410       0.25520849 </v>
   <v>       0.56128919       0.04168656       0.38844877 </v>
   <v>       0.31693733       0.36209964       0.16660020 </v>
   <v>       0.06136007       0.04147600       0.38844200 </v>
   <v>       0.06153466       0.54169471       0.38838689 </v>
   <v>       0.43619876       0.29108721       0.38837666 </v>
   <v>       0.69269865       0.46077105       0.47731482 </v>
   <v>       0.06666452       0.37517045       0.56681935 </v>
   <v>       0.55400079       0.70098325       0.21114722 </v>
   <v>       0.94069766       0.28749499       0.25522218 </v>
   <v>       0.81923579       0.04963657       0.78907603 </v>
   <v>       0.18980665       0.95889950       0.34394557 </v>
   <v>       0.55294044       0.87378538       0.29962255 </v>
   <v>       0.05857693       0.37497960       0.43291423 </v>
   <v>       0.31481287       0.70886934       0.34393003 </v>
   <v>       0.31460172       0.20884831       0.34389204 </v>
   <v>       0.94155148       0.12515067       0.56680454 </v>
   <v>       0.43840921       0.95868332       0.61155076 </v>
   <v>       0.56510019       0.03754080       0.25511647 </v>
   <v>       0.18663751       0.78249464       0.12422364 </v>
   <v>       0.06546101       0.03752594       0.25514582 </v>
   <v>       0.69152349       0.62495372       0.56688507 </v>
   <v>       0.05729547       0.52651188       0.12404039 </v>
   <v>       0.30722310       0.03849409       0.52225717 </v>
   <v>       0.68602768       0.28260536       0.12417987 </v>
   <v>       0.81773016       0.71057418       0.47742911 </v>
   <v>       0.43354158       0.13762441       0.83351321 </v>
   <v>       0.32229488       0.37634084       0.70043377 </v>
   <v>       0.68377739       0.63783732       0.83350775 </v>
   <v>       0.55983531       0.71194268       0.74485054 </v>
   <v>       0.93648213       0.29145336       0.38853254 </v>
   <v>       0.93972208       0.96836035       0.87612497 </v>
   <v>       0.56288296       0.20792818       0.61131076 </v>
   <v>       0.81665200       0.87509194       0.56689807 </v>
   <v>       0.80310191       0.87352924       0.29946740 </v>
   <v>       0.31555945       0.03749073       0.25518311 </v>
   <v>       0.43662047       0.28311522       0.12423445 </v>
   <v>       0.31345099       0.70868377       0.61157731 </v>
   <v>       0.43369041       0.62522402       0.43301492 </v>
   <v>       0.93304429       0.62480234       0.43315390 </v>
   <v>       0.31826420       0.86243261       0.16579040 </v>
   <v>       0.07063302       0.54924985       0.78882580 </v>
   <v>       0.93338756       0.12463828       0.43302968 </v>
   <v>       0.93840228       0.45699786       0.61168821 </v>
   <v>       0.93360132       0.96260364       0.74454566 </v>
   <v>       0.81610165       0.53825062       0.25540321 </v>
  </varray>
 </structure>
 <calculation>
  <scstep>
   <time name="dav">   54.63   54.64</time>
   <time name="total">   54.79   54.83</time>
   <energy>
    <i name="alphaZ">  16403.00255340 </i>
    <i name="ewald"> 712584.64632399 </i>
    <i name="hartreedc">-904254.60698842 </i>
    <i name="XCdc">  -6389.71042126 </i>
    <i name="pawpsdc"> 163151.95320885 </i>
    <i name="pawaedc">-160818.84594568 </i>
    <i name="eentropy">     -1.05474427 </i>
    <i name="bandstr">  38622.86558522 </i>
    <i name="atom"> 169914.59583762 </i>
    <i name="e_fr_energy">  29212.84540946 </i>
    <i name="e_wo_entrp">  29213.90015373 </i>
    <i name="e_0_energy">  29213.37278160 </i>
   </energy>
  </scstep>
  <scstep>
   <time name="dav">   54.01   54.06</time>
   <time name="total">   54.02   54.06</time>
   <energy>
    <i name="e_fr_energy">   1192.09785809 </i>
    <i name="e_wo_entrp">   1193.56359723 </i>
    <i name="e_0_energy">   1192.83072766 </i>
   </energy>
  </scstep>
  <scstep>
   <time name="dav">   71.14   71.19</time>
   <time name="total">   71.15   71.20</time>
   <energy>
    <i name="e_fr_energy">  -1940.40400152 </i>
    <i name="e_wo_entrp">  -1936.83593072 </i>
    <i name="e_0_energy">  -1938.61996612 </i>
   </energy>
  </scstep>
  <scstep>
   <time name="dav">   89.28   89.32</time>
   <time name="total">   89.29   89.33</time>
   <energy>
    <i name="e_fr_energy">  -2607.38411699 </i>
    <i name="e_wo_entrp">  -2603.76226451 </i>
    <i name="e_0_energy">  -2605.57319075 </i>
   </energy>
  </scstep>
  <scstep>
   <time name="dav">   85.12   85.17</time>
   <time name="total">   87.19   87.25</time>
   <energy>
    <i name="e_fr_energy">  -2727.22268743 </i>
    <i name="e_wo_entrp">  -2723.42862259 </i>
    <i name="e_0_energy">  -2725.32565501 </i>
   </energy>
  </scstep>
  <scstep>
   <time name="diag">    8.28    8.29</time>
   <time name="diis">   37.69   37.70</time>
   <time name="orth">    2.30    2.30</time>
   <time name="total">   50.48   50.53</time>
   <energy>
    <i name="e_fr_energy">  -5808.29946369 </i>
    <i name="e_wo_entrp">  -5804.72088178 </i>
    <i name="e_0_energy">  -5806.51017273 </i>
   </energy>
  </scstep>
  <scstep>
   <time name="diag">    8.29    8.29</time>
   <time name="diis">   36.67   36.67</time>
   <time name="orth">    2.30    2.30</time>
   <time name="total">   49.39   49.43</time>
[...]
       <r>     5.8486     0.0000  2772.0000 </r>
       <r>     5.8913     0.0000  2772.0000 </r>
       <r>     5.9340     0.0000  2772.0000 </r>
       <r>     5.9767     0.0000  2772.0000 </r>
       <r>     6.0193     0.0000  2772.0000 </r>
       <r>     6.0620     0.0000  2772.0000 </r>
       <r>     6.1047     0.0000  2772.0000 </r>
       <r>     6.1474     0.0000  2772.0000 </r>
       <r>     6.1901     0.0000  2772.0000 </r>
       <r>     6.2327     0.0000  2772.0000 </r>
       <r>     6.2754     0.0000  2772.0000 </r>
       <r>     6.3181     0.0000  2772.0000 </r>
       <r>     6.3608     0.0000  2772.0000 </r>
       <r>     6.4035     0.0000  2772.0000 </r>
       <r>     6.4461     0.0000  2772.0000 </r>
       <r>     6.4888     0.0000  2772.0000 </r>
       <r>     6.5315     0.0000  2772.0000 </r>
       <r>     6.5742     0.0000  2772.0000 </r>
       <r>     6.6168     0.0000  2772.0000 </r>
       <r>     6.6595     0.0000  2772.0000 </r>
       <r>     6.7022     0.0000  2772.0000 </r>
       <r>     6.7449     0.0000  2772.0000 </r>
       <r>     6.7876     0.0000  2772.0000 </r>
      </set>
     </set>
    </array>
   </total>
  </dos>
 </calculation>
 <structure name="finalpos" >
  <crystal>
   <varray name="basis" >
    <v>       9.72667804       0.00000000       0.00000000 </v>
    <v>       0.00000000       8.42355028       0.00000000 </v>
    <v>       0.00000000       0.00000000      45.00000000 </v>
   </varray>
   <i name="volume">   3686.99226691 </i>
   <varray name="rec_basis" >
    <v>       0.10281002       0.00000000       0.00000000 </v>
    <v>       0.00000000       0.11871479       0.00000000 </v>
    <v>       0.00000000       0.00000000       0.02222222 </v>
   </varray>
  </crystal>
  <varray name="positions" >
   <v>       0.05780754       0.70091884       0.21101253 </v>
   <v>       0.31601996       0.72041487       0.87576362 </v>
   <v>       0.68784520       0.95772981       0.61141176 </v>
   <v>       0.43834191       0.45790114       0.61145648 </v>
   <v>       0.43675313       0.28690174       0.25551086 </v>
   <v>       0.06095837       0.38664711       0.83416508 </v>
   <v>       0.31123249       0.88676053       0.83425094 </v>
   <v>       0.44220586       0.62637537       0.70037949 </v>
   <v>       0.06376878       0.21331507       0.74457722 </v>
   <v>       0.18255878       0.45116852       0.21114795 </v>
   <v>       0.56396383       0.20908024       0.47784987 </v>
   <v>       0.06399132       0.87489107       0.56686327 </v>
   <v>       0.56572400       0.21977489       0.87570478 </v>
   <v>       0.81004307       0.53031283       0.12439167 </v>
   <v>       0.43308303       0.95119605       0.21119014 </v>
   <v>       0.56425270       0.37442340       0.56672443 </v>
   <v>       0.81172258       0.04207046       0.38838383 </v>
   <v>       0.68600400       0.79073055       0.52211309 </v>
   <v>       0.43876515       0.45914454       0.47781300 </v>
   <v>       0.43792714       0.96282921       0.74444131 </v>
   <v>       0.43912464       0.62456108       0.56684206 </v>
   <v>       0.56729649       0.87651251       0.70034916 </v>
   <v>       0.31074082       0.03062102       0.12411907 </v>
   <v>       0.68649500       0.95783713       0.34401906 </v>
   <v>       0.68755110       0.77991367       0.12457771 </v>
   <v>       0.05752619       0.37335475       0.29958960 </v>
   <v>       0.68887294       0.47138404       0.87547462 </v>
   <v>       0.43290198       0.45115871       0.21114578 </v>
   <v>       0.81083694       0.37529897       0.43299778 </v>
   <v>       0.56328879       0.70831616       0.61152626 </v>
   <v>       0.56290017       0.54138903       0.65579436 </v>
   <v>       0.81452474       0.86363749       0.16594368 </v>
   <v>       0.56105601       0.53699027       0.25553617 </v>
   <v>       0.68662467       0.45803655       0.34411001 </v>
   <v>       0.18891255       0.61315415       0.16609599 </v>
   <v>       0.19171017       0.79916413       0.78873544 </v>
   <v>       0.44237450       0.12624431       0.70043486 </v>
   <v>       0.93302075       0.62327377       0.29971380 </v>
   <v>       0.31535785       0.21982513       0.87571333 </v>
   <v>       0.31405997       0.87462635       0.56676158 </v>
   <v>       0.81534653       0.22000547       0.87570382 </v>
   <v>       0.81273079       0.54156391       0.65584928 </v>
   <v>       0.56004679       0.52983189       0.12446559 </v>
   <v>       0.56690242       0.04949333       0.78895879 </v>
   <v>       0.18657189       0.28682324       0.25549490 </v>
   <v>       0.81082844       0.87520416       0.43304592 </v>
   <v>       0.56710619       0.37657276       0.70045127 </v>
   <v>       0.06101870       0.03005734       0.12440546 </v>
   <v>       0.31309575       0.54139395       0.65579744 </v>
   <v>       0.56177656       0.20813072       0.34415077 </v>
   <v>       0.18883849       0.95784610       0.61148814 </v>
   <v>       0.30756489       0.37359523       0.29960419 </v>
   <v>       0.43792868       0.79151770       0.65582869 </v>
   <v>       0.19171527       0.29845853       0.78888501 </v>
   <v>       0.06389328       0.36334347       0.16598571 </v>
   <v>       0.69199378       0.62671338       0.70046235 </v>
   <v>       0.31169945       0.54173518       0.38842786 </v>
   <v>       0.06543975       0.71990538       0.87588340 </v>
   <v>       0.93638579       0.63691635       0.83425434 </v>
   <v>       0.31734807       0.54963694       0.78894349 </v>
   <v>       0.30743796       0.20084316       0.21108249 </v>
   <v>       0.06392595       0.70902280       0.47788117 </v>
   <v>       0.55765706       0.20113583       0.21108365 </v>
   <v>       0.31385357       0.21347818       0.74442444 </v>
   <v>       0.06729462       0.37670470       0.70038925 </v>
   <v>       0.18627697       0.63682174       0.83406708 </v>
   <v>       0.06683906       0.04937828       0.78894233 </v>
   <v>       0.43906695       0.12469315       0.56678676 </v>
   <v>       0.93800554       0.29149784       0.65576735 </v>
   <v>       0.80765311       0.20148977       0.21111073 </v>
   <v>       0.93272964       0.95123753       0.21123233 </v>
   <v>       0.93909745       0.62497922       0.56674261 </v>
   <v>       0.81085098       0.38669789       0.83419631 </v>
   <v>       0.19213892       0.62686092       0.70035956 </v>
   <v>       0.81109886       0.88663995       0.83429057 </v>
   <v>       0.68830981       0.29152017       0.65577849 </v>
   <v>       0.31353299       0.20784073       0.61149796 </v>
   <v>       0.43819870       0.46252370       0.74444161 </v>
   <v>       0.43670186       0.79162384       0.38838770 </v>
   <v>       0.68768256       0.96279485       0.74455842 </v>
   <v>       0.80751865       0.70118662       0.21111510 </v>
   <v>       0.81314075       0.70773705       0.61141932 </v>
   <v>       0.43676434       0.77941771       0.12418626 </v>
   <v>       0.31304677       0.71290771       0.74442066 </v>
   <v>       0.31721114       0.04938578       0.78901201 </v>
   <v>       0.81154819       0.54185901       0.38845169 </v>
   <v>       0.68618127       0.29102278       0.52211765 </v>
   <v>       0.69191821       0.79934546       0.78888900 </v>
   <v>       0.18653537       0.78784651       0.25555586 </v>
   <v>       0.68882290       0.11393094       0.16618777 </v>
   <v>       0.68890976       0.95917428       0.47787067 </v>
   <v>       0.93690526       0.95832989       0.34409745 </v>
   <v>       0.81121005       0.04061479       0.52209199 </v>
   <v>       0.68505262       0.62524166       0.43304708 </v>
   <v>       0.43677814       0.45847758       0.34416011 </v>
   <v>       0.81314872       0.21347319       0.74451417 </v>
   <v>       0.43903568       0.97149132       0.87551084 </v>
   <v>       0.56414418       0.87450876       0.56677469 </v>
   <v>       0.81052109       0.02993694       0.12452787 </v>
   <v>       0.43240415       0.62356001       0.29968586 </v>
   <v>       0.81518129       0.72043926       0.87585490 </v>
   <v>       0.68764800       0.45789234       0.61141758 </v>
   <v>       0.56117837       0.38681209       0.83408840 </v>
   <v>       0.80761674       0.37317526       0.29963792 </v>
   <v>       0.18643014       0.29165870       0.38838106 </v>
   <v>       0.81650213       0.54956506       0.78909917 </v>
   <v>       0.18626634       0.79060979       0.52217219 </v>
   <v>       0.30778750       0.87343499       0.29967034 </v>
   <v>       0.18247548       0.95160497       0.21128853 </v>
   <v>       0.18863179       0.46300079       0.74451629 </v>
   <v>       0.43602032       0.29096363       0.52206601 </v>
   <v>       0.06213224       0.70865027       0.34422673 </v>
   <v>       0.18828162       0.79119179       0.65572790 </v>
   <v>       0.44179178       0.79951533       0.78884005 </v>
   <v>       0.68505814       0.12512702       0.43308511 </v>
   <v>       0.93634330       0.79059340       0.52209886 </v>
   <v>       0.68848933       0.61280852       0.16611416 </v>
   <v>       0.81172275       0.70851846       0.34419721 </v>
   <v>       0.93839317       0.46280504       0.74447600 </v>
   <v>       0.18680439       0.45819305       0.34410101 </v>
   <v>       0.56722574       0.54941665       0.78899394 </v>
   <v>       0.56481701       0.36367738       0.16592745 </v>
   <v>       0.56142545       0.70829893       0.34428055 </v>
   <v>       0.55801295       0.37342052       0.29958708 </v>
   <v>       0.18882831       0.47134951       0.87557607 </v>
   <v>       0.18851902       0.11260940       0.16618610 </v>
   <v>       0.44166179       0.29890505       0.78881911 </v>
   <v>       0.68601344       0.78725368       0.25551783 </v>
   <v>       0.93680135       0.13665006       0.83412966 </v>
   <v>       0.43886609       0.95911280       0.47776844 </v>
   <v>       0.56551974       0.72007428       0.87572009 </v>
   <v>       0.18864523       0.45910771       0.47779342 </v>
   <v>       0.93643417       0.27957055       0.12454755 </v>
   <v>       0.31145822       0.04180577       0.38840262 </v>
   <v>       0.06285227       0.04089806       0.65574699 </v>
   <v>       0.56103954       0.37521287       0.43303466 </v>
   <v>       0.68777199       0.46244241       0.74453675 </v>
   <v>       0.56354884       0.21355936       0.74443254 </v>
   <v>       0.94246216       0.12661081       0.70043534 </v>
   <v>       0.56305946       0.04119241       0.65579124 </v>
   <v>       0.56110543       0.54077636       0.52206170 </v>
   <v>       0.18261328       0.12329515       0.29955751 </v>
   <v>       0.43892381       0.11233295       0.16603583 </v>
   <v>       0.68234499       0.62344815       0.29971035 </v>
   <v>       0.93253005       0.12289554       0.29961926 </v>
   <v>       0.81388350       0.37471826       0.56683423 </v>
   <v>       0.05780865       0.87317960       0.29959160 </v>
   <v>       0.18884134       0.62471406       0.56689545 </v>
   <v>       0.94110848       0.79894828       0.78894117 </v>
   <v>       0.31130610       0.38673402       0.83418787 </v>
   <v>       0.93918674       0.47153919       0.87557160 </v>
   <v>       0.43664657       0.63709673       0.83414441 </v>
   <v>       0.06164843       0.20858575       0.34417398 </v>
   <v>       0.18885445       0.97107541       0.87550127 </v>
   <v>       0.93624340       0.77977870       0.12453631 </v>
   <v>       0.68632106       0.79187940       0.38841698 </v>
   <v>       0.93819173       0.79122638       0.65577426 </v>
   <v>       0.93879714       0.11399454       0.16618364 </v>
   <v>       0.43763874       0.29145001       0.65579177 </v>
   <v>       0.05803892       0.20114217       0.21111133 </v>
   <v>       0.68273192       0.95133477       0.21124598 </v>
   <v>       0.18255902       0.62339338       0.29967581 </v>
   <v>       0.81697087       0.87647377       0.70028850 </v>
   <v>       0.94232475       0.62660310       0.70041858 </v>
   <v>       0.19235712       0.12707144       0.70037695 </v>
   <v>       0.93915809       0.45876560       0.47783782 </v>
   <v>       0.81283540       0.20745381       0.61144753 </v>
   <v>       0.18687909       0.62530250       0.43302553 </v>
   <v>       0.43260450       0.12336950       0.29965937 </v>
   <v>       0.68248926       0.12280401       0.29959904 </v>
   <v>       0.56137664       0.54168726       0.38843546 </v>
   <v>       0.81192799       0.20836200       0.34429831 </v>
   <v>       0.43915604       0.47145719       0.87549156 </v>
   <v>       0.56115580       0.88649764       0.83424947 </v>
   <v>       0.31401268       0.20929947       0.47783631 </v>
   <v>       0.18852281       0.95898249       0.47776844 </v>
   <v>       0.06100182       0.88683276       0.83421980 </v>
   <v>       0.06113561       0.54054469       0.52198398 </v>
   <v>       0.93904260       0.95867359       0.47784439 </v>
   <v>       0.06348035       0.70801060       0.61142708 </v>
   <v>       0.56100679       0.04083901       0.52206398 </v>
   <v>       0.69184305       0.29877042       0.78880101 </v>
   <v>       0.81422923       0.36369176       0.16605767 </v>
   <v>       0.43560185       0.12491455       0.43300577 </v>
   <v>       0.06389770       0.20886252       0.47785098 </v>
   <v>       0.31296925       0.04136548       0.65574619 </v>
   <v>       0.43611350       0.79045031       0.52204078 </v>
   <v>       0.18664190       0.13680164       0.83411823 </v>
   <v>       0.18581174       0.27946743       0.12462013 </v>
   <v>       0.93682974       0.45834422       0.34407041 </v>
   <v>       0.56468229       0.86386464       0.16592074 </v>
   <v>       0.30751057       0.70055038       0.21117347 </v>
   <v>       0.93852662       0.61287318       0.16613523 </v>
   <v>       0.18898936       0.45788206       0.61143641 </v>
   <v>       0.06747411       0.87641489       0.70028981 </v>
   <v>       0.06296683       0.54157491       0.65591006 </v>
   <v>       0.31011245       0.53090368       0.12443933 </v>
   <v>       0.93631185       0.79214668       0.38842738 </v>
   <v>       0.94157924       0.29863257       0.78883109 </v>
   <v>       0.18772720       0.29156026       0.65584156 </v>
   <v>       0.93851208       0.95795492       0.61152369 </v>
   <v>       0.81348704       0.71284020       0.74462353 </v>
   <v>       0.68628913       0.28736920       0.25547515 </v>
   <v>       0.06397566       0.71294975       0.74450498 </v>
   <v>       0.68265799       0.45140710       0.21126795 </v>
   <v>       0.81386082       0.20883838       0.47782005 </v>
   <v>       0.56380683       0.70929666       0.47787357 </v>
   <v>       0.06404027       0.86388152       0.16606207 </v>
   <v>       0.93629738       0.29051455       0.52213575 </v>
   <v>       0.68758394       0.79128071       0.65584407 </v>
   <v>       0.06144100       0.87475317       0.43301357 </v>
   <v>       0.06562906       0.21940766       0.87580610 </v>
   <v>       0.81308540       0.04105332       0.65576096 </v>
   <v>       0.56007707       0.03026057       0.12439634 </v>
   <v>       0.31078179       0.37507991       0.43306307 </v>
   <v>       0.31412225       0.37443597       0.56673446 </v>
   <v>       0.31398491       0.70929265       0.47785601 </v>
   <v>       0.06117994       0.04065086       0.52203681 </v>
   <v>       0.31739394       0.87669543       0.70042978 </v>
   <v>       0.06173869       0.53679338       0.25551016 </v>
   <v>       0.68669742       0.13721058       0.83412774 </v>
   <v>       0.81133756       0.03681401       0.25561713 </v>
   <v>       0.18687567       0.12508740       0.43303815 </v>
   <v>       0.69225605       0.12643965       0.70034671 </v>
   <v>       0.18649646       0.29056765       0.52207329 </v>
   <v>       0.43657707       0.78746481       0.25554437 </v>
   <v>       0.43822768       0.61290635       0.16616006 </v>
   <v>       0.06347850       0.20767486       0.61141705 </v>
   <v>       0.18643321       0.79159470       0.38835378 </v>
   <v>       0.31145315       0.54087073       0.52207435 </v>
   <v>       0.81706416       0.37663484       0.70031969 </v>
   <v>       0.68640601       0.29196470       0.38838344 </v>
   <v>       0.18926018       0.12490538       0.56675192 </v>
   <v>       0.68893266       0.97167663       0.87551607 </v>
   <v>       0.68894598       0.12487978       0.56682851 </v>
   <v>       0.43673089       0.95843333       0.34417282 </v>
   <v>       0.18841062       0.96272673       0.74453993 </v>
   <v>       0.93668440       0.78750582       0.25549209 </v>
   <v>       0.56113323       0.87517048       0.43301143 </v>
   <v>       0.31073928       0.87517436       0.43308062 </v>
   <v>       0.81114556       0.54033209       0.52207465 </v>
   <v>       0.93278201       0.45139393       0.21128087 </v>
   <v>       0.31164461       0.53683798       0.25552959 </v>
   <v>       0.56133303       0.04163998       0.38840904 </v>
   <v>       0.31392781       0.36345106       0.16596852 </v>
   <v>       0.06144684       0.04197466       0.38838946 </v>
   <v>       0.06139103       0.54166544       0.38844353 </v>
   <v>       0.43650194       0.29181896       0.38841943 </v>
   <v>       0.68883485       0.45907019       0.47789816 </v>
   <v>       0.06427283       0.37472065       0.56682005 </v>
   <v>       0.55775669       0.70079583       0.21114193 </v>
   <v>       0.93668547       0.28717472       0.25557536 </v>
   <v>       0.81659888       0.04929574       0.78892131 </v>
   <v>       0.18697630       0.95833628       0.34415025 </v>
   <v>       0.55771117       0.87330902       0.29966969 </v>
   <v>       0.06136067       0.37477985       0.43299521 </v>
   <v>       0.31204039       0.70808871       0.34415076 </v>
   <v>       0.31176375       0.20796782       0.34417273 </v>
   <v>       0.93904726       0.12507393       0.56678297 </v>
   <v>       0.43812258       0.95797032       0.61148757 </v>
   <v>       0.56082801       0.03699765       0.25556035 </v>
   <v>       0.18678695       0.77908599       0.12433354 </v>
   <v>       0.06191955       0.03710836       0.25556706 </v>
   <v>       0.68932542       0.62450864       0.56688668 </v>
   <v>       0.06027275       0.52988147       0.12442466 </v>
   <v>       0.31121700       0.04105319       0.52205819 </v>
   <v>       0.68666144       0.27957201       0.12453883 </v>
   <v>       0.81379595       0.70916813       0.47783437 </v>
   <v>       0.43672571       0.13680026       0.83401062 </v>
   <v>       0.31748404       0.37631407       0.70035426 </v>
   <v>       0.68679891       0.63704918       0.83411261 </v>
   <v>       0.56334288       0.71268060       0.74448590 </v>
   <v>       0.93621682       0.29206063       0.38840616 </v>
   <v>       0.93925870       0.97129252       0.87552784 </v>
   <v>       0.56363139       0.20779065       0.61145263 </v>
   <v>       0.81412874       0.87492210       0.56688317 </v>
   <v>       0.80751765       0.87333384       0.29957468 </v>
   <v>       0.31124337       0.03676167       0.25561278 </v>
   <v>       0.43719996       0.27969435       0.12463532 </v>
   <v>       0.31322888       0.70835354       0.61148018 </v>
   <v>       0.43564601       0.62499829       0.43303129 </v>
   <v>       0.93580531       0.62531263       0.43309262 </v>
   <v>       0.31495696       0.86340190       0.16562286 </v>
   <v>       0.06716047       0.54947780       0.78879703 </v>
   <v>       0.93582243       0.12526436       0.43307966 </v>
   <v>       0.93825137       0.45796611       0.61152362 </v>
   <v>       0.93768049       0.96316907       0.74464099 </v>
   <v>       0.81183936       0.53661763       0.25539139 </v>
  </varray>
 </structure>
</modeling>
