unknown system                          
           1
     9.726678    0.000000    0.000000
     0.000000    8.423550    0.000000
     0.000000    0.000000   45.000000
   Fe   Mn
 281   7
Direct configuration=     1
   0.05410821  0.70112633  0.21121432
   0.31842983  0.72366611  0.87626715
   0.68829839  0.95871299  0.61154091
   0.43842916  0.45856073  0.61154833
   0.44080984  0.28722795  0.25510577
   0.05849514  0.38857777  0.83351964
   0.30851734  0.88757702  0.83351525
   0.44694715  0.62633869  0.70041341
   0.05990583  0.21280876  0.74490308
   0.17927467  0.45093336  0.21126725
   0.56778066  0.21070724  0.47746250
   0.06667785  0.87512230  0.56691344
   0.56824191  0.22385971  0.87613942
   0.80779910  0.52750929  0.12388149
   0.42915628  0.95147501  0.21138386
   0.56655023  0.37498874  0.56685669
   0.81112670  0.04194094  0.38826987
   0.68228338  0.78906350  0.52250333
   0.44285582  0.46086635  0.47746334
   0.43427839  0.96257963  0.74491121
   0.44158141  0.62507183  0.56685168
   0.57167604  0.87631047  0.70057257
   0.30945534  0.02647614  0.12399810
   0.68970745  0.95898643  0.34396252
   0.68740787  0.78216771  0.12425018
   0.05288048  0.37374849  0.29953894
   0.68986674  0.46779383  0.87607988
   0.42850618  0.45138608  0.21134332
   0.80877482  0.37533604  0.43305855
   0.56365332  0.70871326  0.61157354
   0.55950811  0.54052022  0.65583024
   0.81741919  0.86196180  0.16656968
   0.56547781  0.53771478  0.25515375
   0.68969761  0.45883337  0.34395798
   0.19238737  0.61220180  0.16650636
   0.19448374  0.79940592  0.78883795
   0.44718049  0.12619433  0.70036205
   0.92793337  0.62351283  0.29962518
   0.31752068  0.22357576  0.87614356
   0.31644927  0.87496312  0.56684787
   0.81756840  0.22394663  0.87622023
   0.80960824  0.54075655  0.65586203
   0.55861933  0.52701049  0.12400703
   0.56924227  0.04970572  0.78902660
   0.19053595  0.28714123  0.25524390
   0.80869307  0.87537564  0.43304424
   0.57231726  0.37595558  0.70045734
   0.05799788  0.02775565  0.12402451
   0.30965546  0.54060873  0.65589096
   0.56481797  0.20894817  0.34397463
   0.18819410  0.95817257  0.61131043
   0.30298080  0.37379206  0.29955979
   0.43478412  0.79072151  0.65598427
   0.19490259  0.29901630  0.78878841
   0.06684419  0.36235573  0.16655335
   0.69659086  0.62609996  0.70055529
   0.31126742  0.54122527  0.38842509
   0.06762105  0.72341570  0.87620346
   0.93370848  0.63764741  0.83393940
   0.31968024  0.54980076  0.78894496
   0.30476716  0.20063507  0.21114161
   0.06791394  0.71060631  0.47739449
   0.55444109  0.20078075  0.21115796
   0.30965034  0.21223482  0.74491023
   0.07187711  0.37660627  0.70060640
   0.18331521  0.63757176  0.83359540
   0.06939287  0.04949745  0.78904065
   0.44166902  0.12496538  0.56691528
   0.93473192  0.29071046  0.65582223
   0.80444306  0.20110724  0.21121980
   0.92920731  0.95156222  0.21123046
   0.94161867  0.62500050  0.56680467
   0.80843110  0.38754711  0.83352959
   0.19717735  0.62602525  0.70040096
   0.80858648  0.88768088  0.83355214
   0.68505386  0.29076478  0.65607588
   0.31303864  0.20793106  0.61142596
   0.43458812  0.46275544  0.74488964
   0.43612503  0.79113904  0.38839741
   0.68464447  0.96267711  0.74484463
   0.80361596  0.70088471  0.21133516
   0.81386881  0.70820778  0.61160544
   0.43610046  0.78326697  0.12401018
   0.30975350  0.71194252  0.74475059
   0.31996352  0.04954830  0.78887663
   0.81119670  0.54192162  0.38831851
   0.68208144  0.28872805  0.52230470
   0.69509098  0.79933683  0.78889083
   0.19071675  0.78753159  0.25526050
   0.69166663  0.11238970  0.16665721
   0.69256541  0.96070887  0.47737649
   0.94018248  0.95915352  0.34405474
   0.80731082  0.03913187  0.52251259
   0.68369607  0.62476600  0.43299612
   0.43995283  0.45888424  0.34405700
   0.81046582  0.21153104  0.74464363
   0.43959072  0.96787452  0.87608853
   0.56657656  0.87500099  0.56677016
   0.80917389  0.02808225  0.12400857
   0.42838424  0.62335713  0.29942946
   0.81701074  0.72391359  0.87634755
   0.68831801  0.45837331  0.61154277
   0.55836403  0.38761804  0.83347784
   0.80300139  0.37342267  0.29950501
   0.18606766  0.29119772  0.38835758
   0.81992369  0.54951413  0.78893198
   0.18226490  0.78935889  0.52254106
   0.30274840  0.87383827  0.29961711
   0.17861010  0.95157273  0.21134747
   0.18440899  0.46251849  0.74491596
   0.43253277  0.28858654  0.52230420
   0.06500315  0.70838078  0.34389648
   0.18507532  0.79059347  0.65590623
   0.44457218  0.79918320  0.78889014
   0.68387084  0.12484305  0.43289792
   0.93192297  0.78873499  0.52243137
   0.69202863  0.61209516  0.16654096
   0.81475550  0.70865440  0.34389904
   0.93424256  0.46271696  0.74495097
   0.18999283  0.45897795  0.34402221
   0.56984501  0.54964314  0.78907469
   0.56704176  0.36201422  0.16654453
   0.56510826  0.70894800  0.34400678
   0.55294269  0.37378286  0.29957231
   0.18954291  0.46794806  0.87609095
   0.19141599  0.11154721  0.16648512
   0.44460366  0.29892428  0.78883965
   0.69114346  0.78727747  0.25539916
   0.93377954  0.13790070  0.83358695
   0.44272276  0.96060124  0.47741896
   0.56747807  0.72471943  0.87622522
   0.19279743  0.46077123  0.47744747
   0.93548220  0.28229708  0.12418853
   0.31143545  0.04144299  0.38842711
   0.06016535  0.04054983  0.65609670
   0.55861866  0.37501670  0.43306334
   0.68380007  0.46278719  0.74503590
   0.55996188  0.21234641  0.74488118
   0.94720507  0.12570833  0.70049264
   0.55967522  0.04061286  0.65583825
   0.55731318  0.53920772  0.52247599
   0.17799493  0.12372805  0.29955641
   0.44167891  0.11143132  0.16648970
   0.67777775  0.62365265  0.29957844
   0.92803496  0.12349538  0.29960491
   0.81667157  0.37511563  0.56690485
   0.05300468  0.87375974  0.29956773
   0.19163425  0.62483054  0.56686431
   0.94462526  0.79974495  0.78889084
   0.30841463  0.38754182  0.83354738
   0.93965559  0.46833888  0.87612863
   0.43359770  0.63778824  0.83352214
   0.06459094  0.20854066  0.34375296
   0.18974085  0.96798236  0.87612503
   0.93568603  0.78253413  0.12421304
   0.68659616  0.79149148  0.38840668
   0.93476120  0.79062648  0.65587865
   0.94165160  0.11215211  0.16651515
   0.43513535  0.29091363  0.65609180
   0.05438506  0.20073030  0.21120575
   0.67883300  0.95143234  0.21126411
   0.17843812  0.62357699  0.29940299
   0.82193746  0.87585041  0.70057130
   0.94678028  0.62636592  0.70052217
   0.19668547  0.12586417  0.70038995
   0.94254841  0.46049950  0.47720927
   0.81363414  0.20851205  0.61157773
   0.18346594  0.62484238  0.43311589
   0.42812386  0.12375718  0.29943954
   0.67802606  0.12371655  0.29945791
   0.56143782  0.54153616  0.38847457
   0.81437442  0.20801361  0.34387978
   0.43952409  0.46751589  0.87592168
   0.55854165  0.88759980  0.83348578
   0.31768535  0.21061961  0.47730320
   0.19273690  0.96075745  0.47746872
   0.05855627  0.88773751  0.83349262
   0.05735605  0.53907316  0.52249007
   0.94267978  0.96048475  0.47727593
   0.06310314  0.70828621  0.61162989
   0.55752818  0.03889863  0.52238725
   0.69521566  0.29895673  0.78877229
   0.81663167  0.36242538  0.16666492
   0.43384255  0.12486417  0.43294312
   0.06797694  0.21068380  0.47743615
   0.30983450  0.04064045  0.65597476
   0.43221104  0.78936283  0.52243396
   0.18370994  0.13782088  0.83359640
   0.18561665  0.28308044  0.12425352
   0.93985223  0.45958532  0.34408067
   0.56665656  0.86255140  0.16647183
   0.30383840  0.70088079  0.21125198
   0.94129272  0.61211011  0.16647499
   0.18791155  0.45834234  0.61145938
   0.07231407  0.87653801  0.70040152
   0.05983405  0.54054776  0.65589316
   0.30720614  0.52703331  0.12388192
   0.93658573  0.79132445  0.38845429
   0.94481409  0.29873869  0.78877957
   0.18472444  0.29060325  0.65592638
   0.93808503  0.95818388  0.61149697
   0.81003194  0.71230104  0.74480024
   0.69094606  0.28748990  0.25528182
   0.05911575  0.71243404  0.74499189
   0.67900010  0.45134979  0.21128817
   0.81784934  0.21066138  0.47747997
   0.56769826  0.71053668  0.47745355
   0.06738411  0.86259824  0.16658068
   0.93235829  0.28876129  0.52243747
   0.68463172  0.79032245  0.65592507
   0.05846251  0.87496951  0.43290782
   0.06816917  0.22333673  0.87615747
   0.80957464  0.04032517  0.65591325
   0.55962654  0.02785414  0.12390257
   0.30885225  0.37515857  0.43289328
   0.31668032  0.37509311  0.56687717
   0.31756147  0.71043406  0.47725987
   0.05740190  0.03919364  0.52243610
   0.32191587  0.87640785  0.70054859
   0.06533536  0.53778869  0.25510196
   0.68348949  0.13776600  0.83351485
   0.81541790  0.03754825  0.25505961
   0.18342415  0.12498889  0.43310298
   0.69726292  0.12629986  0.70041116
   0.18269895  0.28935099  0.52240745
   0.44036907  0.78742193  0.25519039
   0.44133252  0.61203380  0.16651880
   0.06332426  0.20882264  0.61152894
   0.18613136  0.79125758  0.38829490
   0.30701538  0.53891234  0.52242551
   0.82210002  0.37643265  0.70036324
   0.68645112  0.29119081  0.38840979
   0.19168632  0.12480212  0.56684069
   0.68970008  0.96829108  0.87609648
   0.69153281  0.12486067  0.56690009
   0.43995199  0.95883394  0.34401803
   0.18425247  0.96268520  0.74482498
   0.94044448  0.78742565  0.25512383
   0.55876887  0.87520514  0.43301220
   0.30876306  0.87502264  0.43297400
   0.80729769  0.53919220  0.52253235
   0.92884339  0.45143526  0.21131698
   0.31541466  0.53784410  0.25520849
   0.56128919  0.04168656  0.38844877
   0.31693733  0.36209964  0.16660020
   0.06136007  0.04147600  0.38844200
   0.06153466  0.54169471  0.38838689
   0.43619876  0.29108721  0.38837666
   0.69269865  0.46077105  0.47731482
   0.06666452  0.37517045  0.56681935
   0.55400079  0.70098325  0.21114722
   0.94069766  0.28749499  0.25522218
   0.81923579  0.04963657  0.78907603
   0.18980665  0.95889950  0.34394557
   0.55294044  0.87378538  0.29962255
   0.05857693  0.37497960  0.43291423
   0.31481287  0.70886934  0.34393003
   0.31460172  0.20884831  0.34389204
   0.94155148  0.12515067  0.56680454
   0.43840921  0.95868332  0.61155076
   0.56510019  0.03754080  0.25511647
   0.18663751  0.78249464  0.12422364
   0.06546101  0.03752594  0.25514582
   0.69152349  0.62495372  0.56688507
   0.05729547  0.52651188  0.12404039
   0.30722310  0.03849409  0.52225717
   0.68602768  0.28260536  0.12417987
   0.81773016  0.71057418  0.47742911
   0.43354158  0.13762441  0.83351321
   0.32229488  0.37634084  0.70043377
   0.68377739  0.63783732  0.83350775
   0.55983531  0.71194268  0.74485054
   0.93648213  0.29145336  0.38853254
   0.93972208  0.96836035  0.87612497
   0.56288296  0.20792818  0.61131076
   0.81665200  0.87509194  0.56689807
   0.80310191  0.87352924  0.29946740
   0.31555945  0.03749073  0.25518311
   0.43662047  0.28311522  0.12423445
   0.31345099  0.70868377  0.61157731
   0.43369041  0.62522402  0.43301492
   0.93304429  0.62480234  0.43315390
   0.31826420  0.86243261  0.16579040
   0.07063302  0.54924985  0.78882580
   0.93338756  0.12463828  0.43302968
   0.93840228  0.45699786  0.61168821
   0.93360132  0.96260364  0.74454566
   0.81610165  0.53825062  0.25540321
Direct configuration=     2
   0.05463432  0.70109682  0.21118562
   0.31808710  0.72320372  0.87619554
   0.68823394  0.95857316  0.61152254
   0.43841675  0.45846693  0.61153527
   0.44023290  0.28718156  0.25516338
   0.05884546  0.38830319  0.83361143
   0.30890349  0.88746090  0.83361988
   0.44627285  0.62634390  0.70040859
   0.06045521  0.21288077  0.74485674
   0.17974173  0.45096681  0.21125028
   0.56723784  0.21047585  0.47751759
   0.06629577  0.87508941  0.56690631
   0.56788382  0.22327877  0.87607761
   0.80811823  0.52790800  0.12395404
   0.42971473  0.95143533  0.21135631
   0.56622348  0.37490834  0.56683788
   0.81121145  0.04195936  0.38828607
   0.68281252  0.78930058  0.52244783
   0.44227405  0.46062147  0.47751306
   0.43479731  0.96261513  0.74484438
   0.44123201  0.62499919  0.56685032
   0.57105319  0.87633920  0.70054080
   0.30963815  0.02706562  0.12401530
   0.68925058  0.95882298  0.34397056
   0.68742824  0.78184714  0.12429676
   0.05354119  0.37369249  0.29954614
   0.68972541  0.46830442  0.87599380
   0.42913134  0.45135374  0.21131523
   0.80906809  0.37533077  0.43304991
   0.56360148  0.70865678  0.61156681
   0.55999052  0.54064378  0.65582513
   0.81700754  0.86220011  0.16648065
   0.56484895  0.53761174  0.25520814
   0.68926058  0.45872005  0.34397960
   0.19189319  0.61233725  0.16644800
   0.19408929  0.79937154  0.78882337
   0.44649699  0.12620144  0.70037240
   0.92865689  0.62347883  0.29963778
   0.31721309  0.22304235  0.87608237
   0.31610947  0.87491523  0.56683560
   0.81725241  0.22338613  0.87614679
   0.81005232  0.54087137  0.65586022
   0.55882234  0.52741174  0.12407224
   0.56890950  0.04967551  0.78901696
   0.18997218  0.28709600  0.25527960
   0.80899676  0.87535125  0.43304448
   0.57157615  0.37604335  0.70045648
   0.05842750  0.02808299  0.12407869
   0.31014473  0.54072041  0.65587766
   0.56438542  0.20883192  0.34399968
   0.18828574  0.95812614  0.61133570
   0.30363274  0.37376407  0.29956611
   0.43523134  0.79083475  0.65596214
   0.19444930  0.29893698  0.78880215
   0.06642451  0.36249620  0.16647262
   0.69593707  0.62618720  0.70054207
   0.31132886  0.54129779  0.38842549
   0.06731083  0.72291647  0.87615794
   0.93408924  0.63754344  0.83398419
   0.31934857  0.54977746  0.78894475
   0.30514700  0.20066466  0.21113320
   0.06734678  0.71038111  0.47746370
   0.55489846  0.20083125  0.21114740
   0.31024812  0.21241165  0.74484114
   0.07122540  0.37662027  0.70057551
   0.18373643  0.63746509  0.83366248
   0.06902967  0.04948050  0.78902666
   0.44129896  0.12492666  0.56689700
   0.93519749  0.29082244  0.65581442
   0.80489959  0.20116164  0.21120429
   0.92970825  0.95151604  0.21123073
   0.94126010  0.62499747  0.56679584
   0.80877525  0.38742634  0.83362441
   0.19646079  0.62614410  0.70039507
   0.80894379  0.88753284  0.83365716
   0.68551691  0.29087221  0.65603358
   0.31310895  0.20791821  0.61143620
   0.43510161  0.46272249  0.74482592
   0.43620707  0.79120799  0.38839603
   0.68507654  0.96269386  0.74480392
   0.80417099  0.70092764  0.21130387
   0.81376527  0.70814084  0.61157897
   0.43619487  0.78271953  0.12403522
   0.31022187  0.71207979  0.74470367
   0.31957208  0.04952519  0.78889588
   0.81124669  0.54191271  0.38833745
   0.68266451  0.28905440  0.52227810
   0.69463976  0.79933806  0.78889057
   0.19012208  0.78757638  0.25530251
   0.69126220  0.11260890  0.16659045
   0.69204551  0.96049063  0.47744677
   0.93971640  0.95903638  0.34406081
   0.80786536  0.03934276  0.52245278
   0.68388900  0.62483364  0.43300337
   0.43950133  0.45882641  0.34407167
   0.81084738  0.21180725  0.74462522
   0.43951178  0.96838890  0.87600637
   0.56623063  0.87493099  0.56677080
   0.80936548  0.02834602  0.12408243
   0.42895595  0.62338598  0.29946592
   0.81675056  0.72341948  0.87627749
   0.68822272  0.45830491  0.61152497
   0.55876428  0.38750342  0.83356468
   0.80365777  0.37338748  0.29952391
   0.18611921  0.29126328  0.38836092
   0.81943708  0.54952137  0.78895575
   0.18283398  0.78953679  0.52248860
   0.30346505  0.87378091  0.29962468
   0.17915983  0.95157732  0.21133909
   0.18500955  0.46258708  0.74485912
   0.43302877  0.28892461  0.52227033
   0.06459485  0.70841911  0.34394345
   0.18553131  0.79067857  0.65588087
   0.44417675  0.79923043  0.78888301
   0.68403970  0.12488344  0.43292454
   0.93255162  0.78899929  0.52238409
   0.69152528  0.61219662  0.16648026
   0.81432419  0.70863507  0.34394144
   0.93483285  0.46272949  0.74488343
   0.18953937  0.45886632  0.34403342
   0.56947250  0.54961093  0.78906321
   0.56672536  0.36225075  0.16645677
   0.56458449  0.70885569  0.34404572
   0.55366377  0.37373133  0.29957441
   0.18944128  0.46843181  0.87601772
   0.19100399  0.11169827  0.16644259
   0.44418527  0.29892155  0.78883673
   0.69041387  0.78727408  0.25541604
   0.93420930  0.13772283  0.83366413
   0.44217427  0.96038955  0.47746866
   0.56719956  0.72405880  0.87615338
   0.19220692  0.46053464  0.47749667
   0.93561759  0.28190932  0.12423959
   0.31143869  0.04149458  0.38842363
   0.06054748  0.04059936  0.65604696
   0.55896296  0.37504460  0.43305926
   0.68436495  0.46273815  0.74496491
   0.56047201  0.21251891  0.74481737
   0.94653054  0.12583668  0.70048449
   0.56015652  0.04069528  0.65583156
   0.55785251  0.53943081  0.52241707
   0.17865174  0.12366648  0.29955657
   0.44128709  0.11155955  0.16642515
   0.67842730  0.62362357  0.29959720
   0.92867425  0.12341008  0.29960695
   0.81627505  0.37505911  0.56689481
   0.05368790  0.87367723  0.29957112
   0.19123705  0.62481398  0.56686874
   0.94412511  0.79963164  0.78889800
   0.30882585  0.38742694  0.83363847
   0.93958891  0.46879402  0.87604941
   0.43403131  0.63768989  0.83361064
   0.06417246  0.20854707  0.34381284
   0.18961479  0.96842225  0.87603632
   0.93576530  0.78214225  0.12425901
   0.68655703  0.79154665  0.38840815
   0.93524908  0.79071179  0.65586380
   0.94124565  0.11241414  0.16646801
   0.43549138  0.29098991  0.65604913
   0.05490471  0.20078887  0.21119232
   0.67938750  0.95141847  0.21126153
   0.17902419  0.62355088  0.29944179
   0.82123112  0.87593906  0.70053108
   0.94614662  0.62639965  0.70050743
   0.19606990  0.12603587  0.70038810
   0.94206624  0.46025291  0.47729866
   0.81352054  0.20836155  0.61155921
   0.18395135  0.62490782  0.43310304
   0.42876109  0.12370204  0.29947080
   0.67866081  0.12358677  0.29947798
   0.56142912  0.54155765  0.38846901
   0.81402649  0.20806316  0.34393930
   0.43947174  0.46807642  0.87586051
   0.55891343  0.88744305  0.83359439
   0.31716303  0.21043186  0.47737902
   0.19213758  0.96050502  0.47751135
   0.05890407  0.88760884  0.83359604
   0.05789357  0.53928244  0.52241809
   0.94216251  0.96022717  0.47735677
   0.06315679  0.70824702  0.61160105
   0.55802290  0.03917459  0.52234127
   0.69473602  0.29893023  0.78877638
   0.81629000  0.36260548  0.16657856
   0.43409276  0.12487134  0.43295203
   0.06739680  0.21042478  0.47749515
   0.31028032  0.04074357  0.65594225
   0.43276604  0.78951749  0.52237805
   0.18412692  0.13767593  0.83367062
   0.18564440  0.28256660  0.12430566
   0.93942238  0.45940881  0.34407921
   0.56637578  0.86273816  0.16639345
   0.30436065  0.70083380  0.21124082
   0.94089933  0.61221863  0.16642667
   0.18806484  0.45827688  0.61145611
   0.07162574  0.87652050  0.70038563
   0.06027959  0.54069384  0.65589556
   0.30761947  0.52758374  0.12396119
   0.93654678  0.79144138  0.38845046
   0.94435403  0.29872360  0.78878689
   0.18515148  0.29073935  0.65591432
   0.93814577  0.95815132  0.61150077
   0.81052332  0.71237772  0.74477511
   0.69028375  0.28747273  0.25530931
   0.05980692  0.71250738  0.74492264
   0.67952032  0.45135794  0.21128529
   0.81728210  0.21040212  0.47752833
   0.56714483  0.71036033  0.47751328
   0.06690855  0.86278075  0.16650692
   0.93291850  0.28901064  0.52239456
   0.68505158  0.79045873  0.65591355
   0.05888611  0.87493874  0.43292286
   0.06780792  0.22277795  0.87610750
   0.81007393  0.04042872  0.65589159
   0.55969061  0.02819637  0.12397279
   0.30912667  0.37514738  0.43291743
   0.31631652  0.37499965  0.56685687
   0.31705282  0.71027173  0.47734465
   0.05793920  0.03940088  0.52237932
   0.32127277  0.87644875  0.70053169
   0.06482384  0.53764714  0.25516002
   0.68394572  0.13768701  0.83360201
   0.81483760  0.03744383  0.25513890
   0.18391502  0.12500290  0.43309376
   0.69655085  0.12631974  0.70040200
   0.18323902  0.28952402  0.52235993
   0.43982978  0.78742803  0.25524073
   0.44089095  0.61215789  0.16646778
   0.06334620  0.20865940  0.61151302
   0.18617429  0.79130553  0.38830328
   0.30764651  0.53919086  0.52237557
   0.82138383  0.37646141  0.70035705
   0.68644471  0.29130087  0.38840604
   0.19134128  0.12481681  0.56682807
   0.68959094  0.96877257  0.87601393
   0.69116492  0.12486339  0.56688991
   0.43949389  0.95877697  0.34404005
   0.18484383  0.96269110  0.74478444
   0.93990973  0.78743705  0.25517620
   0.55910513  0.87520021  0.43301209
   0.30904412  0.87504422  0.43298916
   0.80784492  0.53935432  0.52246726
   0.92940354  0.45142939  0.21131184
   0.31487849  0.53770101  0.25525415
   0.56129543  0.04167993  0.38844312
   0.31650932  0.36229184  0.16651036
   0.06137241  0.04154692  0.38843453
   0.06151423  0.54169055  0.38839494
   0.43624187  0.29119127  0.38838274
   0.69214915  0.46052916  0.47739778
   0.06632438  0.37510648  0.56681945
   0.55453494  0.70095659  0.21114646
   0.94012705  0.28744944  0.25527241
   0.81886078  0.04958810  0.78905402
   0.18940412  0.95881940  0.34397468
   0.55361893  0.87371764  0.29962925
   0.05897283  0.37495119  0.43292575
   0.31441858  0.70875832  0.34396142
   0.31419811  0.20872309  0.34393196
   0.94119533  0.12513975  0.56680148
   0.43836845  0.95858192  0.61154177
   0.56449261  0.03746355  0.25517960
   0.18665876  0.78200986  0.12423927
   0.06495735  0.03746656  0.25520573
   0.69121088  0.62489042  0.56688530
   0.05771889  0.52699110  0.12409504
   0.30779110  0.03885804  0.52222887
   0.68611781  0.28217396  0.12423092
   0.81717064  0.71037421  0.47748675
   0.43399442  0.13750720  0.83358395
   0.32161069  0.37633703  0.70042246
   0.68420710  0.63772524  0.83359377
   0.56033415  0.71204762  0.74479868
   0.93644440  0.29153972  0.38851456
   0.93965618  0.96877736  0.87604004
   0.56298940  0.20790862  0.61133093
   0.81629314  0.87506778  0.56689595
   0.80372991  0.87350145  0.29948265
   0.31494563  0.03738705  0.25524421
   0.43670288  0.28262871  0.12429146
   0.31341940  0.70863680  0.61156350
   0.43396853  0.62519191  0.43301725
   0.93343696  0.62487491  0.43314518
   0.31779385  0.86257046  0.16576658
   0.07013916  0.54928226  0.78882171
   0.93373385  0.12472732  0.43303678
   0.93838082  0.45713557  0.61166481
   0.93418146  0.96268406  0.74455922
   0.81549548  0.53801838  0.25540153
Direct configuration=     3
   0.05621266  0.70100829  0.21109953
   0.31705892  0.72181656  0.87598070
   0.68804058  0.95815368  0.61146744
   0.43837952  0.45818551  0.61149608
   0.43850209  0.28704238  0.25533622
   0.05989641  0.38747947  0.83388681
   0.31006192  0.88711254  0.83393376
   0.44424996  0.62635955  0.70039412
   0.06210336  0.21309679  0.74471771
   0.18114291  0.45106714  0.21119938
   0.56560937  0.20978168  0.47768286
   0.06514955  0.87499076  0.56688490
   0.56680954  0.22153596  0.87589217
   0.80907563  0.52910415  0.12417171
   0.43139010  0.95131631  0.21127366
   0.56524323  0.37466713  0.56678145
   0.81146568  0.04201462  0.38833470
   0.68439994  0.79001184  0.52228133
   0.44052874  0.45988686  0.47766225
   0.43635407  0.96272161  0.74464390
   0.44018382  0.62478128  0.56684621
   0.56918463  0.87642540  0.70044548
   0.31018661  0.02883405  0.12406691
   0.68787997  0.95833263  0.34399469
   0.68748935  0.78088544  0.12443650
   0.05552330  0.37352450  0.29956776
   0.68930139  0.46983620  0.87573556
   0.43100684  0.45125674  0.21123095
   0.80994790  0.37531495  0.43302398
   0.56344595  0.70848736  0.61154664
   0.56143776  0.54101446  0.65580982
   0.81577261  0.86291505  0.16621357
   0.56296237  0.53730263  0.25537130
   0.68794950  0.45838008  0.34404447
   0.19041064  0.61274357  0.16627291
   0.19290593  0.79926837  0.78877964
   0.44444649  0.12622277  0.70040347
   0.93082744  0.62337684  0.29967559
   0.31629030  0.22144213  0.87589881
   0.31509006  0.87477154  0.56679878
   0.81630443  0.22170461  0.87592646
   0.81138457  0.54121583  0.65585478
   0.55943137  0.52861551  0.12426789
   0.56791119  0.04958490  0.78898803
   0.18828090  0.28696033  0.25538669
   0.80990782  0.87527809  0.43304520
   0.56935282  0.37630668  0.70045389
   0.05971634  0.02906502  0.12424122
   0.31161255  0.54105542  0.65583776
   0.56308779  0.20848314  0.34407483
   0.18856067  0.95798685  0.61141153
   0.30558857  0.37368009  0.29958505
   0.43657298  0.79117444  0.65589577
   0.19308941  0.29869900  0.78884337
   0.06516550  0.36291763  0.16623043
   0.69397570  0.62644892  0.70050242
   0.31151319  0.54151534  0.38842667
   0.06638017  0.72141877  0.87602139
   0.93523153  0.63723153  0.83411856
   0.31835353  0.54970757  0.78894413
   0.30628651  0.20075345  0.21110798
   0.06564528  0.70970550  0.47767135
   0.55627057  0.20098274  0.21111569
   0.31204145  0.21294213  0.74463387
   0.06927026  0.37666227  0.70048287
   0.18500008  0.63714509  0.83386373
   0.06794008  0.04942966  0.78898472
   0.44018877  0.12481051  0.56684217
   0.93659419  0.29115838  0.65579101
   0.80626917  0.20132485  0.21115775
   0.93121107  0.95137751  0.21123152
   0.94018441  0.62498839  0.56676936
   0.80980771  0.38706401  0.83390887
   0.19431112  0.62650064  0.70037740
   0.81001571  0.88708872  0.83397221
   0.68690608  0.29119450  0.65590670
   0.31331986  0.20787967  0.61146692
   0.43664208  0.46262361  0.74463477
   0.43645317  0.79141483  0.38839189
   0.68637275  0.96274409  0.74468181
   0.80583609  0.70105646  0.21120998
   0.81345464  0.70794000  0.61149956
   0.43647812  0.78107723  0.12411035
   0.31162696  0.71249159  0.74456290
   0.31839777  0.04945585  0.78895364
   0.81139665  0.54188600  0.38839427
   0.68441373  0.29003346  0.52219829
   0.69328608  0.79934174  0.78888979
   0.18833808  0.78771074  0.25542853
   0.69004891  0.11326647  0.16639016
   0.69048581  0.95983589  0.47765762
   0.93831816  0.95868498  0.34407904
   0.80952899  0.03997546  0.52227332
   0.68446778  0.62503659  0.43302511
   0.43814684  0.45865290  0.34411566
   0.81199205  0.21263588  0.74456998
   0.43927497  0.96993202  0.87575990
   0.56519284  0.87472098  0.56677274
   0.80994028  0.02913733  0.12430399
   0.43067106  0.62347254  0.29957532
   0.81597001  0.72193714  0.87606730
   0.68793686  0.45809970  0.61147155
   0.55996503  0.38715956  0.83382517
   0.80562694  0.37328193  0.29958062
   0.18627386  0.29145996  0.38837094
   0.81797726  0.54954310  0.78902709
   0.18454121  0.79007049  0.52233122
   0.30561501  0.87360885  0.29964739
   0.18080901  0.95159107  0.21131394
   0.18681122  0.46279286  0.74468860
   0.43451675  0.28993880  0.52216870
   0.06336997  0.70853409  0.34408435
   0.18689929  0.79093384  0.65580478
   0.44299049  0.79937214  0.78886164
   0.68454627  0.12500459  0.43300441
   0.93443758  0.78979219  0.52224222
   0.69001522  0.61250097  0.16629817
   0.81303025  0.70857707  0.34406866
   0.93660373  0.46276707  0.74468078
   0.18817901  0.45853144  0.34406704
   0.56835497  0.54951430  0.78902876
   0.56577616  0.36296035  0.16619349
   0.56301321  0.70857876  0.34416252
   0.55582702  0.37357673  0.29958071
   0.18913639  0.46988305  0.87579805
   0.18976799  0.11215146  0.16631501
   0.44293011  0.29891334  0.78882796
   0.68822513  0.78726394  0.25546667
   0.93549857  0.13718924  0.83389568
   0.44052880  0.95975450  0.47761777
   0.56636403  0.72207693  0.87593787
   0.19043536  0.45982490  0.47764427
   0.93602375  0.28074603  0.12439277
   0.31144840  0.04164936  0.38841318
   0.06169386  0.04074793  0.65589776
   0.55999583  0.37512830  0.43304702
   0.68605959  0.46259105  0.74475195
   0.56200240  0.21303643  0.74462596
   0.94450696  0.12622173  0.70046004
   0.56160043  0.04094255  0.65581151
   0.55947049  0.54010008  0.52224031
   0.18062218  0.12348178  0.29955704
   0.44011161  0.11194423  0.16623150
   0.68037593  0.62353632  0.29965348
   0.93059210  0.12315415  0.29961307
   0.81508551  0.37488958  0.56686468
   0.05573753  0.87342971  0.29958131
   0.19004544  0.62476428  0.56688203
   0.94262466  0.79929174  0.78891947
   0.31005951  0.38708229  0.83391174
   0.93938887  0.47015945  0.87581175
   0.43533212  0.63739486  0.83387613
   0.06291702  0.20856631  0.34399247
   0.18923660  0.96974191  0.87577019
   0.93600311  0.78096664  0.12439694
   0.68643966  0.79171216  0.38841254
   0.93671274  0.79096775  0.65581926
   0.94002778  0.11320022  0.16632657
   0.43655946  0.29121876  0.65592112
   0.05646364  0.20096460  0.21115204
   0.68105099  0.95137684  0.21125380
   0.18078239  0.62347254  0.29955819
   0.81911210  0.87620502  0.70041042
   0.94424565  0.62650084  0.70046324
   0.19422319  0.12655095  0.70038255
   0.94061975  0.45951313  0.47756684
   0.81317976  0.20791004  0.61150366
   0.18540759  0.62510413  0.43306449
   0.43067277  0.12353664  0.29956459
   0.68056506  0.12319743  0.29953820
   0.56140302  0.54162212  0.38845232
   0.81298271  0.20821180  0.34411787
   0.43931471  0.46975799  0.87567699
   0.56002877  0.88697281  0.83392023
   0.31559607  0.20986862  0.47760647
   0.19033962  0.95974772  0.47763922
   0.05994748  0.88722282  0.83390629
   0.05950614  0.53991027  0.52220217
   0.94061069  0.95945443  0.47759931
   0.06331773  0.70812942  0.61151452
   0.55950707  0.04000246  0.52220335
   0.69329707  0.29885074  0.78878863
   0.81526498  0.36314579  0.16631947
   0.43484337  0.12489283  0.43297876
   0.06565637  0.20964772  0.47767214
   0.31161778  0.04105290  0.65584473
   0.43443105  0.78998147  0.52221029
   0.18537785  0.13724106  0.83389326
   0.18572764  0.28102509  0.12446208
   0.93813281  0.45887929  0.34407483
   0.56553345  0.86329846  0.16615833
   0.30592740  0.70069283  0.21120732
   0.93971916  0.61254420  0.16628171
   0.18852469  0.45808050  0.61144631
   0.06956075  0.87646797  0.70033797
   0.06161620  0.54113208  0.65590277
   0.30885946  0.52923506  0.12419901
   0.93642993  0.79179219  0.38843898
   0.94297387  0.29867832  0.78880888
   0.18643263  0.29114767  0.65587813
   0.93832797  0.95805363  0.61151217
   0.81199746  0.71260775  0.74469972
   0.68829685  0.28742124  0.25539180
   0.06188042  0.71272741  0.74471490
   0.68108097  0.45138239  0.21127667
   0.81558038  0.20962433  0.47767343