unknown system                          
           1
     9.726678    0.000000    0.000000
     0.000000    8.423550    0.000000
     0.000000    0.000000   45.000000
   Fe   Mn
 274  14
Direct configuration=     1
   0.06206632  0.03061470  0.12414470
   0.31631855  0.87456666  0.65510544
   0.18385229  0.12307420  0.78863138
   0.44165867  0.28756330  0.38910048
   0.31802738  0.71364168  0.83315558
   0.81792732  0.21482102  0.83359334
   0.19144728  0.96307178  0.83357242
   0.56204267  0.20712797  0.56553210
   0.06544478  0.04040737  0.74419794
   0.81162404  0.87145327  0.52136524
   0.19053536  0.29107348  0.74434581
   0.93361042  0.45244164  0.34486805
   0.94092216  0.28633883  0.38892239
   0.81264644  0.04058636  0.87578643
   0.18368758  0.78798422  0.61093294
   0.56654348  0.03758039  0.38905865
   0.94221694  0.96468285  0.83388444
   0.31331708  0.54050619  0.87605077
   0.69028435  0.29142290  0.74423527
   0.18220954  0.61413937  0.16647716
   0.81226012  0.20584599  0.47868180
   0.80900761  0.53844138  0.61105442
   0.31195615  0.87090730  0.43443542
   0.56312703  0.53103322  0.12418026
   0.68318694  0.95222016  0.34475507
   0.93051284  0.11538757  0.16676006
   0.06189362  0.87163831  0.52141594
   0.55806521  0.53807739  0.25552681
   0.68463150  0.79739883  0.87590437
   0.55780420  0.36445800  0.16662466
   0.43959406  0.79201023  0.74444604
   0.81133345  0.70653367  0.56548880
   0.55919387  0.87334639  0.78859472
   0.68670938  0.12188905  0.52140333
   0.81614501  0.37479178  0.65501741
   0.94204259  0.46420443  0.83372544
   0.06058190  0.20755297  0.69971668
   0.43545844  0.95766161  0.69972916
   0.31696681  0.21280258  0.83347359
   0.44117762  0.62481822  0.65499956
   0.30905614  0.53831906  0.61098076
   0.93651029  0.45646273  0.56559107
   0.69002963  0.79159625  0.74428213
   0.93468753  0.78792177  0.12439572
   0.69155618  0.78784953  0.38906669
   0.94035579  0.79094214  0.74450142
   0.05898495  0.20298876  0.34506150
   0.68371315  0.45238385  0.34504017
   0.43408197  0.12255559  0.78896016
   0.06523699  0.20310239  0.21118256
   0.05541895  0.36528777  0.16667331
   0.93360535  0.78778400  0.25556819
   0.56042773  0.20700435  0.69978623
   0.68512174  0.95710253  0.69979532
   0.80903109  0.87358012  0.78836661
   0.43683352  0.95717235  0.56538466
   0.80896859  0.37466631  0.78852004
   0.68423515  0.28771118  0.25591677
   0.18744260  0.45713595  0.56550594
   0.05691346  0.86447132  0.16659885
   0.18401013  0.28870729  0.61105838
   0.06222991  0.20723932  0.56539759
   0.31059682  0.20717326  0.69980673
   0.56249752  0.54073693  0.87597985
   0.06203661  0.70650850  0.56556879
   0.68330487  0.62250310  0.78858248
   0.31587547  0.53831979  0.38896532
   0.18683333  0.62172253  0.52144297
   0.56232085  0.87042032  0.43443393
   0.43664393  0.45685568  0.56554914
   0.43984655  0.29167631  0.74427012
   0.82086360  0.87322536  0.30022229
   0.80847569  0.70242353  0.34508864
   0.44231643  0.46273746  0.83337500
   0.68740756  0.95584755  0.47868209
   0.68483186  0.45761275  0.69979526
   0.56196624  0.87214419  0.52144373
   0.56609547  0.37436118  0.65500638
   0.81596852  0.87481575  0.65507154
   0.81164255  0.37128272  0.43424220
   0.80908065  0.53749712  0.25594124
   0.69197205  0.46206949  0.83331880
   0.18608020  0.78756140  0.12397748
   0.69131268  0.28732798  0.38908226
   0.31588568  0.37395995  0.65500108
   0.30870463  0.20264378  0.34469465
   0.81575960  0.54023342  0.74422115
   0.69167242  0.96226696  0.83351688
   0.56590137  0.87412001  0.65502586
   0.31130803  0.70715346  0.56551973
   0.31314035  0.53155204  0.12413078
   0.68942976  0.95512743  0.21131830
   0.31147135  0.20656307  0.56552464
   0.18746007  0.95581475  0.47871705
   0.68739914  0.95696534  0.56551715
   0.43394287  0.78829899  0.61100422
   0.68205839  0.61341160  0.16650147
   0.31884794  0.87345343  0.30014364
   0.31231910  0.70577078  0.47862120
   0.93369217  0.28787535  0.61090573
   0.44542418  0.62409399  0.30032656
   0.80702292  0.86341105  0.16676562
   0.56636070  0.20311155  0.21116742
   0.93213091  0.61312983  0.16667270
   0.43723373  0.95588183  0.47866606
   0.55920012  0.37313296  0.78867735
   0.06154159  0.37243795  0.52140603
   0.30691726  0.36342286  0.16673717
   0.69511887  0.12313025  0.30035938
   0.44291856  0.96313630  0.83331586
   0.18539632  0.28643484  0.12428441
   0.18436114  0.28896887  0.25595989
   0.31245922  0.37048174  0.43445764
   0.56308564  0.03229274  0.12431030
   0.43405118  0.28831582  0.61095892
   0.18373799  0.45249391  0.34490158
   0.43493643  0.28668410  0.12420861
   0.68427702  0.78848493  0.25590095
   0.43673281  0.12177654  0.52144807
   0.18861714  0.29658033  0.87612176
   0.19125585  0.12488638  0.65513859
   0.94115013  0.12477758  0.65497846
   0.81617851  0.53752696  0.38885887
   0.06653240  0.03818145  0.38914789
   0.18324044  0.11247614  0.16646145
   0.05868932  0.53812178  0.61099826
   0.93379034  0.28730412  0.25582277
   0.55885594  0.53832859  0.61100734
   0.93672690  0.95714343  0.56551555
   0.69541504  0.62357018  0.30021233
   0.93745931  0.62022663  0.43443140
   0.93345226  0.62419799  0.78838776
   0.56046188  0.70715653  0.69976472
   0.06609896  0.71656925  0.83392396
   0.94487312  0.12248449  0.30007396
   0.93359251  0.78759422  0.61091104
   0.43366524  0.78742696  0.25564096
   0.30913410  0.37381416  0.78876136
   0.43964667  0.45400159  0.21135293
   0.18685757  0.12192525  0.52138859
   0.81025641  0.70718881  0.69973850
   0.05874864  0.03791067  0.61089350
   0.56614125  0.21328937  0.83320089
   0.31173141  0.87190062  0.52141369
   0.68590730  0.28714918  0.12403018
   0.19053400  0.95505315  0.21175728
   0.68395370  0.28854330  0.61102956
   0.30905851  0.03828917  0.61103984
   0.93423087  0.12446889  0.78857657
   0.43650339  0.79746153  0.87615844
   0.81541694  0.04071534  0.74422231
   0.93519811  0.45806844  0.69966736
   0.19118544  0.62509673  0.65507676
   0.31030361  0.70692361  0.69975424
   0.93523825  0.28663369  0.12415022
   0.43751482  0.45606632  0.47853840
   0.06236156  0.70573845  0.47854824
   0.93684351  0.11953120  0.43461128
   0.44384505  0.12339430  0.30038096
   0.18701857  0.12040400  0.43423283
   0.56280871  0.04050591  0.87602297
   0.18698042  0.95712990  0.56551761
   0.68508216  0.78738220  0.12433851
   0.55898873  0.70201536  0.34488847
   0.31626836  0.03683020  0.38889620
   0.68228762  0.11373287  0.16675041
   0.81576640  0.20287150  0.21125829
   0.06027433  0.53780269  0.25569006
   0.56253097  0.70570499  0.47866727
   0.43488032  0.78589752  0.12416852
   0.56914269  0.37211848  0.30001214
   0.43353974  0.95265614  0.34493674
   0.18515311  0.95751291  0.69978924
   0.43002265  0.61582103  0.16654744
   0.94004997  0.45443511  0.21170573
   0.06229592  0.53091061  0.12414644
   0.81183601  0.37210396  0.52139941
   0.94478063  0.62260968  0.29987107
   0.30999183  0.03721454  0.25562475
   0.68382373  0.78822577  0.61095072
   0.19159780  0.46311058  0.83348284
   0.43265075  0.11292679  0.16656129
   0.31174963  0.37200946  0.52137488
   0.43328077  0.62279300  0.78894170
   0.05876507  0.03715677  0.25571587
   0.56234922  0.70702602  0.56553910
   0.93993437  0.29053784  0.74448889
   0.68243276  0.12272190  0.78857160
   0.19010492  0.45392473  0.21106083
   0.94127867  0.78757354  0.38897385
   0.68569826  0.29871247  0.87603281
   0.55650449  0.86346858  0.16653545
   0.43549814  0.45767215  0.69976008
   0.93391976  0.95147027  0.34484373
   0.68654992  0.62146823  0.52134555
   0.06625889  0.87448263  0.65494530
   0.05914428  0.87401288  0.78850064
   0.06611168  0.37403169  0.65497435
   0.68723666  0.45577275  0.47862785
   0.18377531  0.78744916  0.25549451
   0.43677002  0.12090487  0.43432497
   0.81349899  0.03103275  0.12408842
   0.93678228  0.62200098  0.52140507
   0.44143405  0.12452251  0.65493783
   0.81216976  0.52996250  0.12394601
   0.43403981  0.45275832  0.34506285
   0.80910002  0.20242353  0.34501210
   0.30906088  0.70219699  0.34475439
   0.69118051  0.12465469  0.65500941
   0.57059000  0.87315291  0.30024016
   0.06533726  0.54087432  0.74435087
   0.94048283  0.95446106  0.21118940
   0.81528433  0.70342064  0.21120728
   0.06963550  0.87369437  0.30017270
   0.19510311  0.12318945  0.30002125
   0.05854613  0.70210824  0.34487872
   0.80900588  0.03834864  0.61099438
   0.06258922  0.37194138  0.43430308
   0.55877442  0.20266072  0.34479536
   0.81976784  0.37253743  0.29997091
   0.56082892  0.03732765  0.25563412
   0.56644849  0.53760583  0.38907892
   0.06252395  0.20589689  0.47865800
   0.31038300  0.87286174  0.78844516
   0.93528733  0.95810499  0.69968435
   0.06947728  0.37420475  0.30017921
   0.69129933  0.62482317  0.65521026
   0.68677859  0.45699351  0.56541799
   0.44037179  0.95573035  0.21191965
   0.31234754  0.20579332  0.47869708
   0.81220649  0.54016422  0.87586888
   0.68772656  0.62050270  0.43446653
   0.81084295  0.20739687  0.69982988
   0.81246597  0.70587319  0.47863890
   0.81142822  0.87119353  0.43425172
   0.93740585  0.95538595  0.47872734
   0.56216922  0.20584447  0.47866892
   0.18690541  0.61985080  0.43439640
   0.31515352  0.04177773  0.74411312
   0.94131167  0.62514485  0.65490942
   0.56623702  0.71334632  0.83326929
   0.32002466  0.37261637  0.30021264
   0.31520101  0.54143152  0.74425645
   0.18730157  0.45588083  0.47866652
   0.31434619  0.04100862  0.87587442
   0.18523639  0.45786766  0.69969027
   0.56179165  0.37203378  0.52137736
   0.19109228  0.28745039  0.38886592
   0.31549942  0.20352156  0.21115827
   0.06724064  0.70259686  0.21108395
   0.56193148  0.37101509  0.43432677
   0.43676624  0.62215129  0.52137688
   0.81686824  0.71511651  0.83333443
   0.05910132  0.37467590  0.78847038
   0.43655013  0.29817406  0.87633524
   0.31152766  0.03132511  0.12412587
   0.68786021  0.11968248  0.43437153
   0.18372425  0.95214305  0.34492897
   0.06672542  0.21483300  0.83399134
   0.55910651  0.03859084  0.61111658
   0.68950811  0.45482937  0.21179413
   0.18965268  0.79167551  0.74441192
   0.19443164  0.62299670  0.30036903
   0.44134012  0.78755573  0.38911577
   0.43412919  0.28845710  0.25588080
   0.06335370  0.54066306  0.87586441
   0.56534426  0.04131921  0.74423323
   0.18768130  0.79736766  0.87601810
   0.93727297  0.45579471  0.47867412
   0.56507208  0.54135924  0.74409614
   0.81122591  0.20707184  0.56549387
   0.18461033  0.62259005  0.78853670
   0.06751161  0.53869571  0.38907846
   0.06066085  0.70741186  0.69967441
   0.30970533  0.53742318  0.25559414
   0.31480648  0.70205359  0.21208386
   0.30551669  0.86415113  0.16561881
   0.43681746  0.62103565  0.43439754
   0.81792208  0.03929658  0.38908631
   0.93493045  0.29773476  0.87558568
   0.93702892  0.79527333  0.87553924
   0.06529564  0.03873413  0.87573378
   0.81028140  0.03813305  0.25597777
   0.80607825  0.36520976  0.16588140
   0.06200772  0.87115051  0.43439375
   0.93647763  0.12178806  0.52152037
   0.19281813  0.78745755  0.38891765
   0.56649051  0.70260221  0.21199792
Direct configuration=     2
   0.06151618  0.03121584  0.12424276
   0.31653355  0.87547211  0.65525630
   0.18458341  0.12345718  0.78863337
   0.44148802  0.28751517  0.38933649
   0.31762937  0.71338734  0.83339776
   0.81759371  0.21430961  0.83363628
   0.19124683  0.96304308  0.83361332
   0.56226355  0.20691979  0.56583353
   0.06496696  0.04049159  0.74398995
   0.81177282  0.87202115  0.52160258
   0.19040149  0.29109307  0.74418752
   0.93407356  0.45284397  0.34484161
   0.94086447  0.28691423  0.38908812
   0.81211864  0.04184763  0.87574135
   0.18418865  0.78869023  0.61080771
   0.56564586  0.03738339  0.38922467
   0.94204201  0.96427237  0.83375288
   0.31408205  0.54131269  0.87610522
   0.68986928  0.29137431  0.74407959
   0.18247756  0.61338937  0.16624325
   0.81225845  0.20582587  0.47856972
   0.80875861  0.53798763  0.61096983
   0.31247096  0.87186241  0.43443790
   0.56238759  0.53107992  0.12428545
   0.68373144  0.95219667  0.34463502
   0.93158986  0.11523711  0.16651690
   0.06148158  0.87224183  0.52159113
   0.55837809  0.53815462  0.25552398
   0.68435037  0.79621725  0.87592047
   0.55734879  0.36462796  0.16647487
   0.43978960  0.79194690  0.74432157
   0.81136719  0.70680325  0.56566292
   0.55928027  0.87353987  0.78850317
   0.68700945  0.12197398  0.52159195
   0.81526426  0.37407729  0.65513009
   0.94179561  0.46368182  0.83377160
   0.06060858  0.20729010  0.69968914
   0.43606484  0.95790122  0.69968205
   0.31674464  0.21256116  0.83366231
   0.44140619  0.62447350  0.65516917
   0.30994930  0.53785447  0.61090306
   0.93622132  0.45592822  0.56577627
   0.68968424  0.79153535  0.74408442
   0.93460750  0.78741335  0.12446622
   0.69110097  0.78751737  0.38918847
   0.93973298  0.79101968  0.74421764
   0.05928624  0.20271084  0.34499019
   0.68453175  0.45268491  0.34499308
   0.43469179  0.12315147  0.78886781
   0.06478741  0.20315198  0.21100209
   0.05670187  0.36530502  0.16644847
   0.93411790  0.78824842  0.25571797
   0.56074052  0.20681510  0.69967341
   0.68533776  0.95736924  0.69975365
   0.80900627  0.87405258  0.78833347
   0.43712452  0.95729486  0.56569561
   0.80877932  0.37442870  0.78847021
   0.68481997  0.28724217  0.25583578
   0.18737994  0.45667644  0.56567906
   0.05685893  0.86473464  0.16636436
   0.18445741  0.28817186  0.61104776
   0.06158261  0.20674891  0.56559960
   0.31116156  0.20701767  0.69967920
   0.56196387  0.54150933  0.87602529
   0.06164962  0.70682752  0.56569465
   0.68309509  0.62280029  0.78846659
   0.31554951  0.53816432  0.38909287
   0.18661470  0.62185792  0.52159593
   0.56248772  0.87131693  0.43441077
   0.43703889  0.45649575  0.56580845
   0.43994498  0.29168507  0.74417322
   0.82027044  0.87337591  0.30011661
   0.80922797  0.70279854  0.34500097
   0.44200464  0.46228809  0.83361127
   0.68744422  0.95594868  0.47854235
   0.68502697  0.45744439  0.69978872
   0.56226707  0.87254389  0.52162474
   0.56571237  0.37358320  0.65510855
   0.81507417  0.87519875  0.65525132
   0.81157562  0.37104396  0.43428841
   0.80963671  0.53737809  0.25594018
   0.69157916  0.46183841  0.83347683
   0.18529491  0.78599943  0.12394938
   0.69089593  0.28773128  0.38925911
   0.31608137  0.37305451  0.65514323
   0.30909086  0.20211069  0.34465891
   0.81508039  0.54049383  0.74399240
   0.69141281  0.96230409  0.83359559
   0.56579178  0.87494156  0.65518552
   0.31168460  0.70705878  0.56572329
   0.31228874  0.53114327  0.12416126
   0.68897870  0.95481209  0.21120148
   0.31178199  0.20641579  0.56577360
   0.18758297  0.95615068  0.47860595
   0.68759611  0.95728414  0.56577452
   0.43469428  0.78886576  0.61093474
   0.68187569  0.61442710  0.16638012
   0.31822891  0.87310791  0.30011953
   0.31200499  0.70595214  0.47846496
   0.93345795  0.28758914  0.61079620
   0.44435491  0.62385686  0.30019121
   0.80740877  0.86424590  0.16650193
   0.56607047  0.20318197  0.21101404
   0.93319636  0.61401061  0.16641587
   0.43732595  0.95609906  0.47843116
   0.55921591  0.37305374  0.78860916
   0.06121540  0.37203471  0.52152951
   0.30704050  0.36418134  0.16649161
   0.69483035  0.12228411  0.30019254
   0.44258180  0.96289626  0.83352914
   0.18554978  0.28673378  0.12440050
   0.18469329  0.28858901  0.25591559
   0.31231324  0.36996790  0.43447736
   0.56287634  0.03244099  0.12435700
   0.43482362  0.28797020  0.61098392
   0.18404512  0.45308353  0.34483273
   0.43427552  0.28680152  0.12431722
   0.68471889  0.78869605  0.25590162
   0.43694615  0.12215466  0.52158045
   0.18937240  0.29608753  0.87614776
   0.19134937  0.12500473  0.65526611
   0.94045121  0.12468419  0.65512124
   0.81595203  0.53759816  0.38901332
   0.06663603  0.03829022  0.38918905
   0.18271386  0.11437316  0.16630563
   0.05863298  0.53774333  0.61089064
   0.93429357  0.28672290  0.25578406
   0.55940422  0.53784774  0.61095370
   0.93645379  0.95747330  0.56567058
   0.69474178  0.62367222  0.30018178
   0.93725186  0.61991582  0.43441177
   0.93360668  0.62431342  0.78835485
   0.56095205  0.70733823  0.69977373
   0.06569257  0.71636853  0.83395492
   0.94410208  0.12179328  0.29995915
   0.93335351  0.78841020  0.61081266
   0.43420699  0.78741666  0.25566814
   0.31014194  0.37368293  0.78869059
   0.43954779  0.45404049  0.21113442
   0.18646288  0.12207867  0.52153247
   0.81020576  0.70744519  0.69978651
   0.05879276  0.03873255  0.61080399
   0.56584278  0.21294462  0.83336521
   0.31170848  0.87233636  0.52159513
   0.68534152  0.28610500  0.12412784
   0.19004617  0.95531050  0.21169334
   0.68409121  0.28816873  0.61099151
   0.30983085  0.03901321  0.61104631
   0.93428810  0.12453548  0.78860275
   0.43677325  0.79645110  0.87618394
   0.81488370  0.04075977  0.74398205
   0.93507413  0.45782431  0.69971477
   0.19108657  0.62457344  0.65528225
   0.31087692  0.70712317  0.69982275
   0.93612101  0.28572014  0.12422685
   0.43757027  0.45513646  0.47842426
   0.06226433  0.70531693  0.47848285
   0.93699557  0.12058660  0.43468482
   0.44340958  0.12280192  0.30025251
   0.18745060  0.12095424  0.43425615
   0.56225337  0.04201788  0.87606996
   0.18663337  0.95733069  0.56572593
   0.68548294  0.78720987  0.12443115
   0.55948282  0.70266662  0.34486352
   0.31614473  0.03679411  0.38905722
   0.68277516  0.11380456  0.16658306
   0.81542413  0.20227230  0.21124513
   0.06069284  0.53768731  0.25576571
   0.56292257  0.70584682  0.47854830
   0.43517846  0.78487117  0.12416962
   0.56842777  0.37210643  0.29995758
   0.43394115  0.95261173  0.34490137
   0.18540414  0.95786952  0.69979057
   0.43073711  0.61490626  0.16644556
   0.94029879  0.45405022  0.21159204
   0.06229305  0.53081700  0.12421967
   0.81190897  0.37182305  0.52156748
   0.94433551  0.62305467  0.29984548
   0.31016094  0.03722818  0.25564648
   0.68397244  0.78869690  0.61093257
   0.19149526  0.46288863  0.83369167
   0.43327954  0.11444454  0.16642516
   0.31179775  0.37184198  0.52152502
   0.43399829  0.62285673  0.78881859
   0.05900385  0.03730151  0.25577644
   0.56231790  0.70686384  0.56578088
   0.93941944  0.29057625  0.74422725
   0.68249626  0.12333518  0.78851606
   0.19007380  0.45346459  0.21084290
   0.94090584  0.78713374  0.38900842
   0.68495849  0.29759717  0.87605302
   0.55729323  0.86374088  0.16648586
   0.43600144  0.45719268  0.69973290
   0.93478980  0.95149403  0.34469139
   0.68686162  0.62159211  0.52151801
   0.06562859  0.87512152  0.65516081
   0.05955030  0.87435013  0.78853589
   0.06578577  0.37325837  0.65514644
   0.68729133  0.45537855  0.47842391
   0.18413754  0.78756909  0.25565337
   0.43688745  0.12093966  0.43436852
   0.81330272  0.03119812  0.12418940
   0.93649971  0.62218097  0.52154027
   0.44136232  0.12469387  0.65506610
   0.81245907  0.53103805  0.12400143
   0.43451451  0.45331372  0.34497810
   0.80970111  0.20258331  0.34487393
   0.30954403  0.70288509  0.34466764
   0.69032447  0.12460152  0.65512028
   0.56994317  0.87301818  0.30020073
   0.06491724  0.54093852  0.74413364
   0.94015803  0.95474777  0.21107106
   0.81455144  0.70323835  0.21105302
   0.06879465  0.87330277  0.30014229
   0.19428917  0.12274710  0.29991906
   0.05895180  0.70279616  0.34477540
   0.80892750  0.03904103  0.61092326
   0.06260634  0.37162142  0.43432652
   0.55949567  0.20234703  0.34477768
   0.81925436  0.37246009  0.29991388
   0.56115686  0.03738065  0.25568408
   0.56632532  0.53758806  0.38918859
   0.06237421  0.20576861  0.47851571
   0.31103820  0.87315108  0.78841545
   0.93508728  0.95813031  0.69971509
   0.06909794  0.37392238  0.30007124
   0.69065786  0.62473688  0.65535805
   0.68671699  0.45644923  0.56568734
   0.44057819  0.95532195  0.21180413
   0.31238581  0.20554649  0.47847990
   0.81194074  0.54133239  0.87584254
   0.68825749  0.62039866  0.43445012
   0.81058865  0.20713488  0.69978847
   0.81246878  0.70568481  0.47849934
   0.81094455  0.87097075  0.43433195
   0.93715598  0.95568023  0.47870995
   0.56227030  0.20563316  0.47847873
   0.18666610  0.61939609  0.43439420
   0.31522594  0.04172742  0.74399506
   0.94032594  0.62493739  0.65513528
   0.56594733  0.71303919  0.83342513
   0.31931406  0.37280310  0.30005326
   0.31532314  0.54140869  0.74418295
   0.18729271  0.45539580  0.47844530
   0.31548828  0.04244221  0.87591163
   0.18555280  0.45745772  0.69971269
   0.56201434  0.37185342  0.52156434
   0.19062916  0.28739294  0.38909628
   0.31509172  0.20348199  0.21098571
   0.06682406  0.70256786  0.21090241
   0.56232930  0.37036432  0.43436718
   0.43697008  0.62203235  0.52153882
   0.81663903  0.71494406  0.83347387
   0.05959781  0.37444715  0.78849655
   0.43690304  0.29731684  0.87639121
   0.31128004  0.03252681  0.12415482
   0.68744269  0.12032973  0.43445433
   0.18415092  0.95222756  0.34484869
   0.06618647  0.21427929  0.83395721
   0.55952071  0.03927152  0.61112805
   0.68850226  0.45472673  0.21167277
   0.18957178  0.79165976  0.74423652
   0.19403430  0.62308315  0.30020351
   0.44121778  0.78792634  0.38915286
   0.43438485  0.28829153  0.25583687
   0.06397409  0.54149793  0.87587407
   0.56520110  0.04129464  0.74409289
   0.18858404  0.79582136  0.87603495
   0.93718575  0.45538722  0.47849566
   0.56490185  0.54147067  0.74399834
   0.81134210  0.20667572  0.56574526
   0.18537641  0.62289816  0.78849635
   0.06699461  0.53859864  0.38924109
   0.06041889  0.70761279  0.69976219
   0.30983949  0.53731207  0.25568734
   0.31506102  0.70137891  0.21190645
   0.30576120  0.86412406  0.16533639
   0.43684104  0.62094076  0.43431175
   0.81767512  0.03896013  0.38920480
   0.93534982  0.29710305  0.87574851
   0.93677342  0.79402857  0.87568567
   0.06548857  0.04053438  0.87581618
   0.81068764  0.03788408  0.25608082
   0.80664835  0.36498482  0.16555119
   0.06205814  0.87138237  0.43434587
   0.93638904  0.12180137  0.52173737
   0.19258449  0.78745070  0.38892208
   0.56580244  0.70260604  0.21170830
Direct configuration=     3
   0.06148078  0.03125452  0.12424907
   0.31654739  0.87553038  0.65526601
   0.18463046  0.12348182  0.78863350
   0.44147704  0.28751208  0.38935168
   0.31760376  0.71337097  0.83341334
   0.81757224  0.21427670  0.83363904
   0.19123393  0.96304123  0.83361595
   0.56227777  0.20690639  0.56585292
   0.06493621  0.04049701  0.74397657
   0.81178240  0.87205769  0.52161785
   0.19039287  0.29109433  0.74417733
   0.93410337  0.45286986  0.34483991
   0.94086076  0.28695126  0.38909879
   0.81208468  0.04192880  0.87573845
   0.18422090  0.78873567  0.61079965
   0.56558809  0.03737071  0.38923536
   0.94203076  0.96424595  0.83374441
   0.31413128  0.54136460  0.87610872
   0.68984257  0.29137118  0.74406957
   0.18249481  0.61334110  0.16622820
   0.81225835  0.20582457  0.47856250
   0.80874258  0.53795843  0.61096439
   0.31250409  0.87192387  0.43443806
   0.56234001  0.53108292  0.12429221
   0.68376648  0.95219515  0.34462730
   0.93165917  0.11522743  0.16650126
   0.06145507  0.87228067  0.52160240
   0.55839823  0.53815959  0.25552379
   0.68433228  0.79614120  0.87592151
   0.55731948  0.36463890  0.16646523
   0.43980218  0.79194282  0.74431356
   0.81136936  0.70682060  0.56567412
   0.55928583  0.87355232  0.78849728
   0.68702876  0.12197945  0.52160409
   0.81520758  0.37403131  0.65513734
   0.94177971  0.46364819  0.83377457
   0.06061030  0.20727318  0.69968737
   0.43610387  0.95791664  0.69967902
   0.31673034  0.21254562  0.83367446
   0.44142090  0.62445132  0.65518008
   0.31000678  0.53782457  0.61089806
   0.93620273  0.45589382  0.56578819
   0.68966201  0.79153143  0.74407170
   0.93460235  0.78738063  0.12447075
   0.69107168  0.78749600  0.38919631
   0.93969289  0.79102467  0.74419937
   0.05930563  0.20269295  0.34498560
   0.68458443  0.45270428  0.34499005
   0.43473104  0.12318982  0.78886187
   0.06475847  0.20315517  0.21099047
   0.05678443  0.36530613  0.16643400
   0.93415088  0.78827831  0.25572761
   0.56076065  0.20680293  0.69966615
   0.68535166  0.95738641  0.69975097
   0.80900467  0.87408299  0.78833134
   0.43714325  0.95730274  0.56571563
   0.80876713  0.37441340  0.78846700
   0.68485761  0.28721199  0.25583056
   0.18737591  0.45664687  0.56569020
   0.05685542  0.86475158  0.16634927
   0.18448620  0.28813740  0.61104708
   0.06154095  0.20671735  0.56561260
   0.31119790  0.20700766  0.69967099
   0.56192953  0.54155903  0.87602821
   0.06162472  0.70684805  0.56570275
   0.68308159  0.62281942  0.78845914
   0.31552853  0.53815432  0.38910107
   0.18660063  0.62186663  0.52160577
   0.56249846  0.87137463  0.43440928
   0.43706430  0.45647259  0.56582514
   0.43995132  0.29168563  0.74416698
   0.82023227  0.87338560  0.30010980
   0.80927639  0.70282268  0.34499533
   0.44198458  0.46225917  0.83362648
   0.68744657  0.95595518  0.47853335
   0.68503953  0.45743356  0.69978830
   0.56228643  0.87256961  0.52163639
   0.56568771  0.37353313  0.65511513
   0.81501661  0.87522340  0.65526289
   0.81157131  0.37102860  0.43429139
   0.80967250  0.53737043  0.25594011
   0.69155387  0.46182354  0.83348699
   0.18524437  0.78589891  0.12394757
   0.69086911  0.28775724  0.38927049
   0.31609396  0.37299624  0.65515237
   0.30911571  0.20207638  0.34465661
   0.81503668  0.54051059  0.74397768
   0.69139610  0.96230648  0.83360065
   0.56578473  0.87499444  0.65519579
   0.31170883  0.70705268  0.56573639
   0.31223393  0.53111696  0.12416322
   0.68894967  0.95479179  0.21119396
   0.31180198  0.20640631  0.56578962
   0.18759088  0.95617230  0.47859880
   0.68760878  0.95730466  0.56579109
   0.43474263  0.78890223  0.61093027
   0.68186393  0.61449246  0.16637231
   0.31818907  0.87308567  0.30011797
   0.31198478  0.70596381  0.47845491
   0.93344287  0.28757072  0.61078916
   0.44428609  0.62384160  0.30018250
   0.80743360  0.86429963  0.16648496
   0.56605180  0.20318650  0.21100417
   0.93326493  0.61406729  0.16639934
   0.43733189  0.95611304  0.47841604
   0.55921693  0.37304864  0.78860477
   0.06119440  0.37200876  0.52153746
   0.30704843  0.36423016  0.16647580
   0.69481178  0.12222966  0.30018180
   0.44256013  0.96288082  0.83354287
   0.18555966  0.28675302  0.12440797
   0.18471467  0.28856456  0.25591273
   0.31230385  0.36993483  0.43447863
   0.56286287  0.03245053  0.12436000
   0.43487333  0.28794795  0.61098553
   0.18406489  0.45312148  0.34482830
   0.43423298  0.28680907  0.12432421
   0.68474733  0.78870964  0.25590166
   0.43695988  0.12217899  0.52158897
   0.18942101  0.29605581  0.87614943
   0.19135539  0.12501235  0.65527432
   0.94040623  0.12467818  0.65513042
   0.81593745  0.53760275  0.38902326
   0.06664270  0.03829722  0.38919169
   0.18267997  0.11449525  0.16629560
   0.05862935  0.53771898  0.61088371
   0.93432595  0.28668550  0.25578157
   0.55943950  0.53781679  0.61095025
   0.93643621  0.95749453  0.56568056
   0.69469846  0.62367878  0.30017982
   0.93723851  0.61989582  0.43441051
   0.93361662  0.62432085  0.78835273
   0.56098359  0.70734993  0.69977431
   0.06566641  0.71635561  0.83395691
   0.94405245  0.12174879  0.29995176
   0.93333813  0.78846272  0.61080632
   0.43424186  0.78741600  0.25566989
   0.31020680  0.37367449  0.78868603
   0.43954142  0.45404299  0.21112036
   0.18643748  0.12208854  0.52154173
   0.81020250  0.70746169  0.69978960
   0.05879560  0.03878544  0.61079823
   0.56582358  0.21292243  0.83337578
   0.31170700  0.87236440  0.52160680
   0.68530511  0.28603780  0.12413413
   0.19001477  0.95532706  0.21168922
   0.68410006  0.28814462  0.61098906
   0.30988056  0.03905981  0.61104673
   0.93429178  0.12453976  0.78860444
   0.43679062  0.79638607  0.87618558
   0.81484938  0.04076262  0.74396659
   0.93506615  0.45780860  0.69971782
   0.19108021  0.62453976  0.65529547
   0.31091381  0.70713601  0.69982716
   0.93617782  0.28566135  0.12423178
   0.43757384  0.45507662  0.47841691
   0.06225807  0.70528981  0.47847865
   0.93700535  0.12065452  0.43468955
   0.44338155  0.12276379  0.30024424
   0.18747841  0.12098965  0.43425765
   0.56221763  0.04211518  0.87607298
   0.18661104  0.95734361  0.56573934
   0.68550873  0.78719878  0.12443711
   0.55951462  0.70270853  0.34486191
   0.31613677  0.03679179  0.38906759
   0.68280653  0.11380917  0.16657228
   0.81540211  0.20223374  0.21124429
   0.06071977  0.53767989  0.25577058
   0.56294777  0.70585594  0.47854064
   0.43519765  0.78480512  0.12416969
   0.56838176  0.37210565  0.29995407
   0.43396698  0.95260887  0.34489910
   0.18542030  0.95789247  0.69979065
   0.43078309  0.61484739  0.16643901
   0.94031480  0.45402545  0.21158473
   0.06229286  0.53081097  0.12422438
   0.81191366  0.37180497  0.52157830
   0.94430687  0.62308331  0.29984384
   0.31017182  0.03722906  0.25564788
   0.68398201  0.78872722  0.61093140
   0.19148866  0.46287435  0.83370511
   0.43332001  0.11454222  0.16641640
   0.31180084  0.37183120  0.52153469
   0.43404446  0.62286083  0.78881067
   0.05901921  0.03731082  0.25578034
   0.56231589  0.70685340  0.56579644
   0.93938630  0.29057872  0.74421041
   0.68250035  0.12337464  0.78851249
   0.19007180  0.45343497  0.21082888
   0.94088184  0.78710543  0.38901065
   0.68491088  0.29752540  0.87605432
   0.55734398  0.86375840  0.16648267
   0.43603383  0.45716182  0.69973115
   0.93484579  0.95149556  0.34468159
   0.68688168  0.62160008  0.52152911
   0.06558803  0.87516264  0.65517468
   0.05957643  0.87437183  0.78853816
   0.06576479  0.37320861  0.65515752
   0.68729485  0.45535318  0.47841079
   0.18416085  0.78757681  0.25566359
   0.43689501  0.12094190  0.43437132
   0.81329009  0.03120876  0.12419590
   0.93648153  0.62219255  0.52154897
   0.44135771  0.12470490  0.65507435
   0.81247768  0.53110726  0.12400499
   0.43454506  0.45334947  0.34497264