<?xml version="1.0" encoding="ISO-8859-1"?>
<modeling>
 <generator>
  <i name="program" type="string">vasp </i>
  <i name="version" type="string">5.4.4.18Apr17-6-g9f103f2a35  </i>
  <i name="subversion" type="string">(build May 29 2019 08:40:53) complex            parallel </i>
  <i name="platform" type="string">LinuxPGI </i>
  <i name="date" type="string">2021 11 22 </i>
  <i name="time" type="string">14:29:38 </i>
 </generator>
 <incar>
  <i type="int" name="ISTART">     2</i>
  <i type="string" name="PREC">accurate</i>
  <i type="string" name="ALGO"> Fast</i>
  <i type="int" name="ICHARG">     2</i>
  <i type="int" name="INIWAV">     1</i>
  <i type="int" name="NELM">   100</i>
  <i type="int" name="NELMIN">     4</i>
  <i type="int" name="IBRION">     2</i>
  <i name="EDIFF">      0.00001000</i>
  <i type="int" name="NSW">   500</i>
  <i type="int" name="ISIF">     2</i>
  <i type="int" name="ISYM">     2</i>
  <i name="ENCUT">    500.00000000</i>
  <i name="POTIM">      0.25000000</i>
  <i type="string" name="LREAL"> Auto</i>
  <i type="int" name="ISMEAR">     0</i>
  <i name="SIGMA">      0.15000000</i>
  <i type="logical" name="LWAVE"> F  </i>
  <i type="logical" name="LCHARG"> F  </i>
  <v type="int" name="KPOINT_BSE">    -1     0     0     0</v>
  <i type="int" name="NELM">   100</i>
 </incar>
 <structure name="primitive_cell" >
  <crystal>
   <varray name="basis" >
    <v>       9.72667800       0.00000000       0.00000000 </v>
    <v>       0.00000000       8.42355000       0.00000000 </v>
    <v>       0.00000000       0.00000000      45.00000000 </v>
   </varray>
   <i name="volume">   3686.99213101 </i>
   <varray name="rec_basis" >
    <v>       0.10281002       0.00000000       0.00000000 </v>
    <v>       0.00000000       0.11871479       0.00000000 </v>
    <v>       0.00000000       0.00000000       0.02222222 </v>
   </varray>
  </crystal>
  <varray name="positions" >
   <v>       0.31229809      -0.29348343       0.47868212 </v>
   <v>       0.31279099      -0.12874186      -0.47854401 </v>
   <v>       0.43726181      -0.37852286      -0.47864266 </v>
   <v>       0.18751206      -0.37833228      -0.47852561 </v>
   <v>       0.31270422      -0.12894257       0.43457777 </v>
   <v>       0.18765133      -0.04385142       0.47862272 </v>
   <v>       0.18765459       0.45652244       0.47864790 </v>
   <v>       0.43730260      -0.04355124       0.47863479 </v>
   <v>       0.43732941      -0.37871300       0.43469863 </v>
   <v>       0.06231072      -0.29355775       0.47862085 </v>
   <v>       0.18736651      -0.37853356       0.43456699 </v>
   <v>      -0.43731642      -0.29377877       0.47870009 </v>
   <v>       0.43765024       0.45582553       0.47868195 </v>
   <v>       0.06267026      -0.12864623      -0.47863362 </v>
   <v>      -0.43770580      -0.12839034      -0.47867638 </v>
   <v>       0.31248576       0.37150393      -0.47851505 </v>
   <v>      -0.43770638      -0.12902278       0.43461070 </v>
   <v>       0.06223850      -0.12915088       0.43448691 </v>
   <v>       0.31216515       0.37097665       0.43465327 </v>
   <v>       0.31239145      -0.29322010      -0.43447926 </v>
   <v>       0.18734889       0.12135485      -0.47860893 </v>
   <v>       0.43782066       0.12122062      -0.47861374 </v>
   <v>      -0.06247710      -0.37854329      -0.47856874 </v>
   <v>      -0.31224066      -0.37850185      -0.47858110 </v>
   <v>       0.06267934       0.37156753      -0.47858847 </v>
   <v>      -0.43770379       0.37138226      -0.47858920 </v>
   <v>       0.43741569       0.12158138       0.43473154 </v>
   <v>       0.18720877       0.12135857       0.43453868 </v>
   <v>      -0.06215603      -0.04344763       0.47867588 </v>
   <v>       0.31228226       0.20619357       0.47870187 </v>
   <v>      -0.06257357       0.45643528       0.47859334 </v>
   <v>      -0.31288267      -0.37873385       0.43460764 </v>
   <v>      -0.31261017      -0.04358810       0.47879386 </v>
   <v>      -0.06241412      -0.37888932       0.43454563 </v>
   <v>      -0.31271583       0.45568965       0.47863948 </v>
   <v>      -0.43832445       0.37164282       0.43463088 </v>
   <v>       0.06248534       0.37121015       0.43454287 </v>
   <v>       0.18809731      -0.21331250       0.38920420 </v>
   <v>       0.43772052      -0.21370427       0.38910167 </v>
   <v>       0.31299089      -0.46259332       0.38914109 </v>
   <v>      -0.43711821      -0.29363059      -0.43471648 </v>
   <v>       0.18683289      -0.04386475      -0.43460812 </v>
   <v>       0.18733575       0.45651973      -0.43457378 </v>
   <v>       0.43709339       0.45679335      -0.43444168 </v>
   <v>       0.06157150      -0.29347690      -0.43453483 </v>
   <v>       0.43727003      -0.04361346      -0.43440565 </v>
   <v>      -0.18724121      -0.29396361       0.47862259 </v>
   <v>       0.06260021       0.20613512       0.47871531 </v>
   <v>      -0.43755664       0.20627584       0.47864637 </v>
   <v>       0.31349889       0.03634741       0.38913940 </v>
   <v>       0.06319977      -0.46329656       0.38931478 </v>
   <v>      -0.43786279      -0.46295107       0.38936763 </v>
   <v>      -0.18757367      -0.12839314      -0.47875970 </v>
   <v>      -0.06291565       0.12175940      -0.47861769 </v>
   <v>      -0.31207370       0.12210127      -0.47853165 </v>
   <v>      -0.18773279      -0.12915173       0.43486633 </v>
   <v>      -0.06264270       0.12132497       0.43447222 </v>
   <v>      -0.31217648       0.12178037       0.43454664 </v>
   <v>       0.06299210       0.03697274       0.38928118 </v>
   <v>      -0.31336551      -0.21322181       0.38921008 </v>
   <v>      -0.06285966      -0.21384290       0.38907434 </v>
   <v>      -0.43626281       0.03769903       0.38899523 </v>
   <v>       0.18738158       0.28648080       0.38933643 </v>
   <v>       0.43780108       0.28605866       0.38911939 </v>
   <v>       0.31238429       0.20711193      -0.43449754 </v>
   <v>      -0.06243374      -0.04392256      -0.43449595 </v>
   <v>      -0.06264927       0.45646347      -0.43453472 </v>
   <v>      -0.31267030       0.45622477      -0.43440149 </v>
   <v>      -0.31363796      -0.04243400      -0.43408525 </v>
   <v>      -0.18742505       0.37141268      -0.47858034 </v>
   <v>      -0.18748939       0.37125742       0.43455895 </v>
   <v>       0.31156906      -0.29913728       0.34500916 </v>
   <v>       0.18821577      -0.20891717      -0.38922993 </v>
   <v>       0.31273471      -0.45883607      -0.38914938 </v>
   <v>       0.43808284      -0.20902288      -0.38910353 </v>
   <v>      -0.18756555      -0.29333756      -0.43451833 </v>
   <v>       0.06229734       0.20658275      -0.43447670 </v>
   <v>      -0.43744617       0.20674470      -0.43445118 </v>
   <v>      -0.18708829       0.20648262       0.47860484 </v>
   <v>       0.18742070      -0.04861859       0.34515556 </v>
   <v>       0.43773470      -0.04917054       0.34511986 </v>
   <v>      -0.18678490      -0.46345408       0.38908564 </v>
   <v>      -0.06230928       0.28671624       0.38921474 </v>
   <v>       0.06221374      -0.29823942       0.34518061 </v>
   <v>      -0.43752212      -0.29843691       0.34516850 </v>
   <v>      -0.31239338       0.28561486       0.38921274 </v>
   <v>       0.18783620       0.45178367       0.34519771 </v>
   <v>       0.43770540       0.45222140       0.34510794 </v>
   <v>       0.06279601      -0.45930121      -0.38920652 </v>
   <v>       0.31304089       0.04056047      -0.38921639 </v>
   <v>      -0.43646626      -0.45920112      -0.38915740 </v>
   <v>      -0.18751651       0.03730000       0.38932807 </v>
   <v>       0.18831565       0.29102372      -0.38938686 </v>
   <v>       0.43769928       0.29105225      -0.38922003 </v>
   <v>       0.06337763       0.04115994      -0.38928021 </v>
   <v>      -0.43703788       0.04044533      -0.38933352 </v>
   <v>      -0.06274269      -0.20876144      -0.38925423 </v>
   <v>      -0.31148289      -0.20916839      -0.38914858 </v>
   <v>       0.31218496       0.20138853       0.34509666 </v>
   <v>      -0.06209700      -0.04859853       0.34518056 </v>
   <v>      -0.31282655      -0.04837731       0.34501015 </v>
   <v>      -0.06293068       0.45087508       0.34520424 </v>
   <v>      -0.31148292       0.45110615       0.34508259 </v>
   <v>      -0.18814535       0.20635826      -0.43437273 </v>
   <v>      -0.43791698       0.20096966       0.34518665 </v>
   <v>       0.06236380       0.20120252       0.34508323 </v>
   <v>      -0.18747117      -0.29837458       0.34510323 </v>
   <v>      -0.06188925       0.29075751      -0.38913973 </v>
   <v>      -0.18719233      -0.45978286      -0.38923887 </v>
   <v>      -0.31212427       0.29080639      -0.38926443 </v>
   <v>       0.18695561      -0.37360718      -0.34512390 </v>
   <v>       0.43659034      -0.37337410      -0.34507465 </v>
   <v>       0.31185725      -0.12351815      -0.34517122 </v>
   <v>       0.31302092      -0.13321373       0.29999251 </v>
   <v>       0.18678638      -0.38274553       0.30015465 </v>
   <v>       0.43809789      -0.38262528       0.30005971 </v>
   <v>      -0.18687856       0.04031667      -0.38939367 </v>
   <v>       0.31192353       0.37654699      -0.34510046 </v>
   <v>      -0.43802051      -0.12350035      -0.34503020 </v>
   <v>       0.06197391      -0.12339312      -0.34504706 </v>
   <v>       0.06323260      -0.13327131       0.30017080 </v>
   <v>      -0.43704051      -0.13304193       0.30010634 </v>
   <v>       0.31269152       0.36715595       0.30002991 </v>
   <v>       0.06184676       0.37663870      -0.34499955 </v>
   <v>      -0.31340723      -0.37461186      -0.34499931 </v>
   <v>      -0.43808098       0.37627682      -0.34486631 </v>
   <v>      -0.06293674      -0.37409580      -0.34501578 </v>
   <v>       0.18698210       0.12586748      -0.34512560 </v>
   <v>       0.43622533       0.12588479      -0.34493500 </v>
   <v>      -0.18873257       0.20164510       0.34523171 </v>
   <v>       0.18811029       0.11751229       0.30020217 </v>
   <v>       0.43711173       0.11771343       0.30005071 </v>
   <v>      -0.06265628      -0.38291904       0.29998791 </v>
   <v>      -0.31204044      -0.38256862       0.29994726 </v>
   <v>       0.06272113       0.36689321       0.30001430 </v>
   <v>      -0.43695811       0.36797108       0.29988525 </v>
   <v>      -0.18804024      -0.12351318      -0.34500752 </v>
   <v>      -0.31329649       0.12661567      -0.34502829 </v>
   <v>      -0.06264603       0.12665200      -0.34491635 </v>
   <v>      -0.31263946       0.11736086       0.30009011 </v>
   <v>      -0.06239411       0.11710934       0.29998889 </v>
   <v>      -0.18701140      -0.13250190       0.30009424 </v>
   <v>      -0.18839512       0.37645469      -0.34498020 </v>
   <v>      -0.18744067       0.36679610       0.30024560 </v>
   <v>       0.31309023      -0.28922284      -0.30010877 </v>
   <v>       0.18803439      -0.21815959       0.25569552 </v>
   <v>       0.43713766      -0.21835323       0.25559947 </v>
   <v>       0.31187140      -0.46687975       0.25560985 </v>
   <v>       0.06314772      -0.28975305      -0.30029257 </v>
   <v>       0.18828679       0.46038946      -0.30013185 </v>
   <v>       0.43795749       0.46044527      -0.30012735 </v>
   <v>      -0.43704081      -0.28932650      -0.30020052 </v>
   <v>       0.18767787      -0.03966440      -0.30017152 </v>
   <v>       0.43892981      -0.03965627      -0.30013254 </v>
   <v>       0.31258239       0.03253255       0.25568618 </v>
   <v>      -0.43845288      -0.46836994       0.25583369 </v>
   <v>       0.06202981      -0.46739032       0.25574238 </v>
   <v>      -0.43776132       0.03317433       0.25559024 </v>
   <v>       0.06174155       0.03264712       0.25558916 </v>
   <v>      -0.06229532      -0.21750359       0.25563374 </v>
   <v>      -0.31180864      -0.21782395       0.25567118 </v>
   <v>       0.18856046       0.28278729       0.25577241 </v>
   <v>       0.43856524       0.28167086       0.25578915 </v>
   <v>      -0.06139707       0.46029140      -0.30028099 </v>
   <v>       0.31341638       0.20966091      -0.30017325 </v>
   <v>      -0.31193777       0.46066182      -0.30029188 </v>
   <v>      -0.06200018      -0.03983803      -0.30013818 </v>
   <v>      -0.31196931      -0.03968693      -0.30015925 </v>
   <v>       0.06279952       0.21013566      -0.30018502 </v>
   <v>      -0.43668461       0.21006775      -0.30016463 </v>
   <v>      -0.18621028      -0.29010089      -0.30007163 </v>
   <v>      -0.18728084      -0.46663769       0.25566513 </v>
   <v>      -0.06112352       0.28147590       0.25554590 </v>
   <v>      -0.31243883       0.28165442       0.25566170 </v>
   <v>      -0.18708775       0.03211158       0.25567865 </v>
   <v>      -0.18649765       0.21101253      -0.30023995 </v>
   <v>       0.31202974      -0.45456952      -0.25571871 </v>
   <v>       0.31301681      -0.30182689       0.21126029 </v>
   <v>       0.43631912      -0.20361815      -0.25567393 </v>
   <v>       0.18788842      -0.20378326      -0.25559493 </v>
   <v>      -0.43796942      -0.45468144      -0.25579417 </v>
   <v>       0.18713619      -0.05193647       0.21116984 </v>
   <v>       0.43740004      -0.05158287       0.21117311 </v>
   <v>       0.06194482      -0.45484899      -0.25574632 </v>
   <v>       0.06286320      -0.30140771       0.21116663 </v>
   <v>      -0.43781244      -0.30156959       0.21114628 </v>
   <v>       0.31143079       0.04543849      -0.25570012 </v>
   <v>       0.18751278       0.44784693       0.21117616 </v>
   <v>       0.43753730       0.44792054       0.21116699 </v>
   <v>       0.43683359       0.29576412      -0.25572174 </v>
   <v>       0.18696970       0.29567380      -0.25559132 </v>
   <v>      -0.06297971      -0.20500940      -0.25581866 </v>
   <v>      -0.31324571      -0.20466216      -0.25565965 </v>
   <v>       0.06199027       0.04565757      -0.25577511 </v>
   <v>      -0.43755646       0.04564476      -0.25575559 </v>
   <v>       0.31227363       0.19881415       0.21125016 </v>
   <v>      -0.06249151      -0.05219579       0.21131606 </v>
   <v>      -0.31281450      -0.05205481       0.21113504 </v>
   <v>      -0.06284133       0.44800019       0.21128209 </v>
   <v>      -0.31236333       0.44767638       0.21117156 </v>
   <v>       0.06244805       0.19852725       0.21123022 </v>
   <v>      -0.43716531       0.19847052       0.21120349 </v>
   <v>      -0.06261198       0.29605649      -0.25573634 </v>
   <v>      -0.31311121       0.29584712      -0.25562032 </v>
   <v>      -0.18814704      -0.45415845      -0.25559180 </v>
   <v>      -0.18776492      -0.30152470       0.21123950 </v>
   <v>      -0.18809047       0.04520611      -0.25561632 </v>
   <v>      -0.18762756       0.19868367       0.21118198 </v>
   <v>       0.43819955      -0.37056177      -0.21118529 </v>
   <v>       0.31293906      -0.11946589      -0.21134502 </v>
   <v>       0.18757329      -0.37060717      -0.21113637 </v>
   <v>       0.31242751      -0.14035429       0.16612574 </v>
   <v>       0.43767807      -0.39038406       0.16627798 </v>
   <v>       0.18803980      -0.39098822       0.16622264 </v>
   <v>       0.31278749       0.38023547      -0.21128566 </v>
   <v>      -0.43658125      -0.11969655      -0.21128159 </v>
   <v>       0.06281088      -0.11955992      -0.21113225 </v>
   <v>      -0.43713351      -0.14082116       0.16633787 </v>
   <v>       0.06299264      -0.14101128       0.16626021 </v>
   <v>       0.31257172       0.35921207       0.16630339 </v>
   <v>       0.06363933       0.38041268      -0.21140285 </v>
   <v>      -0.43678331       0.38032902      -0.21121294 </v>
   <v>      -0.06210330      -0.37040666      -0.21130990 </v>
   <v>      -0.31187730      -0.37064474      -0.21125229 </v>
   <v>       0.18766784       0.12967874      -0.21120280 </v>
   <v>       0.43821638       0.12941141      -0.21115830 </v>
   <v>       0.43800921       0.10934908       0.16634192 </v>
   <v>       0.18757713       0.10896045       0.16617476 </v>
   <v>      -0.06210303      -0.39031771       0.16625345 </v>
   <v>      -0.31242131      -0.39085412       0.16627234 </v>
   <v>      -0.43713366       0.35917419       0.16622800 </v>
   <v>       0.06259738       0.35903732       0.16618434 </v>
   <v>      -0.18652797      -0.11959613      -0.21146741 </v>
   <v>      -0.31165310       0.12951871      -0.21130845 </v>
   <v>      -0.06249237       0.12926920      -0.21121194 </v>
   <v>      -0.06196701       0.10968310       0.16623414 </v>
   <v>      -0.31211970       0.10902976       0.16620376 </v>
   <v>      -0.18737484      -0.14085185       0.16621472 </v>
   <v>      -0.18764200       0.38002438      -0.21137874 </v>
   <v>      -0.18748238       0.35915807       0.16628224 </v>
   <v>       0.31179793      -0.28167004      -0.16636961 </v>
   <v>       0.43759888      -0.22336083       0.12371920 </v>
   <v>       0.18752678      -0.22276747       0.12365311 </v>
   <v>       0.31211874      -0.47246549       0.12369508 </v>
   <v>       0.43677195       0.46885769      -0.16643660 </v>
   <v>       0.18627395       0.46821923      -0.16626519 </v>
   <v>      -0.43874012      -0.28085365      -0.16636491 </v>
   <v>       0.06107769      -0.28132326      -0.16624142 </v>
   <v>       0.43663340      -0.03128312      -0.16644078 </v>
   <v>       0.18700486      -0.03133098      -0.16642186 </v>
   <v>       0.31227356       0.02719562       0.12379340 </v>
   <v>       0.06274457      -0.47264141       0.12371473 </v>
   <v>      -0.43688093      -0.47248366       0.12370919 </v>
   <v>       0.06312121       0.02779448       0.12370000 </v>
   <v>      -0.43720249       0.02776987       0.12372287 </v>
   <v>      -0.06263023      -0.22355898       0.12375737 </v>
   <v>      -0.31232424      -0.22283085       0.12368432 </v>
   <v>       0.43783861       0.27656773       0.12372409 </v>
   <v>       0.18741632       0.27707340       0.12366436 </v>
   <v>       0.31176730       0.21835846      -0.16654068 </v>
   <v>      -0.31289771       0.46804141      -0.16619283 </v>
   <v>      -0.31356835      -0.03173431      -0.16621636 </v>
   <v>      -0.06360165      -0.03092405      -0.16629871 </v>
   <v>      -0.06366479       0.46899446      -0.16549300 </v>
   <v>      -0.43835382       0.21895545      -0.16641864 </v>
   <v>       0.06150326       0.22007802      -0.16616389 </v>
   <v>      -0.18754342      -0.28020249      -0.16626823 </v>
   <v>      -0.18777478      -0.47250050       0.12368256 </v>
   <v>      -0.06204015       0.27672892       0.12374984 </v>
   <v>      -0.31280560       0.27741166       0.12366459 </v>
   <v>      -0.18805967       0.02743688       0.12376413 </v>
   <v>      -0.18813366       0.21998560      -0.16625679 </v>
   <v>       0.31338135      -0.44977761      -0.12390819 </v>
   <v>       0.18787299      -0.19730434      -0.12382598 </v>
   <v>       0.43739129      -0.19806762      -0.12367903 </v>
   <v>      -0.43897735      -0.45057495      -0.12384730 </v>
   <v>       0.06208400      -0.45076395      -0.12368340 </v>
   <v>       0.31286273       0.05000828      -0.12377006 </v>
   <v>       0.43749978       0.30201958      -0.12377801 </v>
   <v>       0.18750883       0.30192480      -0.12374368 </v>
   <v>      -0.31285852      -0.19680674      -0.12374677 </v>
   <v>       0.06336444       0.04936256      -0.12378508 </v>
   <v>      -0.43872428       0.04975423      -0.12375327 </v>
   <v>      -0.06283427      -0.19781551      -0.12357849 </v>
   <v>      -0.06236630       0.30262453      -0.12367892 </v>
   <v>      -0.31316455       0.30196772      -0.12369151 </v>
   <v>      -0.18722719      -0.45113812      -0.12366551 </v>
   <v>      -0.18818854       0.04900549      -0.12373133 </v>
  </varray>
 </structure>
 <varray name="primitive_index" >
  <v type="int" >        1 </v>
  <v type="int" >       39 </v>
  <v type="int" >       68 </v>
  <v type="int" >       79 </v>
  <v type="int" >      239 </v>
  <v type="int" >      120 </v>
  <v type="int" >       38 </v>
  <v type="int" >      105 </v>
  <v type="int" >      194 </v>
  <v type="int" >      145 </v>
  <v type="int" >      126 </v>
  <v type="int" >      280 </v>
  <v type="int" >      233 </v>
  <v type="int" >      149 </v>
  <v type="int" >      211 </v>
  <v type="int" >      196 </v>
  <v type="int" >       83 </v>
  <v type="int" >       95 </v>
  <v type="int" >       26 </v>
  <v type="int" >      142 </v>
  <v type="int" >       93 </v>
  <v type="int" >      159 </v>
  <v type="int" >      200 </v>
  <v type="int" >      169 </v>
  <v type="int" >      230 </v>
  <v type="int" >      243 </v>
  <v type="int" >      110 </v>
  <v type="int" >      205 </v>
  <v type="int" >      183 </v>
  <v type="int" >      132 </v>
  <v type="int" >       64 </v>
  <v type="int" >      249 </v>
  <v type="int" >      242 </v>
  <v type="int" >      168 </v>
  <v type="int" >       20 </v>
  <v type="int" >      174 </v>
  <v type="int" >      261 </v>
  <v type="int" >      226 </v>
  <v type="int" >      283 </v>
  <v type="int" >       47 </v>
  <v type="int" >      186 </v>
  <v type="int" >      219 </v>
  <v type="int" >       73 </v>
  <v type="int" >      178 </v>
  <v type="int" >       60 </v>
  <v type="int" >      102 </v>
  <v type="int" >      259 </v>
  <v type="int" >      234 </v>
  <v type="int" >      124 </v>
  <v type="int" >      112 </v>
  <v type="int" >      103 </v>
  <v type="int" >       48 </v>
  <v type="int" >      286 </v>
  <v type="int" >      140 </v>
  <v type="int" >      251 </v>
  <v type="int" >      150 </v>
  <v type="int" >      264 </v>
  <v type="int" >       66 </v>
  <v type="int" >      148 </v>
  <v type="int" >       94 </v>
  <v type="int" >      257 </v>
  <v type="int" >      282 </v>
  <v type="int" >      129 </v>
  <v type="int" >      272 </v>
  <v type="int" >       78 </v>
  <v type="int" >      172 </v>
  <v type="int" >       13 </v>
  <v type="int" >      160 </v>
  <v type="int" >      275 </v>
  <v type="int" >      180 </v>
  <v type="int" >       99 </v>
  <v type="int" >      171 </v>
  <v type="int" >      202 </v>
  <v type="int" >       23 </v>
  <v type="int" >       74 </v>
  <v type="int" >      225 </v>
  <v type="int" >      144 </v>
  <v type="int" >       53 </v>
  <v type="int" >       30 </v>
  <v type="int" >        5 </v>
  <v type="int" >      111 </v>
  <v type="int" >      177 </v>
  <v type="int" >       76 </v>
  <v type="int" >      227 </v>
  <v type="int" >      222 </v>
  <v type="int" >      254 </v>
  <v type="int" >       90 </v>
  <v type="int" >      224 </v>
  <v type="int" >       80 </v>
  <v type="int" >      118 </v>
  <v type="int" >      182 </v>
  <v type="int" >      273 </v>
  <v type="int" >       91 </v>
  <v type="int" >       32 </v>
  <v type="int" >      250 </v>
  <v type="int" >       43 </v>
  <v type="int" >      143 </v>
  <v type="int" >       44 </v>
  <v type="int" >        6 </v>
  <v type="int" >       70 </v>
  <v type="int" >      154 </v>
  <v type="int" >      117 </v>
  <v type="int" >      184 </v>
  <v type="int" >      127 </v>
  <v type="int" >      195 </v>
  <v type="int" >       46 </v>
  <v type="int" >      131 </v>
  <v type="int" >       50 </v>
  <v type="int" >      181 </v>
  <v type="int" >      139 </v>
  <v type="int" >      100 </v>
  <v type="int" >       15 </v>
  <v type="int" >      276 </v>
  <v type="int" >      128 </v>
  <v type="int" >      134 </v>
  <v type="int" >       49 </v>
  <v type="int" >       24 </v>
  <v type="int" >       52 </v>
  <v type="int" >      165 </v>
  <v type="int" >      231 </v>
  <v type="int" >      217 </v>
  <v type="int" >      246 </v>
  <v type="int" >      208 </v>
  <v type="int" >      235 </v>
  <v type="int" >       57 </v>
  <v type="int" >       14 </v>
  <v type="int" >      228 </v>
  <v type="int" >      101 </v>
  <v type="int" >      155 </v>
  <v type="int" >      277 </v>
  <v type="int" >      146 </v>
  <v type="int" >      198 </v>
  <v type="int" >      173 </v>
  <v type="int" >       34 </v>
  <v type="int" >       86 </v>
  <v type="int" >      161 </v>
  <v type="int" >      133 </v>
  <v type="int" >       77 </v>
  <v type="int" >      203 </v>
  <v type="int" >       75 </v>
  <v type="int" >      109 </v>
  <v type="int" >       18 </v>
  <v type="int" >       35 </v>
  <v type="int" >      269 </v>
  <v type="int" >       96 </v>
  <v type="int" >       63 </v>
  <v type="int" >      240 </v>
  <v type="int" >      287 </v>
  <v type="int" >      220 </v>
  <v type="int" >       58 </v>
  <v type="int" >       92 </v>
  <v type="int" >       19 </v>
  <v type="int" >      204 </v>
  <v type="int" >       21 </v>
  <v type="int" >       36 </v>
  <v type="int" >      271 </v>
  <v type="int" >      176 </v>
  <v type="int" >      170 </v>
  <v type="int" >      138 </v>
  <v type="int" >      285 </v>
  <v type="int" >      210 </v>
  <v type="int" >       29 </v>
  <v type="int" >      281 </v>
  <v type="int" >      278 </v>
  <v type="int" >      256 </v>
  <v type="int" >      258 </v>
  <v type="int" >      104 </v>
  <v type="int" >      241 </v>
  <v type="int" >      255 </v>
  <v type="int" >      221 </v>
  <v type="int" >      236 </v>
  <v type="int" >      199 </v>
  <v type="int" >      284 </v>
  <v type="int" >       25 </v>
  <v type="int" >      212 </v>
  <v type="int" >       59 </v>
  <v type="int" >      156 </v>
  <v type="int" >      153 </v>
  <v type="int" >       65 </v>
  <v type="int" >       61 </v>
  <v type="int" >      193 </v>
  <v type="int" >      167 </v>
  <v type="int" >      164 </v>
  <v type="int" >       98 </v>
  <v type="int" >      190 </v>
  <v type="int" >        9 </v>
  <v type="int" >      288 </v>
  <v type="int" >      108 </v>
  <v type="int" >       42 </v>
  <v type="int" >      123 </v>
  <v type="int" >      238 </v>
  <v type="int" >      229 </v>
  <v type="int" >      141 </v>
  <v type="int" >      263 </v>
  <v type="int" >       41 </v>
  <v type="int" >      262 </v>
  <v type="int" >       54 </v>
  <v type="int" >      213 </v>
  <v type="int" >      245 </v>
  <v type="int" >      215 </v>
  <v type="int" >      113 </v>
  <v type="int" >      206 </v>
  <v type="int" >      207 </v>
  <v type="int" >       67 </v>
  <v type="int" >       12 </v>
  <v type="int" >       27 </v>
  <v type="int" >      216 </v>
  <v type="int" >       31 </v>
  <v type="int" >       37 </v>
  <v type="int" >       88 </v>
  <v type="int" >      115 </v>
  <v type="int" >      185 </v>
  <v type="int" >      162 </v>
  <v type="int" >      209 </v>
  <v type="int" >      265 </v>
  <v type="int" >       55 </v>
  <v type="int" >      260 </v>
  <v type="int" >      106 </v>
  <v type="int" >      218 </v>
  <v type="int" >      197 </v>
  <v type="int" >      152 </v>
  <v type="int" >      232 </v>
  <v type="int" >        8 </v>
  <v type="int" >       56 </v>
  <v type="int" >      119 </v>
  <v type="int" >      158 </v>
  <v type="int" >       51 </v>
  <v type="int" >       97 </v>
  <v type="int" >       10 </v>
  <v type="int" >      237 </v>
  <v type="int" >       84 </v>
  <v type="int" >      137 </v>
  <v type="int" >      279 </v>
  <v type="int" >      247 </v>
  <v type="int" >      136 </v>
  <v type="int" >       69 </v>
  <v type="int" >      166 </v>
  <v type="int" >      188 </v>
  <v type="int" >      214 </v>
  <v type="int" >      267 </v>
  <v type="int" >      223 </v>
  <v type="int" >        2 </v>
  <v type="int" >      122 </v>
  <v type="int" >      252 </v>
  <v type="int" >       71 </v>
  <v type="int" >      107 </v>
  <v type="int" >       40 </v>
  <v type="int" >      163 </v>
  <v type="int" >      192 </v>
  <v type="int" >       28 </v>
  <v type="int" >        7 </v>
  <v type="int" >      187 </v>
  <v type="int" >       22 </v>
  <v type="int" >        3 </v>
  <v type="int" >       82 </v>
  <v type="int" >      248 </v>
  <v type="int" >       85 </v>
  <v type="int" >      270 </v>
  <v type="int" >      157 </v>
  <v type="int" >       81 </v>
  <v type="int" >      191 </v>
  <v type="int" >      266 </v>
  <v type="int" >        4 </v>
  <v type="int" >      274 </v>
  <v type="int" >      201 </v>
  <v type="int" >       45 </v>
  <v type="int" >      125 </v>
  <v type="int" >       72 </v>
  <v type="int" >      135 </v>
  <v type="int" >       62 </v>
  <v type="int" >      244 </v>
  <v type="int" >      151 </v>
  <v type="int" >      253 </v>
  <v type="int" >       33 </v>
  <v type="int" >      147 </v>
  <v type="int" >       89 </v>
  <v type="int" >       16 </v>
  <v type="int" >      116 </v>
  <v type="int" >      114 </v>
  <v type="int" >      175 </v>
  <v type="int" >      130 </v>
  <v type="int" >      121 </v>
  <v type="int" >      189 </v>
  <v type="int" >       87 </v>
  <v type="int" >      179 </v>
  <v type="int" >       17 </v>
  <v type="int" >       11 </v>
  <v type="int" >      268 </v>
 </varray>
 <kpoints>
  <generation param="Gamma">
   <v type="int" name="divisions">       4        4        1 </v>
   <v name="usershift">      0.00000000       0.00000000       0.00000000 </v>
   <v name="genvec1">      0.25000000       0.00000000       0.00000000 </v>
   <v name="genvec2">      0.00000000       0.25000000       0.00000000 </v>
   <v name="genvec3">      0.00000000       0.00000000       1.00000000 </v>
   <v name="shift">      0.00000000       0.00000000       0.00000000 </v>
  </generation>
  <varray name="kpointlist" >
   <v>       0.00000000       0.00000000       0.00000000 </v>
   <v>       0.25000000       0.00000000       0.00000000 </v>
   <v>       0.50000000       0.00000000       0.00000000 </v>
   <v>       0.00000000       0.25000000       0.00000000 </v>
   <v>       0.25000000       0.25000000       0.00000000 </v>
   <v>       0.50000000       0.25000000       0.00000000 </v>
   <v>      -0.25000000       0.25000000       0.00000000 </v>
   <v>       0.00000000       0.50000000       0.00000000 </v>
   <v>       0.25000000       0.50000000       0.00000000 </v>
   <v>       0.50000000       0.50000000       0.00000000 </v>
  </varray>
  <varray name="weights" >
   <v>       0.06250000 </v>
   <v>       0.12500000 </v>
   <v>       0.06250000 </v>
   <v>       0.12500000 </v>
   <v>       0.12500000 </v>
   <v>       0.12500000 </v>
   <v>       0.12500000 </v>
   <v>       0.06250000 </v>
   <v>       0.12500000 </v>
   <v>       0.06250000 </v>
  </varray>
 </kpoints>
 <parameters>
  <separator name="general" >
   <i type="string" name="SYSTEM">unknown system</i>
   <i type="logical" name="LCOMPAT"> F  </i>
  </separator>
  <separator name="electronic" >
   <i type="string" name="PREC">accura</i>
   <i name="ENMAX">    500.00000000</i>
   <i name="ENAUG">    838.43500000</i>
   <i name="EDIFF">      0.00001000</i>
   <i type="int" name="IALGO">    68</i>
   <i type="int" name="IWAVPR">    11</i>
   <i type="int" name="NBANDS">  1380</i>
   <i name="NELECT">   2289.00000000</i>
   <i type="int" name="TURBO">     0</i>
   <i type="int" name="IRESTART">     0</i>
   <i type="int" name="NREBOOT">     0</i>
   <i type="int" name="NMIN">     0</i>
   <i name="EREF">      0.00000000</i>
   <separator name="electronic smearing" >
    <i type="int" name="ISMEAR">     0</i>
    <i name="SIGMA">      0.15000000</i>
    <i name="KSPACING">      0.50000000</i>
    <i type="logical" name="KGAMMA"> T  </i>
   </separator>
   <separator name="electronic projectors" >
    <i type="logical" name="LREAL"> T  </i>
    <v name="ROPT">     -0.00025000     -0.00025000</v>
    <i type="int" name="LMAXPAW">  -100</i>
    <i type="int" name="LMAXMIX">     2</i>
    <i type="logical" name="NLSPLINE"> F  </i>
   </separator>
   <separator name="electronic startup" >
    <i type="int" name="ISTART">     0</i>
    <i type="int" name="ICHARG">     2</i>
    <i type="int" name="INIWAV">     1</i>
   </separator>
   <separator name="electronic spin" >
    <i type="int" name="ISPIN">     1</i>
    <i type="logical" name="LNONCOLLINEAR"> F  </i>
    <v name="MAGMOM">      1.00000000      1.00000000      1.00000000      1.00000000      1.00000000      1.00000000      1.00000000      1.00000000      1.00000000      1.00000000      1.00000000      1.00000000      1.00000000      1.00000000      1.00000000      1.00000000      1.00000000      1.00000000      1.00000000      1.00000000
      1.00000000      1.00000000      1.00000000      1.00000000      1.00000000      1.00000000      1.00000000      1.00000000      1.00000000      1.00000000      1.00000000      1.00000000      1.00000000      1.00000000      1.00000000      1.00000000      1.00000000      1.00000000      1.00000000      1.00000000
      1.00000000      1.00000000      1.00000000      1.00000000      1.00000000      1.00000000      1.00000000      1.00000000      1.00000000      1.00000000      1.00000000      1.00000000      1.00000000      1.00000000      1.00000000      1.00000000      1.00000000      1.00000000      1.00000000      1.00000000
      1.00000000      1.00000000      1.00000000      1.00000000      1.00000000      1.00000000      1.00000000      1.00000000      1.00000000      1.00000000      1.00000000      1.00000000      1.00000000      1.00000000      1.00000000      1.00000000      1.00000000      1.00000000      1.00000000      1.00000000
      1.00000000      1.00000000      1.00000000      1.00000000      1.00000000      1.00000000      1.00000000      1.00000000      1.00000000      1.00000000      1.00000000      1.00000000      1.00000000      1.00000000      1.00000000      1.00000000      1.00000000      1.00000000      1.00000000      1.00000000
      1.00000000      1.00000000      1.00000000      1.00000000      1.00000000      1.00000000      1.00000000      1.00000000      1.00000000      1.00000000      1.00000000      1.00000000      1.00000000      1.00000000      1.00000000      1.00000000      1.00000000      1.00000000      1.00000000      1.00000000
      1.00000000      1.00000000      1.00000000      1.00000000      1.00000000      1.00000000      1.00000000      1.00000000      1.00000000      1.00000000      1.00000000      1.00000000      1.00000000      1.00000000      1.00000000      1.00000000      1.00000000      1.00000000      1.00000000      1.00000000
      1.00000000      1.00000000      1.00000000      1.00000000      1.00000000      1.00000000      1.00000000      1.00000000      1.00000000      1.00000000      1.00000000      1.00000000      1.00000000      1.00000000      1.00000000      1.00000000      1.00000000      1.00000000      1.00000000      1.00000000
      1.00000000      1.00000000      1.00000000      1.00000000      1.00000000      1.00000000      1.00000000      1.00000000      1.00000000      1.00000000      1.00000000      1.00000000      1.00000000      1.00000000      1.00000000      1.00000000      1.00000000      1.00000000      1.00000000      1.00000000
      1.00000000      1.00000000      1.00000000      1.00000000      1.00000000      1.00000000      1.00000000      1.00000000      1.00000000      1.00000000      1.00000000      1.00000000      1.00000000      1.00000000      1.00000000      1.00000000      1.00000000      1.00000000      1.00000000      1.00000000
      1.00000000      1.00000000      1.00000000      1.00000000      1.00000000      1.00000000      1.00000000      1.00000000      1.00000000      1.00000000      1.00000000      1.00000000      1.00000000      1.00000000      1.00000000      1.00000000      1.00000000      1.00000000      1.00000000      1.00000000
      1.00000000      1.00000000      1.00000000      1.00000000      1.00000000      1.00000000      1.00000000      1.00000000      1.00000000      1.00000000      1.00000000      1.00000000      1.00000000      1.00000000      1.00000000      1.00000000      1.00000000      1.00000000      1.00000000      1.00000000
      1.00000000      1.00000000      1.00000000      1.00000000      1.00000000      1.00000000      1.00000000      1.00000000      1.00000000      1.00000000      1.00000000      1.00000000      1.00000000      1.00000000      1.00000000      1.00000000      1.00000000      1.00000000      1.00000000      1.00000000
      1.00000000      1.00000000      1.00000000      1.00000000      1.00000000      1.00000000      1.00000000      1.00000000      1.00000000      1.00000000      1.00000000      1.00000000      1.00000000      1.00000000      1.00000000      1.00000000      1.00000000      1.00000000      1.00000000      1.00000000
      1.00000000      1.00000000      1.00000000      1.00000000      1.00000000      1.00000000      1.00000000      1.00000000</v>
    <i name="NUPDOWN">     -1.00000000</i>
    <i type="logical" name="LSORBIT"> F  </i>
    <v name="SAXIS">      0.00000000      0.00000000      1.00000000</v>
    <i type="logical" name="LSPIRAL"> F  </i>
    <v name="QSPIRAL">      0.00000000      0.00000000      0.00000000</v>
    <i type="logical" name="LZEROZ"> F  </i>
   </separator>
   <separator name="electronic exchange-correlation" >
    <i type="logical" name="LASPH"> F  </i>
    <i type="logical" name="LMETAGGA"> F  </i>
   </separator>
   <separator name="electronic convergence" >
    <i type="int" name="NELM">   100</i>
    <i type="int" name="NELMDL">     0</i>
    <i type="int" name="NELMIN">     4</i>
    <i name="ENINI">    500.00000000</i>
    <separator name="electronic convergence detail" >
     <i type="logical" name="LDIAG"> T  </i>
     <i type="logical" name="LSUBROT"> F  </i>
     <i name="WEIMIN">      0.00100000</i>
     <i name="EBREAK">      0.00000000</i>
     <i name="DEPER">      0.30000000</i>
     <i type="int" name="NRMM">     4</i>
     <i name="TIME">      0.40000000</i>
    </separator>
   </separator>
   <separator name="electronic mixer" >
    <i name="AMIX">      0.40000000</i>
    <i name="BMIX">      1.00000000</i>
    <i name="AMIN">      0.10000000</i>
    <i name="AMIX_MAG">      1.60000000</i>
    <i name="BMIX_MAG">      1.00000000</i>
    <separator name="electronic mixer details" >
     <i type="int" name="IMIX">     4</i>
     <i type="logical" name="MIXFIRST"> F  </i>
     <i type="int" name="MAXMIX">   -45</i>
     <i name="WC">    100.00000000</i>
     <i type="int" name="INIMIX">     1</i>
     <i type="int" name="MIXPRE">     1</i>
     <i type="int" name="MREMOVE">     5</i>
    </separator>
   </separator>
   <separator name="electronic dipolcorrection" >
    <i type="logical" name="LDIPOL"> F  </i>
    <i type="logical" name="LMONO"> F  </i>
    <i type="int" name="IDIPOL">     0</i>
    <i name="EPSILON">      1.00000000</i>
    <v name="DIPOL">   -100.00000000   -100.00000000   -100.00000000</v>
    <i name="EFIELD">      0.00000000</i>
   </separator>
  </separator>
  <separator name="grids" >
   <i type="int" name="NGX">    72</i>
   <i type="int" name="NGY">    64</i>
   <i type="int" name="NGZ">   336</i>
   <i type="int" name="NGXF">   144</i>
   <i type="int" name="NGYF">   128</i>
   <i type="int" name="NGZF">   672</i>
   <i type="logical" name="ADDGRID"> F  </i>
  </separator>
  <separator name="ionic" >
   <i type="int" name="NSW">   500</i>
   <i type="int" name="IBRION">     2</i>
   <i type="int" name="MDALGO">     0</i>
   <i type="int" name="ISIF">     2</i>
   <i name="PSTRESS">      0.00000000</i>
   <i name="EDIFFG">      0.00010000</i>
   <i type="int" name="NFREE">     1</i>
   <i name="POTIM">      0.25000000</i>
   <i name="SMASS">     -3.00000000</i>
   <i name="SCALEE">      1.00000000</i>
  </separator>
  <separator name="ionic md" >
   <i name="TEBEG">      0.00010000</i>
   <i name="TEEND">      0.00010000</i>
   <i type="int" name="NBLOCK">     1</i>
   <i type="int" name="KBLOCK">   500</i>
   <i type="int" name="NPACO">   256</i>
   <i name="APACO">     16.00000000</i>
  </separator>
  <separator name="symmetry" >
   <i type="int" name="ISYM">     2</i>
   <i name="SYMPREC">      0.00001000</i>
  </separator>
  <separator name="dos" >
   <i type="int" name="LORBIT">     0</i>
   <v name="RWIGS">     -1.00000000     -1.00000000</v>
   <i type="int" name="NEDOS">   301</i>
   <i name="EMIN">     10.00000000</i>
   <i name="EMAX">    -10.00000000</i>
   <i name="EFERMI">      0.00000000</i>
  </separator>
  <separator name="writing" >
   <i type="int" name="NWRITE">     2</i>
   <i type="logical" name="LWAVE"> F  </i>
   <i type="logical" name="LDOWNSAMPLE"> F  </i>
   <i type="logical" name="LCHARG"> F  </i>
   <i type="logical" name="LPARD"> F  </i>
   <i type="logical" name="LVTOT"> F  </i>
   <i type="logical" name="LVHAR"> F  </i>
   <i type="logical" name="LELF"> F  </i>
   <i type="logical" name="LOPTICS"> F  </i>
   <v name="STM">      0.00000000      0.00000000      0.00000000      0.00000000      0.00000000      0.00000000      0.00000000</v>
  </separator>
  <separator name="performance" >
   <i type="int" name="NPAR">    10</i>
   <i type="int" name="NSIM">     4</i>
   <i type="int" name="NBLK">    -1</i>
   <i type="logical" name="LPLANE"> T  </i>
   <i type="logical" name="LSCALAPACK"> F  </i>
   <i type="logical" name="LSCAAWARE"> F  </i>
   <i type="logical" name="LSCALU"> F  </i>
   <i type="logical" name="LASYNC"> F  </i>
   <i type="logical" name="LORBITALREAL"> F  </i>
  </separator>
  <separator name="miscellaneous" >
   <i type="int" name="IDIOT">     3</i>
   <i type="int" name="ISPECIAL">     0</i>
   <i type="logical" name="LMUSIC"> F  </i>
   <v name="POMASS">     55.84700000     54.93800000</v>
   <v name="DARWINR">      0.00000000      0.00000000</v>
   <v name="DARWINV">      1.00000000      1.00000000</v>
   <i type="logical" name="LCORR"> T  </i>
  </separator>
  <i type="logical" name="GGA_COMPAT"> T  </i>
  <i type="logical" name="LBERRY"> F  </i>
  <i type="int" name="ICORELEVEL">     0</i>
  <i type="logical" name="LDAU"> F  </i>
  <i type="int" name="I_CONSTRAINED_M">     0</i>
  <separator name="electronic exchange-correlation" >
   <i type="string" name="GGA">--</i>
   <i type="int" name="VOSKOWN">     0</i>
   <i type="logical" name="LHFCALC"> F  </i>
   <i type="string" name="PRECFOCK"></i>
   <i type="logical" name="LSYMGRAD"> F  </i>
   <i type="logical" name="LHFONE"> F  </i>
   <i type="logical" name="LRHFCALC"> F  </i>
   <i type="logical" name="LTHOMAS"> F  </i>
   <i type="logical" name="LMODELHF"> F  </i>
   <i name="ENCUT4O">     -1.00000000</i>
   <i type="int" name="EXXOEP">     0</i>
   <i type="int" name="FOURORBIT">     0</i>
   <i name="AEXX">      0.00000000</i>
   <i name="HFALPHA">      0.00000000</i>
   <i name="MCALPHA">      0.00000000</i>
   <i name="ALDAX">      1.00000000</i>
   <i name="AGGAX">      1.00000000</i>
   <i name="ALDAC">      1.00000000</i>
   <i name="AGGAC">      1.00000000</i>
   <i type="int" name="NKREDX">     1</i>
   <i type="int" name="NKREDY">     1</i>
   <i type="int" name="NKREDZ">     1</i>
   <i type="logical" name="SHIFTRED"> F  </i>
   <i type="logical" name="ODDONLY"> F  </i>
   <i type="logical" name="EVENONLY"> F  </i>
   <i type="int" name="LMAXFOCK">     0</i>
   <i type="int" name="NMAXFOCKAE">     0</i>
   <i type="logical" name="LFOCKAEDFT"> F  </i>
   <i name="HFSCREEN">      0.00000000</i>
   <i name="HFSCREENC">      0.00000000</i>
   <i type="int" name="NBANDSGWLOW">     0</i>
  </separator>
  <separator name="vdW DFT" >
   <i type="logical" name="LUSE_VDW"> F  </i>
   <i name="Zab_VDW">     -0.84910000</i>
   <i name="PARAM1">      0.12340000</i>
   <i name="PARAM2">      1.00000000</i>
   <i name="PARAM3">      0.00000000</i>
  </separator>
  <separator name="model GW" >
   <i type="int" name="MODEL_GW">     0</i>
   <i name="MODEL_EPS0">      7.68123361</i>
   <i name="MODEL_ALPHA">      1.00000000</i>
  </separator>
  <separator name="linear response parameters" >
   <i type="logical" name="LEPSILON"> F  </i>
   <i type="logical" name="LRPA"> F  </i>
   <i type="logical" name="LNABLA"> F  </i>
   <i type="logical" name="LVEL"> F  </i>
   <i type="int" name="KINTER">     0</i>
   <i name="CSHIFT">      0.10000000</i>
   <i name="OMEGAMAX">     -1.00000000</i>
   <i name="DEG_THRESHOLD">      0.00200000</i>
   <i name="RTIME">     -0.10000000</i>
   <i name="WPLASMAI">      0.00000000</i>
   <v name="DFIELD">      0.00000000      0.00000000      0.00000000</v>
   <v name="WPLASMA">      0.00000000      0.00000000      0.00000000      0.00000000      0.00000000      0.00000000      0.00000000      0.00000000      0.00000000</v>
  </separator>
  <separator name="orbital magnetization" >
   <i type="logical" name="NUCIND"> F  </i>
   <v name="MAGPOS">      0.00000000      0.00000000      0.00000000</v>
   <i type="logical" name="LNICSALL"> T  </i>
   <i type="logical" name="ORBITALMAG"> F  </i>
   <i type="logical" name="LMAGBLOCH"> F  </i>
   <i type="logical" name="LCHIMAG"> F  </i>
   <i type="logical" name="LGAUGE"> T  </i>
   <i type="int" name="MAGATOM">     0</i>
   <v name="MAGDIPOL">      0.00000000      0.00000000      0.00000000</v>
   <v name="AVECCONST">      0.00000000      0.00000000      0.00000000</v>
  </separator>
  <separator name="response functions" >
   <i type="logical" name="LADDER"> F  </i>
   <i type="logical" name="LRPAFORCE"> F  </i>
   <i type="logical" name="LFXC"> F  </i>
   <i type="logical" name="LHARTREE"> T  </i>
   <i type="int" name="IBSE">     0</i>
   <v type="int" name="KPOINT">    -1     0     0     0</v>
   <i type="logical" name="LTCTE"> F  </i>
   <i type="logical" name="LTETE"> F  </i>
   <i type="logical" name="LTRIPLET"> F  </i>
   <i type="logical" name="LFXCEPS"> F  </i>
   <i type="logical" name="LFXHEG"> F  </i>
   <i type="int" name="NATURALO">     2</i>
   <i type="logical" name="L2ORDER"> F  </i>
   <i type="logical" name="LMP2LT"> F  </i>
   <i type="logical" name="LUSEW"> F  </i>
   <i name="ENCUTGW">     -2.00000000</i>
   <i name="ENCUTGWSOFT">     -2.00000000</i>
   <i name="ENCUTLF">     -1.00000000</i>
   <i type="int" name="LMAXMP2">    -1</i>
   <i name="SCISSOR">      0.00000000</i>
   <i type="int" name="NOMEGA">     0</i>
   <i type="int" name="NOMEGAR">     0</i>
   <i type="int" name="NBANDSGW">    -1</i>
   <i type="int" name="NBANDSO">    -1</i>
   <i type="int" name="NBANDSV">    -1</i>
   <i type="int" name="NELM">   100</i>
   <i type="int" name="NELMHF">     1</i>
   <i type="int" name="DIM">     3</i>
   <i type="int" name="ANTIRES">     0</i>
   <i name="OMEGAMAX">    -30.00000000</i>
   <i name="OMEGAMIN">    -30.00000000</i>
   <i name="OMEGATL">   -200.00000000</i>
   <i type="int" name="OMEGAGRID">   140</i>
   <i name="CSHIFT">     -0.10000000</i>
   <i type="logical" name="SELFENERGY"> F  </i>
   <i type="logical" name="LSPECTRAL"> F  </i>
   <i type="logical" name="LSPECTRALGW"> F  </i>
   <i type="logical" name="LSINGLES"> F  </i>
   <i type="logical" name="LFERMIGW"> F  </i>
   <i type="logical" name="ODDONLYGW"> F  </i>
   <i type="logical" name="EVENONLYGW"> F  </i>
   <i type="int" name="NKREDLFX">     1</i>
   <i type="int" name="NKREDLFY">     1</i>
   <i type="int" name="NKREDLFZ">     1</i>
   <i type="int" name="MAXMEM">  2800</i>
   <i type="int" name="TELESCOPE">     0</i>
   <i type="int" name="TAUPAR">     1</i>
   <i type="int" name="OMEGAPAR">    -1</i>
   <i name="LAMBDA">      1.00000000</i>
  </separator>
  <separator name="External order field" >
   <i name="OFIELD_KAPPA">      0.00000000</i>
   <v name="OFIELD_K">      0.00000000      0.00000000      0.00000000</v>
   <i name="OFIELD_Q6_NEAR">      0.00000000</i>
   <i name="OFIELD_Q6_FAR">      0.00000000</i>
   <i name="OFIELD_A">      0.00000000</i>
  </separator>
 </parameters>
 <atominfo>
  <atoms>     288 </atoms>
  <types>       2 </types>
  <array name="atoms" >
   <dimension dim="1">ion</dimension>
   <field type="string">element</field>
   <field type="int">atomtype</field>
   <set>
    <rc><c>Fe</c><c>   1</c></rc>
    <rc><c>Fe</c><c>   1</c></rc>
    <rc><c>Fe</c><c>   1</c></rc>
    <rc><c>Fe</c><c>   1</c></rc>
    <rc><c>Fe</c><c>   1</c></rc>
    <rc><c>Fe</c><c>   1</c></rc>
    <rc><c>Fe</c><c>   1</c></rc>
    <rc><c>Fe</c><c>   1</c></rc>
    <rc><c>Fe</c><c>   1</c></rc>
    <rc><c>Fe</c><c>   1</c></rc>
    <rc><c>Fe</c><c>   1</c></rc>
    <rc><c>Fe</c><c>   1</c></rc>
    <rc><c>Fe</c><c>   1</c></rc>
    <rc><c>Fe</c><c>   1</c></rc>
    <rc><c>Fe</c><c>   1</c></rc>
    <rc><c>Fe</c><c>   1</c></rc>
    <rc><c>Fe</c><c>   1</c></rc>
    <rc><c>Fe</c><c>   1</c></rc>
    <rc><c>Fe</c><c>   1</c></rc>
    <rc><c>Fe</c><c>   1</c></rc>
    <rc><c>Fe</c><c>   1</c></rc>
    <rc><c>Fe</c><c>   1</c></rc>
    <rc><c>Fe</c><c>   1</c></rc>
    <rc><c>Fe</c><c>   1</c></rc>
    <rc><c>Fe</c><c>   1</c></rc>
    <rc><c>Fe</c><c>   1</c></rc>
    <rc><c>Fe</c><c>   1</c></rc>
    <rc><c>Fe</c><c>   1</c></rc>
    <rc><c>Fe</c><c>   1</c></rc>
    <rc><c>Fe</c><c>   1</c></rc>
    <rc><c>Fe</c><c>   1</c></rc>
    <rc><c>Fe</c><c>   1</c></rc>
    <rc><c>Fe</c><c>   1</c></rc>
    <rc><c>Fe</c><c>   1</c></rc>
    <rc><c>Fe</c><c>   1</c></rc>
    <rc><c>Fe</c><c>   1</c></rc>
    <rc><c>Fe</c><c>   1</c></rc>
    <rc><c>Fe</c><c>   1</c></rc>
    <rc><c>Fe</c><c>   1</c></rc>
    <rc><c>Fe</c><c>   1</c></rc>
    <rc><c>Fe</c><c>   1</c></rc>
    <rc><c>Fe</c><c>   1</c></rc>
    <rc><c>Fe</c><c>   1</c></rc>
    <rc><c>Fe</c><c>   1</c></rc>
    <rc><c>Fe</c><c>   1</c></rc>
    <rc><c>Fe</c><c>   1</c></rc>
    <rc><c>Fe</c><c>   1</c></rc>
    <rc><c>Fe</c><c>   1</c></rc>
    <rc><c>Fe</c><c>   1</c></rc>
    <rc><c>Fe</c><c>   1</c></rc>
    <rc><c>Fe</c><c>   1</c></rc>
    <rc><c>Fe</c><c>   1</c></rc>
    <rc><c>Fe</c><c>   1</c></rc>
    <rc><c>Fe</c><c>   1</c></rc>
    <rc><c>Fe</c><c>   1</c></rc>
    <rc><c>Fe</c><c>   1</c></rc>
    <rc><c>Fe</c><c>   1</c></rc>
    <rc><c>Fe</c><c>   1</c></rc>
    <rc><c>Fe</c><c>   1</c></rc>
    <rc><c>Fe</c><c>   1</c></rc>
    <rc><c>Fe</c><c>   1</c></rc>
    <rc><c>Fe</c><c>   1</c></rc>
    <rc><c>Fe</c><c>   1</c></rc>
    <rc><c>Fe</c><c>   1</c></rc>
    <rc><c>Fe</c><c>   1</c></rc>
    <rc><c>Fe</c><c>   1</c></rc>
    <rc><c>Fe</c><c>   1</c></rc>
    <rc><c>Fe</c><c>   1</c></rc>
    <rc><c>Fe</c><c>   1</c></rc>
    <rc><c>Fe</c><c>   1</c></rc>
    <rc><c>Fe</c><c>   1</c></rc>
    <rc><c>Fe</c><c>   1</c></rc>
    <rc><c>Fe</c><c>   1</c></rc>
    <rc><c>Fe</c><c>   1</c></rc>
    <rc><c>Fe</c><c>   1</c></rc>
    <rc><c>Fe</c><c>   1</c></rc>
    <rc><c>Fe</c><c>   1</c></rc>
    <rc><c>Fe</c><c>   1</c></rc>
    <rc><c>Fe</c><c>   1</c></rc>
    <rc><c>Fe</c><c>   1</c></rc>
    <rc><c>Fe</c><c>   1</c></rc>
    <rc><c>Fe</c><c>   1</c></rc>
    <rc><c>Fe</c><c>   1</c></rc>
    <rc><c>Fe</c><c>   1</c></rc>
    <rc><c>Fe</c><c>   1</c></rc>
    <rc><c>Fe</c><c>   1</c></rc>
    <rc><c>Fe</c><c>   1</c></rc>
    <rc><c>Fe</c><c>   1</c></rc>
    <rc><c>Fe</c><c>   1</c></rc>
    <rc><c>Fe</c><c>   1</c></rc>
    <rc><c>Fe</c><c>   1</c></rc>
    <rc><c>Fe</c><c>   1</c></rc>
    <rc><c>Fe</c><c>   1</c></rc>
    <rc><c>Fe</c><c>   1</c></rc>
    <rc><c>Fe</c><c>   1</c></rc>
    <rc><c>Fe</c><c>   1</c></rc>
    <rc><c>Fe</c><c>   1</c></rc>
    <rc><c>Fe</c><c>   1</c></rc>
    <rc><c>Fe</c><c>   1</c></rc>
    <rc><c>Fe</c><c>   1</c></rc>
    <rc><c>Fe</c><c>   1</c></rc>
    <rc><c>Fe</c><c>   1</c></rc>
    <rc><c>Fe</c><c>   1</c></rc>
    <rc><c>Fe</c><c>   1</c></rc>
    <rc><c>Fe</c><c>   1</c></rc>
    <rc><c>Fe</c><c>   1</c></rc>
    <rc><c>Fe</c><c>   1</c></rc>
    <rc><c>Fe</c><c>   1</c></rc>
    <rc><c>Fe</c><c>   1</c></rc>
    <rc><c>Fe</c><c>   1</c></rc>
    <rc><c>Fe</c><c>   1</c></rc>
    <rc><c>Fe</c><c>   1</c></rc>
    <rc><c>Fe</c><c>   1</c></rc>
    <rc><c>Fe</c><c>   1</c></rc>
    <rc><c>Fe</c><c>   1</c></rc>
    <rc><c>Fe</c><c>   1</c></rc>
    <rc><c>Fe</c><c>   1</c></rc>
    <rc><c>Fe</c><c>   1</c></rc>
    <rc><c>Fe</c><c>   1</c></rc>
    <rc><c>Fe</c><c>   1</c></rc>
    <rc><c>Fe</c><c>   1</c></rc>
    <rc><c>Fe</c><c>   1</c></rc>
    <rc><c>Fe</c><c>   1</c></rc>
    <rc><c>Fe</c><c>   1</c></rc>
    <rc><c>Fe</c><c>   1</c></rc>
    <rc><c>Fe</c><c>   1</c></rc>
    <rc><c>Fe</c><c>   1</c></rc>
    <rc><c>Fe</c><c>   1</c></rc>
    <rc><c>Fe</c><c>   1</c></rc>
    <rc><c>Fe</c><c>   1</c></rc>
    <rc><c>Fe</c><c>   1</c></rc>
    <rc><c>Fe</c><c>   1</c></rc>
    <rc><c>Fe</c><c>   1</c></rc>
    <rc><c>Fe</c><c>   1</c></rc>
    <rc><c>Fe</c><c>   1</c></rc>
    <rc><c>Fe</c><c>   1</c></rc>
    <rc><c>Fe</c><c>   1</c></rc>
    <rc><c>Fe</c><c>   1</c></rc>
    <rc><c>Fe</c><c>   1</c></rc>
    <rc><c>Fe</c><c>   1</c></rc>
    <rc><c>Fe</c><c>   1</c></rc>
    <rc><c>Fe</c><c>   1</c></rc>
    <rc><c>Fe</c><c>   1</c></rc>
    <rc><c>Fe</c><c>   1</c></rc>
    <rc><c>Fe</c><c>   1</c></rc>
    <rc><c>Fe</c><c>   1</c></rc>
    <rc><c>Fe</c><c>   1</c></rc>
    <rc><c>Fe</c><c>   1</c></rc>
    <rc><c>Fe</c><c>   1</c></rc>
    <rc><c>Fe</c><c>   1</c></rc>
    <rc><c>Fe</c><c>   1</c></rc>
    <rc><c>Fe</c><c>   1</c></rc>
    <rc><c>Fe</c><c>   1</c></rc>
    <rc><c>Fe</c><c>   1</c></rc>
    <rc><c>Fe</c><c>   1</c></rc>
    <rc><c>Fe</c><c>   1</c></rc>
    <rc><c>Fe</c><c>   1</c></rc>
    <rc><c>Fe</c><c>   1</c></rc>
    <rc><c>Fe</c><c>   1</c></rc>
    <rc><c>Fe</c><c>   1</c></rc>
    <rc><c>Fe</c><c>   1</c></rc>
    <rc><c>Fe</c><c>   1</c></rc>
    <rc><c>Fe</c><c>   1</c></rc>
    <rc><c>Fe</c><c>   1</c></rc>
    <rc><c>Fe</c><c>   1</c></rc>
    <rc><c>Fe</c><c>   1</c></rc>
    <rc><c>Fe</c><c>   1</c></rc>
    <rc><c>Fe</c><c>   1</c></rc>
    <rc><c>Fe</c><c>   1</c></rc>
    <rc><c>Fe</c><c>   1</c></rc>
    <rc><c>Fe</c><c>   1</c></rc>
    <rc><c>Fe</c><c>   1</c></rc>
    <rc><c>Fe</c><c>   1</c></rc>
    <rc><c>Fe</c><c>   1</c></rc>
    <rc><c>Fe</c><c>   1</c></rc>
    <rc><c>Fe</c><c>   1</c></rc>
    <rc><c>Fe</c><c>   1</c></rc>
    <rc><c>Fe</c><c>   1</c></rc>
    <rc><c>Fe</c><c>   1</c></rc>
    <rc><c>Fe</c><c>   1</c></rc>
    <rc><c>Fe</c><c>   1</c></rc>
    <rc><c>Fe</c><c>   1</c></rc>
    <rc><c>Fe</c><c>   1</c></rc>
    <rc><c>Fe</c><c>   1</c></rc>
    <rc><c>Fe</c><c>   1</c></rc>
    <rc><c>Fe</c><c>   1</c></rc>
    <rc><c>Fe</c><c>   1</c></rc>
    <rc><c>Fe</c><c>   1</c></rc>
    <rc><c>Fe</c><c>   1</c></rc>
    <rc><c>Fe</c><c>   1</c></rc>
    <rc><c>Fe</c><c>   1</c></rc>
    <rc><c>Fe</c><c>   1</c></rc>
    <rc><c>Fe</c><c>   1</c></rc>
    <rc><c>Fe</c><c>   1</c></rc>
    <rc><c>Fe</c><c>   1</c></rc>
    <rc><c>Fe</c><c>   1</c></rc>
    <rc><c>Fe</c><c>   1</c></rc>
    <rc><c>Fe</c><c>   1</c></rc>
    <rc><c>Fe</c><c>   1</c></rc>
    <rc><c>Fe</c><c>   1</c></rc>
    <rc><c>Fe</c><c>   1</c></rc>
    <rc><c>Fe</c><c>   1</c></rc>
    <rc><c>Fe</c><c>   1</c></rc>
    <rc><c>Fe</c><c>   1</c></rc>
    <rc><c>Fe</c><c>   1</c></rc>
    <rc><c>Fe</c><c>   1</c></rc>
    <rc><c>Fe</c><c>   1</c></rc>
    <rc><c>Fe</c><c>   1</c></rc>
    <rc><c>Fe</c><c>   1</c></rc>
    <rc><c>Fe</c><c>   1</c></rc>
    <rc><c>Fe</c><c>   1</c></rc>
    <rc><c>Fe</c><c>   1</c></rc>
    <rc><c>Fe</c><c>   1</c></rc>
    <rc><c>Fe</c><c>   1</c></rc>
    <rc><c>Fe</c><c>   1</c></rc>
    <rc><c>Fe</c><c>   1</c></rc>
    <rc><c>Fe</c><c>   1</c></rc>
    <rc><c>Fe</c><c>   1</c></rc>
    <rc><c>Fe</c><c>   1</c></rc>
    <rc><c>Fe</c><c>   1</c></rc>
    <rc><c>Fe</c><c>   1</c></rc>
    <rc><c>Fe</c><c>   1</c></rc>
    <rc><c>Fe</c><c>   1</c></rc>
    <rc><c>Fe</c><c>   1</c></rc>
    <rc><c>Fe</c><c>   1</c></rc>
    <rc><c>Fe</c><c>   1</c></rc>
    <rc><c>Fe</c><c>   1</c></rc>
    <rc><c>Fe</c><c>   1</c></rc>
    <rc><c>Fe</c><c>   1</c></rc>
    <rc><c>Fe</c><c>   1</c></rc>
    <rc><c>Fe</c><c>   1</c></rc>
    <rc><c>Fe</c><c>   1</c></rc>
    <rc><c>Fe</c><c>   1</c></rc>
    <rc><c>Fe</c><c>   1</c></rc>
    <rc><c>Fe</c><c>   1</c></rc>
    <rc><c>Fe</c><c>   1</c></rc>
    <rc><c>Fe</c><c>   1</c></rc>
    <rc><c>Fe</c><c>   1</c></rc>
    <rc><c>Fe</c><c>   1</c></rc>
    <rc><c>Fe</c><c>   1</c></rc>
    <rc><c>Fe</c><c>   1</c></rc>
    <rc><c>Fe</c><c>   1</c></rc>
    <rc><c>Fe</c><c>   1</c></rc>
    <rc><c>Fe</c><c>   1</c></rc>
    <rc><c>Fe</c><c>   1</c></rc>
    <rc><c>Fe</c><c>   1</c></rc>
    <rc><c>Fe</c><c>   1</c></rc>
    <rc><c>Fe</c><c>   1</c></rc>
    <rc><c>Fe</c><c>   1</c></rc>
    <rc><c>Fe</c><c>   1</c></rc>
    <rc><c>Fe</c><c>   1</c></rc>
    <rc><c>Fe</c><c>   1</c></rc>
    <rc><c>Fe</c><c>   1</c></rc>
    <rc><c>Fe</c><c>   1</c></rc>
    <rc><c>Fe</c><c>   1</c></rc>
    <rc><c>Fe</c><c>   1</c></rc>
    <rc><c>Fe</c><c>   1</c></rc>
    <rc><c>Fe</c><c>   1</c></rc>
    <rc><c>Fe</c><c>   1</c></rc>
    <rc><c>Fe</c><c>   1</c></rc>
    <rc><c>Fe</c><c>   1</c></rc>
    <rc><c>Fe</c><c>   1</c></rc>
    <rc><c>Fe</c><c>   1</c></rc>
    <rc><c>Fe</c><c>   1</c></rc>
    <rc><c>Fe</c><c>   1</c></rc>
    <rc><c>Fe</c><c>   1</c></rc>
    <rc><c>Fe</c><c>   1</c></rc>
    <rc><c>Fe</c><c>   1</c></rc>
    <rc><c>Fe</c><c>   1</c></rc>
    <rc><c>Fe</c><c>   1</c></rc>
    <rc><c>Fe</c><c>   1</c></rc>
    <rc><c>Fe</c><c>   1</c></rc>
    <rc><c>Fe</c><c>   1</c></rc>
    <rc><c>Mn</c><c>   2</c></rc>
    <rc><c>Mn</c><c>   2</c></rc>
    <rc><c>Mn</c><c>   2</c></rc>
    <rc><c>Mn</c><c>   2</c></rc>
    <rc><c>Mn</c><c>   2</c></rc>
    <rc><c>Mn</c><c>   2</c></rc>
    <rc><c>Mn</c><c>   2</c></rc>
    <rc><c>Mn</c><c>   2</c></rc>
    <rc><c>Mn</c><c>   2</c></rc>
    <rc><c>Mn</c><c>   2</c></rc>
    <rc><c>Mn</c><c>   2</c></rc>
    <rc><c>Mn</c><c>   2</c></rc>
    <rc><c>Mn</c><c>   2</c></rc>
    <rc><c>Mn</c><c>   2</c></rc>
    <rc><c>Mn</c><c>   2</c></rc>
   </set>
  </array>
  <array name="atomtypes" >
   <dimension dim="1">type</dimension>
   <field type="int">atomspertype</field>
   <field type="string">element</field>
   <field>mass</field>
   <field>valence</field>
   <field type="string">pseudopotential</field>
   <set>
    <rc><c> 273</c><c>Fe</c><c>     55.84700000</c><c>      8.00000000</c><c>  PAW_PBE Fe_GW 31Mar2010               </c></rc>
    <rc><c>  15</c><c>Mn</c><c>     54.93800000</c><c>      7.00000000</c><c>  PAW_PBE Mn_GW 31Mar2010               </c></rc>
   </set>
  </array>
 </atominfo>
 <structure name="initialpos" >
  <crystal>
   <varray name="basis" >
    <v>       9.72667800       0.00000000       0.00000000 </v>
    <v>       0.00000000       8.42355000       0.00000000 </v>
    <v>       0.00000000       0.00000000      45.00000000 </v>
   </varray>
   <i name="volume">   3686.99213101 </i>
   <varray name="rec_basis" >
    <v>       0.10281002       0.00000000       0.00000000 </v>
    <v>       0.00000000       0.11871479       0.00000000 </v>
    <v>       0.00000000       0.00000000       0.02222222 </v>
   </varray>
  </crystal>
  <varray name="positions" >
   <v>       0.31229809       0.70651657       0.47868212 </v>
   <v>       0.43759888       0.77663917       0.12371920 </v>
   <v>       0.06312121       0.02779448       0.12370000 </v>
   <v>       0.93639835       0.96907595       0.83370129 </v>
   <v>       0.18742070       0.95138141       0.34515556 </v>
   <v>       0.31218496       0.20138853       0.34509666 </v>
   <v>       0.31227356       0.02719562       0.12379340 </v>
   <v>       0.93789670       0.62959334       0.78869010 </v>
   <v>       0.56218756       0.69843041       0.21114628 </v>
   <v>       0.93789697       0.60968229       0.16625345 </v>
   <v>       0.81277281       0.54886188       0.87633449 </v>
   <v>       0.81185296       0.54584155       0.74440820 </v>
   <v>       0.93735073       0.45646347       0.56546528 </v>
   <v>       0.56191902       0.37627682       0.65513369 </v>
   <v>       0.43659034       0.62662590       0.65492535 </v>
   <v>       0.06208400       0.54923605       0.87631660 </v>
   <v>       0.68683545       0.30196772       0.87630849 </v>
   <v>       0.81298860       0.86749810       0.30009424 </v>
   <v>       0.56295919       0.71067350       0.69979948 </v>
   <v>       0.68728417       0.45568965       0.47863948 </v>
   <v>       0.43892981       0.96034373       0.69986746 </v>
   <v>       0.56311907       0.52751634       0.12370919 </v>
   <v>       0.31273471       0.54116393       0.61085062 </v>
   <v>       0.81312144       0.04031667       0.61060633 </v>
   <v>       0.68756117       0.28165442       0.25566170 </v>
   <v>       0.31216515       0.37097665       0.43465327 </v>
   <v>       0.81223508       0.69847530       0.21123950 </v>
   <v>       0.18700486       0.96866902       0.83357814 </v>
   <v>       0.18856046       0.28278729       0.25577241 </v>
   <v>       0.81291171       0.20648262       0.47860484 </v>
   <v>       0.81237244       0.19868367       0.21118198 </v>
   <v>       0.43769928       0.29105225       0.61077997 </v>
   <v>       0.18787299       0.80269566       0.87617402 </v>
   <v>       0.68795956       0.61743138       0.29994726 </v>
   <v>       0.81160488       0.37645469       0.65501980 </v>
   <v>       0.31258239       0.03253255       0.25568618 </v>
   <v>       0.43819955       0.62943823       0.78881471 </v>
   <v>       0.18765459       0.45652244       0.47864790 </v>
   <v>       0.31279099       0.87125814       0.52145599 </v>
   <v>       0.56125988       0.71914635       0.83363509 </v>
   <v>       0.56244354       0.04564476       0.74424441 </v>
   <v>       0.43753730       0.44792054       0.21116699 </v>
   <v>       0.56296212       0.04044533       0.61066648 </v>
   <v>       0.68851711       0.79083161       0.61085142 </v>
   <v>       0.06150326       0.22007802       0.83383611 </v>
   <v>       0.06236380       0.20120252       0.34508323 </v>
   <v>       0.31299089       0.53740668       0.38914109 </v>
   <v>       0.56213721       0.53704893       0.38936763 </v>
   <v>       0.43809789       0.61737472       0.30005971 </v>
   <v>       0.93811075       0.29075751       0.61086027 </v>
   <v>       0.43800921       0.10934908       0.16634192 </v>
   <v>       0.31192353       0.37654699       0.65489954 </v>
   <v>       0.56255383       0.20674470       0.56554882 </v>
   <v>       0.93750849       0.94780421       0.21131606 </v>
   <v>       0.56341875       0.88030345       0.78871841 </v>
   <v>       0.68812270       0.62935526       0.78874771 </v>
   <v>       0.68659277       0.62538814       0.65500069 </v>
   <v>       0.18828679       0.46038946       0.69986815 </v>
   <v>       0.81350235       0.21101253       0.69976005 </v>
   <v>       0.06157150       0.70652310       0.56546517 </v>
   <v>       0.18788842       0.79621674       0.74440507 </v>
   <v>       0.68719440       0.27741166       0.12366459 </v>
   <v>       0.18803439       0.78184041       0.25569552 </v>
   <v>       0.93742643       0.45643528       0.47859334 </v>
   <v>       0.43631912       0.79638185       0.74432607 </v>
   <v>       0.68782352       0.12178037       0.43454664 </v>
   <v>       0.68688879       0.29584712       0.74437968 </v>
   <v>       0.43726181       0.62147714       0.52135734 </v>
   <v>       0.93803299       0.10968310       0.16623414 </v>
   <v>       0.93790300       0.95140147       0.34518056 </v>
   <v>       0.43677195       0.46885769       0.83356340 </v>
   <v>       0.81222522       0.52749950       0.12368256 </v>
   <v>       0.18733575       0.45651973       0.56542622 </v>
   <v>       0.43808284       0.79097712       0.61089647 </v>
   <v>       0.68736054       0.11736086       0.30009011 </v>
   <v>       0.93769072       0.28671624       0.38921474 </v>
   <v>       0.68670351       0.12661567       0.65497171 </v>
   <v>       0.31238429       0.20711193       0.56550246 </v>
   <v>       0.18751206       0.62166772       0.52147439 </v>
   <v>       0.06279601       0.54069879       0.61079348 </v>
   <v>       0.31176730       0.21835846       0.83345932 </v>
   <v>       0.56279751       0.02776987       0.12372287 </v>
   <v>       0.56229362       0.87097722       0.43461070 </v>
   <v>       0.56286634       0.35917419       0.16622800 </v>
   <v>       0.68767576       0.77716915       0.12368432 </v>
   <v>       0.06272113       0.36689321       0.30001430 </v>
   <v>       0.93716573       0.80218449       0.87642151 </v>
   <v>       0.31293906       0.88053411       0.78865498 </v>
   <v>       0.56102265       0.54942505       0.87615270 </v>
   <v>       0.18783620       0.45178367       0.34519771 </v>
   <v>       0.18831565       0.29102372       0.61061314 </v>
   <v>       0.43795749       0.46044527       0.69987265 </v>
   <v>       0.18734889       0.12135485       0.52139107 </v>
   <v>       0.68663449       0.78677819       0.38921008 </v>
   <v>       0.06223850       0.87084912       0.43448691 </v>
   <v>       0.31309023       0.71077716       0.69989123 </v>
   <v>       0.18757713       0.10896045       0.16617476 </v>
   <v>       0.06194482       0.54515101       0.74425368 </v>
   <v>       0.81251061       0.37125742       0.43455895 </v>
   <v>       0.18695561       0.62639282       0.65487610 </v>
   <v>       0.18698210       0.12586748       0.65487440 </v>
   <v>       0.43727003       0.95638654       0.56559435 </v>
   <v>       0.06319977       0.53670344       0.38931478 </v>
   <v>       0.93799982       0.96016197       0.69986182 </v>
   <v>       0.43730260       0.95644876       0.47863479 </v>
   <v>       0.56286649       0.85917884       0.16633787 </v>
   <v>       0.18627395       0.46821923       0.83373481 </v>
   <v>       0.18751278       0.44784693       0.21117616 </v>
   <v>       0.93760589       0.11710934       0.29998889 </v>
   <v>       0.43741569       0.12158138       0.43473154 </v>
   <v>       0.43773470       0.95082946       0.34511986 </v>
   <v>       0.31349889       0.03634741       0.38913940 </v>
   <v>       0.06244805       0.19852725       0.21123022 </v>
   <v>       0.43749978       0.30201958       0.87622199 </v>
   <v>       0.18757329       0.62939283       0.78886363 </v>
   <v>       0.31286273       0.05000828       0.87622994 </v>
   <v>       0.93706932       0.45087508       0.34520424 </v>
   <v>       0.31304089       0.04056047       0.61078361 </v>
   <v>       0.18766784       0.12967874       0.78879720 </v>
   <v>       0.18765133       0.95614858       0.47862272 </v>
   <v>       0.06336444       0.04936256       0.87621492 </v>
   <v>       0.18752678       0.77723253       0.12365311 </v>
   <v>       0.43683359       0.29576412       0.74427826 </v>
   <v>       0.56244336       0.20627584       0.47864637 </v>
   <v>       0.81245658       0.71979751       0.83373177 </v>
   <v>       0.18736651       0.62146644       0.43456699 </v>
   <v>       0.81185465       0.20635826       0.56562727 </v>
   <v>       0.31302092       0.86678627       0.29999251 </v>
   <v>       0.18738158       0.28648080       0.38933643 </v>
   <v>       0.68714148       0.80319326       0.87625323 </v>
   <v>       0.81252883       0.70162542       0.34510323 </v>
   <v>       0.31228226       0.20619357       0.47870187 </v>
   <v>       0.81195976       0.87648682       0.65499248 </v>
   <v>       0.18678638       0.61725447       0.30015465 </v>
   <v>       0.93795985       0.27672892       0.12374984 </v>
   <v>       0.93750763       0.12926920       0.78878806 </v>
   <v>       0.06259738       0.35903732       0.16618434 </v>
   <v>       0.06174155       0.03264712       0.25558916 </v>
   <v>       0.68787573       0.29080639       0.61073557 </v>
   <v>       0.93708435       0.12175940       0.52138231 </v>
   <v>       0.68675429       0.79533784       0.74434035 </v>
   <v>       0.31239145       0.70677990       0.56552074 </v>
   <v>       0.93725731       0.79123856       0.61074577 </v>
   <v>       0.06229734       0.20658275       0.56552330 </v>
   <v>       0.06231072       0.70644225       0.47862085 </v>
   <v>       0.18811029       0.11751229       0.30020217 </v>
   <v>       0.43739129       0.80193238       0.87632097 </v>
   <v>       0.06299210       0.03697274       0.38928118 </v>
   <v>       0.06267026       0.87135377       0.52136638 </v>
   <v>       0.81226721       0.87084827       0.43486633 </v>
   <v>       0.81186634       0.21998560       0.83374321 </v>
   <v>       0.06363933       0.38041268       0.78859715 </v>
   <v>       0.31301681       0.69817311       0.21126029 </v>
   <v>       0.68717345       0.95162269       0.34501015 </v>
   <v>       0.43622533       0.12588479       0.65506500 </v>
   <v>       0.31202974       0.54543048       0.74428129 </v>
   <v>       0.18741632       0.27707340       0.12366436 </v>
   <v>       0.43821638       0.12941141       0.78884170 </v>
   <v>       0.43782066       0.12122062       0.52138626 </v>
   <v>       0.68732970       0.45622477       0.56559851 </v>
   <v>       0.56304189       0.36797108       0.29988525 </v>
   <v>       0.43767807       0.60961594       0.16627798 </v>
   <v>       0.06107769       0.71867674       0.83375858 </v>
   <v>       0.43740004       0.94841713       0.21117311 </v>
   <v>       0.56197949       0.87649965       0.65496980 </v>
   <v>       0.68788030       0.10902976       0.16620376 </v>
   <v>       0.18713619       0.94806353       0.21116984 </v>
   <v>       0.93758588       0.62111068       0.43454563 </v>
   <v>       0.68775934       0.62149815       0.52141890 </v>
   <v>       0.56223868       0.03317433       0.25559024 </v>
   <v>       0.31156906       0.70086272       0.34500916 </v>
   <v>       0.93756626       0.95607744       0.56550405 </v>
   <v>       0.93734372       0.61708096       0.29998791 </v>
   <v>       0.56167555       0.37164282       0.43463088 </v>
   <v>       0.18750883       0.30192480       0.87625632 </v>
   <v>       0.06202981       0.53260968       0.25574238 </v>
   <v>       0.81321510       0.53654592       0.38908564 </v>
   <v>       0.43709339       0.45679335       0.56555832 </v>
   <v>       0.93763370       0.30262453       0.87632108 </v>
   <v>       0.81257495       0.37141268       0.52141966 </v>
   <v>       0.81280767       0.54021714       0.61076113 </v>
   <v>       0.56353374       0.54079888       0.61084260 </v>
   <v>       0.93784397       0.95655237       0.47867588 </v>
   <v>       0.68851708       0.45110615       0.34508259 </v>
   <v>       0.31242751       0.85964571       0.16612574 </v>
   <v>       0.56288179       0.70636941       0.56528352 </v>
   <v>       0.06274457       0.52735859       0.12371473 </v>
   <v>       0.81262516       0.85914815       0.16621472 </v>
   <v>       0.56127572       0.04975423       0.87624673 </v>
   <v>       0.06286320       0.69859229       0.21116663 </v>
   <v>       0.68710229       0.46804141       0.83380717 </v>
   <v>       0.43663340       0.96871688       0.83355922 </v>
   <v>       0.56203058       0.54531856       0.74420583 </v>
   <v>       0.43732941       0.62128700       0.43469863 </v>
   <v>       0.56208302       0.20096966       0.34518665 </v>
   <v>       0.31248576       0.37150393       0.52148495 </v>
   <v>       0.31257172       0.35921207       0.16630339 </v>
   <v>       0.43711173       0.11771343       0.30005071 </v>
   <v>       0.81271916       0.53336231       0.25566513 </v>
   <v>       0.93752290       0.62145671       0.52143126 </v>
   <v>       0.56164618       0.21895545       0.83358136 </v>
   <v>       0.18821577       0.79108283       0.61077007 </v>
   <v>       0.93735397       0.12665200       0.65508365 </v>
   <v>       0.18767787       0.96033560       0.69982848 </v>
   <v>       0.18720877       0.12135857       0.43453868 </v>
   <v>       0.56283469       0.19847052       0.21120349 </v>
   <v>       0.93738802       0.29605649       0.74426366 </v>
   <v>       0.31269152       0.36715595       0.30002991 </v>
   <v>       0.18803980       0.60901178       0.16622264 </v>
   <v>       0.68819136       0.78217605       0.25567118 </v>
   <v>       0.56229420       0.87160966       0.52132362 </v>
   <v>       0.81291225       0.03211158       0.25567865 </v>
   <v>       0.68718550       0.94794519       0.21113504 </v>
   <v>       0.81235800       0.38002438       0.78862126 </v>
   <v>       0.68763667       0.44767638       0.21117156 </v>
   <v>       0.81190953       0.04520611       0.74438368 </v>
   <v>       0.06323260       0.86672869       0.30017080 </v>
   <v>       0.06299264       0.85898872       0.16626021 </v>
   <v>       0.18683289       0.95613525       0.56539188 </v>
   <v>       0.06314772       0.71024695       0.69970743 </v>
   <v>       0.56331539       0.21006775       0.69983537 </v>
   <v>       0.56247788       0.70156309       0.34516850 </v>
   <v>       0.31179793       0.71832996       0.83363039 </v>
   <v>       0.43770540       0.45222140       0.34510794 </v>
   <v>       0.81243445       0.70666244       0.56548167 </v>
   <v>       0.18809731       0.78668750       0.38920420 </v>
   <v>       0.06221374       0.70176058       0.34518061 </v>
   <v>       0.93706326       0.62590420       0.65498422 </v>
   <v>       0.93702029       0.79499060       0.74418134 </v>
   <v>       0.06267934       0.37156753       0.52141153 </v>
   <v>       0.06197391       0.87660688       0.65495294 </v>
   <v>       0.56321669       0.38032902       0.78878706 </v>
   <v>       0.43765024       0.45582553       0.47868195 </v>
   <v>       0.06260021       0.20613512       0.47871531 </v>
   <v>       0.06184676       0.37663870       0.65500045 </v>
   <v>       0.81378972       0.70989911       0.69992837 </v>
   <v>       0.68757869       0.60914588       0.16627234 </v>
   <v>       0.18696970       0.29567380       0.74440868 </v>
   <v>       0.31270422       0.87105743       0.43457777 </v>
   <v>       0.43713766       0.78164677       0.25559947 </v>
   <v>       0.68803069       0.96031307       0.69984075 </v>
   <v>       0.68738983       0.95641190       0.47879386 </v>
   <v>       0.56229621       0.37138226       0.52141080 </v>
   <v>       0.81194033       0.02743688       0.12376413 </v>
   <v>       0.93715867       0.44800019       0.21128209 </v>
   <v>       0.56295949       0.86695807       0.30010634 </v>
   <v>       0.68834690       0.12951871       0.78869155 </v>
   <v>       0.93736977       0.77644102       0.12375737 </v>
   <v>       0.68711733       0.62126615       0.43460764 </v>
   <v>       0.06337763       0.04115994       0.61071979 </v>
   <v>       0.68792630       0.12210127       0.52146835 </v>
   <v>       0.31211874       0.52753451       0.12369508 </v>
   <v>       0.31338135       0.55022239       0.87609181 </v>
   <v>       0.68760662       0.28561486       0.38921274 </v>
   <v>       0.06279952       0.21013566       0.69981498 </v>
   <v>       0.31341638       0.20966091       0.69982675 </v>
   <v>       0.93714034       0.78615710       0.38907434 </v>
   <v>       0.68806223       0.46066182       0.69970812 </v>
   <v>       0.81275879       0.70603639       0.47862259 </v>
   <v>       0.06281088       0.88044008       0.78886775 </v>
   <v>       0.06248534       0.37121015       0.43454287 </v>
   <v>       0.31227363       0.19881415       0.21125016 </v>
   <v>       0.06199027       0.04565757       0.74422489 </v>
   <v>       0.93735730       0.12132497       0.43447222 </v>
   <v>       0.31278749       0.38023547       0.78871434 </v>
   <v>       0.68643165       0.96826569       0.83378364 </v>
   <v>       0.81251762       0.35915807       0.16628224 </v>
   <v>       0.81181146       0.04900549       0.87626867 </v>
   <v>       0.81255933       0.36679610       0.30024560 </v>
   <v>       0.43783861       0.27656773       0.12372409 </v>
   <v>       0.56154712       0.53163006       0.25583369 </v>
   <v>       0.43780108       0.28605866       0.38911939 </v>
   <v>       0.81248349       0.03730000       0.38932807 </v>
   <v>       0.93633521       0.46899446       0.83450700 </v>
   <v>       0.68636204       0.95756600       0.56591475 </v>
   <v>       0.31185725       0.87648185       0.65482878 </v>
   <v>       0.81126743       0.20164510       0.34523171 </v>
   <v>       0.93860293       0.46029140       0.69971901 </v>
   <v>       0.81347203       0.88040387       0.78853259 </v>
   <v>       0.56268358       0.70622123       0.47870009 </v>
   <v>       0.43856524       0.28167086       0.25578915 </v>
   <v>       0.56373719       0.03769903       0.38899523 </v>
   <v>       0.43772052       0.78629573       0.38910167 </v>
   <v>       0.93887648       0.28147590       0.25554590 </v>
   <v>       0.93770468       0.78249641       0.25563374 </v>
   <v>       0.81242633       0.87160686       0.52124030 </v>
   <v>       0.31187140       0.53312025       0.25560985 </v>
   <v>       0.31143079       0.04543849       0.74429988 </v>
  </varray>
 </structure>
 <calculation>
  <scstep>
   <time name="dav">  147.43  147.43</time>
   <time name="total">  147.88  147.88</time>
   <energy>
    <i name="alphaZ">  16277.55763135 </i>
    <i name="ewald"> 710280.43685629 </i>
    <i name="hartreedc">-900651.03023015 </i>
    <i name="XCdc">  -6531.23811609 </i>
    <i name="pawpsdc"> 162148.49262465 </i>
    <i name="pawaedc">-159453.03229289 </i>
    <i name="eentropy">     -0.95300070 </i>
    <i name="bandstr">  39774.13720243 </i>
    <i name="atom"> 168497.18126305 </i>
    <i name="e_fr_energy">  30341.55193795 </i>
    <i name="e_wo_entrp">  30342.50493864 </i>
    <i name="e_0_energy">  30342.02843830 </i>
   </energy>
  </scstep>
  <scstep>
   <time name="dav">  140.86  140.86</time>
   <time name="total">  140.87  140.86</time>
   <energy>
    <i name="e_fr_energy">   1512.28849267 </i>
    <i name="e_wo_entrp">   1513.68252355 </i>
    <i name="e_0_energy">   1512.98550811 </i>
   </energy>
  </scstep>
  <scstep>
   <time name="dav">  176.09  176.08</time>
   <time name="total">  176.09  176.09</time>
   <energy>
    <i name="e_fr_energy">  -1901.03901209 </i>
    <i name="e_wo_entrp">  -1897.47175252 </i>
    <i name="e_0_energy">  -1899.25538230 </i>
   </energy>
  </scstep>
  <scstep>
   <time name="dav">  217.30  217.30</time>
   <time name="total">  217.31  217.30</time>
   <energy>
    <i name="e_fr_energy">  -2611.45243676 </i>
    <i name="e_wo_entrp">  -2607.96511758 </i>
    <i name="e_0_energy">  -2609.70877717 </i>
   </energy>
  </scstep>
  <scstep>
   <time name="dav">  208.65  208.65</time>
   <time name="total">  213.36  213.35</time>
   <energy>
    <i name="e_fr_energy">  -2740.96358776 </i>
    <i name="e_wo_entrp">  -2737.37822424 </i>
    <i name="e_0_energy">  -2739.17090600 </i>
   </energy>
  </scstep>
  <scstep>
   <time name="diag">   31.08   31.08</time>
   <time name="diis">   75.69   75.68</time>
   <time name="orth">    8.86    8.86</time>
   <time name="total">  120.62  120.62</time>
   <energy>
    <i name="e_fr_energy">  -6537.13919494 </i>
    <i name="e_wo_entrp">  -6533.43438194 </i>
    <i name="e_0_energy">  -6535.28678844 </i>
   </energy>
  </scstep>
  <scstep>
   <time name="diag">   30.19   30.18</time>
   <time name="diis">   77.65   77.64</time>
   <time name="orth">    8.67    8.67</time>
   <time name="total">  121.39  121.39</time>
   <energy>
    <i name="e_fr_energy">  -5774.92530770 </i>
    <i name="e_wo_entrp">  -5770.27590913 </i>
    <i name="e_0_energy">  -5772.60060841 </i>
   </energy>
  </scstep>
  <scstep>
[...]
    <v>       0.81248165       0.36708807       0.30036482 </v>
    <v>       0.43772667       0.27774496       0.12417001 </v>
    <v>       0.56253130       0.53157945       0.25596057 </v>
    <v>       0.43725155       0.28630420       0.38940824 </v>
    <v>       0.81258492       0.03649817       0.38948574 </v>
    <v>       0.93728710       0.46660460       0.83384667 </v>
    <v>       0.68722304       0.95711762       0.56616199 </v>
    <v>       0.31269014       0.87602671       0.65480287 </v>
    <v>       0.81237874       0.20148994       0.34528863 </v>
    <v>       0.93727079       0.46073394       0.69964316 </v>
    <v>       0.81224191       0.88048099       0.78813097 </v>
    <v>       0.56274295       0.70492926       0.47879419 </v>
    <v>       0.43778403       0.28143138       0.25588468 </v>
    <v>       0.56324960       0.03701189       0.38918377 </v>
    <v>       0.43728374       0.78580032       0.38932203 </v>
    <v>       0.93726906       0.28158339       0.25584024 </v>
    <v>       0.93735247       0.78249637       0.25589956 </v>
    <v>       0.81232140       0.87282681       0.52149606 </v>
    <v>       0.31261783       0.53215557       0.25584779 </v>
    <v>       0.31257423       0.04590558       0.74415801 </v>
   </varray>
  </structure>
  <varray name="forces" >
   <v>      -0.01154837       0.01257193      -0.02560027 </v>
   <v>      -0.00396938       0.01824735       0.06681381 </v>
   <v>       0.02268773       0.03655325       0.06351024 </v>
   <v>       0.00213903      -0.01184150       0.01169478 </v>
   <v>      -0.02595436       0.00382822       0.00089510 </v>
   <v>      -0.01400610      -0.00030238      -0.00832136 </v>
   <v>      -0.00082762       0.02177165       0.06234564 </v>
   <v>       0.00448058      -0.01376421      -0.05279331 </v>
   <v>      -0.00838301      -0.00377486       0.05619397 </v>
   <v>       0.00619563       0.00046239       0.00226503 </v>
   <v>      -0.00077379      -0.04425140      -0.03429172 </v>
   <v>      -0.01114889       0.01212166      -0.04433108 </v>
   <v>       0.00141051       0.00720633      -0.00258376 </v>
   <v>      -0.02334322       0.01045337       0.01366604 </v>
   <v>      -0.02570576       0.02176523      -0.00800790 </v>
   <v>       0.01198099      -0.04172315      -0.03703496 </v>
   <v>      -0.01326931      -0.01566979      -0.02007436 </v>
   <v>       0.01012366       0.00138122       0.02417290 </v>
   <v>      -0.00420645       0.01057377       0.01130144 </v>
   <v>       0.01044410       0.00883760      -0.03334407 </v>
   <v>      -0.00024531       0.00361966      -0.00732266 </v>
   <v>      -0.00180757       0.02907282       0.06589281 </v>
   <v>      -0.01026647       0.00620947      -0.01257229 </v>
   <v>      -0.00267311      -0.00631263      -0.02480707 </v>
   <v>       0.01491223      -0.00111732       0.00609474 </v>
   <v>      -0.00828507      -0.00925216       0.02892079 </v>
   <v>      -0.00441620      -0.00379921       0.05421921 </v>
   <v>       0.00464548      -0.00968459       0.01746076 </v>
   <v>      -0.01747900      -0.00831465       0.01075053 </v>
   <v>       0.00074567       0.00658128      -0.04144366 </v>
   <v>      -0.00461022       0.01583376       0.06411161 </v>
   <v>      -0.00959604       0.00481554      -0.02612509 </v>
   <v>       0.01419825       0.01118401      -0.03214596 </v>
   <v>       0.01620629       0.00242431       0.00391976 </v>
   <v>       0.00232272       0.01245184       0.00112327 </v>
   <v>      -0.02048485      -0.00445391       0.01013401 </v>
   <v>       0.00985701      -0.01371163      -0.04906920 </v>
   <v>      -0.00232915       0.01538084      -0.03926271 </v>
   <v>       0.00469786      -0.00642738      -0.01226758 </v>
   <v>      -0.01208813      -0.00125476       0.00648638 </v>
   <v>      -0.00362510       0.00547902      -0.05176112 </v>
   <v>      -0.00879168      -0.01217031       0.03267782 </v>
   <v>       0.00867420      -0.00855573      -0.02494975 </v>
   <v>       0.01073316       0.00190611      -0.01050802 </v>
   <v>       0.00566821      -0.00359161       0.02027775 </v>
   <v>      -0.01727968      -0.00674572      -0.00383744 </v>
   <v>       0.01072261      -0.00254779       0.02552594 </v>
   <v>      -0.00697498      -0.00382592       0.02297480 </v>
   <v>       0.01107603      -0.00236618       0.01275944 </v>
   <v>       0.00886889       0.00416217      -0.02474897 </v>
   <v>      -0.00660350       0.01100306      -0.00490176 </v>
   <v>      -0.00826804       0.01029074       0.00591911 </v>
   <v>       0.00037760       0.00813613      -0.01134198 </v>
   <v>       0.01340096       0.01618912       0.07649361 </v>
   <v>       0.00734607      -0.01501858      -0.03434022 </v>
   <v>      -0.01461714      -0.01703159      -0.05667584 </v>
   <v>      -0.00960692       0.02664127      -0.01426042 </v>
   <v>       0.00413691       0.01180513      -0.00031437 </v>
   <v>       0.00803015      -0.00071553      -0.00772967 </v>
   <v>      -0.00143746      -0.00540304      -0.00896008 </v>
   <v>       0.00982622      -0.00848907      -0.03776420 </v>
   <v>      -0.00025174       0.03278316       0.05381300 </v>
   <v>      -0.00121814       0.00592719       0.01500502 </v>
   <v>       0.00022544       0.00335091      -0.03652051 </v>
   <v>      -0.01289505      -0.01074171      -0.04378027 </v>
   <v>       0.00047460      -0.00851414       0.02926365 </v>
   <v>      -0.02485203       0.00817840      -0.03378606 </v>
   <v>       0.00628227      -0.00679557      -0.00253875 </v>
   <v>       0.01173617       0.01793212       0.00335918 </v>
   <v>      -0.00345043      -0.00263637      -0.00504965 </v>
   <v>       0.00243390      -0.01229132       0.01594509 </v>
   <v>      -0.00483039       0.01992039       0.06291291 </v>
   <v>      -0.00314178       0.00489435      -0.01720980 </v>
   <v>      -0.00889527       0.01157898      -0.00317160 </v>
   <v>       0.01147145      -0.00765482      -0.00142048 </v>
   <v>       0.00842207       0.00052973       0.01068184 </v>
   <v>       0.00015219      -0.00928631      -0.00408998 </v>
   <v>      -0.00706604       0.01271331      -0.00910845 </v>
   <v>       0.00088546      -0.00677026      -0.00518223 </v>
   <v>      -0.00079675       0.00326013      -0.02340545 </v>
   <v>       0.00646992      -0.00993976       0.00361156 </v>
   <v>      -0.02243021       0.01922926       0.06239722 </v>
   <v>       0.00625336      -0.01940382       0.03335615 </v>
   <v>      -0.01724803       0.01329179       0.00026306 </v>
   <v>      -0.01747174       0.01238165       0.05889687 </v>
   <v>      -0.00401667       0.00026108      -0.00693831 </v>
   <v>       0.00718290       0.01387620      -0.02255998 </v>
   <v>       0.00004917      -0.00335988      -0.03432593 </v>
   <v>      -0.01487562      -0.04456642      -0.03766936 </v>
   <v>      -0.00796015      -0.00878840      -0.00763639 </v>
   <v>       0.00584003       0.00531072      -0.03471660 </v>
   <v>      -0.01679155       0.01034253       0.00906374 </v>
   <v>       0.00319500      -0.02456706      -0.00024854 </v>
   <v>      -0.00228819      -0.00160129       0.01607516 </v>
   <v>      -0.00352778      -0.01398030       0.02303399 </v>
   <v>       0.00272344       0.00312763      -0.00755217 </v>
   <v>       0.01062353       0.01360742       0.00346009 </v>
   <v>       0.00464276       0.00895949      -0.05536249 </v>
   <v>       0.00590232      -0.00217890       0.02257237 </v>
   <v>       0.00830601       0.01664439      -0.01612961 </v>
   <v>       0.00660924      -0.00376869      -0.00103671 </v>
   <v>       0.01206002       0.00730868      -0.01419782 </v>
   <v>      -0.00653413       0.00043621       0.02691630 </v>
   <v>      -0.00410662      -0.00722511      -0.01233172 </v>
   <v>      -0.01308434       0.01250198      -0.03204117 </v>
   <v>      -0.00964876       0.00392001      -0.01412917 </v>
   <v>      -0.00377358      -0.01078949       0.01390363 </v>
   <v>      -0.00359886      -0.01349993       0.05295092 </v>
   <v>       0.01637829      -0.01056579       0.00253733 </v>
   <v>      -0.00929603      -0.00043802       0.03400966 </v>
   <v>       0.00898150      -0.00912367      -0.01189516 </v>
   <v>       0.00231590       0.00196976       0.02721950 </v>
   <v>       0.01840657       0.01560805       0.06725113 </v>
   <v>       0.00397012      -0.01630802      -0.03507683 </v>
   <v>       0.00123098      -0.01149062      -0.04471159 </v>
   <v>       0.01095477      -0.03909957      -0.03452255 </v>
   <v>      -0.01582232      -0.00585563      -0.00464402 </v>
   <v>       0.00240865      -0.01448572      -0.00905432 </v>
   <v>       0.00657483      -0.01120419      -0.03054360 </v>
   <v>       0.00545994       0.01243748      -0.03489101 </v>
   <v>       0.02186204      -0.04329934      -0.03562852 </v>
   <v>       0.01918487       0.02711817       0.06522631 </v>
   <v>      -0.00665360       0.01804496      -0.03794622 </v>
   <v>       0.01207347       0.01548947      -0.03232798 </v>
   <v>       0.00300056      -0.00922486       0.00643706 </v>
   <v>      -0.01111374      -0.01125227       0.01899224 </v>
   <v>      -0.00228863       0.01526347      -0.00049213 </v>
   <v>      -0.00799738      -0.01751456      -0.00646802 </v>
   <v>      -0.00444495      -0.00427936       0.02587543 </v>
   <v>      -0.00969247       0.01752149      -0.03028109 </v>
   <v>      -0.00006585      -0.00417590      -0.00003954 </v>
   <v>      -0.00387106       0.01367586      -0.04539061 </v>
   <v>      -0.00366302       0.01306029      -0.00087183 </v>
   <v>      -0.02884403       0.00282981       0.00311109 </v>
   <v>       0.00917896       0.02793383       0.05367707 </v>
   <v>      -0.00608749      -0.01512389      -0.03687606 </v>
   <v>       0.01430030       0.00951487      -0.00110211 </v>
   <v>       0.01470761       0.01695168       0.01820009 </v>
   <v>       0.00540779       0.00451795      -0.02858915 </v>
   <v>       0.01101189       0.00538123      -0.00949819 </v>
   <v>      -0.01701635      -0.01571107      -0.04126634 </v>
   <v>      -0.00035675       0.00029672      -0.01325777 </v>
   <v>      -0.00474578      -0.01173720      -0.00301335 </v>
   <v>       0.00594369       0.01448173      -0.00760057 </v>
   <v>       0.00831402       0.00973711      -0.02920264 </v>
   <v>      -0.01865094       0.00828944      -0.00382018 </v>
   <v>      -0.00119916       0.00318799      -0.02630569 </v>
   <v>      -0.00679244      -0.00304850       0.01804364 </v>
   <v>       0.02008121      -0.01556720      -0.00553427 </v>
   <v>       0.00001226      -0.00886694       0.02073157 </v>
   <v>      -0.00188245       0.00066356       0.01067356 </v>
   <v>       0.01618325       0.01029467      -0.03270334 </v>
   <v>      -0.00901896      -0.01113490       0.05265831 </v>
   <v>       0.01409699      -0.01736610      -0.01451680 </v>
   <v>      -0.02346483      -0.00879677       0.00787011 </v>
   <v>       0.00572751       0.00613929      -0.05399633 </v>
   <v>      -0.00469143       0.02133542       0.06253073 </v>
   <v>       0.00624954      -0.01166049      -0.03204581 </v>
   <v>      -0.00399745      -0.02076580      -0.00401329 </v>
   <v>       0.00453703       0.01081270      -0.01011989 </v>
   <v>       0.01520724       0.00429051      -0.00150789 </v>
   <v>      -0.00873932      -0.00466087       0.00377539 </v>
   <v>       0.00333351      -0.00382911       0.00586847 </v>
   <v>      -0.01269398       0.00947344       0.04953921 </v>
   <v>      -0.00863608       0.00718845       0.00663228 </v>
   <v>      -0.01198954       0.01404995       0.00439054 </v>
   <v>      -0.00244982       0.00548514       0.06828812 </v>
   <v>       0.00521968      -0.00588525       0.02331494 </v>
   <v>      -0.02007129      -0.02608558      -0.00498961 </v>
   <v>      -0.00774106      -0.00519556       0.01189988 </v>
   <v>      -0.00775569      -0.01602284      -0.00572959 </v>
   <v>      -0.00492516       0.00605747      -0.01137783 </v>
   <v>       0.00408618      -0.01605894       0.00201290 </v>
   <v>      -0.01316674      -0.00024236       0.01746414 </v>
   <v>       0.00937067      -0.01536809      -0.02650955 </v>
   <v>      -0.00517410      -0.00996674       0.01260024 </v>
   <v>       0.00527594      -0.00097630       0.00919974 </v>
   <v>      -0.00182112       0.01038654      -0.02612301 </v>
   <v>       0.00727772      -0.00873146      -0.02750999 </v>
   <v>       0.00715985      -0.00701405      -0.01399561 </v>
   <v>       0.00633546       0.00515534      -0.02455957 </v>
   <v>       0.01449229       0.01219103      -0.02340417 </v>
   <v>      -0.00906017       0.01672981      -0.04298643 </v>
   <v>       0.02594742      -0.00297298      -0.00574706 </v>
   <v>       0.00525449       0.00597419      -0.00462400 </v>
   <v>       0.00566138       0.00157692      -0.01067661 </v>
   <v>       0.00451121       0.01817637       0.06670947 </v>
   <v>      -0.00632563       0.00732178      -0.01337901 </v>
   <v>      -0.01562529      -0.03988106      -0.03339171 </v>
   <v>       0.02445430      -0.00754837       0.06688958 </v>
   <v>       0.00536172      -0.00987546       0.01360402 </v>
   <v>      -0.00173511       0.00443688       0.01861831 </v>
   <v>      -0.01727652       0.00553951      -0.04209940 </v>
   <v>       0.00156548      -0.00504294       0.02397263 </v>
   <v>       0.01323769      -0.00690427       0.00551107 </v>
   <v>      -0.00080790      -0.00563660      -0.00300410 </v>
   <v>      -0.00047876       0.01109650       0.00528124 </v>
   <v>      -0.01287259      -0.00446018       0.00975414 </v>
   <v>       0.00713080       0.00128786       0.01968803 </v>
   <v>       0.01474039      -0.01940720      -0.00527311 </v>
   <v>      -0.01358418      -0.00581945       0.01267780 </v>
   <v>       0.01356351       0.00143702      -0.00211142 </v>
   <v>      -0.00500861      -0.01372063      -0.00911444 </v>
   <v>       0.01108716      -0.00447792      -0.00829946 </v>
   <v>      -0.00058105      -0.00154956       0.02355568 </v>
   <v>      -0.00068284       0.01966469       0.05047836 </v>
   <v>      -0.00035142       0.01646564      -0.05279282 </v>
   <v>      -0.02576073      -0.01346580      -0.00953043 </v>
   <v>       0.00828475      -0.00857018       0.00650239 </v>
   <v>      -0.00360014      -0.01232306       0.02348274 </v>
   <v>      -0.01565536      -0.02469461      -0.00638843 </v>
   <v>       0.00753952       0.00759245       0.01918447 </v>
   <v>      -0.00049636       0.01086773       0.06570885 </v>
   <v>      -0.01242101       0.00706465      -0.03433971 </v>
   <v>       0.00301025      -0.00617817       0.06548313 </v>
   <v>      -0.01262921      -0.01523682      -0.04517505 </v>
   <v>      -0.00032133      -0.00794452       0.00276458 </v>
   <v>       0.01457056       0.00390388      -0.00755878 </v>
   <v>      -0.00442513       0.00398040      -0.02328117 </v>
   <v>      -0.00306868      -0.00999129       0.00019540 </v>
   <v>      -0.00995335      -0.00379688      -0.00701192 </v>
   <v>       0.02020102      -0.00668338      -0.00900630 </v>
   <v>       0.00490978      -0.00825789       0.01070974 </v>
   <v>       0.00772828       0.00835553       0.00281239 </v>
   <v>      -0.00510294       0.00493595      -0.01651021 </v>
   <v>      -0.00623491      -0.00547207       0.02464009 </v>
   <v>      -0.02353674      -0.00284266      -0.00496368 </v>
   <v>       0.00183806       0.01084294       0.00642562 </v>
   <v>       0.00126608      -0.01375887      -0.05003337 </v>
   <v>      -0.00348965      -0.00557505      -0.00615215 </v>
   <v>       0.00627488      -0.00112449       0.00567813 </v>
   <v>      -0.01008305       0.00484201      -0.03936214 </v>
   <v>      -0.00692571       0.01255649      -0.03835757 </v>
   <v>      -0.00552491       0.01738123      -0.03816503 </v>
   <v>       0.00928246       0.01524260       0.00195209 </v>
   <v>       0.01847567       0.00144666       0.00707095 </v>
   <v>      -0.00479978       0.00336197      -0.00235879 </v>
   <v>       0.01628076       0.01158865      -0.03323901 </v>
   <v>      -0.00008166      -0.00239362       0.03005885 </v>
   <v>      -0.01187052       0.00248684       0.01360435 </v>
   <v>      -0.00276433      -0.00286337      -0.01128674 </v>
   <v>       0.02383385       0.02063704      -0.04784446 </v>
   <v>       0.00146453      -0.01217623      -0.00146883 </v>
   <v>      -0.00517320       0.02512233       0.06678365 </v>
   <v>       0.01575694       0.00901579       0.06865997 </v>
   <v>       0.01470277      -0.02255959       0.00702762 </v>
   <v>      -0.00660406      -0.00583556      -0.03816514 </v>
   <v>       0.00139116       0.00274983       0.06003440 </v>
   <v>      -0.00287202      -0.00365542       0.02670601 </v>
   <v>       0.00791060       0.00684027      -0.01656473 </v>
   <v>      -0.00770479      -0.00821454      -0.01217226 </v>
   <v>       0.00014096       0.02967665       0.06958063 </v>
   <v>       0.01339582      -0.04131563      -0.03708894 </v>
   <v>       0.00499898       0.00080461       0.00786995 </v>
   <v>       0.00270063       0.01158906      -0.01299479 </v>
   <v>       0.01336221       0.01189333       0.00036433 </v>
   <v>      -0.00661694      -0.00864584       0.01405059 </v>
   <v>      -0.00031314       0.01672129       0.00472934 </v>
   <v>       0.00687052       0.01976843      -0.03044496 </v>
   <v>       0.00033009      -0.01290521      -0.02791504 </v>
   <v>       0.00476340      -0.00808177       0.01466148 </v>
   <v>      -0.02268017       0.02178334       0.04762041 </v>
   <v>       0.00846731      -0.00652897      -0.05325292 </v>
   <v>       0.00862798      -0.00712983       0.01988214 </v>
   <v>       0.01023973       0.00666878      -0.03290460 </v>
   <v>      -0.00547600      -0.01744359       0.01562464 </v>
   <v>       0.00181999       0.00869227      -0.00868254 </v>
   <v>      -0.00745329      -0.04513314      -0.03081330 </v>
   <v>       0.01049766       0.00072667       0.01879012 </v>
   <v>      -0.00383897       0.00742467       0.07021569 </v>
   <v>       0.00981569       0.00337530       0.02014970 </v>
   <v>      -0.00035009       0.00245189       0.01789505 </v>
   <v>       0.00703249       0.00124686       0.01522764 </v>
   <v>      -0.00022039      -0.01295799      -0.00576906 </v>
   <v>      -0.00939648       0.01246825      -0.00497350 </v>
   <v>      -0.00435004      -0.00318107      -0.00531239 </v>
   <v>      -0.00266071       0.00710878       0.01043749 </v>
   <v>       0.02196042       0.02088282      -0.00900886 </v>
   <v>       0.00142907       0.00619777      -0.03835214 </v>
   <v>      -0.00396071       0.02116070      -0.03539785 </v>
   <v>      -0.00273422      -0.01511604       0.01772101 </v>
   <v>       0.01073311       0.00285027       0.02326001 </v>
   <v>       0.01026520      -0.00619027       0.02570420 </v>
   <v>       0.03434234      -0.00107271       0.02181804 </v>
   <v>       0.01595183      -0.01269033       0.03107888 </v>
   <v>      -0.00667050      -0.02191104      -0.00205489 </v>
   <v>      -0.02752255       0.00622216       0.02031785 </v>
   <v>      -0.00321537       0.00152468      -0.05835181 </v>
  </varray>
  <varray name="stress" >
   <v>      -8.73734252       0.07461419       0.13267519 </v>
   <v>       0.07461332      -4.27315877      -6.17454460 </v>
   <v>       0.13267528      -6.17454516     -31.03699387 </v>
  </varray>
  <energy>
   <i name="e_fr_energy">  -2325.72338876 </i>
   <i name="e_wo_entrp">  -2322.93784934 </i>
   <i name="e_0_energy">     -5.57107885 </i>
  </energy>
  <time name="totalsc"> 2447.19 2447.16</time>
 </calculation>
